      -----------------------------------------------------------      
     |                   =====================                   |     
     |                           x T B                           |     
     |                   =====================                   |     
     |                         S. Grimme                         |     
     |          Mulliken Center for Theoretical Chemistry        |     
     |                    University of Bonn                     |     
     |                 Version 6.0.1 (SAW181210)                 |     
      -----------------------------------------------------------      

   This program is distributed in the hope that it will be useful,
   but WITHOUT ANY WARRANTY; without even the implied warranty of
   MERCHANTABILITY or FITNESS FOR A PARTICULAR PURPOSE.
   
   FOR NON-COMMERCIAL, ACADEMIA USE ONLY.
   
   Cite this work as:
   S. Grimme, C. Bannwarth, P. Shushkov, J. Comput. Theory Chem., 2017,
   13, 1989-2009.
   C. Bannwarth, S. Ehlert and S. Grimme., ChemRxiv, 2018, preprint.
   http://doi.org/10.26434/chemrxiv.7246238.v1
   
   for sTDA-xTB:
   S. Grimme and C. Bannwarth, J. Chem. Phys., 2016, 145, 054103.
   
   in the mass-spec context:
   V. Asgeirsson, C. Bauer and S. Grimme, Chem. Sci., 2017, 8, 4879.
   
   if GBSA is used:
   P. Shushkov, F. März and S. Grimme, unpublished.
   
   for ANC optimizer:
   S. Grimme, unpublished.
   Rational Function algorithm used in ANCopt:
   F. Eckert, P. Pulay, H.-J. Werner, J. Comput. Chem., 1997, 18, 1473.
   
   with help from (in alphabetical order)
   C. Bannwarth, F. Bohle, G. Brandenburg, E. Caldeweyher, M. Checinski,
   S. Dohm, S. Ehlert, S. Ehrlich, F. März, H. Neugebauer, J. Pisarek,
   P. Pracht, P. Shushkov, and S. Spicher.
   
 * started run on 2019/05/12 at 12:15:50.484     
========================================================================
 # omp threads = 2
========================================================================
number of atoms            : 222
number of electrons        : 590
charge                     : 0
spin                       : .0
first test random number   : .8037

########################################################################
# WARNING! Please study the warnings concerning your input carefully
#  - Process number higher than OMP_NUM_THREADS, I hope you know what you are doing.
########################################################################

           ------------------------------------------------- 
          |                 G F N 2 - x T B                 |
          | Geometry, Frequencies, Noncovalent interactions |
          |            JCTC 2018 parametrisation            |
           ------------------------------------------------- 
 
      method parameters     
 k(s)        :  1.8500
 k(p)        :  2.2300
 k(d)        :  2.2300
 k(f)        :  2.0000
 kEN (H0ij)  : -2.0000
 D4 a1       :  0.5200
 D4 a2       :  5.0000
 D4 s6       :  1.0000
 D4 s8       :  2.7000
 D4 s9       :  5.0000
 alphaj      :  2.0000

 Solvent             : h2o
 Using internal parameter file: .param_gbsa2_h2o
 Gsolv ref. state (COSMO-RS): gsolv [1 M gas/solution]
 temperature (mdtemp)       :    298.150000000000     
 dielectric constant        :    80.2000000000000     
 rho                        :    1.00000000000000     
 mass                       :    18.0000000000000     
 surface tension            :    15.5689454083859     
 probe radius               :   0.975313790000000     
 vdW radii scaling          :    1.00000000000000     
 Gshift (Eh)                :   1.857443126794793E-003
 c1                         :    1.55243817000000     
 soset                      :   0.130326360000000     
 HB correction              :  T

            Z     q(EN)     CN     RAES       Cart. coordinates
     1  N   5.0   -0.21    3.28    1.98    -5.83771    74.81460   145.44761
     2  C   4.0    0.04    4.29    4.17    -6.25846    74.33694   148.11726
     3  C   4.0    0.15    3.34    3.06    -4.26013    72.48972   149.26599
     4  O   6.0   -0.30    1.20    1.80    -4.73085    71.20237   151.17505
     5  C   4.0   -0.03    4.30    4.20    -8.94032    73.27642   148.51147
     6  C   4.0    0.15    3.23    3.04    -9.52693    70.97204   146.83291
     7  O   6.0   -0.30    1.24    1.80    -8.60945    70.69306   144.63569
     8  N   5.0   -0.18    3.16    1.95   -11.11638    69.35592   147.91094
     9  H   1.0    0.12    1.08    1.44    -6.48686    73.45082   144.29048
    10  H   1.0    0.05    1.06    1.44    -6.06095    76.10220   149.13261
    11  H   1.0    0.06    1.04    1.43    -9.14239    72.72968   150.47577
    12  H   1.0    0.05    1.04    1.43   -10.29701    74.71517   148.03922
    13  H   1.0    0.10    1.00    1.43   -11.72545    67.81497   146.76107
    14  H   1.0    0.09    1.05    1.44   -11.89612    69.59016   149.51384
    15  N   5.0   -0.13    3.48    2.06    -2.03499    72.44571   148.04136
    16  C   4.0    0.03    4.36    4.31     0.07750    70.79146   148.63269
    17  C   4.0    0.15    3.39    3.08     2.43744    72.42464   149.26307
    18  O   6.0   -0.29    1.24    1.80     2.73389    74.57278   148.46641
    19  C   4.0   -0.04    4.24    4.08     0.68097    69.10266   146.33679
    20  C   4.0   -0.04    4.16    3.93    -1.54473    67.51227   145.43379
    21  C   4.0   -0.05    4.14    3.87    -1.87202    64.94697   146.74787
    22  C   4.0   -0.04    4.10    3.80    -0.59076    62.76837   145.25153
    23  N   5.0   -0.12    4.01    2.89    -1.99166    60.39108   145.67211
    24  H   1.0    0.09    1.08    1.44    -1.77918    73.57868   146.52485
    25  H   1.0    0.06    1.06    1.44    -0.46729    69.67481   150.27404
    26  H   1.0    0.05    1.03    1.43     1.23693    70.38724   144.80141
    27  H   1.0    0.05    1.03    1.43     2.29179    67.92022   146.80844
    28  H   1.0    0.06    1.03    1.43    -3.27883    68.63511   145.70381
    29  H   1.0    0.04    1.03    1.43    -1.36839    67.22658   143.40657
    30  H   1.0    0.05    1.03    1.43    -1.14204    65.08054   148.66042
    31  H   1.0    0.05    1.03    1.43    -3.89837    64.57309   146.84396
    32  H   1.0    0.04    1.03    1.43    -0.59943    63.18208   143.27222
    33  H   1.0    0.04    1.02    1.43     1.35091    62.52695   145.91418
    34  H   1.0    0.05    1.02    1.43    -1.39066    58.85877   144.65399
    35  H   1.0    0.05    1.01    1.43    -1.90667    59.85773   147.59519
    36  H   1.0    0.06    1.02    1.43    -3.90175    60.65464   145.30722
    37  N   5.0   -0.14    3.47    2.06     4.16768    71.26873   150.67230
    38  C   4.0    0.04    4.39    4.37     6.37201    72.59278   151.55286
    39  C   4.0    0.08    3.25    3.04     8.74284    71.61700   150.28845
    40  O   6.0   -0.31    1.19    1.80     9.31969    69.36854   150.31927
    41  C   4.0   -0.02    4.32    4.24     6.64958    72.22002   154.50844
    42  C   4.0   -0.04    4.17    3.95     4.51338    73.65600   155.88379
    43  C   4.0   -0.07    4.13    3.86     9.23305    73.13237   155.39237
    44  C   4.0   -0.07    4.02    3.66     3.98127    72.56947   158.46770
    45  H   1.0    0.11    1.10    1.44     3.80981    69.52198   151.45409
    46  H   1.0    0.06    1.07    1.44     6.07511    74.58895   151.19426
    47  H   1.0    0.06    1.05    1.44     6.45651    70.20520   154.89267
    48  H   1.0    0.05    1.03    1.43     5.00679    75.63443   155.99176
    49  H   1.0    0.05    1.02    1.43     2.77826    73.47721   154.72175
    50  H   1.0    0.05    1.01    1.43     9.37623    72.93719   157.41506
    51  H   1.0    0.05    1.01    1.43    10.73706    72.05624   154.52247
    52  H   1.0    0.05    1.00    1.43     9.47900    75.12806   154.91265
    53  H   1.0    0.04    1.00    1.43     2.33869    73.52259   159.29739
    54  H   1.0    0.05    1.00    1.43     3.60098    70.56629   158.36603
    55  H   1.0    0.06    1.01    1.43     5.56233    72.88776   159.72431
    56  N   5.0   -0.21    3.29    1.98     6.94982    64.69136   149.76134
    57  C   4.0    0.03    4.39    4.37     6.16564    63.39849   151.96513
    58  C   4.0    0.14    3.48    3.11     3.59550    64.30593   152.89923
    59  O   6.0   -0.31    1.31    1.80     3.13071    66.55730   153.05249
    60  C   4.0   -0.02    4.25    4.10     8.21716    63.78257   154.10655
    61  C   4.0   -0.08    4.11    3.82     7.80445    61.84577   156.24229
    62  C   4.0   -0.07    4.14    3.88    10.84702    63.40458   153.00079
    63  H   1.0    0.12    1.08    1.44     7.59804    66.47564   149.96739
    64  H   1.0    0.03    1.06    1.44     6.10870    61.37022   151.52016
    65  H   1.0    0.05    1.06    1.44     8.05064    65.67637   154.81716
    66  H   1.0    0.04    1.01    1.43     9.31696    62.03604   157.57141
    67  H   1.0    0.05    1.00    1.43     6.00153    62.16382   157.14155
    68  H   1.0    0.03    1.00    1.43     7.88140    59.93934   155.44498
    69  H   1.0    0.04    1.01    1.43    12.22590    63.36588   154.49875
    70  H   1.0    0.03    0.99    1.43    10.94154    61.54044   152.03023
    71  H   1.0    0.05    1.01    1.43    11.32343    64.84403   151.65577
    72  N   5.0   -0.10    3.62    2.17     1.82684    62.52223   153.43066
    73  C   4.0    0.03    4.58    4.64    -0.49493    63.21469   154.75091
    74  C   4.0    0.17    3.43    3.09    -0.02541    64.98459   157.03911
    75  O   6.0   -0.30    1.25    1.80     1.68344    64.77502   158.45774
    76  C   4.0   -0.04    4.33    4.26    -1.59168    60.67540   155.73453
    77  C   4.0   -0.04    4.26    4.12    -0.49254    58.75026   153.91445
    78  C   4.0   -0.02    4.37    4.33     2.10797    59.79239   153.35880
    79  H   1.0    0.04    1.05    1.44    -1.77338    64.13315   153.42663
    80  H   1.0    0.06    1.02    1.43    -0.87020    60.36028   157.65931
    81  H   1.0    0.06    1.02    1.43    -3.61599    60.74008   155.86846
    82  H   1.0    0.05    1.02    1.43    -0.42129    56.86048   154.70009
    83  H   1.0    0.04    1.03    1.43    -1.61256    58.72648   152.19053
    84  H   1.0    0.04    1.00    1.43     3.43246    59.17700   154.91173
    85  H   1.0    0.03    1.04    1.43     2.90055    59.18554   151.60696
    86  N   5.0   -0.14    3.50    2.07    -1.90564    66.69888   157.28888
    87  C   4.0    0.03    4.39    4.36    -1.99149    68.52446   159.30966
    88  C   4.0    0.15    3.44    3.09    -1.72319    67.21064   161.85941
    89  O   6.0   -0.32    1.27    1.80    -0.26969    68.09291   163.52977
    90  C   4.0   -0.04    4.29    4.17    -4.43613    70.07119   159.01105
    91  C   4.0   -0.03    4.23    4.06    -4.44563    72.54580   160.47380
    92  C   4.0    0.14    3.25    3.04    -6.44394    74.25463   159.55104
    93  O   6.0   -0.27    1.15    1.80    -8.85871    73.57526   159.69545
    94  N   5.0   -0.19    3.14    1.94    -5.69075    76.43410   158.58892
    95  H   1.0    0.08    1.07    1.44    -3.38582    66.69367   156.07505
    96  H   1.0    0.05    1.06    1.44    -0.35863    69.79235   159.12958
    97  H   1.0    0.06    1.04    1.43    -4.59850    70.51851   157.00034
    98  H   1.0    0.06    1.03    1.43    -6.05835    68.92063   159.54471
    99  H   1.0    0.05    1.03    1.43    -4.77341    72.15141   162.48986
   100  H   1.0    0.04    1.04    1.43    -2.60844    73.47620   160.28242
   101  H   1.0    0.09    1.06    1.44    -4.04404    76.96353   158.51056
   102  H   1.0    0.10    0.98    1.43    -7.17697    77.71405   157.93285
   103  N   5.0   -0.14    3.55    2.11    -3.06109    65.12983   162.22849
   104  C   4.0    0.04    4.44    4.45    -3.04737    63.84541   164.61630
   105  C   4.0    0.14    3.42    3.08    -1.83367    61.28894   164.43580
   106  O   6.0   -0.28    1.21    1.80    -2.95787    59.20589   164.69790
   107  C   4.0   -0.04    4.23    4.06    -5.74614    63.64369   165.78347
   108  C   4.0   -0.03    4.18    3.97    -7.92737    63.91182   163.86214
   109  C   4.0    0.26    3.13    3.03    -7.80329    61.93833   161.70428
   110  O   6.0   -0.31    1.33    1.80    -6.35564    62.43575   159.88435
   111  O   6.0   -0.27    1.17    1.80    -9.17515    60.07287   161.84963
   112  H   1.0    0.12    1.19    1.46    -4.28063    64.32944   160.91372
   113  H   1.0    0.05    1.07    1.44    -1.89936    65.01560   165.90881
   114  H   1.0    0.07    1.04    1.43    -5.88052    61.80737   166.68586
   115  H   1.0    0.04    1.02    1.43    -5.98058    65.12526   167.21269
   116  H   1.0    0.06    1.03    1.43    -9.68880    63.62635   164.90227
   117  H   1.0    0.05    1.02    1.43    -7.91632    65.79835   163.03673
   118  N   5.0   -0.13    3.49    2.07     0.68815    61.47303   164.11980
   119  C   4.0    0.03    4.31    4.22     2.30050    59.21673   164.25624
   120  C   4.0    0.07    3.21    3.04     4.17527    59.66145   166.45458
   121  O   6.0   -0.32    1.20    1.80     5.14820    61.74485   166.75003
   122  C   4.0   -0.04    4.35    4.30     3.82129    58.91153   161.78374
   123  C   4.0   -0.03    4.17    3.94     4.68342    56.20775   161.33481
   124  C   4.0   -0.07    4.10    3.80     2.41727    54.44055   160.90336
   125  C   4.0   -0.08    4.10    3.81     6.41311    56.17982   158.99416
   126  H   1.0    0.10    1.08    1.44     1.50310    63.09784   163.90230
   127  H   1.0    0.06    1.07    1.44     1.12268    57.60391   164.63545
   128  H   1.0    0.05    1.04    1.43     2.61137    59.52645   160.25782
   129  H   1.0    0.05    1.03    1.43     5.44623    60.16673   161.87314
   130  H   1.0    0.04    1.04    1.43     5.74012    55.54114   163.00486
   131  H   1.0    0.05    1.00    1.43     3.06581    52.63677   160.17163
   132  H   1.0    0.05    1.00    1.43     1.43676    54.09533   162.68573
   133  H   1.0    0.05    1.01    1.43     1.10716    55.28349   159.59656
   134  H   1.0    0.04    0.99    1.43     7.14859    54.22560   158.75031
   135  H   1.0    0.04    1.02    1.43     5.42019    56.71428   157.37516
   136  H   1.0    0.03    1.00    1.43     8.04369    57.38715   159.32966
   137  N   5.0   -0.18    3.22    1.96     4.87274    66.10573   173.45115
   138  C   4.0    0.03    4.34    4.27     3.92433    66.10721   170.92262
   139  C   4.0    0.17    3.45    3.10     5.58802    67.79431   169.14678
   140  O   6.0   -0.27    1.24    1.80     6.76506    69.61521   169.86877
   141  C   4.0    0.05    4.23    4.07     1.21251    67.23748   170.79030
   142  O   6.0   -0.24    2.09    1.84     1.26011    69.86199   171.32761
   143  C   4.0   -0.07    4.07    3.75    -0.58623    65.78173   172.49786
   144  H   1.0    0.09    1.03    1.43     4.31530    67.57985   174.56154
   145  H   1.0    0.05    1.05    1.44     3.93034    64.16128   170.18959
   146  H   1.0    0.05    1.03    1.43     0.57732    67.11452   168.80229
   147  H   1.0    0.12    1.01    1.43     1.61544    70.00608   173.16931
   148  H   1.0    0.05    1.00    1.43    -2.49462    66.48571   172.23086
   149  H   1.0    0.04    1.00    1.43    -0.52161    63.78960   172.07986
   150  H   1.0    0.04    1.00    1.43    -0.04109    66.10086   174.46133
   151  N   5.0   -0.14    3.53    2.10     5.45343    67.08865   166.72149
   152  C   4.0    0.04    4.53    4.58     6.77627    68.45433   164.85658
   153  C   4.0    0.16    3.49    3.11     5.84377    71.18075   164.67029
   154  O   6.0   -0.28    1.27    1.80     7.19743    72.88019   164.08524
   155  C   4.0   -0.04    4.37    4.32     6.57283    67.11695   162.29791
   156  C   4.0   -0.04    4.10    3.80     8.18635    64.75044   162.32947
   157  S   6.0   -0.03    2.59    3.10    11.51840    65.61049   162.34272
   158  C   4.0   -0.07    3.90    3.46    12.75301    62.49173   162.55193
   159  H   1.0    0.10    1.10    1.44     4.85109    65.28476   166.32014
   160  H   1.0    0.06    1.09    1.44     8.80162    68.59629   165.30315
   161  H   1.0    0.06    1.02    1.43     4.58040    66.64227   161.90937
   162  H   1.0    0.05    1.04    1.43     7.20754    68.37503   160.79333
   163  H   1.0    0.06    1.08    1.44     7.82536    63.62161   163.99811
   164  H   1.0    0.04    1.07    1.44     7.82020    63.64307   160.62961
   165  H   1.0    0.05    1.04    1.44    14.74394    62.63605   163.08371
   166  H   1.0    0.05    1.04    1.43    11.73866    61.49996   164.07503
   167  H   1.0    0.04    1.05    1.44    12.56190    61.51627   160.78715
   168  N   5.0   -0.13    3.55    2.11     3.39936    71.51288   165.15650
   169  C   4.0    0.04    4.26    4.12     2.32599    74.01228   165.23156
   170  C   4.0    0.10    3.29    3.05     3.77430    75.49444   167.19887
   171  O   6.0   -0.25    1.09    1.80     4.72307    77.69557   166.63038
   172  C   4.0   -0.07    4.11    3.82    -0.47265    73.83632   165.97978
   173  H   1.0    0.11    1.11    1.45     2.19137    70.03198   165.20086
   174  H   1.0    0.06    1.05    1.44     2.56079    74.96544   163.40169
   175  H   1.0    0.05    1.00    1.43    -1.35724    75.68911   165.78656
   176  H   1.0    0.05    1.01    1.43    -1.39652    72.50832   164.72426
   177  H   1.0    0.06    1.01    1.43    -0.64947    73.17815   167.89072
   178  N   5.0   -0.19    3.31    1.99     6.59067    54.78736   143.95313
   179  C   4.0    0.03    4.48    4.51     6.94308    53.57799   146.42760
   180  C   4.0    0.14    3.47    3.10     5.17934    51.28441   146.79923
   181  O   6.0   -0.28    1.24    1.80     3.96049    50.29682   145.02305
   182  C   4.0   -0.02    4.48    4.51     6.35526    55.65082   148.17719
   183  C   4.0   -0.05    4.18    3.96     7.67044    55.48903   150.71741
   184  C   4.0   -0.07    4.20    3.99     3.48908    56.02889   148.24800
   185  C   4.0   -0.08    4.04    3.69    10.48312    54.99699   150.36980
   186  H   1.0    0.08    1.06    1.44     5.30306    56.09698   143.86357
   187  H   1.0    0.04    1.05    1.44     8.88746    52.84730   146.43134
   188  H   1.0    0.03    1.09    1.44     7.21109    57.34539   147.32032
   189  H   1.0    0.03    1.02    1.43     7.43568    57.34998   151.66580
   190  H   1.0    0.05    1.02    1.43     6.80935    54.13592   152.03950
   191  H   1.0    0.06    1.02    1.43     2.67833    55.37978   150.01191
   192  H   1.0    0.03    0.99    1.43     3.09789    58.08148   148.06584
   193  H   1.0    0.05    1.02    1.43     2.54481    55.09770   146.71501
   194  H   1.0    0.04    0.96    1.43    11.44516    55.31829   152.27927
   195  H   1.0    0.04    1.01    1.43    10.86545    53.06605   149.91610
   196  H   1.0    0.04    1.02    1.43    11.29584    56.28744   149.09149
   197  N   5.0   -0.14    3.43    2.04     5.06656    50.38225   149.07218
   198  C   4.0    0.01    4.27    4.14     2.88970    48.85800   149.85077
   199  C   4.0    0.15    3.33    3.06     1.33566    50.38215   151.75558
   200  O   6.0   -0.32    1.29    1.80     2.03825    52.41346   152.52676
   201  H   1.0    0.08    1.11    1.45     5.84092    51.36070   150.49094
   202  H   1.0    0.06    1.04    1.43     1.78488    48.39072   148.19325
   203  H   1.0    0.05    1.01    1.43     3.53725    47.07666   150.75843
   204  N   5.0   -0.14    3.47    2.06    -0.77785    49.27229   152.55291
   205  C   4.0    0.04    4.28    4.17    -2.07364    50.20745   154.81046
   206  C   4.0    0.08    3.19    3.03    -2.88294    47.83914   156.29635
   207  O   6.0   -0.28    1.15    1.80    -3.25317    45.83273   155.12499
   208  C   4.0    0.04    4.09    3.78    -4.26197    52.02463   154.08643
   209  O   6.0   -0.25    2.03    1.83    -4.40386    53.97413   155.95047
   210  H   1.0    0.10    1.08    1.44    -1.26922    47.49459   152.01830
   211  H   1.0    0.06    1.07    1.44    -0.71571    51.31507   155.88467
   212  H   1.0    0.05    1.01    1.43    -3.83307    52.78492   152.20157
   213  H   1.0    0.05    1.01    1.43    -6.05055    50.98938   153.97537
   214  H   1.0    0.13    1.03    1.43    -5.36797    55.32359   155.26043
   215  H   1.0    0.10    1.07    1.44    -6.61937    76.25688   144.99884
   216  H   1.0    0.06    1.05    1.44     9.89677    72.81490   149.39150
   217  H   1.0    0.09    1.09    1.44     8.22057    63.83552   149.02291
   218  H   1.0    0.05    1.04    1.43     4.59600    58.24939   167.63785
   219  H   1.0    0.09    1.08    1.44     4.36096    64.69339   174.24862
   220  H   1.0    0.07    1.04    1.43     4.00416    74.78609   168.93567
   221  H   1.0    0.09    1.07    1.44     8.04420    55.52688   143.47050
   222  H   1.0    0.06    1.04    1.43    -3.10280    47.92926   158.17108

  Z AO/shell   Hii/eV     exponent
  1     Wed Apr 25 08:07:45 CEST 2018   EN: 2.200 GM2: 0.406  GM3: 0.0800  RAES: 1.40
     1s    -10.707211    1.230000
  6     Wed Apr 25 08:07:45 CEST 2018   EN: 2.550 GM2: 0.538  GM3: 0.1500  RAES: 3.00
     2s    -13.970922    2.096432
     2p    -10.063292    1.800000
  7     Wed Apr 25 08:07:45 CEST 2018   EN: 3.040 GM2: 0.461  GM3:-0.0640  RAES: 1.90
     2s    -16.686243    2.339881
     2p    -12.523956    2.014332
  8     Wed Apr 25 08:07:45 CEST 2018   EN: 3.440 GM2: 0.452  GM3:-0.0517  RAES: 1.80
     2s    -20.229985    2.439742
     2p    -15.503117    2.137023
 16     Tue Apr 24 11:44:34 CEST 2018   EN: 2.580 GM2: 0.340  GM3:-0.0502  RAES: 3.10
     3s    -20.029654    1.981333
     3p    -11.377694    2.025643
     3d     -0.420282    1.702555
 no old-style atom pair restraining (fixing) potential

molecular fragmentation (1/2 indicates fragments):
111111111111111111111111111111111111111111111111111111122222222222222222
222222222222222222222222222222222222222222222222222222222222222222222222
222222222222222222222222222222222222222222222222222222222222222222222211
222222
# atoms in fragment 1/2:    57   165
 fragment masses (1/2) :      358.46     1132.36
CMA distance (Bohr)    :  13.167
constraining FC (au)   :  0.0500
           ------------------------------------------------- 
          |        Self-Consistent Charge Iterations        |
           ------------------------------------------------- 

 Ncao       : 537
 Nao        : 536
 Nshell     : 326
 Nel        : 590
 T(el)      :   500.0
 intcut     :    35.0
 scfconv/Eh :  0.100E-06
   qconv/e  :  0.100E-04
 intneglect :  0.100E-08
 broydamp   :      0.400
 iter      E             dE          RMSdq      gap      omega  full diag
   1   -337.1936524 -0.337194E+03  0.465E+00    2.29       0.0  T
   2   -338.0530165 -0.859364E+00  0.215E+00    1.03       1.0  T
   3   -338.1064870 -0.534705E-01  0.126E+00    1.52       1.0  T
   4   -338.1687230 -0.622360E-01  0.287E-01    0.89       1.0  T
   5   -338.1735725 -0.484952E-02  0.147E-01    1.02       1.0  T
   6   -338.1746795 -0.110694E-02  0.632E-02    1.04       1.0  T
   7   -338.1748713 -0.191877E-03  0.243E-02    0.99       1.0  T
   8   -338.1748908 -0.194467E-04  0.120E-02    0.98       1.0  T
   9   -338.1748965 -0.568243E-05  0.463E-03    0.97       1.4  T
  10   -338.1748974 -0.897457E-06  0.208E-03    0.97       3.2  T
  11   -338.1748975 -0.172530E-06  0.782E-04    0.97       8.6  T
  12   -338.1748976 -0.196470E-07  0.357E-04    0.97      18.8  T
  13   -338.1748976 -0.531634E-08  0.167E-04    0.97      40.2  T
  14   -338.1748976 -0.664500E-09  0.779E-05    0.97      86.1  T
  15   -338.1748976 -0.212253E-09  0.348E-05    0.97     192.6  T
speedup  2.00
cpu  time for SCC    3.68 s
wall time for SCC    1.84 s

   *** convergence criteria satisfied after 15 iterations ***

          eigenvalues
 #    :         283        284        285        286        287        288        289        290
 occ. :        2.000      2.000      2.000      2.000      2.000      2.000      2.000      2.000
 eps  :       -10.820    -10.766    -10.692    -10.650    -10.626    -10.533    -10.519    -10.052
 #    :         291        292        293        294        295        296        297        298
 occ. :        2.000      2.000      2.000      2.000      2.000      0.000      0.000      0.000
 eps  :        -9.999     -9.935     -9.664     -9.623     -9.533     -8.564     -8.365     -8.233
 #    :         299        300        301        302        303        304        305        306
 occ. :        0.000      0.000      0.000      0.000      0.000      0.000      0.000      0.000
 eps  :        -8.027     -6.774     -6.586     -6.355     -6.257     -6.122     -6.099     -5.988


   #   Z            q   n(s)   n(p)   n(d)      C6AA      α(0)
   1   7 N     -0.411  1.317  4.094  0.000    30.676     8.226
   2   6 C      0.034  1.058  2.908  0.000    20.017     6.374
   3   6 C      0.259  1.058  2.683  0.000    22.635     7.790
   4   8 O     -0.515  1.758  4.758  0.000    24.124     6.585
   5   6 C     -0.102  1.058  3.045  0.000    22.441     6.743
   6   6 C      0.281  1.048  2.671  0.000    22.243     7.722
   7   8 O     -0.510  1.767  4.743  0.000    24.015     6.570
   8   7 N     -0.274  1.265  4.008  0.000    27.080     7.729
   9   1 H      0.193  0.807  0.000  0.000     1.140     1.673
  10   1 H      0.047  0.953  0.000  0.000     2.356     2.400
  11   1 H      0.064  0.936  0.000  0.000     2.158     2.297
  12   1 H      0.070  0.930  0.000  0.000     2.084     2.257
  13   1 H      0.242  0.758  0.000  0.000     0.914     1.498
  14   1 H      0.233  0.767  0.000  0.000     0.950     1.527
  15   7 N     -0.155  1.237  3.918  0.000    24.355     7.330
  16   6 C      0.010  1.069  2.921  0.000    20.418     6.436
  17   6 C      0.268  1.045  2.686  0.000    22.466     7.762
  18   8 O     -0.498  1.751  4.747  0.000    23.729     6.531
  19   6 C     -0.081  1.058  3.023  0.000    22.037     6.683
  20   6 C     -0.074  1.050  3.023  0.000    21.916     6.665
  21   6 C     -0.093  1.058  3.035  0.000    22.276     6.720
  22   6 C     -0.054  1.062  2.992  0.000    21.652     6.642
  23   7 N     -0.132  1.227  3.905  0.000    23.843     7.252
  24   1 H      0.218  0.782  0.000  0.000     1.020     1.582
  25   1 H      0.078  0.922  0.000  0.000     2.000     2.211
  26   1 H      0.055  0.945  0.000  0.000     2.258     2.350
  27   1 H      0.076  0.924  0.000  0.000     2.023     2.224
  28   1 H      0.048  0.952  0.000  0.000     2.343     2.394
  29   1 H      0.074  0.926  0.000  0.000     2.043     2.235
  30   1 H      0.069  0.931  0.000  0.000     2.101     2.267
  31   1 H      0.078  0.922  0.000  0.000     1.999     2.211
  32   1 H      0.130  0.870  0.000  0.000     1.535     1.938
  33   1 H      0.119  0.881  0.000  0.000     1.622     1.992
  34   1 H      0.299  0.701  0.000  0.000     0.716     1.326
  35   1 H      0.277  0.723  0.000  0.000     0.787     1.390
  36   1 H      0.297  0.703  0.000  0.000     0.721     1.330
  37   7 N     -0.175  1.250  3.925  0.000    24.794     7.395
  38   6 C      0.021  1.059  2.920  0.000    20.234     6.405
  39   6 C      0.203  1.086  2.711  0.000    23.687     7.971
  40   8 O     -0.351  1.742  4.609  0.000    20.733     6.105
  41   6 C     -0.017  1.076  2.942  0.000    20.850     6.495
  42   6 C     -0.061  1.051  3.010  0.000    21.672     6.628
  43   6 C     -0.116  1.036  3.079  0.000    22.767     6.804
  44   6 C     -0.098  1.033  3.065  0.000    22.430     6.753
  45   1 H      0.238  0.762  0.000  0.000     0.932     1.513
  46   1 H      0.079  0.921  0.000  0.000     1.985     2.203
  47   1 H      0.056  0.944  0.000  0.000     2.244     2.343
  48   1 H      0.049  0.951  0.000  0.000     2.331     2.387
  49   1 H      0.035  0.965  0.000  0.000     2.511     2.478
  50   1 H      0.052  0.948  0.000  0.000     2.291     2.367
  51   1 H      0.044  0.956  0.000  0.000     2.400     2.423
  52   1 H      0.046  0.954  0.000  0.000     2.376     2.411
  53   1 H      0.028  0.972  0.000  0.000     2.610     2.527
  54   1 H      0.036  0.964  0.000  0.000     2.503     2.474
  55   1 H      0.037  0.963  0.000  0.000     2.491     2.468
  56   7 N     -0.388  1.298  4.090  0.000    30.054     8.142
  57   6 C      0.027  1.062  2.911  0.000    20.133     6.392
  58   6 C      0.263  1.052  2.685  0.000    22.567     7.779
  59   8 O     -0.491  1.741  4.749  0.000    23.576     6.510
  60   6 C     -0.019  1.066  2.952  0.000    20.872     6.498
  61   6 C     -0.118  1.043  3.075  0.000    22.806     6.809
  62   6 C     -0.111  1.039  3.072  0.000    22.680     6.790
  63   1 H      0.176  0.824  0.000  0.000     1.237     1.742
  64   1 H      0.043  0.957  0.000  0.000     2.405     2.425
  65   1 H      0.021  0.979  0.000  0.000     2.713     2.576
  66   1 H      0.039  0.961  0.000  0.000     2.458     2.452
  67   1 H      0.034  0.966  0.000  0.000     2.533     2.489
  68   1 H      0.052  0.948  0.000  0.000     2.298     2.371
  69   1 H      0.038  0.962  0.000  0.000     2.470     2.458
  70   1 H      0.038  0.962  0.000  0.000     2.478     2.462
  71   1 H      0.050  0.950  0.000  0.000     2.326     2.385
  72   7 N     -0.094  1.237  3.857  0.000    23.075     7.134
  73   6 C      0.009  1.074  2.917  0.000    20.412     6.429
  74   6 C      0.292  1.035  2.673  0.000    22.052     7.689
  75   8 O     -0.456  1.723  4.733  0.000    22.833     6.407
  76   6 C     -0.058  1.050  3.008  0.000    21.591     6.611
  77   6 C     -0.073  1.049  3.025  0.000    21.879     6.655
  78   6 C     -0.021  1.055  2.965  0.000    20.971     6.525
  79   1 H      0.060  0.940  0.000  0.000     2.202     2.321
  80   1 H      0.028  0.972  0.000  0.000     2.610     2.526
  81   1 H      0.061  0.939  0.000  0.000     2.189     2.314
  82   1 H      0.085  0.915  0.000  0.000     1.928     2.171
  83   1 H      0.072  0.928  0.000  0.000     2.066     2.248
  84   1 H      0.053  0.947  0.000  0.000     2.289     2.366
  85   1 H      0.098  0.902  0.000  0.000     1.805     2.101
  86   7 N     -0.202  1.252  3.950  0.000    25.384     7.483
  87   6 C      0.026  1.060  2.914  0.000    20.150     6.392
  88   6 C      0.269  1.048  2.683  0.000    22.456     7.760
  89   8 O     -0.532  1.752  4.780  0.000    24.499     6.636
  90   6 C     -0.060  1.053  3.007  0.000    21.647     6.623
  91   6 C     -0.083  1.050  3.033  0.000    22.069     6.687
  92   6 C      0.272  1.050  2.678  0.000    22.398     7.749
  93   8 O     -0.574  1.809  4.765  0.000    25.493     6.769
  94   7 N     -0.258  1.258  3.999  0.000    26.691     7.673
  95   1 H      0.204  0.796  0.000  0.000     1.088     1.634
  96   1 H      0.076  0.924  0.000  0.000     2.018     2.221
  97   1 H      0.074  0.926  0.000  0.000     2.044     2.236
  98   1 H      0.054  0.946  0.000  0.000     2.272     2.357
  99   1 H      0.072  0.928  0.000  0.000     2.068     2.249
 100   1 H      0.065  0.935  0.000  0.000     2.143     2.289
 101   1 H      0.249  0.751  0.000  0.000     0.886     1.475
 102   1 H      0.246  0.754  0.000  0.000     0.902     1.488
 103   7 N     -0.197  1.267  3.930  0.000    25.275     7.467
 104   6 C      0.033  1.054  2.913  0.000    20.018     6.369
 105   6 C      0.268  1.048  2.684  0.000    22.470     7.763
 106   8 O     -0.498  1.772  4.725  0.000    23.732     6.531
 107   6 C     -0.060  1.057  3.004  0.000    21.664     6.627
 108   6 C     -0.095  1.067  3.028  0.000    22.311     6.726
 109   6 C      0.376  1.021  2.603  0.000    20.623     7.432
 110   8 O     -0.611  1.755  4.856  0.000    26.395     6.888
 111   8 O     -0.608  1.766  4.842  0.000    26.327     6.879
 112   1 H      0.246  0.754  0.000  0.000     0.899     1.485
 113   1 H      0.058  0.942  0.000  0.000     2.220     2.330
 114   1 H      0.051  0.949  0.000  0.000     2.308     2.376
 115   1 H      0.041  0.959  0.000  0.000     2.432     2.439
 116   1 H      0.027  0.973  0.000  0.000     2.630     2.536
 117   1 H      0.023  0.977  0.000  0.000     2.693     2.566
 118   7 N     -0.170  1.234  3.935  0.000    24.668     7.377
 119   6 C      0.020  1.066  2.914  0.000    20.252     6.409
 120   6 C      0.195  1.094  2.710  0.000    23.831     7.995
 121   8 O     -0.361  1.748  4.613  0.000    20.922     6.133
 122   6 C     -0.066  1.058  3.008  0.000    21.761     6.640
 123   6 C     -0.015  1.060  2.955  0.000    20.815     6.490
 124   6 C     -0.120  1.041  3.078  0.000    22.850     6.816
 125   6 C     -0.123  1.043  3.080  0.000    22.915     6.825
 126   1 H      0.202  0.798  0.000  0.000     1.098     1.641
 127   1 H      0.099  0.901  0.000  0.000     1.794     2.094
 128   1 H      0.068  0.932  0.000  0.000     2.103     2.268
 129   1 H      0.056  0.944  0.000  0.000     2.247     2.344
 130   1 H      0.033  0.967  0.000  0.000     2.540     2.493
 131   1 H      0.056  0.944  0.000  0.000     2.242     2.341
 132   1 H      0.029  0.971  0.000  0.000     2.607     2.525
 133   1 H      0.051  0.949  0.000  0.000     2.313     2.378
 134   1 H      0.050  0.950  0.000  0.000     2.321     2.383
 135   1 H      0.065  0.935  0.000  0.000     2.136     2.286
 136   1 H      0.045  0.955  0.000  0.000     2.380     2.412
 137   7 N     -0.378  1.317  4.061  0.000    29.771     8.104
 138   6 C      0.013  1.069  2.917  0.000    20.370     6.430
 139   6 C      0.278  1.045  2.677  0.000    22.291     7.732
 140   8 O     -0.479  1.747  4.732  0.000    23.317     6.474
 141   6 C      0.108  1.052  2.840  0.000    18.908     6.209
 142   8 O     -0.481  1.745  4.736  0.000    22.488     6.401
 143   6 C     -0.130  1.042  3.088  0.000    23.057     6.847
 144   1 H      0.160  0.840  0.000  0.000     1.338     1.812
 145   1 H      0.038  0.962  0.000  0.000     2.481     2.463
 146   1 H      0.022  0.978  0.000  0.000     2.698     2.569
 147   1 H      0.323  0.677  0.000  0.000     0.657     1.274
 148   1 H      0.057  0.943  0.000  0.000     2.240     2.341
 149   1 H      0.050  0.950  0.000  0.000     2.318     2.381
 150   1 H      0.058  0.942  0.000  0.000     2.221     2.330
 151   7 N     -0.198  1.253  3.945  0.000    25.308     7.472
 152   6 C      0.032  1.049  2.919  0.000    20.025     6.369
 153   6 C      0.290  1.033  2.678  0.000    22.093     7.697
 154   8 O     -0.483  1.733  4.750  0.000    23.419     6.488
 155   6 C     -0.059  1.051  3.008  0.000    21.601     6.611
 156   6 C     -0.015  1.066  2.949  0.000    20.841     6.500
 157  16 S     -0.239  1.922  4.259  0.058   151.272    20.701
 158   6 C     -0.056  1.049  3.007  0.000    21.655     6.638
 159   1 H      0.215  0.785  0.000  0.000     1.031     1.591
 160   1 H      0.062  0.938  0.000  0.000     2.176     2.307
 161   1 H      0.057  0.943  0.000  0.000     2.239     2.340
 162   1 H      0.057  0.943  0.000  0.000     2.238     2.340
 163   1 H      0.051  0.949  0.000  0.000     2.302     2.372
 164   1 H      0.070  0.930  0.000  0.000     2.082     2.256
 165   1 H      0.071  0.929  0.000  0.000     2.076     2.253
 166   1 H      0.055  0.945  0.000  0.000     2.255     2.349
 167   1 H      0.067  0.933  0.000  0.000     2.114     2.274
 168   7 N     -0.189  1.247  3.943  0.000    25.099     7.441
 169   6 C      0.047  1.051  2.902  0.000    19.790     6.334
 170   6 C      0.199  1.101  2.699  0.000    23.753     7.982
 171   8 O     -0.402  1.792  4.609  0.000    21.716     6.248
 172   6 C     -0.134  1.044  3.090  0.000    23.138     6.858
 173   1 H      0.231  0.769  0.000  0.000     0.961     1.536
 174   1 H      0.079  0.921  0.000  0.000     1.989     2.206
 175   1 H      0.075  0.925  0.000  0.000     2.036     2.232
 176   1 H      0.081  0.919  0.000  0.000     1.973     2.196
 177   1 H      0.076  0.924  0.000  0.000     2.017     2.221
 178   7 N     -0.406  1.313  4.093  0.000    30.530     8.206
 179   6 C      0.029  1.055  2.916  0.000    20.088     6.381
 180   6 C      0.271  1.047  2.682  0.000    22.423     7.755
 181   8 O     -0.524  1.768  4.756  0.000    24.324     6.612
 182   6 C     -0.030  1.061  2.969  0.000    21.064     6.525
 183   6 C     -0.067  1.056  3.011  0.000    21.793     6.647
 184   6 C     -0.142  1.045  3.097  0.000    23.294     6.881
 185   6 C     -0.113  1.037  3.075  0.000    22.725     6.799
 186   1 H      0.177  0.823  0.000  0.000     1.233     1.739
 187   1 H      0.042  0.958  0.000  0.000     2.422     2.434
 188   1 H      0.047  0.953  0.000  0.000     2.355     2.400
 189   1 H      0.037  0.963  0.000  0.000     2.491     2.468
 190   1 H      0.040  0.960  0.000  0.000     2.452     2.449
 191   1 H      0.075  0.925  0.000  0.000     2.036     2.231
 192   1 H      0.046  0.954  0.000  0.000     2.368     2.407
 193   1 H      0.055  0.945  0.000  0.000     2.256     2.349
 194   1 H      0.027  0.973  0.000  0.000     2.633     2.538
 195   1 H      0.038  0.962  0.000  0.000     2.475     2.460
 196   1 H      0.051  0.949  0.000  0.000     2.309     2.376
 197   7 N     -0.161  1.248  3.914  0.000    24.493     7.350
 198   6 C     -0.043  1.058  2.985  0.000    21.406     6.598
 199   6 C      0.273  1.036  2.691  0.000    22.392     7.749
 200   8 O     -0.448  1.725  4.722  0.000    22.658     6.382
 201   1 H      0.217  0.783  0.000  0.000     1.021     1.583
 202   1 H      0.106  0.894  0.000  0.000     1.733     2.058
 203   1 H      0.080  0.920  0.000  0.000     1.977     2.199
 204   7 N     -0.181  1.246  3.936  0.000    24.926     7.415
 205   6 C      0.019  1.066  2.915  0.000    20.272     6.412
 206   6 C      0.194  1.094  2.712  0.000    23.853     7.998
 207   8 O     -0.357  1.764  4.592  0.000    20.836     6.120
 208   6 C      0.072  1.045  2.883  0.000    19.616     6.349
 209   8 O     -0.477  1.730  4.747  0.000    22.400     6.389
 210   1 H      0.219  0.781  0.000  0.000     1.014     1.578
 211   1 H      0.113  0.887  0.000  0.000     1.668     2.020
 212   1 H      0.081  0.919  0.000  0.000     1.966     2.193
 213   1 H      0.049  0.951  0.000  0.000     2.339     2.391
 214   1 H      0.337  0.663  0.000  0.000     0.620     1.237
 215   1 H      0.177  0.823  0.000  0.000     1.234     1.740
 216   1 H      0.078  0.922  0.000  0.000     1.998     2.210
 217   1 H      0.184  0.816  0.000  0.000     1.192     1.710
 218   1 H      0.093  0.907  0.000  0.000     1.846     2.124
 219   1 H      0.192  0.808  0.000  0.000     1.146     1.677
 220   1 H      0.082  0.918  0.000  0.000     1.962     2.190
 221   1 H      0.173  0.827  0.000  0.000     1.251     1.752
 222   1 H      0.093  0.907  0.000  0.000     1.853     2.128

 Mol. C6AA /au·bohr⁶  :     437447.335976
 Mol. C8AA /au·bohr⁸  :    9740306.735840
 Mol. α(0) /au        :        985.164585

 
molecular dipole:
                 x           y           z       tot (Debye)
 q only:        1.031      -7.537     -15.657
   full:       -0.171      -7.586     -14.122      40.750
molecular quadrupole (traceless):
                xx          xy          yy          xz          yz          zz
 q only:     2871.281      -6.581    1460.553     283.224   -3299.063   -4331.834
  q+dip:     2642.766    -139.001    1205.276       1.850   -3186.575   -3848.042
   full:     2644.531    -142.606    1203.706       0.394   -3184.566   -3848.237
speedup  2.00
cpu  time for grad    4.53 s
wall time for grad    2.27 s

SCC energy    :    -338.1828116
rep           :       3.9802022
ES            :       1.0638613
AES           :      -0.0233528
AXC           :       0.1159050
disp          :      -0.2699241
XB            :       0.0000000
fix           :       0.0000000
Gborn         :       0.0000000
Gsasa         :       0.0000000
Ghb           :       0.0000000
Gshift        :       0.0000000
Gsolv         :      -0.2606837     -163.58
Etot ala COSMO:    -338.1828116
grad norm     :       0.6122186
total E       :    -334.1783623
atomizationE  :      60.3847502    37892.00
(atE without considering molecular charge,
 total energy contains solvation terms)
H-L gap (eV)  :          0.9693

------------------------------------------------------------------------
 * finished run on 2019/05/12 at 12:15:53.021     
------------------------------------------------------------------------
 total:
 * wall-time:     0 d,  0 h,  0 min,  2.534 sec
 *  cpu-time:     0 d,  0 h,  0 min,  4.983 sec
 * ratio c/w:     1.966 speedup
 SCF:
 * wall-time:     0 d,  0 h,  0 min,  2.410 sec
 *  cpu-time:     0 d,  0 h,  0 min,  4.813 sec
 * ratio c/w:     1.997 speedup

