      -----------------------------------------------------------      
     |                   =====================                   |     
     |                           x T B                           |     
     |                   =====================                   |     
     |                         S. Grimme                         |     
     |          Mulliken Center for Theoretical Chemistry        |     
     |                    University of Bonn                     |     
     |                 Version 6.0.1 (SAW181210)                 |     
      -----------------------------------------------------------      

   This program is distributed in the hope that it will be useful,
   but WITHOUT ANY WARRANTY; without even the implied warranty of
   MERCHANTABILITY or FITNESS FOR A PARTICULAR PURPOSE.
   
   FOR NON-COMMERCIAL, ACADEMIA USE ONLY.
   
   Cite this work as:
   S. Grimme, C. Bannwarth, P. Shushkov, J. Comput. Theory Chem., 2017,
   13, 1989-2009.
   C. Bannwarth, S. Ehlert and S. Grimme., ChemRxiv, 2018, preprint.
   http://doi.org/10.26434/chemrxiv.7246238.v1
   
   for sTDA-xTB:
   S. Grimme and C. Bannwarth, J. Chem. Phys., 2016, 145, 054103.
   
   in the mass-spec context:
   V. Asgeirsson, C. Bauer and S. Grimme, Chem. Sci., 2017, 8, 4879.
   
   if GBSA is used:
   P. Shushkov, F. März and S. Grimme, unpublished.
   
   for ANC optimizer:
   S. Grimme, unpublished.
   Rational Function algorithm used in ANCopt:
   F. Eckert, P. Pulay, H.-J. Werner, J. Comput. Chem., 1997, 18, 1473.
   
   with help from (in alphabetical order)
   C. Bannwarth, F. Bohle, G. Brandenburg, E. Caldeweyher, M. Checinski,
   S. Dohm, S. Ehlert, S. Ehrlich, F. März, H. Neugebauer, J. Pisarek,
   P. Pracht, P. Shushkov, and S. Spicher.
   
 * started run on 2019/05/04 at 18:20:13.583     
========================================================================
 # omp threads = 2
========================================================================
number of atoms            : 711
number of electrons        : 1936
charge                     : -2
spin                       : .0
first test random number   : .4259

########################################################################
# WARNING! Please study the warnings concerning your input carefully
#  - Process number higher than OMP_NUM_THREADS, I hope you know what you are doing.
########################################################################

           ------------------------------------------------- 
          |                 G F N 2 - x T B                 |
          | Geometry, Frequencies, Noncovalent interactions |
          |            JCTC 2018 parametrisation            |
           ------------------------------------------------- 
 
      method parameters     
 k(s)        :  1.8500
 k(p)        :  2.2300
 k(d)        :  2.2300
 k(f)        :  2.0000
 kEN (H0ij)  : -2.0000
 D4 a1       :  0.5200
 D4 a2       :  5.0000
 D4 s6       :  1.0000
 D4 s8       :  2.7000
 D4 s9       :  5.0000
 alphaj      :  2.0000

 Solvent             : h2o
 Using internal parameter file: .param_gbsa2_h2o
 Gsolv ref. state (COSMO-RS): gsolv [1 M gas/solution]
 temperature (mdtemp)       :    298.150000000000     
 dielectric constant        :    80.2000000000000     
 rho                        :    1.00000000000000     
 mass                       :    18.0000000000000     
 surface tension            :    15.5689454083859     
 probe radius               :   0.975313790000000     
 vdW radii scaling          :    1.00000000000000     
 Gshift (Eh)                :   1.857443126794793E-003
 c1                         :    1.55243817000000     
 soset                      :   0.130326360000000     
 HB correction              :  T

            Z     q(EN)     CN     RAES       Cart. coordinates
     1  N   5.0   -0.22    3.25    1.97    59.44889   125.71969   -26.17648
     2  C   4.0    0.02    4.37    4.32    60.79626   124.75404   -28.36101
     3  C   4.0    0.15    3.44    3.09    63.55148   125.51371   -28.23817
     4  O   6.0   -0.33    1.34    1.80    65.22578   123.96224   -28.67281
     5  C   4.0   -0.05    4.32    4.23    59.60952   125.73292   -30.80064
     6  C   4.0   -0.05    4.24    4.09    57.80294   123.90366   -32.01763
     7  C   4.0   -0.05    4.22    4.05    55.68266   123.18746   -30.24506
     8  C   4.0   -0.04    4.15    3.90    55.33873   120.35098   -30.19404
     9  N   5.0   -0.11    4.05    2.99    55.09118   119.25494   -32.78486
    10  H   1.0    0.07    1.03    1.43    57.83128   126.67022   -26.61490
    11  H   1.0    0.04    1.06    1.44    60.65642   122.69991   -28.38179
    12  H   1.0    0.03    1.04    1.43    58.56828   127.46013   -30.38301
    13  H   1.0    0.04    1.04    1.43    61.11185   126.12598   -32.15369
    14  H   1.0    0.04    1.03    1.43    56.97902   124.77294   -33.69381
    15  H   1.0    0.04    1.04    1.44    58.81772   122.18779   -32.53919
    16  H   1.0    0.03    1.06    1.44    56.12864   123.82996   -28.34022
    17  H   1.0    0.04    1.03    1.43    53.92522   124.05106   -30.88568
    18  H   1.0    0.04    1.02    1.43    56.97524   119.48926   -29.28697
    19  H   1.0    0.03    1.02    1.43    53.62853   119.89744   -29.13957
    20  H   1.0    0.06    1.01    1.43    54.01971   117.60898   -32.71872
    21  H   1.0    0.08    1.04    1.43    54.20868   120.54373   -33.97916
    22  H   1.0    0.06    1.02    1.43    56.86941   118.82975   -33.50673
    23  N   5.0   -0.15    3.49    2.07    64.00124   127.89854   -27.59378
    24  C   4.0    0.03    4.47    4.49    66.56182   128.87931   -27.38402
    25  C   4.0    0.16    3.49    3.11    68.15486   127.33540   -25.58311
    26  O   6.0   -0.33    1.49    1.80    70.14663   126.40377   -26.31632
    27  C   4.0   -0.06    4.39    4.37    66.52780   131.63264   -26.56010
    28  C   4.0   -0.02    4.19    3.98    66.65063   133.60929   -28.65769
    29  C   4.0   -0.08    4.12    3.83    65.57538   132.68522   -31.18993
    30  C   4.0   -0.08    4.12    3.84    65.27302   135.94311   -27.73551
    31  H   1.0    0.07    1.06    1.44    62.63308   129.19867   -27.20449
    32  H   1.0    0.05    1.07    1.44    67.41975   128.76971   -29.25296
    33  H   1.0    0.03    1.05    1.44    64.78170   131.96523   -25.51886
    34  H   1.0    0.04    1.04    1.43    68.15108   131.95011   -25.33367
    35  H   1.0    0.05    1.06    1.44    68.62351   134.04015   -29.06399
    36  H   1.0    0.04    1.00    1.43    65.73412   134.19889   -32.57699
    37  H   1.0    0.04    1.00    1.43    66.65063   131.04305   -31.81543
    38  H   1.0    0.04    1.00    1.43    63.59684   132.17310   -30.93103
    39  H   1.0    0.04    1.00    1.43    65.33538   137.38308   -29.20571
    40  H   1.0    0.03    1.00    1.43    63.31716   135.44800   -27.32166
    41  H   1.0    0.04    1.00    1.43    66.19710   136.63852   -26.03097
    42  N   5.0   -0.15    3.47    2.06    67.25913   127.04628   -23.24930
    43  C   4.0    0.04    4.43    4.43    68.51579   125.42300   -21.41437
    44  C   4.0    0.17    3.46    3.10    69.41719   122.96258   -22.62002
    45  O   6.0   -0.31    1.29    1.80    71.65463   122.32763   -22.48207
    46  C   4.0   -0.05    4.30    4.20    66.76024   124.85986   -19.19017
    47  C   4.0   -0.04    4.22    4.04    67.09661   126.63054   -16.96407
    48  C   4.0    0.15    3.22    3.04    69.48900   126.08818   -15.45607
    49  O   6.0   -0.29    1.24    1.80    71.45432   125.39277   -16.50676
    50  N   5.0   -0.19    3.17    1.95    69.32649   126.41700   -12.97108
    51  H   1.0    0.07    1.06    1.44    65.67176   127.90799   -22.57656
    52  H   1.0    0.06    1.07    1.44    70.15608   126.43211   -20.68494
    53  H   1.0    0.03    1.03    1.43    64.81004   125.02238   -19.83078
    54  H   1.0    0.05    1.04    1.43    67.12685   122.94368   -18.52876
    55  H   1.0    0.04    1.03    1.43    67.20810   128.56750   -17.65760
    56  H   1.0    0.03    1.03    1.43    65.48656   126.42834   -15.69606
    57  H   1.0    0.07    1.03    1.43    67.66731   127.00092   -12.18306
    58  H   1.0    0.09    1.02    1.43    70.86094   126.08629   -11.85236
    59  N   5.0   -0.14    3.48    2.06    67.66164   121.62654   -23.83511
    60  C   4.0    0.03    4.41    4.40    68.17564   119.21336   -25.07855
    61  C   4.0    0.16    3.43    3.09    70.08427   119.42312   -27.23284
    62  O   6.0   -0.33    1.52    1.80    71.73589   117.80174   -27.55409
    63  C   4.0   -0.04    4.34    4.28    65.72467   118.10976   -26.10278
    64  C   4.0   -0.04    4.24    4.08    64.00691   117.02506   -24.11479
    65  C   4.0    0.14    3.23    3.04    62.13797   115.18258   -25.24107
    66  O   6.0   -0.30    1.21    1.80    61.61640   115.25628   -27.52764
    67  N   5.0   -0.19    3.16    1.95    61.12319   113.50072   -23.64614
    68  H   1.0    0.08    1.07    1.44    65.82104   122.17456   -23.99763
    69  H   1.0    0.05    1.06    1.44    68.97878   117.95858   -23.65559
    70  H   1.0    0.06    1.04    1.43    64.68910   119.60076   -27.07599
    71  H   1.0    0.06    1.04    1.43    66.18576   116.59609   -27.42181
    72  H   1.0    0.04    1.03    1.43    65.13507   116.02728   -22.70884
    73  H   1.0    0.04    1.03    1.43    62.95244   118.55007   -23.21717
    74  H   1.0    0.07    1.02    1.43    61.62396   113.51395   -21.78476
    75  H   1.0    0.09    1.02    1.43    59.84951   112.20626   -24.29243
    76  N   5.0   -0.13    3.54    2.11    69.80837   121.41300   -28.73517
    77  C   4.0    0.04    4.43    4.43    71.51101   121.88732   -30.83466
    78  C   4.0    0.16    3.49    3.11    74.08860   122.54495   -29.74618
    79  O   6.0   -0.32    1.38    1.80    75.98777   121.36954   -30.42270
    80  C   4.0   -0.04    4.37    4.33    70.49245   124.06429   -32.44470
    81  C   4.0   -0.02    3.49    3.11    68.48367   123.37265   -34.38923
    82  C   4.0   -0.05    3.44    3.09    68.79358   124.03405   -36.92336
    83  C   4.0   -0.03    3.45    3.10    66.26135   122.10275   -33.70137
    84  C   4.0   -0.04    3.41    3.08    66.96244   123.43501   -38.73182
    85  C   4.0   -0.05    3.41    3.08    64.41887   121.48670   -35.50417
    86  C   4.0    0.06    3.42    3.09    64.78925   122.15944   -38.01562
    87  O   6.0   -0.25    2.12    1.84    62.99968   121.56607   -39.81464
    88  H   1.0    0.12    1.11    1.45    68.41942   122.73581   -28.54620
    89  H   1.0    0.05    1.06    1.44    71.65841   120.23948   -32.06109
    90  H   1.0    0.06    1.05    1.44    69.65908   125.46269   -31.18237
    91  H   1.0    0.04    1.07    1.44    72.07226   124.89577   -33.47272
    92  H   1.0    0.04    1.03    1.43    70.48111   125.02805   -37.49972
    93  H   1.0    0.07    1.05    1.44    65.96277   121.59064   -31.74929
    94  H   1.0    0.05    1.03    1.43    67.24023   123.96602   -40.68202
    95  H   1.0    0.05    1.03    1.43    62.72378   120.49649   -34.94481
    96  H   1.0    0.11    1.03    1.43    61.58239   120.67034   -39.02662
    97  N   5.0   -0.14    3.61    2.16    74.09615   124.40255   -28.02653
    98  C   4.0    0.03    4.39    4.37    76.30146   125.11120   -26.50341
    99  C   4.0    0.17    3.51    3.12    77.63561   122.66589   -25.83444
   100  O   6.0   -0.30    1.22    1.80    79.92029   122.39377   -26.24073
   101  C   4.0   -0.04    4.28    4.16    75.46999   126.54361   -24.10534
   102  C   4.0   -0.05    4.15    3.90    77.47687   128.19523   -22.84679
   103  C   4.0   -0.00    4.20    4.01    76.34682   129.84118   -20.74919
   104  N   5.0   -0.13    3.38    2.01    76.01234   128.48058   -18.36058
   105  C   4.0    0.10    3.34    3.06    75.44353   129.56339   -16.15338
   106  N   5.0   -0.17    3.25    1.97    75.18842   128.14421   -14.09925
   107  N   5.0   -0.17    3.27    1.97    75.12228   132.05216   -15.97952
   108  H   1.0    0.12    1.22    1.47    72.55414   125.48725   -27.63157
   109  H   1.0    0.04    1.06    1.44    77.55246   126.39810   -27.51252
   110  H   1.0    0.06    1.04    1.43    73.89773   127.77571   -24.60612
   111  H   1.0    0.07    1.04    1.43    74.86149   125.15844   -22.70884
   112  H   1.0    0.05    1.03    1.43    78.92440   126.99147   -22.01342
   113  H   1.0    0.05    1.03    1.43    78.31969   129.43678   -24.25841
   114  H   1.0    0.08    1.04    1.43    77.60349   131.43422   -20.39959
   115  H   1.0    0.05    1.03    1.43    74.49867   130.52148   -21.35579
   116  H   1.0    0.09    1.06    1.44    76.22966   126.56629   -18.38514
   117  H   1.0    0.10    1.03    1.43    75.42652   126.23558   -14.21074
   118  H   1.0    0.08    1.03    1.43    74.75378   128.96435   -12.40983
   119  H   1.0    0.10    1.05    1.44    75.30936   133.15954   -17.54611
   120  H   1.0    0.08    1.02    1.43    74.68764   132.85151   -14.28066
   121  N   5.0   -0.13    3.53    2.10    76.14651   120.86309   -24.90848
   122  C   4.0    0.04    4.40    4.39    77.10082   118.37243   -24.29621
   123  C   4.0    0.16    3.41    3.08    77.83403   116.87388   -26.66970
   124  O   6.0   -0.33    1.42    1.80    80.07525   116.41468   -27.06466
   125  C   4.0   -0.04    4.26    4.12    75.27156   116.95136   -22.55010
   126  C   4.0   -0.03    4.18    3.97    75.00511   118.19669   -19.94228
   127  C   4.0    0.25    3.11    3.03    73.96954   116.44302   -17.90326
   128  O   6.0   -0.28    1.17    1.80    74.20954   117.11577   -15.64504
   129  O   6.0   -0.29    1.18    1.80    72.91508   114.41724   -18.52687
   130  H   1.0    0.11    1.10    1.44    74.26245   121.08230   -24.56455
   131  H   1.0    0.05    1.07    1.44    78.85070   118.57274   -23.22851
   132  H   1.0    0.07    1.03    1.43    73.40829   116.90601   -23.42693
   133  H   1.0    0.05    1.03    1.43    75.96698   115.03329   -22.27231
   134  H   1.0    0.05    1.03    1.43    76.86082   118.84486   -19.32623
   135  H   1.0    0.07    1.04    1.43    73.71821   119.79729   -20.10290
   136  N   5.0   -0.14    3.48    2.06    76.01612   116.20870   -28.29109
   137  C   4.0    0.04    4.41    4.40    76.57170   114.51550   -30.43593
   138  C   4.0    0.16    3.43    3.09    78.70331   115.44714   -32.17258
   139  O   6.0   -0.30    1.28    1.80    79.91651   113.95236   -33.47838
   140  C   4.0   -0.04    4.24    4.07    74.17741   113.83709   -31.93259
   141  C   4.0   -0.03    4.01    3.64    74.53835   111.80942   -34.04719
   142  S   6.0    0.00    2.52    3.10    76.59815   109.08254   -33.49350
   143  C   4.0   -0.05    3.87    3.43    75.71187   106.96416   -36.00873
   144  H   1.0    0.14    1.29    1.49    74.18119   116.78884   -28.18526
   145  H   1.0    0.05    1.08    1.44    77.22932   112.74483   -29.61390
   146  H   1.0    0.05    1.03    1.43    72.77335   113.10577   -30.61356
   147  H   1.0    0.05    1.03    1.43    73.47066   115.54729   -32.83588
   148  H   1.0    0.04    1.07    1.44    72.67697   111.04030   -34.47994
   149  H   1.0    0.06    1.10    1.44    75.30369   112.77695   -35.69692
   150  H   1.0    0.06    1.04    1.43    76.83626   105.24451   -35.86511
   151  H   1.0    0.04    1.04    1.43    73.71065   106.51062   -35.82920
   152  H   1.0    0.06    1.04    1.43    76.06525   107.88445   -37.81720
   153  N   5.0   -0.13    3.54    2.10    79.17196   117.90756   -32.15558
   154  C   4.0    0.04    4.51    4.55    81.37160   118.90345   -33.44815
   155  C   4.0    0.16    3.47    3.10    83.76966   118.20236   -32.05920
   156  O   6.0   -0.29    1.27    1.80    85.51388   117.12521   -33.15713
   157  C   4.0   -0.05    4.40    4.37    81.22420   121.76638   -33.73161
   158  C   4.0   -0.03    4.21    4.02    79.92407   122.73581   -36.12211
   159  C   4.0   -0.08    4.12    3.84    81.28845   125.05639   -37.13689
   160  C   4.0   -0.08    4.32    4.24    79.88627   120.71191   -38.09876
   161  H   1.0    0.13    1.15    1.45    78.08348   119.23415   -31.27874
   162  H   1.0    0.06    1.10    1.44    81.40561   118.08708   -35.33976
   163  H   1.0    0.06    1.04    1.43    80.18107   122.51849   -32.12156
   164  H   1.0    0.05    1.05    1.44    83.14416   122.51093   -33.73728
   165  H   1.0    0.04    1.06    1.44    77.98521   123.26115   -35.66669
   166  H   1.0    0.04    1.00    1.43    80.32658   125.70835   -38.83765
   167  H   1.0    0.04    1.00    1.43    81.25822   126.53416   -35.70259
   168  H   1.0    0.04    1.01    1.43    83.23487   124.54995   -37.58098
   169  H   1.0    0.04    1.03    1.43    78.95275   121.43946   -39.78440
   170  H   1.0    0.04    1.01    1.43    81.82324   120.17334   -38.54474
   171  H   1.0    0.05    1.04    1.43    78.85448   119.08486   -37.37122
   172  N   5.0   -0.13    3.53    2.10    83.85470   118.81085   -29.62901
   173  C   4.0    0.04    4.49    4.52    86.12048   118.31007   -28.16826
   174  C   4.0    0.16    3.41    3.08    86.44173   115.45281   -27.73929
   175  O   6.0   -0.30    1.25    1.80    88.56390   114.52873   -27.45961
   176  C   4.0   -0.02    4.29    4.19    86.19796   119.92390   -25.70594
   177  C   4.0   -0.04    4.17    3.93    88.94184   120.40956   -24.89336
   178  C   4.0   -0.07    4.09    3.78    84.51799   118.80518   -23.61968
   179  C   4.0   -0.08    4.00    3.62    89.36514   122.94935   -23.59701
   180  H   1.0    0.11    1.07    1.44    82.41851   119.63288   -28.64069
   181  H   1.0    0.07    1.07    1.44    87.76076   118.92423   -29.25296
   182  H   1.0    0.05    1.07    1.44    85.37782   121.77016   -26.10467
   183  H   1.0    0.05    1.03    1.43    89.50687   118.93368   -23.57244
   184  H   1.0    0.06    1.03    1.43    90.14182   120.35665   -26.56577
   185  H   1.0    0.04    1.00    1.43    84.64083   120.00138   -21.94728
   186  H   1.0    0.07    1.00    1.43    82.57158   118.73337   -24.29243
   187  H   1.0    0.05    1.00    1.43    85.17751   116.90601   -23.17371
   188  H   1.0    0.04    1.00    1.43    91.35502   123.12131   -23.09245
   189  H   1.0    0.05    1.00    1.43    88.83602   124.46113   -24.89336
   190  H   1.0    0.04    1.00    1.43    88.19918   123.03817   -21.90003
   191  N   5.0   -0.14    3.53    2.10    84.33280   114.07898   -27.78842
   192  C   4.0    0.04    4.36    4.30    84.31390   111.33509   -27.46150
   193  C   4.0    0.15    3.47    3.10    85.46664   110.01418   -29.72917
   194  O   6.0   -0.29    1.22    1.80    86.78566   108.11689   -29.46461
   195  C   4.0   -0.07    4.12    3.85    81.64183   110.41291   -27.03253
   196  H   1.0    0.12    1.16    1.46    82.57347   114.81786   -28.05487
   197  H   1.0    0.06    1.06    1.44    85.43262   110.86266   -25.79854
   198  H   1.0    0.05    1.00    1.43    81.66829   108.36633   -26.79442
   199  H   1.0    0.05    1.00    1.43    80.88783   111.30675   -25.33745
   200  H   1.0    0.06    1.00    1.43    80.48910   110.91557   -28.66336
   201  N   5.0   -0.12    3.56    2.12    84.91673   111.01384   -31.96471
   202  C   4.0    0.05    4.45    4.47    86.25087   110.27118   -34.23994
   203  C   4.0    0.15    3.48    3.11    88.58657   111.94359   -34.47616
   204  O   6.0   -0.33    1.42    1.80    89.34624   112.65979   -36.54919
   205  C   4.0   -0.02    4.30    4.19    84.53689   110.51117   -36.56053
   206  C   4.0    0.25    3.14    3.03    82.38260   108.59499   -36.56809
   207  O   6.0   -0.28    1.21    1.80    82.28434   106.96416   -34.86166
   208  O   6.0   -0.30    1.18    1.80    80.77823   108.71593   -38.30097
   209  H   1.0    0.11    1.07    1.44    83.55234   112.34421   -32.25006
   210  H   1.0    0.07    1.06    1.44    86.79133   108.28508   -34.17947
   211  H   1.0    0.06    1.03    1.43    83.70919   112.39712   -36.59076
   212  H   1.0    0.05    1.03    1.43    85.66317   110.20882   -38.25939
   213  N   5.0   -0.12    3.44    2.04    89.67506   112.58231   -32.29920
   214  C   4.0    0.02    4.25    4.10    92.00698   114.03740   -32.13479
   215  C   4.0    0.16    3.33    3.06    91.86903   116.68302   -33.23650
   216  O   6.0   -0.28    1.25    1.80    93.14648   118.44613   -32.30675
   217  H   1.0    0.11    1.11    1.45    88.96641   112.10610   -30.57199
   218  H   1.0    0.06    1.03    1.43    92.53610   114.21315   -30.15247
   219  H   1.0    0.05    1.03    1.43    93.49041   113.01884   -33.13634
   220  N   5.0   -0.11    3.55    2.11    90.29866   116.94947   -35.20559
   221  C   4.0    0.04    4.49    4.53    90.20418   119.24549   -36.72682
   222  C   4.0    0.17    3.52    3.12    90.73708   121.63788   -35.21315
   223  O   6.0   -0.28    1.23    1.80    89.57301   122.09330   -33.24406
   224  C   4.0   -0.02    4.35    4.30    87.64927   119.45714   -38.14034
   225  C   4.0   -0.05    4.23    4.06    87.64738   117.76583   -40.47604
   226  C   4.0   -0.07    4.19    3.97    87.07479   122.14811   -38.90946
   227  C   4.0   -0.07    4.03    3.67    85.81812   115.61343   -40.33620
   228  H   1.0    0.12    1.21    1.47    89.06278   115.58887   -35.78952
   229  H   1.0    0.04    1.07    1.44    91.74997   119.10187   -38.07987
   230  H   1.0    0.06    1.08    1.44    86.18473   118.83542   -36.83076
   231  H   1.0    0.03    1.06    1.44    87.14849   118.90723   -42.11632
   232  H   1.0    0.04    1.04    1.43    89.53144   116.97215   -40.71793
   233  H   1.0    0.03    1.00    1.43    85.26632   122.19346   -39.89211
   234  H   1.0    0.06    1.01    1.43    86.98598   123.32352   -37.22004
   235  H   1.0    0.04    1.02    1.43    88.56957   122.82274   -40.15668
   236  H   1.0    0.04    1.00    1.43    85.94285   114.51361   -42.07286
   237  H   1.0    0.06    1.02    1.43    86.29623   114.43047   -38.71859
   238  H   1.0    0.04    1.00    1.43    83.91328   116.36554   -40.11699
   239  N   5.0   -0.14    3.45    2.05    92.55689   123.11187   -36.13912
   240  C   4.0    0.04    4.42    4.41    93.05955   125.64977   -35.18292
   241  C   4.0    0.15    3.50    3.12    90.94873   127.43745   -36.03896
   242  O   6.0   -0.30    1.27    1.80    89.87159   127.08218   -38.07987
   243  C   4.0   -0.03    4.27    4.14    95.61824   126.60975   -36.13912
   244  C   4.0    0.24    3.16    3.03    96.19650   129.29316   -35.25473
   245  O   6.0   -0.30    1.18    1.80    97.23585   129.58796   -33.14579
   246  O   6.0   -0.29    1.17    1.80    95.58612   131.11108   -36.65312
   247  H   1.0    0.07    1.06    1.44    93.73419   122.59597   -37.57531
   248  H   1.0    0.06    1.06    1.44    93.12569   125.63276   -33.12501
   249  H   1.0    0.05    1.03    1.43    97.10735   125.37198   -35.43614
   250  H   1.0    0.05    1.03    1.43    95.61068   126.60408   -38.19892
   251  N   5.0   -0.09    3.65    2.21    90.34213   129.35930   -34.47994
   252  C   4.0    0.03    4.56    4.62    88.38059   131.16777   -35.18103
   253  C   4.0    0.15    3.40    3.08    88.94940   132.59073   -37.63200
   254  O   6.0   -0.29    1.26    1.80    88.37870   131.65910   -39.69747
   255  C   4.0   -0.05    4.43    4.44    88.33902   133.01025   -32.92470
   256  C   4.0   -0.04    4.30    4.20    90.78243   132.57183   -31.54708
   257  C   4.0   -0.01    4.38    4.35    91.27187   129.82606   -31.89290
   258  H   1.0    0.05    1.05    1.44    86.57590   130.18889   -35.35488
   259  H   1.0    0.05    1.05    1.44    88.21997   134.94911   -33.60878
   260  H   1.0    0.04    1.02    1.43    86.72708   132.59073   -31.71149
   261  H   1.0    0.06    1.03    1.43    92.28477   133.70756   -32.38423
   262  H   1.0    0.04    1.03    1.43    90.56890   133.04427   -29.55342
   263  H   1.0    0.06    1.04    1.43    93.28443   129.41032   -31.74551
   264  H   1.0    0.04    1.02    1.43    90.21930   128.70923   -30.51718
   265  N   5.0   -0.14    3.50    2.08    90.12670   134.79604   -37.34665
   266  C   4.0    0.04    4.38    4.35    90.40071   136.72545   -39.31575
   267  C   4.0    0.16    3.42    3.08    90.71629   135.75224   -42.02562
   268  O   6.0   -0.30    1.26    1.80    88.95318   135.88074   -43.54684
   269  C   4.0   -0.04    4.31    4.22    92.54933   138.55282   -38.60521
   270  C   4.0    0.15    3.26    3.05    92.52098   139.27847   -35.81031
   271  O   6.0   -0.30    1.21    1.80    90.58401   140.05893   -34.78419
   272  N   5.0   -0.19    3.17    1.95    94.68850   139.02336   -34.57632
   273  H   1.0    0.09    1.11    1.45    90.95440   135.33650   -35.69314
   274  H   1.0    0.05    1.07    1.44    88.60169   137.72701   -39.38000
   275  H   1.0    0.04    1.04    1.43    94.35780   137.65331   -39.01150
   276  H   1.0    0.04    1.03    1.43    92.35658   140.27814   -39.71259
   277  H   1.0    0.09    1.02    1.43    94.79243   139.47689   -32.70549
   278  H   1.0    0.08    1.03    1.43    96.25130   138.37329   -35.49850
   279  N   5.0   -0.14    3.44    2.04    92.96318   134.76959   -42.59631
   280  C   4.0    0.03    4.38    4.34    93.61513   133.82094   -45.11343
   281  C   4.0    0.16    3.46    3.10    91.41360   132.46223   -46.41545
   282  O   6.0   -0.31    1.23    1.80    90.56134   133.24647   -48.44312
   283  C   4.0   -0.05    4.26    4.12    95.91115   132.05405   -44.93390
   284  C   4.0   -0.04    4.12    3.84    96.96373   131.10163   -47.49259
   285  C   4.0    0.24    3.08    3.02    98.32244   128.50136   -47.15055
   286  O   6.0   -0.30    1.15    1.80    97.05632   126.59841   -46.37576
   287  O   6.0   -0.29    1.15    1.80   100.64869   128.34641   -47.67590
   288  H   1.0    0.08    1.06    1.44    94.40693   134.59762   -41.33209
   289  H   1.0    0.05    1.06    1.44    94.10835   135.44611   -46.27750
   290  H   1.0    0.05    1.03    1.43    97.43238   133.06316   -43.98148
   291  H   1.0    0.06    1.03    1.43    95.37069   130.39676   -43.83786
   292  H   1.0    0.05    1.02    1.43    95.41415   130.86163   -48.82863
   293  H   1.0    0.05    1.02    1.43    98.32433   132.46223   -48.22770
   294  N   5.0   -0.13    3.47    2.06    90.48575   130.46101   -45.20224
   295  C   4.0    0.03    4.43    4.43    88.64138   128.75459   -46.34364
   296  C   4.0    0.14    3.48    3.10    86.13182   130.00559   -46.95213
   297  O   6.0   -0.31    1.69    1.81    84.89027   129.36308   -48.80973
   298  C   4.0   -0.05    4.38    4.34    88.22753   126.44912   -44.65989
   299  C   4.0   -0.02    4.22    4.05    90.29866   124.46869   -44.97548
   300  C   4.0   -0.06    4.13    3.86    92.14304   124.52160   -42.77395
   301  C   4.0   -0.08    4.13    3.87    89.13081   121.87976   -45.26461
   302  H   1.0    0.09    1.06    1.44    90.97708   129.96212   -43.40701
   303  H   1.0    0.05    1.07    1.44    89.43506   128.12531   -48.13699
   304  H   1.0    0.06    1.04    1.43    88.21052   127.05006   -42.69080
   305  H   1.0    0.04    1.04    1.43    86.42662   125.57607   -45.14744
   306  H   1.0    0.05    1.07    1.44    91.37959   124.89577   -46.67623
   307  H   1.0    0.04    1.03    1.43    93.58679   123.08352   -43.07441
   308  H   1.0    0.06    1.00    1.43    93.01798   126.38487   -42.67568
   309  H   1.0    0.05    1.02    1.43    91.11692   124.13421   -41.02973
   310  H   1.0    0.04    1.01    1.43    90.63315   120.48704   -45.48759
   311  H   1.0    0.03    1.02    1.43    88.02154   121.45269   -43.58275
   312  H   1.0    0.04    1.00    1.43    87.91572   121.87410   -46.92756
   313  N   5.0   -0.13    3.56    2.12    85.38916   131.79894   -45.38177
   314  C   4.0    0.03    4.44    4.45    83.04968   133.13686   -45.81452
   315  C   4.0    0.16    3.46    3.10    83.13471   134.35574   -48.42801
   316  O   6.0   -0.31    1.22    1.80    81.28467   134.26881   -49.84152
   317  C   4.0   -0.05    4.35    4.29    82.62449   135.09651   -43.73771
   318  C   4.0   -0.02    4.22    4.03    83.39739   134.35385   -41.03162
   319  C   4.0   -0.07    4.10    3.81    82.81346   136.50813   -39.21748
   320  C   4.0   -0.07    4.10    3.80    82.13316   131.92744   -40.10376
   321  H   1.0    0.10    1.09    1.44    86.35670   132.36018   -43.81141
   322  H   1.0    0.05    1.06    1.44    81.44908   131.84429   -45.73326
   323  H   1.0    0.05    1.03    1.43    83.70352   136.78214   -44.22715
   324  H   1.0    0.03    1.03    1.43    80.61382   135.53681   -43.68668
   325  H   1.0    0.07    1.08    1.44    85.42317   133.98157   -41.05997
   326  H   1.0    0.05    1.00    1.43    83.37093   135.95255   -37.31453
   327  H   1.0    0.04    1.00    1.43    83.86793   138.17865   -39.79952
   328  H   1.0    0.05    1.00    1.43    80.79145   136.89931   -39.27039
   329  H   1.0    0.04    1.00    1.43    82.77189   131.52871   -38.18569
   330  H   1.0    0.04    1.00    1.43    80.09037   132.18633   -40.12455
   331  H   1.0    0.05    1.00    1.43    82.65850   130.37786   -41.35476
   332  N   5.0   -0.14    3.50    2.08    85.31924   135.41776   -49.07618
   333  C   4.0    0.04    4.43    4.43    85.71797   136.54026   -51.55928
   334  C   4.0    0.16    3.47    3.10    85.68395   134.56172   -53.64932
   335  O   6.0   -0.28    1.32    1.80    84.75988   135.06627   -55.72424
   336  C   4.0   -0.03    4.31    4.21    88.19918   138.02747   -51.63487
   337  C   4.0    0.15    3.21    3.04    88.29178   139.95121   -53.78727
   338  O   6.0   -0.27    1.22    1.80    87.49053   139.44288   -55.91510
   339  N   5.0   -0.19    3.17    1.95    89.30089   142.17731   -53.22980
   340  H   1.0    0.11    1.07    1.44    86.85747   135.53303   -47.91967
   341  H   1.0    0.05    1.07    1.44    84.17595   137.86118   -51.89943
   342  H   1.0    0.04    1.03    1.43    88.42217   139.04793   -49.86042
   343  H   1.0    0.06    1.03    1.43    89.76198   136.71033   -51.89187
   344  H   1.0    0.09    1.02    1.43    89.41994   143.54736   -54.58095
   345  H   1.0    0.07    1.03    1.43    89.95662   142.51935   -51.44968
   346  N   5.0   -0.13    3.50    2.08    86.67606   132.31861   -53.09185
   347  C   4.0    0.04    4.41    4.39    86.77811   130.25881   -54.93244
   348  C   4.0    0.17    3.47    3.10    84.17784   129.75236   -56.06250
   349  O   6.0   -0.29    1.21    1.80    83.93596   129.11742   -58.29805
   350  C   4.0    0.03    4.17    3.94    87.75509   127.85508   -53.68522
   351  O   6.0   -0.26    2.14    1.85    85.87860   126.81951   -52.08463
   352  H   1.0    0.10    1.08    1.44    87.42817   131.85941   -51.37787
   353  H   1.0    0.06    1.06    1.44    88.07635   130.79549   -56.43856
   354  H   1.0    0.04    1.01    1.43    88.23319   126.48125   -55.14409
   355  H   1.0    0.04    1.02    1.43    89.42561   128.30483   -52.56651
   356  H   1.0    0.17    1.38    1.53    85.13026   128.15365   -51.04150
   357  N   5.0   -0.13    3.55    2.11    82.24654   130.03960   -54.48269
   358  C   4.0    0.04    4.43    4.44    79.64817   129.76748   -55.30472
   359  C   4.0    0.15    3.39    3.07    78.38772   132.29593   -55.89809
   360  O   6.0   -0.30    1.22    1.80    76.21643   132.35641   -56.74280
   361  C   4.0   -0.04    4.42    4.42    78.14395   128.30861   -53.33751
   362  C   4.0   -0.04    4.07    3.75    78.01923   125.50426   -53.87420
   363  S   6.0   -0.04    2.63    3.10    75.36983   124.04917   -52.33029
   364  C   4.0   -0.07    3.96    3.55    73.08704   126.56440   -52.50037
   365  H   1.0    0.10    1.07    1.44    82.43363   130.46479   -52.61186
   366  H   1.0    0.06    1.07    1.44    79.61415   128.64309   -57.03004
   367  H   1.0    0.05    1.04    1.43    79.03023   128.56373   -51.49503
   368  H   1.0    0.05    1.10    1.44    76.21643   129.03427   -53.29783
   369  H   1.0    0.05    1.07    1.44    77.82836   125.20757   -55.90376
   370  H   1.0    0.04    1.08    1.44    79.74077   124.60286   -53.19012
   371  H   1.0    0.04    1.04    1.43    71.33526   125.94079   -51.61408
   372  H   1.0    0.04    1.05    1.44    73.82781   128.21035   -51.51015
   373  H   1.0    0.04    1.04    1.43    72.74689   127.02927   -54.47891
   374  N   5.0   -0.13    3.47    2.06    79.76344   134.36140   -55.46724
   375  C   4.0    0.05    4.24    4.07    78.84504   136.89175   -56.09085
   376  C   4.0    0.09    3.18    3.03    79.52156   137.70811   -58.79882
   377  O   6.0   -0.29    1.11    1.80    78.34237   139.44477   -59.84384
   378  C   4.0   -0.06    4.10    3.79    79.80313   138.81549   -54.16899
   379  H   1.0    0.12    1.13    1.45    81.52656   134.34440   -54.68678
   380  H   1.0    0.06    1.06    1.44    76.78901   136.91253   -55.95856
   381  H   1.0    0.05    1.00    1.43    79.09259   140.68065   -54.67733
   382  H   1.0    0.05    1.00    1.43    79.12094   138.29014   -52.29817
   383  H   1.0    0.06    1.01    1.43    81.86293   138.81738   -54.19167
   384  N   5.0   -0.22    3.20    1.96    91.17030   108.39993   -52.61595
   385  C   4.0    0.03    4.24    4.08    90.66359   110.86116   -51.51235
   386  C   4.0    0.07    3.22    3.04    88.64142   112.13757   -53.09594
   387  O   6.0   -0.32    1.14    1.80    86.59782   112.69898   -52.14730
   388  C   4.0   -0.06    4.28    4.16    93.04653   112.47479   -51.31582
   389  C   4.0   -0.05    4.21    4.01    93.24908   113.78314   -48.78926
   390  C   4.0   -0.02    4.21    4.02    95.79770   115.03420   -48.41131
   391  N   5.0   -0.15    3.37    2.01    96.03337   116.11510   -45.86774
   392  C   4.0    0.09    3.33    3.06    95.55854   118.52490   -45.24602
   393  N   5.0   -0.18    3.27    1.97    94.82338   120.17996   -46.98457
   394  N   5.0   -0.19    3.24    1.96    95.82321   119.30614   -42.86308
   395  H   1.0    0.07    1.03    1.43    92.98546   108.13213   -53.20744
   396  H   1.0    0.04    1.07    1.44    90.01837   110.63702   -49.56972
   397  H   1.0    0.03    1.04    1.43    94.70039   111.26940   -51.55204
   398  H   1.0    0.04    1.04    1.43    93.01081   113.91615   -52.78603
   399  H   1.0    0.04    1.03    1.43    91.79779   115.23859   -48.66454
   400  H   1.0    0.04    1.03    1.43    92.98850   112.39765   -47.28882
   401  H   1.0    0.03    1.03    1.43    97.28881   113.63447   -48.66076
   402  H   1.0    0.04    1.03    1.43    96.02228   116.55384   -49.78326
   403  H   1.0    0.07    1.06    1.44    96.60539   114.93536   -44.45612
   404  H   1.0    0.08    1.03    1.43    94.61467   119.62305   -48.81761
   405  H   1.0    0.09    1.03    1.43    94.46810   122.00853   -46.48568
   406  H   1.0    0.08    1.02    1.43    96.39034   118.06685   -41.50059
   407  H   1.0    0.08    1.04    1.44    95.45899   121.14264   -42.40388
   408  N   5.0   -0.21    3.30    1.98    81.38223   110.34893   -52.77091
   409  C   4.0    0.03    4.37    4.34    79.74311   111.13951   -50.73379
   410  C   4.0    0.14    3.48    3.11    78.74373   113.75488   -51.30637
   411  O   6.0   -0.33    1.32    1.80    76.63336   114.41304   -50.61096
   412  C   4.0   -0.05    4.28    4.15    81.15047   111.02249   -48.22612
   413  C   4.0   -0.05    4.20    4.00    82.47323   108.47817   -47.80660
   414  C   4.0   -0.05    4.19    3.98    80.62058   106.26732   -47.98991
   415  C   4.0   -0.04    4.13    3.85    81.89922   103.89391   -48.99335
   416  N   5.0   -0.12    3.99    2.84    80.06718   101.79098   -49.41476
   417  H   1.0    0.10    1.05    1.44    83.26751   110.54930   -52.42131
   418  H   1.0    0.03    1.07    1.44    78.13991   109.86477   -50.51080
   419  H   1.0    0.05    1.03    1.43    82.58400   112.50039   -48.19211
   420  H   1.0    0.04    1.03    1.43    79.80847   111.30599   -46.68977
   421  H   1.0    0.04    1.03    1.43    83.92784   108.22259   -49.24279
   422  H   1.0    0.04    1.03    1.43    83.32302   108.45383   -45.93010
   423  H   1.0    0.04    1.03    1.43    79.86650   105.85377   -46.11908
   424  H   1.0    0.04    1.04    1.43    79.08776   106.76796   -49.27303
   425  H   1.0    0.03    1.02    1.43    82.80722   104.32432   -50.79237
   426  H   1.0    0.04    1.02    1.43    83.30397   103.25605   -47.63086
   427  H   1.0    0.04    1.01    1.43    81.00806   100.20668   -50.09884
   428  H   1.0    0.05    1.01    1.43    79.17739   101.32526   -47.72534
   429  H   1.0    0.05    1.01    1.43    78.70596   102.33832   -50.72245
   430  N   5.0   -0.15    3.59    2.15    80.25471   115.21204   -52.66887
   431  C   4.0    0.03    4.48    4.50    79.41234   117.62349   -53.63641
   432  C   4.0    0.15    3.47    3.10    77.25364   117.23908   -55.47133
   433  O   6.0   -0.31    1.24    1.80    76.04740   119.04112   -56.27635
   434  C   4.0   -0.05    4.38    4.35    81.58873   118.98258   -54.91764
   435  C   4.0   -0.02    4.18    3.97    83.21712   120.65591   -53.20933
   436  C   4.0   -0.07    4.09    3.79    83.55419   119.65256   -50.48812
   437  C   4.0   -0.07    4.11    3.82    85.74725   121.05837   -54.49812
   438  H   1.0    0.08    1.07    1.44    82.07277   114.76916   -53.13185
   439  H   1.0    0.05    1.06    1.44    78.78554   118.84142   -52.09817
   440  H   1.0    0.04    1.04    1.43    82.83194   117.56628   -55.74723
   441  H   1.0    0.05    1.04    1.43    80.81267   120.19071   -56.39352
   442  H   1.0    0.04    1.07    1.44    82.23991   122.45053   -52.95044
   443  H   1.0    0.04    1.00    1.43    84.73413   120.96878   -49.42988
   444  H   1.0    0.04    1.00    1.43    81.70271   119.49571   -49.59806
   445  H   1.0    0.05    1.00    1.43    84.45688   117.80182   -50.56182
   446  H   1.0    0.05    1.00    1.43    86.92798   122.24849   -53.30193
   447  H   1.0    0.04    1.00    1.43    86.65358   119.23156   -54.78347
   448  H   1.0    0.04    1.00    1.43    85.43633   121.97863   -56.31415
   449  N   5.0   -0.14    3.57    2.13    76.78884   114.86939   -56.13273
   450  C   4.0    0.04    4.43    4.44    74.48708   114.18854   -57.43854
   451  C   4.0    0.16    3.47    3.10    72.39369   113.92912   -55.49590
   452  O   6.0   -0.30    1.28    1.80    70.47475   115.23459   -55.67920
   453  C   4.0   -0.05    4.27    4.14    74.81398   111.73261   -58.93331
   454  C   4.0   -0.03    4.22    4.05    72.35206   110.43342   -59.75912
   455  C   4.0    0.16    3.21    3.04    71.00361   111.79768   -61.90018
   456  O   6.0   -0.29    1.20    1.80    69.86561   113.80278   -61.52034
   457  N   5.0   -0.19    3.17    1.95    71.09714   110.69082   -64.16407
   458  H   1.0    0.08    1.09    1.44    77.97094   113.38508   -55.78880
   459  H   1.0    0.07    1.06    1.44    74.00645   115.63707   -58.82181
   460  H   1.0    0.04    1.03    1.43    75.88775   112.15180   -60.63973
   461  H   1.0    0.04    1.03    1.43    75.84940   110.39274   -57.75979
   462  H   1.0    0.04    1.03    1.43    72.78997   108.52600   -60.40163
   463  H   1.0    0.06    1.04    1.43    71.06722   110.35715   -58.15096
   464  H   1.0    0.07    1.02    1.43    72.03629   109.02260   -64.38328
   465  H   1.0    0.09    1.02    1.43    70.22903   111.51413   -65.67585
   466  N   5.0   -0.14    3.48    2.06    72.78750   112.29082   -53.61562
   467  C   4.0    0.03    4.37    4.33    70.79974   111.68216   -51.76558
   468  C   4.0    0.15    3.42    3.08    69.98064   113.97393   -50.20844
   469  O   6.0   -0.31    1.24    1.80    67.88103   114.05787   -49.19555
   470  C   4.0   -0.04    4.22    4.04    71.51892   109.40471   -50.07427
   471  C   4.0   -0.03    4.19    3.99    73.22995   109.94088   -47.77070
   472  C   4.0    0.14    3.18    3.03    73.05608   107.92901   -45.65987
   473  O   6.0   -0.30    1.20    1.80    71.29437   106.40346   -45.57862
   474  N   5.0   -0.19    3.17    1.95    74.89269   107.95289   -43.93833
   475  H   1.0    0.08    1.06    1.44    74.44556   111.35407   -53.31515
   476  H   1.0    0.05    1.06    1.44    69.14395   111.05786   -52.81816
   477  H   1.0    0.06    1.03    1.43    69.77682   108.58220   -49.34484
   478  H   1.0    0.04    1.03    1.43    72.50972   108.03252   -51.24779
   479  H   1.0    0.04    1.03    1.43    75.18729   110.01265   -48.40565
   480  H   1.0    0.05    1.05    1.44    72.68770   111.75315   -46.95245
   481  H   1.0    0.08    1.03    1.43    76.31060   109.25376   -44.05928
   482  H   1.0    0.09    1.02    1.43    74.88151   106.67211   -42.49836
   483  N   5.0   -0.13    3.54    2.11    71.65152   115.84199   -50.09317
   484  C   4.0    0.03    4.46    4.48    71.18857   118.11027   -48.64942
   485  C   4.0    0.15    3.50    3.11    69.71195   120.04424   -50.15742
   486  O   6.0   -0.33    1.53    1.80    67.79137   120.98217   -49.26169
   487  C   4.0   -0.04    4.34    4.27    73.67020   119.19391   -47.68755
   488  C   4.0   -0.01    3.51    3.12    74.57167   117.98399   -45.25358
   489  C   4.0   -0.05    3.44    3.09    75.24483   119.46367   -43.18811
   490  C   4.0   -0.03    3.46    3.10    74.74325   115.35111   -44.99469
   491  C   4.0   -0.04    3.49    3.11    76.07922   118.36996   -40.92611
   492  C   4.0   -0.05    3.40    3.08    75.58432   114.23070   -42.72513
   493  C   4.0    0.06    3.41    3.08    76.24928   115.76238   -40.69745
   494  O   6.0   -0.24    2.12    1.84    77.08900   114.73502   -38.44490
   495  H   1.0    0.11    1.11    1.45    73.35587   115.82661   -50.99268
   496  H   1.0    0.06    1.07    1.44    70.05948   117.63950   -46.99213
   497  H   1.0    0.05    1.04    1.43    75.12382   118.89848   -49.11618
   498  H   1.0    0.04    1.04    1.43    73.42566   121.20861   -47.33795
   499  H   1.0    0.04    1.03    1.43    75.12116   121.49579   -43.33173
   500  H   1.0    0.06    1.06    1.44    74.22142   114.15736   -46.56505
   501  H   1.0    0.05    1.11    1.44    76.59356   119.56156   -39.35197
   502  H   1.0    0.05    1.04    1.43    75.70963   112.19953   -42.56450
   503  H   1.0    0.12    1.03    1.43    77.10848   112.88714   -38.56017
   504  N   5.0   -0.14    3.56    2.13    70.57048   120.63592   -52.44399
   505  C   4.0    0.03    4.45    4.47    69.03519   122.16507   -54.14285
   506  C   4.0    0.16    3.52    3.12    66.40141   121.03505   -54.10128
   507  O   6.0   -0.29    1.22    1.80    64.54397   122.37384   -53.68743
   508  C   4.0   -0.05    4.29    4.18    70.10608   122.12437   -56.82248
   509  C   4.0   -0.05    4.17    3.95    68.77954   123.88532   -58.67442
   510  C   4.0   -0.01    4.21    4.01    69.22138   123.04066   -61.40696
   511  N   5.0   -0.14    3.38    2.01    68.15403   124.81379   -63.24755
   512  C   4.0    0.09    3.33    3.06    68.13235   124.46960   -65.74388
   513  N   5.0   -0.19    3.25    1.97    69.11878   122.39445   -66.76622
   514  N   5.0   -0.19    3.23    1.96    67.10964   126.21831   -67.22732
   515  H   1.0    0.09    1.08    1.44    72.27902   120.09927   -53.15831
   516  H   1.0    0.05    1.06    1.44    69.02498   124.14050   -53.56082
   517  H   1.0    0.05    1.04    1.43    72.08656   122.68518   -56.74501
   518  H   1.0    0.06    1.04    1.43    69.94420   120.20888   -57.56326
   519  H   1.0    0.05    1.03    1.43    66.75375   123.86786   -58.30592
   520  H   1.0    0.04    1.03    1.43    69.51828   125.79564   -58.45521
   521  H   1.0    0.05    1.03    1.43    71.24879   122.90413   -61.75089
   522  H   1.0    0.05    1.03    1.43    68.33253   121.20515   -61.69798
   523  H   1.0    0.07    1.06    1.44    67.36744   126.43698   -62.56725
   524  H   1.0    0.08    1.03    1.43    69.90346   121.04291   -65.63806
   525  H   1.0    0.08    1.02    1.43    69.08914   122.15476   -68.67863
   526  H   1.0    0.08    1.02    1.43    66.34686   127.81161   -66.45442
   527  H   1.0    0.08    1.02    1.43    67.08662   125.96717   -69.13783
   528  N   5.0   -0.14    3.52    2.09    66.29978   118.53901   -54.43765
   529  C   4.0    0.04    4.41    4.39    63.95079   117.09335   -54.42064
   530  C   4.0    0.16    3.43    3.09    62.58596   117.13673   -51.89786
   531  O   6.0   -0.29    1.24    1.80    60.29733   116.71659   -51.81093
   532  C   4.0   -0.03    4.29    4.17    64.41094   114.34994   -55.19732
   533  C   4.0   -0.02    4.18    3.97    64.50916   113.92660   -58.04325
   534  C   4.0    0.25    3.12    3.03    63.89564   111.21357   -58.78213
   535  O   6.0   -0.28    1.17    1.80    65.57489   109.93774   -59.84416
   536  O   6.0   -0.28    1.17    1.80    61.74024   110.35101   -58.29836
   537  H   1.0    0.11    1.10    1.44    67.85263   117.43677   -54.73434
   538  H   1.0    0.06    1.06    1.44    62.71563   117.96660   -55.81904
   539  H   1.0    0.06    1.03    1.43    66.21381   113.73683   -54.41308
   540  H   1.0    0.07    1.04    1.43    62.88387   113.18899   -54.44521
   541  H   1.0    0.05    1.03    1.43    63.13456   115.16230   -58.95410
   542  H   1.0    0.08    1.03    1.43    66.40418   114.35952   -58.72166
   543  N   5.0   -0.12    3.51    2.09    63.96732   117.59386   -49.84562
   544  C   4.0    0.05    4.51    4.55    62.72966   117.81758   -47.40976
   545  C   4.0    0.16    3.45    3.09    61.97684   120.54258   -46.82017
   546  O   6.0   -0.30    1.35    1.80    59.92276   120.98230   -45.84696
   547  C   4.0   -0.04    4.32    4.23    64.32823   116.65883   -45.30649
   548  C   4.0   -0.04    4.06    3.73    63.04924   116.58375   -42.72135
   549  S   6.0   -0.02    2.62    3.10    59.66187   116.09003   -42.74403
   550  C   4.0   -0.06    3.88    3.43    59.02619   115.72085   -39.42567
   551  H   1.0    0.12    1.10    1.44    65.88300   117.80959   -49.82105
   552  H   1.0    0.07    1.11    1.45    61.00673   116.68974   -47.44944
   553  H   1.0    0.06    1.03    1.43    64.78830   114.72056   -45.82806
   554  H   1.0    0.05    1.03    1.43    66.05501   117.76488   -45.11185
   555  H   1.0    0.04    1.07    1.44    63.88069   115.04537   -41.63476
   556  H   1.0    0.06    1.10    1.44    63.39517   118.38075   -41.77649
   557  H   1.0    0.05    1.04    1.43    57.00736   115.40410   -39.16111
   558  H   1.0    0.04    1.04    1.43    60.08909   114.10662   -38.71513
   559  H   1.0    0.05    1.04    1.43    59.60408   117.43356   -38.43734
   560  N   5.0   -0.14    3.50    2.08    63.61607   122.35963   -47.40220
   561  C   4.0    0.04    4.36    4.31    62.97250   125.02769   -47.09607
   562  C   4.0    0.10    3.31    3.06    60.52812   125.58029   -48.44344
   563  O   6.0   -0.32    1.24    1.80    58.60122   126.20035   -47.28315
   564  C   4.0   -0.05    4.41    4.39    64.98591   126.71819   -48.25447
   565  C   4.0   -0.03    4.20    4.01    66.82466   128.10274   -46.52915
   566  C   4.0   -0.08    4.15    3.90    66.79060   130.85649   -47.25291
   567  C   4.0   -0.08    4.17    3.93    66.20301   127.79620   -43.75314
   568  H   1.0    0.13    1.22    1.47    65.39064   122.04876   -48.08439
   569  H   1.0    0.05    1.08    1.44    62.81882   125.42992   -45.08162
   570  H   1.0    0.06    1.04    1.43    66.13240   125.54500   -49.49980
   571  H   1.0    0.05    1.07    1.44    64.01587   128.16782   -49.34862
   572  H   1.0    0.04    1.06    1.44    68.70667   127.29965   -46.76536
   573  H   1.0    0.03    1.00    1.43    68.09699   131.88567   -46.03782
   574  H   1.0    0.04    1.00    1.43    67.36968   131.04025   -49.22201
   575  H   1.0    0.05    1.02    1.43    64.88148   131.58937   -47.01103
   576  H   1.0    0.04    1.00    1.43    67.59023   128.83277   -42.63631
   577  H   1.0    0.04    1.01    1.43    64.31749   128.54490   -43.40165
   578  H   1.0    0.04    1.01    1.43    66.26560   125.79429   -43.26937
   579  N   5.0   -0.20    3.26    1.97    55.07814   122.28317   -46.13986
   580  C   4.0    0.04    4.27    4.13    53.95946   123.31750   -43.87975
   581  C   4.0    0.08    3.23    3.04    53.38574   126.09134   -44.32573
   582  O   6.0   -0.31    1.15    1.80    53.25154   127.59368   -42.56450
   583  C   4.0   -0.02    4.29    4.18    55.64323   122.86910   -41.58373
   584  C   4.0    0.24    3.13    3.03    54.24641   121.56949   -39.43323
   585  O   6.0   -0.30    1.21    1.80    51.88398   121.40568   -39.53527
   586  O   6.0   -0.32    1.22    1.80    55.51229   120.69217   -37.63988
   587  H   1.0    0.14    1.07    1.44    56.78023   123.03894   -46.64064
   588  H   1.0    0.06    1.09    1.44    52.19052   122.36384   -43.43000
   589  H   1.0    0.06    1.04    1.43    57.22721   121.67137   -42.13364
   590  H   1.0    0.06    1.06    1.44    56.33624   124.68100   -40.89209
   591  N   5.0   -0.20    3.25    1.97    56.37193   130.77212   -46.89953
   592  C   4.0    0.03    4.36    4.32    58.18803   132.50582   -45.82617
   593  C   4.0    0.07    3.28    3.05    59.68126   133.94836   -47.78204
   594  O   6.0   -0.30    1.13    1.80    60.89988   132.84300   -49.43177
   595  C   4.0   -0.02    4.39    4.37    59.97616   131.15101   -44.03093
   596  C   4.0   -0.05    4.24    4.08    58.52869   130.32841   -41.67255
   597  C   4.0   -0.09    4.25    4.09    62.10755   132.87908   -43.31283
   598  C   4.0   -0.07    4.04    3.69    59.39752   127.87114   -40.55761
   599  H   1.0    0.13    1.08    1.44    57.12420   129.17058   -47.66676
   600  H   1.0    0.03    1.07    1.44    57.06948   133.93298   -44.85107
   601  H   1.0    0.06    1.07    1.44    60.74910   129.48721   -44.96634
   602  H   1.0    0.03    1.04    1.43    58.74889   131.78005   -40.22691
   603  H   1.0    0.06    1.05    1.44    56.53891   130.12008   -42.16388
   604  H   1.0    0.03    1.01    1.43    63.37278   131.88573   -42.02782
   605  H   1.0    0.04    1.03    1.43    63.12682   133.43046   -45.01548
   606  H   1.0    0.03    1.03    1.43    61.33341   134.54874   -42.38687
   607  H   1.0    0.04    1.00    1.43    58.25790   127.44884   -38.89465
   608  H   1.0    0.06    1.01    1.43    59.17116   126.38103   -41.96168
   609  H   1.0    0.04    1.00    1.43    61.37950   128.04006   -40.02471
   610  N   5.0   -0.22    3.23    1.96    68.14529   141.46228   -40.15510
   611  C   4.0    0.02    4.35    4.28    68.41048   139.23039   -38.54883
   612  C   4.0    0.13    3.45    3.09    71.12391   138.37053   -38.21246
   613  O   6.0   -0.30    1.63    1.81    71.77873   137.12295   -36.35486
   614  C   4.0   -0.05    4.36    4.31    66.75726   137.08231   -39.53527
   615  C   4.0   -0.03    4.22    4.04    64.06860   137.27567   -38.49214
   616  C   4.0   -0.09    4.11    3.83    62.24042   138.46551   -40.37242
   617  C   4.0   -0.08    4.12    3.85    63.13289   134.69739   -37.67011
   618  H   1.0    0.07    1.03    1.43    67.13017   141.13805   -41.76137
   619  H   1.0    0.04    1.07    1.44    67.72996   139.72123   -36.66856
   620  H   1.0    0.04    1.04    1.43    66.66940   137.17779   -41.59129
   621  H   1.0    0.04    1.04    1.43    67.55895   135.27800   -38.94757
   622  H   1.0    0.03    1.07    1.44    64.11743   138.52145   -36.85186
   623  H   1.0    0.03    1.00    1.43    60.36676   138.55116   -39.52204
   624  H   1.0    0.03    1.00    1.43    62.89178   140.36466   -40.82973
   625  H   1.0    0.03    1.02    1.43    62.18696   137.31089   -42.07695
   626  H   1.0    0.03    1.00    1.43    61.21778   134.88130   -36.93501
   627  H   1.0    0.03    1.03    1.43    63.14205   133.43053   -39.29528
   628  H   1.0    0.04    1.00    1.43    64.38148   133.96718   -36.20368
   629  N   5.0   -0.15    3.51    2.08    72.70526   139.07841   -40.01337
   630  C   4.0    0.03    4.32    4.24    75.37816   138.52683   -39.84897
   631  C   4.0    0.08    3.22    3.04    76.51756   139.84146   -37.52460
   632  O   6.0   -0.30    1.11    1.80    77.73192   138.63763   -35.94479
   633  C   4.0   -0.06    4.32    4.23    76.68872   139.30311   -42.31695
   634  C   4.0   -0.03    4.20    4.00    75.23789   138.76224   -44.79060
   635  C   4.0   -0.08    4.08    3.76    76.68244   139.66171   -47.12252
   636  C   4.0   -0.08    4.08    3.77    74.47607   135.98104   -45.08729
   637  H   1.0    0.07    1.09    1.44    72.19400   140.03574   -41.60641
   638  H   1.0    0.05    1.06    1.44    75.68509   136.50233   -39.62976
   639  H   1.0    0.04    1.03    1.43    77.02917   141.33261   -42.24703
   640  H   1.0    0.03    1.03    1.43    78.47907   138.29218   -42.43222
   641  H   1.0    0.03    1.07    1.44    73.49290   139.84955   -44.66399
   642  H   1.0    0.04    1.00    1.43    75.57449   139.23369   -48.80438
   643  H   1.0    0.03    1.00    1.43    76.98630   141.69409   -46.98079
   644  H   1.0    0.04    1.00    1.43    78.49443   138.68509   -47.20756
   645  H   1.0    0.04    1.00    1.43    73.46639   135.74942   -46.86741
   646  H   1.0    0.04    1.00    1.43    76.17568   134.81734   -45.08729
   647  H   1.0    0.04    1.00    1.43    73.25842   135.44823   -43.51314
   648  N   5.0   -0.20    3.23    1.96    73.76883   142.05127   -32.73415
   649  C   4.0    0.03    4.31    4.21    72.36989   141.43562   -30.44947
   650  C   4.0    0.15    3.44    3.09    73.93212   139.75400   -28.71848
   651  O   6.0   -0.31    1.22    1.80    74.43411   140.40387   -26.53396
   652  C   4.0    0.02    4.18    3.96    69.92298   140.08399   -31.16190
   653  O   6.0   -0.26    2.17    1.85    70.45949   137.71853   -32.30518
   654  H   1.0    0.09    1.04    1.43    72.85777   141.51655   -34.34608
   655  H   1.0    0.04    1.05    1.44    71.91725   143.17961   -29.45169
   656  H   1.0    0.04    1.01    1.43    68.80467   139.77219   -29.45925
   657  H   1.0    0.03    1.01    1.43    68.87074   141.25268   -32.49226
   658  H   1.0    0.17    1.36    1.52    71.13480   137.97750   -34.00971
   659  N   5.0   -0.14    3.56    2.12    74.70704   137.59165   -29.72948
   660  C   4.0    0.04    4.44    4.45    76.24644   135.82485   -28.31408
   661  C   4.0    0.15    3.42    3.08    78.90222   136.85629   -27.89834
   662  O   6.0   -0.26    1.26    1.80    80.16950   136.13906   -26.07664
   663  C   4.0   -0.04    4.39    4.36    76.33249   133.29096   -29.67090
   664  C   4.0   -0.04    4.06    3.73    74.17398   131.54941   -28.96792
   665  S   6.0   -0.04    2.66    3.10    73.46607   129.29467   -31.41512
   666  C   4.0   -0.07    3.90    3.46    76.55641   128.22038   -32.32975
   667  H   1.0    0.10    1.08    1.44    74.29707   137.01673   -31.52283
   668  H   1.0    0.06    1.07    1.44    75.38399   135.48184   -26.47538
   669  H   1.0    0.05    1.06    1.44    76.24242   133.62082   -31.70236
   670  H   1.0    0.05    1.04    1.43    78.09562   132.33850   -29.18902
   671  H   1.0    0.04    1.07    1.44    74.67764   130.50696   -27.26528
   672  H   1.0    0.04    1.07    1.44    72.48249   132.67635   -28.62966
   673  H   1.0    0.04    1.04    1.43    76.36434   126.82207   -33.83019
   674  H   1.0    0.04    1.04    1.43    77.65278   129.82875   -33.00438
   675  H   1.0    0.04    1.05    1.44    77.48346   127.37436   -30.69702
   676  N   5.0   -0.14    3.44    2.04    79.71078   138.56253   -29.56697
   677  C   4.0    0.04    4.24    4.07    82.19728   139.76244   -29.37988
   678  C   4.0    0.09    3.19    3.04    82.55462   141.31291   -26.94970
   679  O   6.0   -0.28    1.11    1.80    84.63039   141.37231   -25.89145
   680  C   4.0   -0.07    4.09    3.79    82.71300   141.38253   -31.70425
   681  H   1.0    0.09    1.07    1.44    78.68333   139.16292   -31.08442
   682  H   1.0    0.06    1.06    1.44    83.59117   138.24767   -29.31752
   683  H   1.0    0.05    1.00    1.43    84.56998   142.25172   -31.51716
   684  H   1.0    0.05    1.00    1.43    82.66371   140.18666   -33.38043
   685  H   1.0    0.04    1.00    1.43    81.26404   142.84151   -31.84031
   686  N   5.0   -0.18    3.20    1.95    78.44569   140.68191   -21.57910
   687  C   4.0    0.03    4.21    4.03    77.73706   139.11628   -19.41536
   688  C   4.0    0.25    3.21    3.04    78.25016   136.32272   -19.91425
   689  O   6.0   -0.31    1.24    1.80    78.83422   134.91426   -18.16247
   690  C   4.0   -0.08    4.10    3.79    74.97335   139.53034   -18.71616
   691  O   6.0   -0.27    1.26    1.80    78.08001   135.47603   -22.07420
   692  H   1.0    0.12    1.02    1.43    77.63928   140.12468   -23.24016
   693  H   1.0    0.05    1.06    1.44    78.88752   139.68231   -17.80342
   694  H   1.0    0.04    1.00    1.43    74.50377   138.34057   -17.10233
   695  H   1.0    0.03    1.00    1.43    74.69357   141.51160   -18.23239
   696  H   1.0    0.05    1.00    1.43    73.79120   139.02675   -20.32621
   697  H   1.0    0.09    1.07    1.44    90.84732   107.18618   -51.46920
   698  H   1.0    0.04    1.04    1.44    88.97056   112.52374   -54.91628
   699  H   1.0    0.09    1.07    1.44    81.12035   108.70173   -53.10364
   700  H   1.0    0.07    1.05    1.44    60.43648   125.44892   -50.32637
   701  H   1.0    0.11    1.08    1.44    55.33503   120.61461   -45.93378
   702  H   1.0    0.06    1.05    1.44    53.10814   126.72812   -46.08315
   703  H   1.0    0.10    1.08    1.44    55.28610   130.26759   -45.69166
   704  H   1.0    0.04    1.05    1.44    59.69496   135.83786   -47.75595
   705  H   1.0    0.08    1.07    1.44    67.35015   142.69249   -39.29087
   706  H   1.0    0.05    1.04    1.44    76.27798   141.69963   -37.27792
   707  H   1.0    0.08    1.07    1.44    74.01293   143.73249   -32.81469
   708  H   1.0    0.06    1.04    1.43    81.10160   142.27743   -26.22204
   709  H   1.0    0.09    1.07    1.44    77.96448   142.28892   -21.29890
   710  H   1.0    0.09    1.07    1.44    59.01311   124.42678   -25.16107
   711  H   1.0    0.07    1.04    1.43    80.91872   136.83766   -59.72689

  Z AO/shell   Hii/eV     exponent
  1     Wed Apr 25 08:07:45 CEST 2018   EN: 2.200 GM2: 0.406  GM3: 0.0800  RAES: 1.40
     1s    -10.707211    1.230000
  6     Wed Apr 25 08:07:45 CEST 2018   EN: 2.550 GM2: 0.538  GM3: 0.1500  RAES: 3.00
     2s    -13.970922    2.096432
     2p    -10.063292    1.800000
  7     Wed Apr 25 08:07:45 CEST 2018   EN: 3.040 GM2: 0.461  GM3:-0.0640  RAES: 1.90
     2s    -16.686243    2.339881
     2p    -12.523956    2.014332
  8     Wed Apr 25 08:07:45 CEST 2018   EN: 3.440 GM2: 0.452  GM3:-0.0517  RAES: 1.80
     2s    -20.229985    2.439742
     2p    -15.503117    2.137023
 16     Tue Apr 24 11:44:34 CEST 2018   EN: 2.580 GM2: 0.340  GM3:-0.0502  RAES: 3.10
     3s    -20.029654    1.981333
     3p    -11.377694    2.025643
     3d     -0.420282    1.702555
 no old-style atom pair restraining (fixing) potential

molecular fragmentation (1/2 indicates fragments):
111111111111111111111111111111111111111111111111111111111111111111111111
111111111111111111111111111111111111111111111111111111111111111111111111
111111111111111111111111111111111111111111111111111111111111111111111111
111111111111111111111111111111111111111111111111111111111111111111111111
111111111111111111111111111111111111111111111111111111111111111111111111
111111111111111111111112222222222222222222222222222222222222222222222222
222222222222222222222222222222222222222222222222222222222222222222222222
222222222222222222222222222222222222222222222222222222222222222222222222
222222222222222222222222222222222222222222222222222222222222222222222222
222222222222222222222222222222222222222222222222222222222222211
# atoms in fragment 1/2:   385   326
 fragment masses (1/2) :     2745.15     2191.71
CMA distance (Bohr)    :  12.670
constraining FC (au)   :  0.0500
           ------------------------------------------------- 
          |        Self-Consistent Charge Iterations        |
           ------------------------------------------------- 

 Ncao       : 1761
 Nao        : 1757
 Nshell     : 1057
 Nel        : 1936
 T(el)      :   500.0
 intcut     :    35.0
 scfconv/Eh :  0.100E-06
   qconv/e  :  0.100E-04
 intneglect :  0.100E-08
 broydamp   :      0.400
 iter      E             dE          RMSdq      gap      omega  full diag
   1  -1107.2578563 -0.110726E+04  0.469E+00    2.79       0.0  T
   2  -1110.0706966 -0.281284E+01  0.218E+00    1.38       1.0  T
   3  -1110.2432667 -0.172570E+00  0.123E+00    1.59       1.0  T
   4  -1110.4194802 -0.176214E+00  0.267E-01    0.92       1.0  T
   5  -1110.4301243 -0.106441E-01  0.134E-01    1.14       1.0  T
   6  -1110.4317278 -0.160349E-02  0.561E-02    1.12       1.0  T
   7  -1110.4322898 -0.562008E-03  0.237E-02    1.15       1.0  T
   8  -1110.4323379 -0.481429E-04  0.127E-02    1.15       1.0  T
   9  -1110.4323647 -0.267604E-04  0.594E-03    1.15       1.0  T
  10  -1110.4323692 -0.452078E-05  0.296E-03    1.15       1.3  T
  11  -1110.4323704 -0.115455E-05  0.132E-03    1.15       2.8  T
  12  -1110.4323706 -0.195731E-06  0.630E-04    1.15       6.0  T
  13  -1110.4323706 -0.592263E-07  0.309E-04    1.15      12.1  T
  14  -1110.4323706 -0.116183E-07  0.139E-04    1.15      26.9  T
  15  -1110.4323706 -0.391833E-08  0.647E-05    1.15      57.9  T
  16  -1110.4323706 -0.641649E-09  0.319E-05    1.15     117.6  T
speedup  0.88
cpu  time for SCC    1 m 44.2 s
wall time for SCC    1 m 58.0 s

   *** convergence criteria satisfied after 16 iterations ***

          eigenvalues
 #    :         956        957        958        959        960        961        962        963
 occ. :        2.000      2.000      2.000      2.000      2.000      2.000      2.000      2.000
 eps  :        -9.753     -9.730     -9.717     -9.707     -9.685     -9.584     -9.524     -9.493
 #    :         964        965        966        967        968        969        970        971
 occ. :        2.000      2.000      2.000      2.000      2.000      0.000      0.000      0.000
 eps  :        -9.466     -9.263     -9.261     -9.245     -9.156     -8.008     -7.777     -7.770
 #    :         972        973        974        975        976        977        978        979
 occ. :        0.000      0.000      0.000      0.000      0.000      0.000      0.000      0.000
 eps  :        -7.751     -7.679     -7.619     -7.233     -6.917     -6.722     -6.715     -6.691


   #   Z            q   n(s)   n(p)   n(d)      C6AA      α(0)
   1   7 N     -0.398  1.327  4.071  0.000    30.320     8.178
   2   6 C      0.018  1.056  2.926  0.000    20.284     6.414
   3   6 C      0.264  1.045  2.691  0.000    22.543     7.775
   4   8 O     -0.498  1.744  4.754  0.000    23.741     6.533
   5   6 C     -0.077  1.053  3.024  0.000    21.964     6.671
   6   6 C     -0.074  1.047  3.027  0.000    21.908     6.663
   7   6 C     -0.094  1.050  3.043  0.000    22.278     6.719
   8   6 C     -0.045  1.056  2.989  0.000    21.466     6.612
   9   7 N     -0.140  1.236  3.904  0.000    24.019     7.279
  10   1 H      0.175  0.825  0.000  0.000     1.245     1.748
  11   1 H      0.055  0.945  0.000  0.000     2.264     2.353
  12   1 H      0.067  0.933  0.000  0.000     2.117     2.275
  13   1 H      0.047  0.953  0.000  0.000     2.360     2.403
  14   1 H      0.047  0.953  0.000  0.000     2.361     2.403
  15   1 H      0.049  0.951  0.000  0.000     2.327     2.385
  16   1 H      0.092  0.908  0.000  0.000     1.856     2.130
  17   1 H      0.067  0.933  0.000  0.000     2.116     2.275
  18   1 H      0.109  0.891  0.000  0.000     1.703     2.041
  19   1 H      0.117  0.883  0.000  0.000     1.635     2.000
  20   1 H      0.293  0.707  0.000  0.000     0.735     1.343
  21   1 H      0.289  0.711  0.000  0.000     0.746     1.353
  22   1 H      0.273  0.727  0.000  0.000     0.799     1.400
  23   7 N     -0.164  1.246  3.918  0.000    24.540     7.357
  24   6 C      0.004  1.059  2.937  0.000    20.516     6.449
  25   6 C      0.276  1.039  2.686  0.000    22.341     7.740
  26   8 O     -0.483  1.738  4.745  0.000    23.400     6.486
  27   6 C     -0.090  1.063  3.027  0.000    22.204     6.706
  28   6 C     -0.016  1.053  2.962  0.000    20.822     6.490
  29   6 C     -0.125  1.047  3.077  0.000    22.950     6.832
  30   6 C     -0.118  1.045  3.073  0.000    22.811     6.809
  31   1 H      0.234  0.766  0.000  0.000     0.950     1.527
  32   1 H      0.090  0.910  0.000  0.000     1.881     2.145
  33   1 H      0.081  0.919  0.000  0.000     1.971     2.196
  34   1 H      0.049  0.951  0.000  0.000     2.338     2.391
  35   1 H      0.034  0.966  0.000  0.000     2.536     2.491
  36   1 H      0.055  0.945  0.000  0.000     2.262     2.352
  37   1 H      0.041  0.959  0.000  0.000     2.442     2.444
  38   1 H      0.054  0.946  0.000  0.000     2.277     2.360
  39   1 H      0.046  0.954  0.000  0.000     2.369     2.407
  40   1 H      0.058  0.942  0.000  0.000     2.219     2.330
  41   1 H      0.032  0.968  0.000  0.000     2.552     2.498
  42   7 N     -0.176  1.248  3.928  0.000    24.811     7.398
  43   6 C      0.009  1.062  2.929  0.000    20.434     6.436
  44   6 C      0.284  1.038  2.678  0.000    22.185     7.713
  45   8 O     -0.495  1.758  4.737  0.000    23.676     6.524
  46   6 C     -0.076  1.052  3.024  0.000    21.951     6.669
  47   6 C     -0.114  1.060  3.054  0.000    22.674     6.779
  48   6 C      0.276  1.040  2.683  0.000    22.323     7.736
  49   8 O     -0.519  1.768  4.750  0.000    24.204     6.596
  50   7 N     -0.278  1.268  4.010  0.000    27.186     7.744
  51   1 H      0.242  0.758  0.000  0.000     0.916     1.499
  52   1 H      0.097  0.903  0.000  0.000     1.811     2.105
  53   1 H      0.089  0.911  0.000  0.000     1.885     2.147
  54   1 H      0.060  0.940  0.000  0.000     2.203     2.321
  55   1 H      0.096  0.904  0.000  0.000     1.826     2.113
  56   1 H      0.091  0.909  0.000  0.000     1.867     2.137
  57   1 H      0.241  0.759  0.000  0.000     0.920     1.502
  58   1 H      0.225  0.775  0.000  0.000     0.987     1.556
  59   7 N     -0.176  1.245  3.931  0.000    24.822     7.399
  60   6 C      0.021  1.060  2.919  0.000    20.231     6.405
  61   6 C      0.275  1.040  2.685  0.000    22.355     7.743
  62   8 O     -0.503  1.740  4.763  0.000    23.810     6.544
  63   6 C     -0.071  1.047  3.024  0.000    21.845     6.652
  64   6 C     -0.103  1.054  3.048  0.000    22.453     6.745
  65   6 C      0.283  1.039  2.679  0.000    22.211     7.717
  66   8 O     -0.504  1.756  4.747  0.000    23.863     6.550
  67   7 N     -0.284  1.271  4.013  0.000    27.329     7.764
  68   1 H      0.225  0.775  0.000  0.000     0.986     1.555
  69   1 H      0.062  0.938  0.000  0.000     2.173     2.305
  70   1 H      0.090  0.910  0.000  0.000     1.874     2.141
  71   1 H      0.067  0.933  0.000  0.000     2.115     2.274
  72   1 H      0.059  0.941  0.000  0.000     2.210     2.325
  73   1 H      0.091  0.909  0.000  0.000     1.870     2.139
  74   1 H      0.228  0.772  0.000  0.000     0.975     1.547
  75   1 H      0.243  0.757  0.000  0.000     0.912     1.496
  76   7 N     -0.173  1.255  3.918  0.000    24.736     7.387
  77   6 C      0.026  1.058  2.917  0.000    20.145     6.391
  78   6 C      0.281  1.042  2.677  0.000    22.239     7.722
  79   8 O     -0.516  1.748  4.769  0.000    24.152     6.589
  80   6 C     -0.089  1.060  3.029  0.000    22.196     6.706
  81   6 C      0.000  1.082  2.918  0.000    28.027     8.683
  82   6 C     -0.043  1.090  2.954  0.000    29.079     8.843
  83   6 C     -0.050  1.092  2.958  0.000    29.229     8.866
  84   6 C     -0.062  1.077  2.984  0.000    29.539     8.912
  85   6 C     -0.072  1.080  2.992  0.000    29.803     8.952
  86   6 C      0.142  1.048  2.809  0.000    24.898     8.177
  87   8 O     -0.424  1.726  4.697  0.000    21.318     6.233
  88   1 H      0.262  0.738  0.000  0.000     0.838     1.434
  89   1 H      0.069  0.931  0.000  0.000     2.099     2.266
  90   1 H      0.088  0.912  0.000  0.000     1.898     2.154
  91   1 H      0.066  0.934  0.000  0.000     2.132     2.283
  92   1 H      0.051  0.949  0.000  0.000     2.302     2.372
  93   1 H      0.074  0.926  0.000  0.000     2.037     2.232
  94   1 H      0.058  0.942  0.000  0.000     2.228     2.334
  95   1 H      0.047  0.953  0.000  0.000     2.360     2.402
  96   1 H      0.311  0.689  0.000  0.000     0.688     1.303
  97   7 N     -0.212  1.267  3.945  0.000    25.623     7.518
  98   6 C      0.034  1.059  2.908  0.000    20.016     6.371
  99   6 C      0.288  1.037  2.675  0.000    22.116     7.701
 100   8 O     -0.527  1.757  4.770  0.000    24.384     6.621
 101   6 C     -0.083  1.059  3.024  0.000    22.077     6.689
 102   6 C     -0.063  1.048  3.016  0.000    21.719     6.635
 103   6 C     -0.012  1.053  2.960  0.000    20.879     6.520
 104   7 N     -0.145  1.214  3.931  0.000    24.137     7.297
 105   6 C      0.239  1.017  2.744  0.000    23.002     7.852
 106   7 N     -0.249  1.232  4.017  0.000    26.479     7.642
 107   7 N     -0.236  1.229  4.006  0.000    26.170     7.598
 108   1 H      0.280  0.720  0.000  0.000     0.776     1.379
 109   1 H      0.050  0.950  0.000  0.000     2.320     2.382
 110   1 H      0.076  0.924  0.000  0.000     2.018     2.222
 111   1 H      0.068  0.932  0.000  0.000     2.105     2.269
 112   1 H      0.043  0.957  0.000  0.000     2.403     2.424
 113   1 H      0.049  0.951  0.000  0.000     2.334     2.389
 114   1 H      0.100  0.900  0.000  0.000     1.782     2.087
 115   1 H      0.065  0.935  0.000  0.000     2.145     2.290
 116   1 H      0.212  0.788  0.000  0.000     1.045     1.602
 117   1 H      0.242  0.758  0.000  0.000     0.917     1.500
 118   1 H      0.258  0.742  0.000  0.000     0.852     1.446
 119   1 H      0.223  0.777  0.000  0.000     0.995     1.563
 120   1 H      0.255  0.745  0.000  0.000     0.864     1.456
 121   7 N     -0.185  1.249  3.936  0.000    25.006     7.427
 122   6 C      0.037  1.057  2.906  0.000    19.957     6.361
 123   6 C      0.277  1.047  2.676  0.000    22.311     7.735
 124   8 O     -0.513  1.740  4.773  0.000    24.073     6.578
 125   6 C     -0.052  1.051  3.001  0.000    21.510     6.603
 126   6 C     -0.092  1.064  3.028  0.000    22.251     6.716
 127   6 C      0.369  1.025  2.606  0.000    20.737     7.452
 128   8 O     -0.655  1.770  4.886  0.000    27.522     7.034
 129   8 O     -0.655  1.773  4.882  0.000    27.513     7.032
 130   1 H      0.230  0.770  0.000  0.000     0.966     1.540
 131   1 H      0.047  0.953  0.000  0.000     2.359     2.402
 132   1 H      0.050  0.950  0.000  0.000     2.326     2.385
 133   1 H      0.027  0.973  0.000  0.000     2.623     2.533
 134   1 H      0.014  0.986  0.000  0.000     2.820     2.626
 135   1 H      0.058  0.942  0.000  0.000     2.224     2.332
 136   7 N     -0.234  1.285  3.948  0.000    26.118     7.590
 137   6 C      0.039  1.058  2.903  0.000    19.931     6.358
 138   6 C      0.287  1.037  2.676  0.000    22.131     7.704
 139   8 O     -0.517  1.754  4.763  0.000    24.164     6.591
 140   6 C     -0.066  1.059  3.007  0.000    21.773     6.643
 141   6 C     -0.020  1.069  2.951  0.000    20.949     6.519
 142  16 S     -0.258  1.934  4.254  0.071   152.165    20.762
 143   6 C     -0.041  1.049  2.992  0.000    21.383     6.597
 144   1 H      0.277  0.723  0.000  0.000     0.783     1.384
 145   1 H      0.046  0.954  0.000  0.000     2.365     2.405
 146   1 H      0.068  0.932  0.000  0.000     2.106     2.270
 147   1 H      0.058  0.942  0.000  0.000     2.220     2.330
 148   1 H      0.066  0.934  0.000  0.000     2.129     2.282
 149   1 H      0.065  0.935  0.000  0.000     2.139     2.287
 150   1 H      0.066  0.934  0.000  0.000     2.129     2.282
 151   1 H      0.063  0.937  0.000  0.000     2.165     2.301
 152   1 H      0.054  0.946  0.000  0.000     2.265     2.354
 153   7 N     -0.208  1.262  3.945  0.000    25.520     7.503
 154   6 C      0.033  1.052  2.915  0.000    20.014     6.369
 155   6 C      0.282  1.039  2.679  0.000    22.222     7.720
 156   8 O     -0.511  1.747  4.764  0.000    24.036     6.573
 157   6 C     -0.069  1.054  3.016  0.000    21.815     6.648
 158   6 C     -0.009  1.050  2.959  0.000    20.696     6.471
 159   6 C     -0.125  1.047  3.078  0.000    22.954     6.830
 160   6 C     -0.131  1.051  3.080  0.000    23.064     6.846
 161   1 H      0.242  0.758  0.000  0.000     0.914     1.498
 162   1 H      0.086  0.914  0.000  0.000     1.918     2.166
 163   1 H      0.041  0.959  0.000  0.000     2.438     2.442
 164   1 H      0.034  0.966  0.000  0.000     2.536     2.491
 165   1 H      0.031  0.969  0.000  0.000     2.576     2.510
 166   1 H      0.067  0.933  0.000  0.000     2.114     2.274
 167   1 H      0.028  0.972  0.000  0.000     2.617     2.530
 168   1 H      0.048  0.952  0.000  0.000     2.345     2.395
 169   1 H      0.081  0.919  0.000  0.000     1.969     2.194
 170   1 H      0.044  0.956  0.000  0.000     2.392     2.418
 171   1 H      0.056  0.944  0.000  0.000     2.243     2.342
 172   7 N     -0.181  1.249  3.932  0.000    24.929     7.415
 173   6 C      0.033  1.063  2.904  0.000    20.013     6.370
 174   6 C      0.282  1.045  2.672  0.000    22.216     7.718
 175   8 O     -0.520  1.746  4.774  0.000    24.242     6.601
 176   6 C     -0.020  1.068  2.952  0.000    20.895     6.502
 177   6 C     -0.059  1.051  3.009  0.000    21.641     6.623
 178   6 C     -0.112  1.043  3.070  0.000    22.709     6.796
 179   6 C     -0.111  1.043  3.068  0.000    22.686     6.793
 180   1 H      0.212  0.788  0.000  0.000     1.048     1.604
 181   1 H      0.060  0.940  0.000  0.000     2.199     2.319
 182   1 H      0.048  0.952  0.000  0.000     2.350     2.397
 183   1 H      0.043  0.957  0.000  0.000     2.415     2.430
 184   1 H      0.027  0.973  0.000  0.000     2.628     2.535
 185   1 H      0.053  0.947  0.000  0.000     2.284     2.364
 186   1 H      0.052  0.948  0.000  0.000     2.291     2.367
 187   1 H      0.026  0.974  0.000  0.000     2.639     2.541
 188   1 H      0.053  0.947  0.000  0.000     2.279     2.361
 189   1 H      0.034  0.966  0.000  0.000     2.532     2.489
 190   1 H      0.049  0.951  0.000  0.000     2.328     2.386
 191   7 N     -0.211  1.264  3.948  0.000    25.603     7.515
 192   6 C      0.032  1.054  2.914  0.000    20.033     6.373
 193   6 C      0.280  1.038  2.682  0.000    22.260     7.726
 194   8 O     -0.504  1.743  4.761  0.000    23.879     6.552
 195   6 C     -0.113  1.041  3.072  0.000    22.719     6.796
 196   1 H      0.239  0.761  0.000  0.000     0.927     1.508
 197   1 H      0.067  0.933  0.000  0.000     2.124     2.279
 198   1 H      0.073  0.927  0.000  0.000     2.055     2.242
 199   1 H      0.063  0.937  0.000  0.000     2.166     2.301
 200   1 H      0.043  0.957  0.000  0.000     2.406     2.426
 201   7 N     -0.168  1.242  3.926  0.000    24.630     7.371
 202   6 C      0.041  1.051  2.908  0.000    19.893     6.350
 203   6 C      0.268  1.047  2.686  0.000    22.481     7.764
 204   8 O     -0.459  1.722  4.736  0.000    22.884     6.414
 205   6 C     -0.091  1.063  3.028  0.000    22.230     6.712
 206   6 C      0.374  1.021  2.605  0.000    20.660     7.439
 207   8 O     -0.651  1.779  4.872  0.000    27.405     7.019
 208   8 O     -0.627  1.749  4.879  0.000    26.799     6.941
 209   1 H      0.195  0.805  0.000  0.000     1.134     1.668
 210   1 H      0.077  0.923  0.000  0.000     2.013     2.219
 211   1 H      0.040  0.960  0.000  0.000     2.455     2.450
 212   1 H      0.062  0.938  0.000  0.000     2.173     2.305
 213   7 N     -0.171  1.243  3.928  0.000    24.702     7.382
 214   6 C     -0.026  1.051  2.975  0.000    21.111     6.554
 215   6 C      0.278  1.041  2.680  0.000    22.292     7.731
 216   8 O     -0.536  1.770  4.766  0.000    24.607     6.651
 217   1 H      0.197  0.803  0.000  0.000     1.122     1.660
 218   1 H      0.088  0.912  0.000  0.000     1.903     2.157
 219   1 H      0.098  0.902  0.000  0.000     1.802     2.099
 220   7 N     -0.189  1.265  3.924  0.000    25.102     7.441
 221   6 C      0.025  1.068  2.907  0.000    20.151     6.392
 222   6 C      0.303  1.036  2.661  0.000    21.850     7.654
 223   8 O     -0.522  1.763  4.759  0.000    24.272     6.605
 224   6 C     -0.023  1.061  2.962  0.000    20.939     6.508
 225   6 C     -0.088  1.058  3.030  0.000    22.174     6.703
 226   6 C     -0.117  1.045  3.072  0.000    22.786     6.806
 227   6 C     -0.116  1.040  3.076  0.000    22.778     6.806
 228   1 H      0.264  0.736  0.000  0.000     0.831     1.428
 229   1 H      0.046  0.954  0.000  0.000     2.375     2.410
 230   1 H      0.047  0.953  0.000  0.000     2.354     2.400
 231   1 H      0.079  0.921  0.000  0.000     1.993     2.207
 232   1 H      0.054  0.946  0.000  0.000     2.268     2.355
 233   1 H      0.065  0.935  0.000  0.000     2.145     2.290
 234   1 H      0.012  0.988  0.000  0.000     2.859     2.644
 235   1 H      0.071  0.929  0.000  0.000     2.076     2.253
 236   1 H      0.064  0.936  0.000  0.000     2.153     2.295
 237   1 H      0.037  0.963  0.000  0.000     2.488     2.467
 238   1 H      0.024  0.976  0.000  0.000     2.670     2.555
 239   7 N     -0.185  1.250  3.935  0.000    25.018     7.429
 240   6 C      0.048  1.050  2.901  0.000    19.774     6.332
 241   6 C      0.261  1.051  2.688  0.000    22.601     7.785
 242   8 O     -0.474  1.736  4.738  0.000    23.221     6.461
 243   6 C     -0.093  1.066  3.027  0.000    22.266     6.718
 244   6 C      0.367  1.023  2.610  0.000    20.771     7.459
 245   8 O     -0.639  1.774  4.864  0.000    27.085     6.978
 246   8 O     -0.637  1.763  4.874  0.000    27.039     6.972
 247   1 H      0.204  0.796  0.000  0.000     1.087     1.633
 248   1 H      0.036  0.964  0.000  0.000     2.507     2.476
 249   1 H      0.037  0.963  0.000  0.000     2.482     2.464
 250   1 H      0.033  0.967  0.000  0.000     2.543     2.494
 251   7 N     -0.103  1.246  3.858  0.000    23.262     7.163
 252   6 C      0.029  1.062  2.910  0.000    20.076     6.377
 253   6 C      0.280  1.040  2.680  0.000    22.263     7.726
 254   8 O     -0.464  1.741  4.723  0.000    23.010     6.431
 255   6 C     -0.086  1.058  3.028  0.000    22.112     6.689
 256   6 C     -0.061  1.041  3.019  0.000    21.640     6.618
 257   6 C      0.005  1.046  2.949  0.000    20.514     6.453
 258   1 H      0.065  0.935  0.000  0.000     2.145     2.290
 259   1 H      0.072  0.928  0.000  0.000     2.064     2.246
 260   1 H      0.065  0.935  0.000  0.000     2.141     2.288
 261   1 H      0.047  0.953  0.000  0.000     2.361     2.403
 262   1 H      0.072  0.928  0.000  0.000     2.064     2.247
 263   1 H      0.058  0.942  0.000  0.000     2.225     2.333
 264   1 H      0.046  0.954  0.000  0.000     2.375     2.410
 265   7 N     -0.174  1.243  3.931  0.000    24.762     7.391
 266   6 C      0.022  1.061  2.917  0.000    20.215     6.403
 267   6 C      0.278  1.040  2.682  0.000    22.302     7.733
 268   8 O     -0.468  1.736  4.732  0.000    23.089     6.442
 269   6 C     -0.115  1.066  3.049  0.000    22.702     6.783
 270   6 C      0.283  1.034  2.683  0.000    22.211     7.716
 271   8 O     -0.489  1.752  4.737  0.000    23.545     6.506
 272   7 N     -0.276  1.269  4.006  0.000    27.129     7.736
 273   1 H      0.208  0.792  0.000  0.000     1.068     1.619
 274   1 H      0.099  0.901  0.000  0.000     1.797     2.096
 275   1 H      0.063  0.937  0.000  0.000     2.164     2.301
 276   1 H      0.113  0.887  0.000  0.000     1.672     2.022
 277   1 H      0.243  0.757  0.000  0.000     0.911     1.495
 278   1 H      0.225  0.775  0.000  0.000     0.985     1.555
 279   7 N     -0.173  1.248  3.925  0.000    24.744     7.388
 280   6 C      0.017  1.066  2.917  0.000    20.291     6.415
[...]
 425   1 H      0.125  0.875  0.000  0.000     1.572     1.960
 426   1 H      0.116  0.884  0.000  0.000     1.645     2.005
 427   1 H      0.310  0.690  0.000  0.000     0.683     1.295
 428   1 H      0.292  0.708  0.000  0.000     0.739     1.347
 429   1 H      0.299  0.701  0.000  0.000     0.716     1.326
 430   7 N     -0.168  1.244  3.924  0.000    24.637     7.372
 431   6 C      0.011  1.056  2.933  0.000    20.397     6.430
 432   6 C      0.274  1.036  2.690  0.000    22.372     7.746
 433   8 O     -0.479  1.746  4.733  0.000    23.319     6.474
 434   6 C     -0.084  1.060  3.024  0.000    22.091     6.690
 435   6 C     -0.018  1.058  2.959  0.000    20.854     6.495
 436   6 C     -0.124  1.048  3.076  0.000    22.943     6.831
 437   6 C     -0.120  1.045  3.076  0.000    22.857     6.816
 438   1 H      0.236  0.764  0.000  0.000     0.941     1.520
 439   1 H      0.082  0.918  0.000  0.000     1.955     2.187
 440   1 H      0.072  0.928  0.000  0.000     2.067     2.248
 441   1 H      0.064  0.936  0.000  0.000     2.158     2.297
 442   1 H      0.032  0.968  0.000  0.000     2.553     2.499
 443   1 H      0.043  0.957  0.000  0.000     2.404     2.425
 444   1 H      0.037  0.963  0.000  0.000     2.496     2.471
 445   1 H      0.054  0.946  0.000  0.000     2.267     2.355
 446   1 H      0.051  0.949  0.000  0.000     2.307     2.375
 447   1 H      0.052  0.948  0.000  0.000     2.294     2.369
 448   1 H      0.035  0.965  0.000  0.000     2.513     2.479
 449   7 N     -0.182  1.239  3.943  0.000    24.938     7.417
 450   6 C      0.016  1.056  2.928  0.000    20.311     6.416
 451   6 C      0.280  1.041  2.679  0.000    22.260     7.726
 452   8 O     -0.492  1.752  4.740  0.000    23.613     6.515
 453   6 C     -0.085  1.060  3.024  0.000    22.117     6.695
 454   6 C     -0.094  1.057  3.037  0.000    22.300     6.723
 455   6 C      0.290  1.039  2.671  0.000    22.086     7.695
 456   8 O     -0.515  1.763  4.752  0.000    24.112     6.584
 457   7 N     -0.284  1.272  4.012  0.000    27.341     7.766
 458   1 H      0.218  0.782  0.000  0.000     1.018     1.581
 459   1 H      0.099  0.901  0.000  0.000     1.794     2.094
 460   1 H      0.089  0.911  0.000  0.000     1.893     2.152
 461   1 H      0.081  0.919  0.000  0.000     1.971     2.195
 462   1 H      0.075  0.925  0.000  0.000     2.035     2.231
 463   1 H      0.049  0.951  0.000  0.000     2.334     2.389
 464   1 H      0.235  0.765  0.000  0.000     0.946     1.524
 465   1 H      0.233  0.767  0.000  0.000     0.953     1.529
 466   7 N     -0.181  1.248  3.933  0.000    24.921     7.414
 467   6 C      0.021  1.063  2.916  0.000    20.231     6.406
 468   6 C      0.278  1.037  2.685  0.000    22.294     7.732
 469   8 O     -0.516  1.767  4.749  0.000    24.138     6.587
 470   6 C     -0.073  1.055  3.017  0.000    21.893     6.662
 471   6 C     -0.110  1.065  3.045  0.000    22.613     6.771
 472   6 C      0.285  1.040  2.674  0.000    22.166     7.709
 473   8 O     -0.506  1.763  4.743  0.000    23.915     6.557
 474   7 N     -0.264  1.257  4.007  0.000    26.835     7.694
 475   1 H      0.226  0.774  0.000  0.000     0.984     1.554
 476   1 H      0.057  0.943  0.000  0.000     2.235     2.338
 477   1 H      0.072  0.928  0.000  0.000     2.067     2.248
 478   1 H      0.083  0.917  0.000  0.000     1.948     2.183
 479   1 H      0.084  0.916  0.000  0.000     1.943     2.180
 480   1 H      0.076  0.924  0.000  0.000     2.018     2.221
 481   1 H      0.212  0.788  0.000  0.000     1.047     1.603
 482   1 H      0.219  0.781  0.000  0.000     1.016     1.579
 483   7 N     -0.178  1.246  3.932  0.000    24.853     7.404
 484   6 C      0.021  1.053  2.927  0.000    20.229     6.403
 485   6 C      0.270  1.042  2.688  0.000    22.437     7.757
 486   8 O     -0.481  1.731  4.750  0.000    23.354     6.480
 487   6 C     -0.087  1.058  3.030  0.000    22.154     6.700
 488   6 C      0.003  1.080  2.917  0.000    27.962     8.673
 489   6 C     -0.046  1.089  2.957  0.000    29.144     8.853
 490   6 C     -0.059  1.094  2.965  0.000    29.467     8.902
 491   6 C     -0.088  1.091  2.997  0.000    30.204     9.012
 492   6 C     -0.079  1.082  2.997  0.000    29.981     8.979
 493   6 C      0.144  1.049  2.808  0.000    24.865     8.172
 494   8 O     -0.439  1.734  4.705  0.000    21.619     6.277
 495   1 H      0.239  0.761  0.000  0.000     0.929     1.510
 496   1 H      0.074  0.926  0.000  0.000     2.043     2.235
 497   1 H      0.086  0.914  0.000  0.000     1.921     2.167
 498   1 H      0.077  0.923  0.000  0.000     2.015     2.220
 499   1 H      0.057  0.943  0.000  0.000     2.240     2.340
 500   1 H      0.075  0.925  0.000  0.000     2.032     2.229
 501   1 H      0.085  0.915  0.000  0.000     1.930     2.172
 502   1 H      0.041  0.959  0.000  0.000     2.439     2.442
 503   1 H      0.306  0.694  0.000  0.000     0.702     1.316
 504   7 N     -0.162  1.245  3.917  0.000    24.503     7.352
 505   6 C      0.013  1.062  2.925  0.000    20.356     6.423
 506   6 C      0.287  1.034  2.679  0.000    22.131     7.704
 507   8 O     -0.502  1.754  4.748  0.000    23.835     6.546
 508   6 C     -0.089  1.055  3.034  0.000    22.198     6.707
 509   6 C     -0.079  1.050  3.030  0.000    22.016     6.680
 510   6 C     -0.025  1.055  2.970  0.000    21.105     6.555
 511   7 N     -0.148  1.214  3.934  0.000    24.197     7.306
 512   6 C      0.231  1.018  2.751  0.000    23.149     7.877
 513   7 N     -0.248  1.232  4.016  0.000    26.467     7.641
 514   7 N     -0.256  1.238  4.019  0.000    26.660     7.669
 515   1 H      0.228  0.772  0.000  0.000     0.972     1.544
 516   1 H      0.092  0.908  0.000  0.000     1.863     2.135
 517   1 H      0.093  0.907  0.000  0.000     1.848     2.126
 518   1 H      0.066  0.934  0.000  0.000     2.127     2.281
 519   1 H      0.056  0.944  0.000  0.000     2.247     2.344
 520   1 H      0.077  0.923  0.000  0.000     2.005     2.214
 521   1 H      0.093  0.907  0.000  0.000     1.852     2.128
 522   1 H      0.076  0.924  0.000  0.000     2.017     2.221
 523   1 H      0.229  0.771  0.000  0.000     0.968     1.541
 524   1 H      0.242  0.758  0.000  0.000     0.915     1.498
 525   1 H      0.260  0.740  0.000  0.000     0.845     1.440
 526   1 H      0.251  0.749  0.000  0.000     0.880     1.470
 527   1 H      0.262  0.738  0.000  0.000     0.837     1.433
 528   7 N     -0.201  1.254  3.947  0.000    25.371     7.481
 529   6 C      0.034  1.059  2.907  0.000    20.012     6.370
 530   6 C      0.284  1.039  2.677  0.000    22.193     7.715
 531   8 O     -0.530  1.759  4.770  0.000    24.450     6.630
 532   6 C     -0.039  1.045  2.993  0.000    21.257     6.563
 533   6 C     -0.091  1.064  3.028  0.000    22.239     6.714
 534   6 C      0.369  1.025  2.606  0.000    20.742     7.453
 535   8 O     -0.639  1.762  4.878  0.000    27.104     6.980
 536   8 O     -0.671  1.782  4.889  0.000    27.935     7.086
 537   1 H      0.229  0.771  0.000  0.000     0.968     1.541
 538   1 H      0.061  0.939  0.000  0.000     2.193     2.316
 539   1 H      0.038  0.962  0.000  0.000     2.477     2.461
 540   1 H      0.024  0.976  0.000  0.000     2.675     2.558
 541   1 H      0.019  0.981  0.000  0.000     2.746     2.591
 542   1 H      0.055  0.945  0.000  0.000     2.260     2.351
 543   7 N     -0.183  1.250  3.934  0.000    24.967     7.421
 544   6 C      0.042  1.051  2.907  0.000    19.875     6.347
 545   6 C      0.278  1.041  2.681  0.000    22.301     7.733
 546   8 O     -0.496  1.746  4.750  0.000    23.695     6.526
 547   6 C     -0.061  1.051  3.010  0.000    21.665     6.624
 548   6 C     -0.016  1.063  2.953  0.000    20.866     6.505
 549  16 S     -0.259  1.927  4.263  0.069   152.177    20.763
 550   6 C     -0.056  1.052  3.003  0.000    21.645     6.637
 551   1 H      0.215  0.785  0.000  0.000     1.032     1.591
 552   1 H      0.064  0.936  0.000  0.000     2.154     2.295
 553   1 H      0.060  0.940  0.000  0.000     2.194     2.316
 554   1 H      0.048  0.952  0.000  0.000     2.351     2.398
 555   1 H      0.051  0.949  0.000  0.000     2.310     2.377
 556   1 H      0.067  0.933  0.000  0.000     2.114     2.274
 557   1 H      0.076  0.924  0.000  0.000     2.021     2.223
 558   1 H      0.068  0.932  0.000  0.000     2.109     2.271
 559   1 H      0.056  0.944  0.000  0.000     2.249     2.345
 560   7 N     -0.218  1.272  3.946  0.000    25.757     7.538
 561   6 C      0.040  1.049  2.911  0.000    19.906     6.353
 562   6 C      0.207  1.082  2.712  0.000    23.613     7.959
 563   8 O     -0.370  1.751  4.619  0.000    21.092     6.157
 564   6 C     -0.083  1.058  3.025  0.000    22.065     6.684
 565   6 C     -0.013  1.051  2.962  0.000    20.772     6.482
 566   6 C     -0.125  1.048  3.077  0.000    22.938     6.827
 567   6 C     -0.124  1.046  3.079  0.000    22.935     6.828
 568   1 H      0.263  0.737  0.000  0.000     0.835     1.430
 569   1 H      0.086  0.914  0.000  0.000     1.916     2.164
 570   1 H      0.060  0.940  0.000  0.000     2.196     2.317
 571   1 H      0.066  0.934  0.000  0.000     2.133     2.284
 572   1 H      0.039  0.961  0.000  0.000     2.467     2.456
 573   1 H      0.055  0.945  0.000  0.000     2.256     2.349
 574   1 H      0.044  0.956  0.000  0.000     2.391     2.418
 575   1 H      0.052  0.948  0.000  0.000     2.290     2.367
 576   1 H      0.056  0.944  0.000  0.000     2.249     2.345
 577   1 H      0.049  0.951  0.000  0.000     2.330     2.387
 578   1 H      0.037  0.963  0.000  0.000     2.494     2.470
 579   7 N     -0.401  1.319  4.082  0.000    30.401     8.189
 580   6 C      0.051  1.047  2.902  0.000    19.743     6.329
 581   6 C      0.203  1.090  2.706  0.000    23.676     7.969
 582   8 O     -0.397  1.744  4.653  0.000    21.615     6.233
 583   6 C     -0.101  1.064  3.036  0.000    22.414     6.740
 584   6 C      0.360  1.030  2.610  0.000    20.892     7.480
 585   8 O     -0.655  1.781  4.875  0.000    27.523     7.034
 586   8 O     -0.626  1.740  4.886  0.000    26.766     6.936
 587   1 H      0.171  0.829  0.000  0.000     1.266     1.762
 588   1 H      0.073  0.927  0.000  0.000     2.049     2.239
 589   1 H      0.039  0.961  0.000  0.000     2.462     2.454
 590   1 H      0.056  0.944  0.000  0.000     2.249     2.345
 591   7 N     -0.396  1.324  4.072  0.000    30.272     8.171
 592   6 C      0.040  1.052  2.909  0.000    19.916     6.355
 593   6 C      0.198  1.090  2.712  0.000    23.775     7.985
 594   8 O     -0.382  1.759  4.623  0.000    21.328     6.192
 595   6 C     -0.015  1.058  2.957  0.000    20.803     6.486
 596   6 C     -0.065  1.048  3.017  0.000    21.744     6.637
 597   6 C     -0.135  1.052  3.083  0.000    23.139     6.857
 598   6 C     -0.098  1.036  3.062  0.000    22.425     6.753
 599   1 H      0.173  0.827  0.000  0.000     1.257     1.756
 600   1 H      0.046  0.954  0.000  0.000     2.369     2.407
 601   1 H      0.034  0.966  0.000  0.000     2.530     2.487
 602   1 H      0.048  0.952  0.000  0.000     2.339     2.392
 603   1 H      0.037  0.963  0.000  0.000     2.485     2.465
 604   1 H      0.063  0.937  0.000  0.000     2.166     2.302
 605   1 H      0.043  0.957  0.000  0.000     2.413     2.429
 606   1 H      0.073  0.927  0.000  0.000     2.054     2.241
 607   1 H      0.031  0.969  0.000  0.000     2.574     2.509
 608   1 H      0.031  0.969  0.000  0.000     2.569     2.506
 609   1 H      0.042  0.958  0.000  0.000     2.422     2.434
 610   7 N     -0.399  1.324  4.075  0.000    30.345     8.181
 611   6 C      0.026  1.057  2.916  0.000    20.141     6.391
 612   6 C      0.260  1.044  2.696  0.000    22.622     7.789
 613   8 O     -0.485  1.752  4.733  0.000    23.369     6.486
 614   6 C     -0.079  1.062  3.018  0.000    22.007     6.677
 615   6 C     -0.014  1.057  2.956  0.000    20.782     6.484
 616   6 C     -0.125  1.047  3.078  0.000    22.962     6.833
 617   6 C     -0.137  1.048  3.089  0.000    23.187     6.865
 618   1 H      0.171  0.829  0.000  0.000     1.267     1.763
 619   1 H      0.044  0.956  0.000  0.000     2.395     2.420
 620   1 H      0.058  0.942  0.000  0.000     2.221     2.330
 621   1 H      0.051  0.949  0.000  0.000     2.304     2.373
 622   1 H      0.027  0.973  0.000  0.000     2.628     2.535
 623   1 H      0.039  0.961  0.000  0.000     2.458     2.452
 624   1 H      0.039  0.961  0.000  0.000     2.456     2.451
 625   1 H      0.052  0.948  0.000  0.000     2.290     2.367
 626   1 H      0.038  0.962  0.000  0.000     2.474     2.460
 627   1 H      0.061  0.939  0.000  0.000     2.193     2.316
 628   1 H      0.041  0.959  0.000  0.000     2.437     2.441
 629   7 N     -0.153  1.241  3.912  0.000    24.306     7.322
 630   6 C      0.019  1.058  2.923  0.000    20.264     6.410
 631   6 C      0.193  1.090  2.717  0.000    23.872     8.001
 632   8 O     -0.353  1.762  4.591  0.000    20.771     6.110
 633   6 C     -0.090  1.061  3.029  0.000    22.220     6.711
 634   6 C     -0.022  1.063  2.959  0.000    20.926     6.507
 635   6 C     -0.122  1.045  3.078  0.000    22.902     6.824
 636   6 C     -0.124  1.044  3.080  0.000    22.945     6.831
 637   1 H      0.238  0.762  0.000  0.000     0.932     1.512
 638   1 H      0.087  0.913  0.000  0.000     1.907     2.160
 639   1 H      0.068  0.932  0.000  0.000     2.111     2.272
 640   1 H      0.065  0.935  0.000  0.000     2.136     2.286
 641   1 H      0.048  0.952  0.000  0.000     2.347     2.396
 642   1 H      0.056  0.944  0.000  0.000     2.241     2.341
 643   1 H      0.052  0.948  0.000  0.000     2.292     2.368
 644   1 H      0.041  0.959  0.000  0.000     2.439     2.442
 645   1 H      0.055  0.945  0.000  0.000     2.263     2.353
 646   1 H      0.041  0.959  0.000  0.000     2.434     2.440
 647   1 H      0.043  0.957  0.000  0.000     2.406     2.426
 648   7 N     -0.394  1.327  4.067  0.000    30.213     8.164
 649   6 C      0.021  1.057  2.921  0.000    20.227     6.406
 650   6 C      0.277  1.041  2.682  0.000    22.315     7.736
 651   8 O     -0.531  1.764  4.767  0.000    24.475     6.633
 652   6 C      0.077  1.040  2.883  0.000    19.498     6.324
 653   8 O     -0.526  1.732  4.793  0.000    23.449     6.537
 654   1 H      0.154  0.846  0.000  0.000     1.375     1.837
 655   1 H      0.034  0.966  0.000  0.000     2.529     2.487
 656   1 H      0.040  0.960  0.000  0.000     2.454     2.450
 657   1 H      0.026  0.974  0.000  0.000     2.650     2.545
 658   1 H      0.352  0.648  0.000  0.000     0.572     1.182
 659   7 N     -0.170  1.247  3.923  0.000    24.689     7.380
 660   6 C      0.029  1.055  2.917  0.000    20.093     6.382
 661   6 C      0.279  1.036  2.685  0.000    22.282     7.730
 662   8 O     -0.490  1.775  4.715  0.000    23.568     6.509
 663   6 C     -0.062  1.049  3.013  0.000    21.656     6.620
 664   6 C     -0.016  1.061  2.955  0.000    20.871     6.505
 665  16 S     -0.177  1.896  4.229  0.051   148.534    20.512
 666   6 C     -0.057  1.051  3.006  0.000    21.673     6.641
 667   1 H      0.236  0.764  0.000  0.000     0.942     1.520
 668   1 H      0.075  0.925  0.000  0.000     2.033     2.230
 669   1 H      0.070  0.930  0.000  0.000     2.084     2.258
 670   1 H      0.036  0.964  0.000  0.000     2.496     2.471
 671   1 H      0.039  0.961  0.000  0.000     2.456     2.451
 672   1 H      0.073  0.927  0.000  0.000     2.058     2.243
 673   1 H      0.058  0.942  0.000  0.000     2.220     2.330
 674   1 H      0.053  0.947  0.000  0.000     2.277     2.360
 675   1 H      0.024  0.976  0.000  0.000     2.669     2.555
 676   7 N     -0.184  1.246  3.938  0.000    24.993     7.425
 677   6 C      0.032  1.056  2.912  0.000    20.052     6.378
 678   6 C      0.211  1.086  2.703  0.000    23.522     7.942
 679   8 O     -0.373  1.761  4.612  0.000    21.146     6.165
 680   6 C     -0.135  1.047  3.088  0.000    23.153     6.861
 681   1 H      0.225  0.775  0.000  0.000     0.989     1.558
 682   1 H      0.076  0.924  0.000  0.000     2.018     2.222
 683   1 H      0.083  0.917  0.000  0.000     1.952     2.185
 684   1 H      0.090  0.910  0.000  0.000     1.876     2.142
 685   1 H      0.080  0.920  0.000  0.000     1.974     2.197
 686   7 N     -0.407  1.337  4.070  0.000    30.573     8.212
 687   6 C      0.028  1.063  2.909  0.000    20.119     6.389
 688   6 C      0.362  1.021  2.617  0.000    20.864     7.475
 689   8 O     -0.647  1.751  4.896  0.000    27.290     7.004
 690   6 C     -0.105  1.044  3.061  0.000    22.567     6.774
 691   8 O     -0.620  1.768  4.852  0.000    26.607     6.916
 692   1 H      0.136  0.864  0.000  0.000     1.502     1.920
 693   1 H     -0.000  1.000  0.000  0.000     3.059     2.735
 694   1 H      0.036  0.964  0.000  0.000     2.509     2.477
 695   1 H      0.037  0.963  0.000  0.000     2.483     2.464
 696   1 H      0.028  0.972  0.000  0.000     2.612     2.527
 697   1 H      0.192  0.808  0.000  0.000     1.146     1.677
 698   1 H      0.082  0.918  0.000  0.000     1.957     2.187
 699   1 H      0.195  0.805  0.000  0.000     1.129     1.665
 700   1 H      0.057  0.943  0.000  0.000     2.233     2.337
 701   1 H      0.167  0.833  0.000  0.000     1.291     1.780
 702   1 H      0.062  0.938  0.000  0.000     2.174     2.306
 703   1 H      0.177  0.823  0.000  0.000     1.233     1.739
 704   1 H      0.075  0.925  0.000  0.000     2.033     2.229
 705   1 H      0.183  0.817  0.000  0.000     1.196     1.713
 706   1 H      0.087  0.913  0.000  0.000     1.908     2.160
 707   1 H      0.191  0.809  0.000  0.000     1.152     1.682
 708   1 H      0.072  0.928  0.000  0.000     2.061     2.245
 709   1 H      0.176  0.824  0.000  0.000     1.237     1.742
 710   1 H      0.187  0.813  0.000  0.000     1.174     1.697
 711   1 H      0.074  0.926  0.000  0.000     2.040     2.233

 Mol. C6AA /au·bohr⁶  :    4725143.462301
 Mol. C8AA /au·bohr⁸  :  106612044.081912
 Mol. α(0) /au        :       3250.428522

 
molecular dipole:
                 x           y           z       tot (Debye)
 q only:     -166.494    -244.282      50.845
   full:     -163.745    -243.964      54.342     759.500
molecular quadrupole (traceless):
                xx          xy          yy          xz          yz          zz
 q only:      862.025  -31268.922  -22107.737    5509.471    9697.636   21245.712
  q+dip:     1420.882  -30712.857  -22082.762    5735.330   10346.825   20661.880
   full:     1421.519  -30707.854  -22080.509    5733.303   10350.046   20658.990
speedup  0.89
cpu  time for grad    2 m  9.6 s
wall time for grad    2 m 25.4 s

SCC energy    :   -1110.4614392
rep           :      12.8809346
ES            :       4.0971821
AES           :      -0.1499032
AXC           :       0.3580840
disp          :      -1.0023669
XB            :       0.0000000
fix           :       0.0000000
Gborn         :       0.0000000
Gsasa         :       0.0000000
Ghb           :       0.0000000
Gshift        :       0.0000000
Gsolv         :      -1.1777146     -739.03
Etot ala COSMO:   -1110.4614392
grad norm     :       0.7151679
total E       :   -1097.4798207
atomizationE  :     198.3234634   124449.85
(atE without considering molecular charge,
 total energy contains solvation terms)
H-L gap (eV)  :          1.1480

------------------------------------------------------------------------
 * finished run on 2019/05/04 at 18:22:43.632     
------------------------------------------------------------------------
 total:
 * wall-time:     0 d,  0 h,  2 min, 30.047 sec
 *  cpu-time:     0 d,  0 h,  2 min, 14.109 sec
 * ratio c/w:     0.894 speedup
 SCF:
 * wall-time:     0 d,  0 h,  2 min, 28.933 sec
 *  cpu-time:     0 d,  0 h,  2 min, 13.467 sec
 * ratio c/w:     0.896 speedup

