      -----------------------------------------------------------      
     |                   =====================                   |     
     |                           x T B                           |     
     |                   =====================                   |     
     |                         S. Grimme                         |     
     |          Mulliken Center for Theoretical Chemistry        |     
     |                    University of Bonn                     |     
     |                 Version 6.0.1 (SAW181210)                 |     
      -----------------------------------------------------------      

   This program is distributed in the hope that it will be useful,
   but WITHOUT ANY WARRANTY; without even the implied warranty of
   MERCHANTABILITY or FITNESS FOR A PARTICULAR PURPOSE.
   
   FOR NON-COMMERCIAL, ACADEMIA USE ONLY.
   
   Cite this work as:
   S. Grimme, C. Bannwarth, P. Shushkov, J. Comput. Theory Chem., 2017,
   13, 1989-2009.
   C. Bannwarth, S. Ehlert and S. Grimme., ChemRxiv, 2018, preprint.
   http://doi.org/10.26434/chemrxiv.7246238.v1
   
   for sTDA-xTB:
   S. Grimme and C. Bannwarth, J. Chem. Phys., 2016, 145, 054103.
   
   in the mass-spec context:
   V. Asgeirsson, C. Bauer and S. Grimme, Chem. Sci., 2017, 8, 4879.
   
   if GBSA is used:
   P. Shushkov, F. März and S. Grimme, unpublished.
   
   for ANC optimizer:
   S. Grimme, unpublished.
   Rational Function algorithm used in ANCopt:
   F. Eckert, P. Pulay, H.-J. Werner, J. Comput. Chem., 1997, 18, 1473.
   
   with help from (in alphabetical order)
   C. Bannwarth, F. Bohle, G. Brandenburg, E. Caldeweyher, M. Checinski,
   S. Dohm, S. Ehlert, S. Ehrlich, F. März, H. Neugebauer, J. Pisarek,
   P. Pracht, P. Shushkov, and S. Spicher.
   
 * started run on 2019/05/04 at 15:55:05.746     
========================================================================
 # omp threads = 2
========================================================================
number of atoms            : 885
number of electrons        : 2360
charge                     : -2
spin                       : .0
first test random number   : .6969

########################################################################
# WARNING! Please study the warnings concerning your input carefully
#  - Process number higher than OMP_NUM_THREADS, I hope you know what you are doing.
########################################################################

           ------------------------------------------------- 
          |                 G F N 2 - x T B                 |
          | Geometry, Frequencies, Noncovalent interactions |
          |            JCTC 2018 parametrisation            |
           ------------------------------------------------- 
 
      method parameters     
 k(s)        :  1.8500
 k(p)        :  2.2300
 k(d)        :  2.2300
 k(f)        :  2.0000
 kEN (H0ij)  : -2.0000
 D4 a1       :  0.5200
 D4 a2       :  5.0000
 D4 s6       :  1.0000
 D4 s8       :  2.7000
 D4 s9       :  5.0000
 alphaj      :  2.0000

 Solvent             : h2o
 Using internal parameter file: .param_gbsa2_h2o
 Gsolv ref. state (COSMO-RS): gsolv [1 M gas/solution]
 temperature (mdtemp)       :    298.150000000000     
 dielectric constant        :    80.2000000000000     
 rho                        :    1.00000000000000     
 mass                       :    18.0000000000000     
 surface tension            :    15.5689454083859     
 probe radius               :   0.975313790000000     
 vdW radii scaling          :    1.00000000000000     
 Gshift (Eh)                :   1.857443126794793E-003
 c1                         :    1.55243817000000     
 soset                      :   0.130326360000000     
 HB correction              :  T

            Z     q(EN)     CN     RAES       Cart. coordinates
     1  N   5.0   -0.07    4.36    3.93     8.90628    65.81727   -34.92214
     2  C   4.0   -0.00    4.51    4.56     9.37871    66.27458   -32.23872
     3  C   4.0    0.14    3.42    3.08    11.84102    65.08405   -31.36945
     4  O   6.0   -0.30    1.27    1.80    12.88793    63.48534   -32.69037
     5  C   4.0   -0.04    4.38    4.34     7.15828    64.93665   -30.94048
     6  C   4.0   -0.05    4.29    4.17     5.06069    65.15775   -32.77919
     7  C   4.0   -0.04    4.28    4.15     6.26255    65.07838   -35.40213
     8  H   1.0    0.05    1.06    1.44     9.29934    67.46133   -35.92558
     9  H   1.0    0.07    1.08    1.44    10.09114    64.37540   -35.53819
    10  H   1.0    0.04    1.05    1.44     9.35225    68.29092   -31.81732
    11  H   1.0    0.05    1.03    1.43     7.63071    62.96378   -30.58332
    12  H   1.0    0.04    1.03    1.43     6.69908    65.88341   -29.16981
    13  H   1.0    0.04    1.03    1.43     3.75678    63.58172   -32.53163
    14  H   1.0    0.04    1.03    1.43     4.07236    66.94165   -32.48817
    15  H   1.0    0.04    1.02    1.43     6.16429    63.17921   -36.19581
    16  H   1.0    0.03    1.02    1.43     5.34603    66.41820   -36.66824
    17  N   5.0   -0.15    3.44    2.04    12.76699    65.88907   -29.18115
    18  C   4.0    0.04    4.51    4.55    14.61325    64.40753   -27.80921
    19  C   4.0    0.14    3.46    3.10    13.56634    63.70455   -25.24485
    20  O   6.0   -0.32    1.28    1.80    13.35658    65.32216   -23.55732
    21  C   4.0   -0.03    4.19    3.98    17.09824    65.82860   -27.48417
    22  S   6.0   -0.03    2.43    3.10    19.74953    63.77258   -26.70561
    23  H   1.0    0.08    1.05    1.44    12.27188    67.54636   -28.32888
    24  H   1.0    0.07    1.09    1.44    14.94962    62.68410   -28.88635
    25  H   1.0    0.05    1.07    1.44    17.54611    66.79992   -29.24540
    26  H   1.0    0.05    1.08    1.44    16.88848    67.19677   -25.95917
    27  N   5.0   -0.14    3.47    2.06    12.91439    61.28948   -24.95383
    28  C   4.0    0.04    4.44    4.45    12.35125    60.29549   -22.44805
    29  C   4.0    0.14    3.39    3.07    13.26021    57.61774   -21.86602
    30  O   6.0   -0.31    1.29    1.80    13.52099    56.02282   -23.54032
    31  C   4.0   -0.03    4.52    4.56     9.56579    60.56005   -21.83956
    32  C   4.0   -0.04    4.12    3.84     7.84614    60.09895   -24.02976
    33  S   6.0   -0.02    2.60    3.10     4.71109    60.64320   -22.85624
    34  C   4.0   -0.06    3.95    3.54     4.91329    59.08417   -19.82134
    35  H   1.0    0.11    1.09    1.44    12.76510    60.01014   -26.38813
    36  H   1.0    0.06    1.09    1.44    13.50020    61.44066   -21.17816
    37  H   1.0    0.05    1.09    1.44     9.08202    59.19944   -20.36936
    38  H   1.0    0.05    1.06    1.44     9.21997    62.47623   -21.16682
    39  H   1.0    0.05    1.07    1.44     8.25621    61.40853   -25.56610
    40  H   1.0    0.05    1.07    1.44     8.01811    58.15632   -24.69494
    41  H   1.0    0.05    1.04    1.43     3.10293    59.25803   -18.85569
    42  H   1.0    0.05    1.04    1.43     5.36304    57.09618   -20.11802
    43  H   1.0    0.04    1.06    1.44     6.39294    59.97990   -18.70451
    44  N   5.0   -0.14    3.52    2.09    13.75532    57.16043   -19.44717
    45  C   4.0    0.03    4.39    4.35    14.58490    54.71513   -18.54955
    46  C   4.0    0.14    3.47    3.10    13.21107    54.26537   -16.09291
    47  O   6.0   -0.32    1.32    1.80    12.11503    56.01715   -15.03655
    48  C   4.0   -0.08    4.14    3.88    17.39115    54.73402   -18.11113
    49  H   1.0    0.10    1.08    1.44    13.59280    58.47757   -18.04877
    50  H   1.0    0.05    1.06    1.44    14.14271    53.21657   -19.89126
    51  H   1.0    0.04    1.00    1.43    17.97696    52.87831   -17.43650
    52  H   1.0    0.04    1.00    1.43    18.34357    55.17055   -19.88370
    53  H   1.0    0.04    1.00    1.43    17.84090    56.16832   -16.70140
    54  N   5.0   -0.15    3.43    2.04    13.26966    51.93156   -15.17450
    55  C   4.0    0.04    4.32    4.24    11.79945    51.25126   -12.94462
    56  C   4.0    0.07    3.23    3.04    12.58557    48.67934   -11.89771
    57  O   6.0   -0.30    1.12    1.80    12.24164    46.72347   -13.12604
    58  C   4.0   -0.03    4.29    4.18     8.97053    51.26260   -13.57579
    59  C   4.0   -0.04    4.21    4.01     7.26789    50.43112   -11.43284
    60  C   4.0   -0.04    4.17    3.94     5.05691    48.82485   -12.36448
    61  C   4.0   -0.03    4.13    3.86     3.20120    48.31840   -10.21397
    62  N   5.0   -0.11    3.99    2.84     1.36249    46.26238   -10.75821
    63  H   1.0    0.08    1.06    1.44    14.30334    50.48592   -15.92094
    64  H   1.0    0.06    1.06    1.44    12.15094    52.64776   -11.47064
    65  H   1.0    0.06    1.03    1.43     8.42251    53.17878   -14.09547
    66  H   1.0    0.05    1.04    1.43     8.64739    49.98325   -15.15749
    67  H   1.0    0.05    1.04    1.43     8.36015    49.30673   -10.09681
    68  H   1.0    0.05    1.03    1.43     6.50066    52.09596   -10.49176
    69  H   1.0    0.06    1.03    1.43     4.06291    49.82262   -13.86681
    70  H   1.0    0.05    1.03    1.43     5.76177    47.02016   -13.06368
    71  H   1.0    0.04    1.03    1.43     4.26511    47.77983    -8.53400
    72  H   1.0    0.06    1.02    1.43     2.12783    50.03805    -9.84736
    73  H   1.0    0.06    1.01    1.43     0.15874    46.01483    -9.22564
    74  H   1.0    0.07    1.02    1.43     0.29291    46.71969   -12.34180
    75  H   1.0    0.05    1.01    1.43     2.31869    44.57864   -11.09836
    76  N   5.0   -0.20    3.17    1.95    15.59024    47.24693   -23.64236
    77  C   4.0    0.03    4.32    4.24    16.24219    49.75648   -24.66092
    78  C   4.0    0.15    3.40    3.08    14.99498    50.46135   -27.16292
    79  O   6.0   -0.30    1.23    1.80    14.52632    48.85320   -28.76352
    80  C   4.0   -0.04    4.49    4.52    19.08056    49.97569   -25.01241
    81  C   4.0   -0.05    4.08    3.77    20.50542    50.63899   -22.66537
    82  S   6.0   -0.04    2.57    3.10    23.60646    51.56306   -23.61213
    83  C   4.0   -0.06    3.93    3.51    22.93182    53.74948   -26.15381
    84  H   1.0    0.09    1.02    1.43    15.56000    45.84097   -24.96139
    85  H   1.0    0.05    1.06    1.44    15.49764    51.09630   -23.28331
    86  H   1.0    0.04    1.04    1.44    19.79866    48.16722   -25.68516
    87  H   1.0    0.04    1.11    1.44    19.45662    51.44590   -26.40514
    88  H   1.0    0.04    1.08    1.44    19.59079    52.20557   -21.69027
    89  H   1.0    0.04    1.07    1.44    20.62636    49.00626   -21.41626
    90  H   1.0    0.06    1.04    1.43    24.70817    54.46568   -26.91159
    91  H   1.0    0.04    1.05    1.44    21.88681    52.76115   -27.62779
    92  H   1.0    0.04    1.04    1.43    21.80366    55.30661   -25.41681
    93  N   5.0   -0.14    3.47    2.06    14.58302    52.90477   -27.52953
    94  C   4.0    0.04    4.36    4.31    13.57768    53.86286   -29.90302
    95  C   4.0    0.14    3.42    3.08    14.71719    56.44233   -30.46805
    96  O   6.0   -0.31    1.29    1.80    14.44318    58.22246   -28.97895
    97  C   4.0   -0.06    4.11    3.82    10.71853    54.04616   -29.77830
    98  H   1.0    0.11    1.10    1.44    14.92695    54.27293   -26.21617
    99  H   1.0    0.05    1.07    1.44    14.12192    52.58729   -31.42614
   100  H   1.0    0.05    1.00    1.43    10.01366    54.76615   -31.57543
   101  H   1.0    0.06    1.00    1.43     9.94185    52.17344   -29.41925
   102  H   1.0    0.06    1.00    1.43    10.19507    55.32740   -28.25329
   103  N   5.0   -0.13    3.45    2.04    16.00409    56.64454   -32.61289
   104  C   4.0    0.04    4.40    4.39    17.27398    58.99913   -33.28941
   105  C   4.0    0.16    3.43    3.09    17.37792    59.38653   -36.13345
   106  O   6.0   -0.29    1.25    1.80    16.25731    57.96923   -37.59421
   107  C   4.0    0.04    4.17    3.95    19.96495    59.04449   -32.21416
   108  O   6.0   -0.24    2.04    1.83    21.50886    57.18122   -33.37823
   109  H   1.0    0.09    1.06    1.44    16.20062    55.22913   -33.90735
   110  H   1.0    0.07    1.07    1.44    16.10424    60.49391   -32.48817
   111  H   1.0    0.05    1.02    1.43    20.78888    60.90209   -32.55431
   112  H   1.0    0.05    1.02    1.43    19.88181    58.67221   -30.19026
   113  H   1.0    0.15    1.04    1.43    22.42727    57.92199   -34.80497
   114  N   5.0   -0.12    3.54    2.11    18.70073    61.36507   -36.89879
   115  C   4.0    0.04    4.31    4.22    19.75708    61.43877   -39.41401
   116  C   4.0    0.08    3.25    3.04    22.58789    61.13263   -39.07575
   117  O   6.0   -0.30    1.20    1.80    23.47040    60.60351   -36.98005
   118  C   4.0    0.02    4.13    3.85    19.09001    63.91809   -40.78784
   119  O   6.0   -0.25    2.03    1.83    20.45817    66.01569   -39.83542
   120  H   1.0    0.09    1.06    1.44    19.06167    62.92220   -35.82165
   121  H   1.0    0.05    1.06    1.44    18.96529    59.92888   -40.57053
   122  H   1.0    0.03    1.01    1.43    19.53032    63.69888   -42.78717
   123  H   1.0    0.04    1.01    1.43    17.07745    64.28281   -40.54596
   124  H   1.0    0.11    1.01    1.43    19.98574    67.55203   -40.75572
   125  N   5.0   -0.20    3.26    1.97    26.14814    63.95022   -28.22684
   126  C   4.0    0.03    4.38    4.35    26.54876    65.97978   -26.39191
   127  C   4.0    0.15    3.46    3.10    27.45961    64.97823   -23.83511
   128  O   6.0   -0.31    1.23    1.80    28.62179    66.35395   -22.37058
   129  C   4.0   -0.03    4.19    3.99    24.10723    67.47455   -26.01586
   130  S   6.0   -0.03    2.60    3.10    21.76964    65.81349   -24.14503
   131  H   1.0    0.09    1.07    1.44    24.31510    63.36629   -28.35345
   132  H   1.0    0.05    1.06    1.44    27.97550    67.26857   -27.12891
   133  H   1.0    0.06    1.07    1.44    24.55132    69.23956   -25.05210
   134  H   1.0    0.05    1.08    1.44    23.27764    67.86762   -27.86023
   135  N   5.0   -0.13    3.57    2.13    26.85301    62.59528   -23.30221
   136  C   4.0    0.03    4.41    4.40    27.54276    61.35373   -20.93816
   137  C   4.0    0.07    3.24    3.04    28.64447    58.76292   -21.49374
   138  O   6.0   -0.29    1.15    1.80    28.68415    57.93711   -23.66693
   139  C   4.0   -0.03    4.31    4.21    25.23351    60.95500   -19.22418
   140  C   4.0   -0.08    4.13    3.85    24.79887    63.24535   -17.60280
   141  C   4.0   -0.07    4.17    3.94    22.89970    60.31438   -20.77943
   142  H   1.0    0.09    1.07    1.44    25.86279    61.45578   -24.50030
   143  H   1.0    0.05    1.06    1.44    28.96005    62.53292   -20.01976
   144  H   1.0    0.03    1.07    1.44    25.59445    59.35629   -17.97696
   145  H   1.0    0.03    1.00    1.43    23.15481    62.91654   -16.40471
   146  H   1.0    0.03    1.01    1.43    26.46561    63.56660   -16.43495
   147  H   1.0    0.05    1.00    1.43    24.46817    64.87429   -18.81789
   148  H   1.0    0.04    1.00    1.43    21.30099    60.04415   -19.50953
   149  H   1.0    0.05    1.08    1.44    22.51231    61.86585   -22.07578
   150  H   1.0    0.05    1.00    1.43    23.25497    58.58528   -21.83956
   151  N   5.0   -0.20    3.22    1.96    28.62179    54.31072    -6.65184
   152  C   4.0    0.03    4.20    4.00    28.54242    55.31039    -9.22564
   153  C   4.0    0.07    3.23    3.04    30.40380    57.48546    -9.46375
   154  O   6.0   -0.30    1.16    1.80    30.83088    58.85740    -7.64583
   155  C   4.0   -0.05    4.38    4.34    25.88736    56.32517    -9.75666
   156  C   4.0   -0.03    4.18    3.96    25.04265    57.05461   -12.42495
   157  C   4.0   -0.08    4.11    3.82    24.18093    54.73402   -13.89138
   158  C   4.0   -0.09    4.11    3.83    22.90537    58.96701   -12.30023
   159  H   1.0    0.11    1.04    1.43    28.87501    55.68266    -5.32147
   160  H   1.0    0.03    1.05    1.44    29.06587    53.85530   -10.58624
   161  H   1.0    0.04    1.04    1.43    24.56266    54.87764    -9.12927
   162  H   1.0    0.05    1.05    1.44    25.66248    58.02592    -8.61715
   163  H   1.0    0.03    1.06    1.44    26.63947    57.89742   -13.41705
   164  H   1.0    0.03    1.00    1.43    23.59323    55.31417   -15.77921
   165  H   1.0    0.04    1.00    1.43    25.74752    53.40366   -14.02177
   166  H   1.0    0.04    1.00    1.43    22.59923    53.86286   -12.89927
   167  H   1.0    0.03    1.00    1.43    22.33278    59.46023   -14.21641
   168  H   1.0    0.04    1.00    1.43    21.31800    58.13364   -11.28544
   169  H   1.0    0.03    1.00    1.43    23.56677    60.64886   -11.31001
   170  N   5.0   -0.20    3.22    1.96    32.54486    64.31493   -13.68540
   171  C   4.0    0.03    4.32    4.24    31.62456    66.33316   -15.34646
   172  C   4.0    0.08    3.21    3.04    33.57854    67.18732   -17.31745
   173  O   6.0   -0.28    1.12    1.80    35.64968    68.03958   -16.66738
   174  C   4.0   -0.02    4.36    4.31    30.75529    68.63296   -13.83657
   175  C   4.0   -0.05    4.24    4.07    29.12446    67.79770   -11.60859
   176  C   4.0   -0.06    4.16    3.91    29.28319    70.42442   -15.53355
   177  C   4.0   -0.08    4.04    3.70    26.50530    66.87929   -12.35314
   178  H   1.0    0.09    1.02    1.43    33.50862    64.96311   -12.14716
   179  H   1.0    0.04    1.06    1.44    30.06743    65.48278   -16.39337
   180  H   1.0    0.05    1.06    1.44    32.41447    69.61561   -13.10903
   181  H   1.0    0.04    1.04    1.44    30.07688    66.25190   -10.63727
   182  H   1.0    0.03    1.03    1.43    28.88824    69.39452   -10.32924
   183  H   1.0    0.05    1.00    1.43    28.67848    72.05336   -14.42617
   184  H   1.0    0.06    1.00    1.43    30.50018    71.03858   -17.07745
   185  H   1.0    0.05    1.01    1.43    27.63913    69.43798   -16.28566
   186  H   1.0    0.03    1.00    1.43    25.48106    66.32560   -10.65427
   187  H   1.0    0.04    1.00    1.43    25.50563    68.40619   -13.30934
   188  H   1.0    0.03    1.01    1.43    26.69616    65.26358   -13.61737
   189  N   5.0   -0.19    3.22    1.96    31.77952    71.00456   -22.62947
   190  C   4.0    0.03    4.31    4.22    31.00851    73.35727   -23.81433
   191  C   4.0    0.16    3.43    3.09    30.05987    75.19031   -21.81311
   192  O   6.0   -0.31    1.32    1.80    28.44227    74.51378   -20.25219
   193  C   4.0   -0.03    4.30    4.20    28.92792    72.85838   -25.75130
   194  C   4.0   -0.04    4.20    4.01    29.83310    71.70376   -28.23440
   195  C   4.0    0.14    3.21    3.04    27.65047    71.16141   -30.05420
   196  O   6.0   -0.30    1.22    1.80    25.47162    71.84171   -29.54775
   197  N   5.0   -0.19    3.16    1.95    28.22306    69.91041   -32.16692
   198  H   1.0    0.11    1.03    1.43    30.53041    70.32048   -21.33123
   199  H   1.0    0.04    1.06    1.44    32.62612    74.22655   -24.74785
   200  H   1.0    0.06    1.03    1.43    27.56354    71.55447   -24.92360
   201  H   1.0    0.07    1.03    1.43    28.00952    74.64795   -26.19916
   202  H   1.0    0.04    1.03    1.43    31.12568    73.01523   -29.15658
   203  H   1.0    0.04    1.03    1.43    30.79497    69.92553   -27.84133
   204  H   1.0    0.08    1.02    1.43    30.04097    69.36617   -32.50140
   205  H   1.0    0.09    1.02    1.43    26.84167    69.49845   -33.44626
   206  N   5.0   -0.13    3.45    2.05    31.07654    77.49199   -21.81878
   207  C   4.0    0.04    4.41    4.39    30.12412    79.45353   -20.11424
   208  C   4.0    0.16    3.42    3.09    27.34811    79.99966   -20.71518
   209  O   6.0   -0.27    1.25    1.80    26.57522    79.83714   -22.90159
   210  C   4.0   -0.03    4.29    4.18    31.71905    81.87616   -20.29377
   211  C   4.0    0.15    3.23    3.04    34.54797    81.38105   -19.99708
   212  O   6.0   -0.28    1.19    1.80    35.54197    81.19774   -17.89570
   213  N   5.0   -0.19    3.18    1.95    35.85566    81.19397   -22.12113
   214  H   1.0    0.08    1.06    1.44    32.52974    78.05135   -22.95450
   215  H   1.0    0.07    1.06    1.44    30.26585    78.79779   -18.16594
   216  H   1.0    0.05    1.03    1.43    31.41480    82.74354   -22.13625
   217  H   1.0    0.06    1.03    1.43    31.14079    83.17251   -18.80088
   218  H   1.0    0.09    1.02    1.43    37.75295    80.86515   -22.05877
   219  H   1.0    0.08    1.03    1.43    34.96560    81.37916   -23.82000
   220  N   5.0   -0.13    3.32    1.99    25.82122    80.56469   -18.79899
   221  C   4.0    0.03    4.28    4.16    23.19450    81.25822   -19.30922
   222  C   4.0    0.15    3.30    3.05    21.29910    81.17129   -17.16816
   223  O   6.0   -0.31    1.27    1.80    21.94917    80.75177   -14.99498
   224  H   1.0    0.11    1.07    1.44    26.32388    80.56091   -16.93761
   225  H   1.0    0.06    1.03    1.43    23.18316    83.18952   -20.02543
   226  H   1.0    0.07    1.04    1.43    22.48396    79.99588   -20.77376
   227  N   5.0   -0.14    3.43    2.04    18.91994    81.59081   -17.83145
   228  C   4.0    0.03    4.44    4.45    16.87714    81.56624   -16.00220
   229  C   4.0    0.14    3.39    3.08    15.58835    78.95653   -15.81512
   230  O   6.0   -0.34    1.49    1.80    14.22019    78.14017   -17.53666
   231  C   4.0   -0.04    4.35    4.30    14.95718    83.64116   -16.60691
   232  C   4.0   -0.03    4.20    4.01    13.08635    84.16272   -14.47152
   233  C   4.0   -0.07    4.14    3.88    14.51499    84.49343   -11.99787
   234  C   4.0   -0.08    4.09    3.78    11.41394    86.44362   -15.03466
   235  H   1.0    0.10    1.07    1.44    18.34924    81.95552   -19.63614
   236  H   1.0    0.05    1.09    1.44    17.71618    81.91017   -14.15216
   237  H   1.0    0.05    1.03    1.43    15.97574    85.38916   -16.99242
   238  H   1.0    0.05    1.03    1.43    13.87626    83.07613   -18.26609
   239  H   1.0    0.04    1.06    1.44    11.81457    82.55268   -14.28822
   240  H   1.0    0.04    1.00    1.43    13.16383    84.86381   -10.48798
   241  H   1.0    0.05    1.01    1.43    15.56378    82.76811   -11.59347
   242  H   1.0    0.04    1.00    1.43    15.81512    86.08080   -12.18117
   243  H   1.0    0.03    1.00    1.43    10.11948    86.73086   -13.45863
   244  H   1.0    0.04    1.00    1.43    12.60636    88.10658   -15.27654
   245  H   1.0    0.03    1.00    1.43    10.35003    86.08458   -16.76187
   246  N   5.0   -0.14    3.48    2.06    16.02866    77.67341   -13.69673
   247  C   4.0    0.04    4.47    4.49    15.06301    75.13739   -13.34147
   248  C   4.0    0.15    3.45    3.09    13.10525    75.01645   -11.27788
   249  O   6.0   -0.32    1.36    1.80    13.56445    75.79691    -9.16328
   250  C   4.0   -0.03    4.36    4.31    17.20029    73.34782   -12.64794
   251  C   4.0   -0.02    3.55    3.14    19.07678    72.89240   -14.73986
   252  C   4.0   -0.04    3.48    3.10    21.11769    74.51378   -15.10647
   253  C   4.0   -0.05    3.47    3.10    18.83112    70.81937   -16.33479
   254  C   4.0   -0.04    3.43    3.09    22.87891    74.06970   -17.00186
   255  C   4.0   -0.04    3.43    3.09    20.56778    70.36017   -18.22830
   256  C   4.0    0.07    3.45    3.10    22.58600    71.98155   -18.55333
   257  O   6.0   -0.24    2.11    1.84    24.32266    71.49589   -20.42794
   258  H   1.0    0.12    1.14    1.45    17.04722    78.35182   -12.20763
   259  H   1.0    0.07    1.09    1.44    14.15783    74.56859   -15.10080
   260  H   1.0    0.05    1.04    1.43    18.22830    74.14151   -11.04923
   261  H   1.0    0.04    1.04    1.43    16.38959    71.52613   -12.13015
   262  H   1.0    0.07    1.03    1.43    21.33501    76.14273   -13.89704
   263  H   1.0    0.05    1.03    1.43    17.25509    69.54569   -16.08913
   264  H   1.0    0.07    1.03    1.43    24.45683    75.33770   -17.26265
   265  H   1.0    0.05    1.03    1.43    20.34857    68.74067   -19.44906
   266  H   1.0    0.15    1.09    1.44    25.77964    72.62406   -20.24841
   267  N   5.0   -0.14    3.49    2.07    10.93017    73.96198   -11.88827
   268  C   4.0    0.04    4.45    4.46     9.19352    73.08704    -9.95697
   269  C   4.0    0.15    3.46    3.10     9.97208    70.41497    -9.19730
   270  O   6.0   -0.32    1.29    1.80    10.09303    68.71799   -10.78845
   271  C   4.0   -0.05    4.43    4.43     6.51766    73.00578   -11.02466
   272  C   4.0   -0.03    4.21    4.01     4.37850    73.79758    -9.29745
   273  C   4.0   -0.07    4.14    3.88     5.01911    76.32792    -8.05590
   274  C   4.0   -0.09    4.14    3.88     2.03523    74.01112   -10.89427
   275  H   1.0    0.09    1.07    1.44    10.31790    73.68797   -13.69484
   276  H   1.0    0.06    1.07    1.44     9.25588    74.33804    -8.32235
   277  H   1.0    0.03    1.05    1.44     6.45530    74.25489   -12.66116
   278  H   1.0    0.05    1.05    1.44     6.13027    71.06692   -11.60292
   279  H   1.0    0.05    1.06    1.44     4.06669    72.43131    -7.78756
   280  H   1.0    0.05    1.00    1.43     3.46765    76.87972    -6.81813
   281  H   1.0    0.05    1.01    1.43     6.75010    76.11816    -6.96175
   282  H   1.0    0.04    1.00    1.43     5.28367    77.74711    -9.52422
   283  H   1.0    0.04    1.00    1.43     0.45731    74.57992    -9.69807
   284  H   1.0    0.03    1.00    1.43     2.34893    75.42274   -12.36070
   285  H   1.0    0.03    1.00    1.43     1.64028    72.18186   -11.75410
   286  N   5.0   -0.13    3.51    2.09    10.55223    70.02757    -6.79356
   287  C   4.0    0.04    4.59    4.65    10.68262    67.45566    -5.84303
   288  C   4.0    0.14    3.57    3.15     8.14283    66.88874    -4.72620
   289  O   6.0   -0.31    1.28    1.80     6.75766    68.62540    -3.99299
   290  C   4.0   -0.02    4.40    4.39    12.61581    67.14007    -3.73221
   291  C   4.0   -0.05    4.22    4.04    15.29544    67.13251    -4.80557
   292  C   4.0   -0.07    4.25    4.09    12.07535    64.70800    -2.29413
   293  C   4.0   -0.08    4.03    3.68    17.05100    68.83516    -3.40151
   294  H   1.0    0.11    1.10    1.44    10.92829    71.40896    -5.50288
   295  H   1.0    0.06    1.07    1.44    11.17962    66.20655    -7.40395
   296  H   1.0    0.05    1.07    1.44    12.46463    68.73311    -2.43397
   297  H   1.0    0.04    1.04    1.43    16.04944    65.21822    -4.70542
   298  H   1.0    0.04    1.05    1.44    15.23119    67.76179    -6.76522
   299  H   1.0    0.04    1.00    1.43    13.46619    64.49635    -0.78991
   300  H   1.0    0.05    1.05    1.44    10.18184    64.81004    -1.49099
   301  H   1.0    0.05    1.01    1.43    12.20196    63.11685    -3.59615
   302  H   1.0    0.03    1.00    1.43    18.91805    68.73500    -4.26700
   303  H   1.0    0.04    1.00    1.43    16.33479    70.76457    -3.49788
   304  H   1.0    0.04    1.00    1.43    17.15304    68.22100    -1.43808
   305  N   5.0   -0.14    3.61    2.16     7.55134    64.46422    -4.55046
   306  C   4.0    0.04    4.47    4.49     5.16084    63.65731    -3.47899
   307  C   4.0    0.15    3.52    3.12     5.43863    60.93232    -2.69853
   308  O   6.0   -0.33    1.42    1.80     7.19419    59.64353    -3.52434
   309  C   4.0   -0.03    4.36    4.31     3.07080    63.86518    -5.44808
   310  C   4.0   -0.01    3.60    3.16     3.28812    61.89419    -7.48709
   311  C   4.0   -0.04    3.48    3.11     2.07303    59.58495    -7.25466
   312  C   4.0   -0.03    3.47    3.10     4.76589    62.32127    -9.62437
   313  C   4.0   -0.03    3.43    3.09     2.28846    57.75758    -9.11037
   314  C   4.0   -0.05    3.43    3.09     4.99455    60.50714   -11.50465
   315  C   4.0    0.07    3.45    3.10     3.74355    58.23191   -11.23442
   316  O   6.0   -0.23    2.10    1.84     3.94953    56.41588   -13.08257
   317  H   1.0    0.11    1.11    1.45     8.68707    63.01858    -5.13250
   318  H   1.0    0.07    1.06    1.44     4.68841    64.80248    -1.83303
   319  H   1.0    0.05    1.03    1.43     1.24722    63.62518    -4.52022
   320  H   1.0    0.05    1.04    1.43     3.16907    65.71900    -6.33814
   321  H   1.0    0.05    1.03    1.43     0.94108    59.20700    -5.59926
   322  H   1.0    0.06    1.03    1.43     5.75233    64.09761    -9.82091
   323  H   1.0    0.06    1.03    1.43     1.32659    55.96990    -8.90439
   324  H   1.0    0.05    1.03    1.43     6.13594    60.86996   -13.15816
   325  H   1.0    0.11    1.03    1.43     5.03234    57.02815   -14.45451
   326  N   5.0   -0.13    3.43    2.04     3.68875    60.02148    -1.16029
   327  C   4.0    0.02    4.21    4.01     3.76622    57.39476    -0.39495
   328  C   4.0    0.08    3.17    3.03     2.49255    57.20011     2.12216
   329  O   6.0   -0.31    1.30    1.80     1.90106    59.12197     3.26356
   330  H   1.0    0.10    1.07    1.44     2.22421    61.03815    -0.42897
   331  H   1.0    0.04    1.03    1.43     2.77601    56.21557    -1.76311
   332  H   1.0    0.05    1.04    1.43     5.71453    56.74658    -0.23622
   333  N   5.0   -0.19    3.32    1.99     3.54135    62.11151     6.92963
   334  C   4.0    0.03    4.40    4.38     6.13594    62.99024     6.72176
   335  C   4.0    0.15    3.52    3.13     6.40050    64.56816     4.32180
   336  O   6.0   -0.29    1.28    1.80     5.07391    64.13352     2.45097
   337  C   4.0   -0.03    4.28    4.16     7.98409    60.73957     6.56869
   338  C   4.0   -0.08    4.18    3.96     6.71798    58.36041     7.56079
   339  C   4.0   -0.07    4.18    3.96     8.88549    60.32194     3.84370
   340  H   1.0    0.13    1.13    1.45     3.01222    60.94555     5.48965
   341  H   1.0    0.04    1.05    1.44     6.57814    64.16564     8.35448
   342  H   1.0    0.03    1.05    1.44     9.63193    61.15909     7.73087
   343  H   1.0    0.04    1.00    1.43     8.04834    56.79193     7.43796
   344  H   1.0    0.03    1.00    1.43     6.16618    58.66276     9.52233
   345  H   1.0    0.05    1.02    1.43     5.05313    57.95978     6.41562
   346  H   1.0    0.04    1.00    1.43    10.18373    58.72323     3.80402
   347  H   1.0    0.06    1.00    1.43     7.25277    59.93077     2.64940
   348  H   1.0    0.04    1.02    1.43     9.84547    62.02270     3.18608
   349  N   5.0   -0.14    3.37    2.01     8.10692    66.39741     4.36716
   350  C   4.0    0.02    4.31    4.22     8.74187    67.72967     2.07114
   351  C   4.0    0.15    3.32    3.06     8.85148    70.54536     2.43964
   352  O   6.0   -0.30    1.24    1.80     9.64894    71.44487     4.42763
   353  H   1.0    0.08    1.05    1.44     9.05935    66.98323     5.93752
   354  H   1.0    0.04    1.04    1.43    10.58247    67.09094     1.40218
   355  H   1.0    0.06    1.05    1.44     7.32647    67.31960     0.63306
   356  N   5.0   -0.13    3.38    2.01     8.05212    71.92108     0.49322
   357  C   4.0    0.01    4.26    4.12     8.19196    74.66685     0.47243
   358  C   4.0    0.14    3.32    3.06     9.30123    75.60982    -1.99177
   359  O   6.0   -0.31    1.32    1.80    10.14783    74.12072    -3.56969
   360  H   1.0    0.11    1.08    1.44     7.29056    71.17275    -1.11116
   361  H   1.0    0.04    1.03    1.43     6.30413    75.46054     0.69731
   362  H   1.0    0.05    1.03    1.43     9.38060    75.31503     2.02579
   363  N   5.0   -0.13    3.46    2.05     9.25966    78.09670    -2.32247
   364  C   4.0    0.04    4.49    4.53    10.25743    79.33825    -4.57314
   365  C   4.0    0.14    3.49    3.11    12.96352    80.13383    -4.07425
   366  O   6.0   -0.30    1.26    1.80    13.46052    81.55868    -2.30925
   367  C   4.0    0.05    4.29    4.17     8.80612    81.76655    -5.10604
   368  O   6.0   -0.27    2.10    1.84     6.14728    81.24877    -5.18163
   369  C   4.0   -0.08    4.11    3.83     9.68296    82.90984    -7.56268
   370  H   1.0    0.08    1.06    1.44     8.53022    79.33259    -1.03557
   371  H   1.0    0.06    1.06    1.44    10.12704    78.02112    -6.15106
   372  H   1.0    0.05    1.05    1.44     9.15194    83.14227    -3.61316
   373  H   1.0    0.11    1.01    1.43     5.20808    82.80779    -5.51989
   374  H   1.0    0.04    1.00    1.43     8.64361    84.64649    -7.94252
   375  H   1.0    0.04    1.01    1.43    11.69362    83.34258    -7.46064
   376  H   1.0    0.04    1.00    1.43     9.36170    81.58703    -9.10848
   377  N   5.0   -0.14    3.51    2.08    14.71719    79.22865    -5.61627
   378  C   4.0    0.04    4.49    4.52    17.38170    79.63494    -5.11738
   379  C   4.0    0.14    3.48    3.11    18.68561    80.26044    -7.53056
   380  O   6.0   -0.32    1.37    1.80    18.37570    78.95275    -9.42217
   381  C   4.0   -0.03    4.36    4.30    18.60057    77.27278    -4.03079
   382  C   4.0   -0.01    3.53    3.13    17.80878    76.67563    -1.35871
   383  C   4.0   -0.05    3.45    3.10    19.36780    77.30113     0.66518
   384  C   4.0   -0.03    3.45    3.10    15.52032    75.45676    -0.84471
   385  C   4.0   -0.04    3.41    3.08    18.68750    76.73610     3.14450
   386  C   4.0   -0.04    3.41    3.08    14.80789    74.89740     1.62516
   387  C   4.0    0.07    3.42    3.08    16.40660    75.54746     3.63016
   388  O   6.0   -0.24    2.08    1.84    15.75087    75.04291     6.12271
   389  H   1.0    0.12    1.13    1.45    14.34869    78.21387    -7.21308
   390  H   1.0    0.06    1.07    1.44    17.58201    81.19963    -3.79268
   391  H   1.0    0.05    1.04    1.43    18.08657    75.66463    -5.20997
   392  H   1.0    0.04    1.04    1.43    20.64526    77.52412    -4.03645
   393  H   1.0    0.05    1.03    1.43    21.14225    78.24410     0.30614
   394  H   1.0    0.07    1.04    1.43    14.28822    74.94086    -2.38672
   395  H   1.0    0.05    1.03    1.43    19.93472    77.22365     4.68463
   396  H   1.0    0.07    1.03    1.43    13.02966    73.96576     1.99366
   397  H   1.0    0.13    1.02    1.43    14.10114    74.20387     6.18696
   398  N   5.0   -0.15    3.46    2.06    20.13692    82.29190    -7.46064
   399  C   4.0    0.04    4.44    4.44    21.94917    82.81913    -9.44107
   400  C   4.0    0.15    3.44    3.09    24.45305    81.49821    -8.86092
   401  O   6.0   -0.30    1.24    1.80    25.81933    82.20875    -7.11482
   402  C   4.0   -0.04    4.30    4.20    22.32900    85.65939    -9.72453
   403  C   4.0   -0.02    4.22    4.05    24.25463    86.37937   -11.70685
   404  C   4.0    0.25    3.13    3.03    24.73840    89.19129   -11.75221
   405  O   6.0   -0.28    1.17    1.80    23.06599    90.58968   -12.67628
   406  O   6.0   -0.27    1.17    1.80    26.76608    90.00576   -10.82624
   407  H   1.0    0.08    1.06    1.44    20.09724    83.60715    -6.05279
   408  H   1.0    0.07    1.08    1.44    21.22918    82.05379   -11.21363
   409  H   1.0    0.05    1.03    1.43    20.53187    86.51543   -10.25554
   410  H   1.0    0.06    1.03    1.43    22.96962    86.42284    -7.92173
   411  H   1.0    0.07    1.04    1.43    26.03475    85.42506   -11.30056
   412  H   1.0    0.06    1.03    1.43    23.56110    85.81435   -13.56256
   413  N   5.0   -0.13    3.51    2.09    25.02753    79.54801   -10.32357
   414  C   4.0    0.04    4.36    4.30    27.22906    78.00600    -9.83035
   415  C   4.0    0.08    3.22    3.04    29.21327    78.40095   -11.85992
   416  O   6.0   -0.29    1.16    1.80    28.62935    79.27967   -13.92917
   417  C   4.0   -0.05    4.37    4.33    26.47506    75.22999    -9.69051
   418  C   4.0   -0.02    4.24    4.07    24.22818    74.77079    -7.94063
   419  C   4.0   -0.08    4.10    3.80    22.53687    72.63351    -8.89872
   420  C   4.0   -0.08    4.12    3.83    25.14658    74.25678    -5.28745
   421  H   1.0    0.10    1.07    1.44    23.99952    78.99999   -11.85803
   422  H   1.0    0.05    1.07    1.44    28.07566    78.55024    -8.03323
   423  H   1.0    0.04    1.04    1.43    25.95917    74.58181   -11.57646
   424  H   1.0    0.03    1.03    1.43    28.07188    74.13773    -8.98187
   425  H   1.0    0.05    1.08    1.44    23.06033    76.46587    -7.90661
   426  H   1.0    0.04    1.00    1.43    20.96840    72.38217    -7.58914
   427  H   1.0    0.04    1.02    1.43    21.82067    73.13050   -10.76577
   428  H   1.0    0.03    1.00    1.43    23.64425    70.90063    -9.01021
   429  H   1.0    0.04    1.00    1.43    23.51953    73.93364    -4.06480
   430  H   1.0    0.03    1.00    1.43    26.35223    72.58626    -5.30635
   431  H   1.0    0.04    1.00    1.43    26.21428    75.88761    -4.62038
   432  N   5.0   -0.20    3.22    1.96    29.58177    61.70522    -2.79301
   433  C   4.0    0.03    4.35    4.29    27.26686    61.70522    -1.31147
   434  C   4.0    0.07    3.29    3.05    26.81899    59.08039    -0.22866
   435  O   6.0   -0.30    1.14    1.80    27.11379    57.19445    -1.53824
   436  C   4.0   -0.02    4.38    4.35    25.00107    62.47434    -2.93852
   437  C   4.0   -0.06    4.22    4.05    24.99729    65.32972    -3.33537
   438  C   4.0   -0.08    4.18    3.96    22.54632    61.60129    -1.73855
   439  C   4.0   -0.08    4.07    3.75    24.84423    66.78480    -0.92030
   440  H   1.0    0.12    1.04    1.43    29.85956    60.06683    -3.77000
   441  H   1.0    0.03    1.07    1.44    27.48984    63.02425     0.25511
   442  H   1.0    0.04    1.06    1.44    25.16926    61.55782    -4.77534
   443  H   1.0    0.03    1.03    1.43    26.73773    65.87207    -4.29346
   444  H   1.0    0.03    1.03    1.43    23.36835    65.84183    -4.48810
   445  H   1.0    0.04    1.00    1.43    20.97218    62.17576    -2.93663
   446  H   1.0    0.05    1.02    1.43    22.58034    59.54904    -1.55902
   447  H   1.0    0.03    1.00    1.43    22.36491    62.46678     0.12283
   448  H   1.0    0.03    1.00    1.43    24.84990    68.79925    -1.34926
   449  H   1.0    0.03    1.00    1.43    23.10379    66.28025     0.05858
   450  H   1.0    0.04    1.01    1.43    26.47128    66.31237     0.25133
   451  N   5.0   -0.21    3.24    1.96     6.06980    46.98048     2.18830
   452  C   4.0    0.03    4.34    4.27     7.44363    47.65700    -0.11527
   453  C   4.0    0.14    3.48    3.11     7.81591    50.47836    -0.27779
   454  O   6.0   -0.32    1.28    1.80     6.90506    51.85219     1.33982
   455  C   4.0   -0.04    4.37    4.33     5.91862    46.86331    -2.43397
   456  C   4.0   -0.01    3.59    3.16     3.37883    48.17289    -2.58703
   457  C   4.0   -0.04    3.48    3.11     3.14072    50.53127    -3.73221
   458  C   4.0   -0.05    3.48    3.10     1.23021    47.06929    -1.53068
   459  C   4.0   -0.03    3.42    3.09     0.83526    51.73125    -3.84748
   460  C   4.0   -0.05    3.44    3.09    -1.07903    48.25793    -1.62705
   461  C   4.0    0.07    3.45    3.10    -1.27934    50.58607    -2.78735
   462  O   6.0   -0.23    2.09    1.84    -3.59804    51.78416    -2.87805
   463  H   1.0    0.10    1.04    1.43     5.69374    48.46769     3.35615
   464  H   1.0    0.04    1.05    1.44     9.26911    46.70458    -0.08504
   465  H   1.0    0.04    1.03    1.43     6.98443    47.33764    -4.13283
   466  H   1.0    0.04    1.03    1.43     5.58603    44.83186    -2.35460
   467  H   1.0    0.05    1.03    1.43     4.78479    51.42889    -4.53912
   468  H   1.0    0.04    1.03    1.43     1.38328    45.24949    -0.62172
   469  H   1.0    0.06    1.03    1.43     0.66896    53.55105    -4.75644
   470  H   1.0    0.05    1.03    1.43    -2.72310    47.37732    -0.80124
   471  H   1.0    0.12    1.02    1.43    -4.88494    50.73536    -2.05602
   472  N   5.0   -0.15    3.48    2.06     9.03478    51.34007    -2.30547
   473  C   4.0    0.04    4.44    4.45     9.24832    54.04238    -2.84971
   474  C   4.0    0.14    3.51    3.12    10.29901    54.52237    -5.45186
   475  O   6.0   -0.31    1.27    1.80    11.45552    52.87831    -6.59703
   476  C   4.0   -0.03    4.32    4.24    10.95474    55.34062    -0.95053
   477  C   4.0   -0.01    3.69    3.23    13.75909    54.91922    -1.35682
   478  C   4.0   -0.01    3.57    3.15    15.29166    53.27893    -0.05480
   479  C   4.0    0.01    3.89    3.45    15.38237    56.26659    -3.06136
   480  N   5.0   -0.12    3.47    2.06    17.75209    53.50381    -0.87872
   481  C   4.0    0.03    3.89    3.45    17.85602    55.32740    -2.71365
   482  C   4.0   -0.04    3.45    3.10    14.98742    58.17143    -4.83392
   483  C   4.0   -0.05    3.41    3.08    19.91204    56.23446    -4.08181
   484  C   4.0   -0.04    3.38    3.07    17.02643    59.05583    -6.19074
   485  C   4.0   -0.05    3.39    3.08    19.46229    58.09396    -5.80713
   486  H   1.0    0.09    1.07    1.44     9.89649    50.21191    -3.60938
   487  H   1.0    0.05    1.07    1.44     7.33592    54.80772    -2.80246
   488  H   1.0    0.05    1.03    1.43    10.61459    57.37019    -1.04880
   489  H   1.0    0.05    1.04    1.43    10.49176    54.63954     0.92975
   490  H   1.0    0.04    1.01    1.43    14.66049    51.99770     1.40407
   491  H   1.0    0.07    1.04    1.43    19.25064    52.47958    -0.22866
   492  H   1.0    0.07    1.07    1.44    13.12226    58.94055    -5.13816
   493  H   1.0    0.05    1.03    1.43    21.79043    55.49369    -3.78701
   494  H   1.0    0.05    1.03    1.43    16.73919    60.52225    -7.57969
   495  H   1.0    0.04    1.03    1.43    21.01564    58.84040    -6.89939
   496  N   5.0   -0.14    3.49    2.07     9.96264    56.81650    -6.37216
   497  C   4.0    0.02    4.32    4.23    10.54089    57.30216    -8.99132
   498  C   4.0    0.14    3.36    3.07    11.07568    60.04604    -9.53367
   499  O   6.0   -0.32    1.30    1.80    10.93584    61.66932    -7.85370
   500  H   1.0    0.12    1.15    1.45     9.31068    58.33206    -5.37438
   501  H   1.0    0.06    1.04    1.43    12.20007    56.20801    -9.53178
   502  H   1.0    0.05    1.03    1.43     8.94407    56.71823   -10.15539
   503  N   5.0   -0.14    3.47    2.06    11.66906    60.57706   -11.90527
   504  C   4.0    0.04    4.57    4.63    12.54778    63.06015   -12.55723
   505  C   4.0    0.14    3.49    3.11    11.85236    63.76691   -15.24064
   506  O   6.0   -0.32    1.28    1.80    11.72386    62.17765   -16.91872
   507  C   4.0   -0.02    4.38    4.35    15.39938    63.31527   -12.13960
   508  C   4.0   -0.05    4.23    4.05    16.07779    66.06293   -11.60670
   509  C   4.0   -0.07    4.19    3.98    16.84691    62.35529   -14.41294
   510  C   4.0   -0.09    4.04    3.69    18.84246    66.41253   -10.99821
   511  H   1.0    0.11    1.09    1.44    11.55567    59.33551   -13.37548
   512  H   1.0    0.06    1.08    1.44    11.53867    64.38296   -11.34214
   513  H   1.0    0.04    1.07    1.44    15.92094    62.17009   -10.50877
   514  H   1.0    0.04    1.03    1.43    15.64126    67.19677   -13.26966
   515  H   1.0    0.04    1.04    1.43    14.97986    66.72433    -9.99476
   516  H   1.0    0.03    1.01    1.43    18.86513    62.56127   -14.05956
   517  H   1.0    0.05    1.00    1.43    16.38581    60.37107   -14.71152
   518  H   1.0    0.05    1.01    1.43    16.30645    63.45889   -16.06645
   519  H   1.0    0.03    1.00    1.43    19.20340    68.40808   -10.63727
   520  H   1.0    0.03    1.00    1.43    19.30733    65.30137    -9.32580
   521  H   1.0    0.03    1.00    1.43    19.96873    65.77380   -12.60069
   522  N   5.0   -0.14    3.53    2.10    11.37615    66.19332   -15.60158
   523  C   4.0    0.04    4.54    4.59    10.59758    67.14007   -18.03177
   524  C   4.0    0.14    3.48    3.11    11.85803    69.69687   -18.44750
   525  O   6.0   -0.32    1.27    1.80    11.83535    71.33338   -16.77321
   526  C   4.0   -0.02    4.39    4.36     7.71197    67.39141   -18.15460
   527  C   4.0   -0.04    4.26    4.11     6.91262    68.83138   -20.51109
   528  C   4.0   -0.07    4.20    4.01     6.72364    68.71610   -15.84346
   529  C   4.0   -0.08    4.05    3.70     4.08748    68.89752   -20.83612
   530  H   1.0    0.10    1.08    1.44    11.51788    67.54258   -14.23342
   531  H   1.0    0.06    1.07    1.44    11.22497    65.87018   -19.52843
   532  H   1.0    0.04    1.06    1.44     6.92207    65.49034   -18.23397
   533  H   1.0    0.06    1.04    1.43     7.58725    70.77213   -20.37503
   534  H   1.0    0.05    1.03    1.43     7.72709    67.91675   -22.16838
   535  H   1.0    0.03    1.01    1.43     4.67329    68.86728   -15.98141
   536  H   1.0    0.06    1.01    1.43     7.23576    67.62384   -14.17483
   537  H   1.0    0.06    1.01    1.43     7.56079    70.59449   -15.73764
   538  H   1.0    0.05    1.00    1.43     3.63394    69.94821   -22.54821
   539  H   1.0    0.04    1.00    1.43     3.38450    66.96811   -20.99108
   540  H   1.0    0.03    1.01    1.43     3.24655    69.82348   -19.19962
   541  N   5.0   -0.14    3.47    2.06    13.07123    69.97277   -20.62825
   542  C   4.0    0.04    4.44    4.44    14.14838    72.37839   -21.37091
   543  C   4.0    0.15    3.46    3.10    12.01299    74.09049   -22.24018
   544  O   6.0   -0.30    1.25    1.80    10.60325    73.41018   -23.95417
   545  C   4.0   -0.05    4.38    4.35    15.98708    71.97210   -23.55732
   546  C   4.0   -0.02    4.18    3.97    18.05444    73.94309   -24.02598
   547  C   4.0   -0.07    4.10    3.80    19.16371    73.62750   -26.66403
   548  C   4.0   -0.06    4.18    3.95    17.07556    76.60949   -23.63480
   549  H   1.0    0.10    1.09    1.44    13.33391    68.56115   -21.91326
   550  H   1.0    0.05    1.06    1.44    15.14237    73.23822   -19.78543
   551  H   1.0    0.04    1.04    1.43    16.95084    70.18064   -23.23040
   552  H   1.0    0.05    1.04    1.43    14.87592    71.86817   -25.28831
   553  H   1.0    0.05    1.06    1.44    19.56244    73.64829   -22.65403
   554  H   1.0    0.06    1.00    1.43    20.62636    75.04858   -26.95127
   555  H   1.0    0.05    1.00    1.43    19.97440    71.74156   -26.82844
   556  H   1.0    0.04    1.00    1.43    17.66516    73.87128   -28.05487
   557  H   1.0    0.07    1.02    1.43    18.60435    77.94364   -23.98629
   558  H   1.0    0.05    1.01    1.43    15.52599    76.95531   -24.94816
   559  H   1.0    0.05    1.01    1.43    16.40849    76.80035   -21.69594
   560  N   5.0   -0.15    3.50    2.08    11.77299    76.31091   -21.07611
   561  C   4.0    0.04    4.40    4.37     9.83602    78.11938   -21.87358
   562  C   4.0    0.14    3.41    3.08    10.83002    80.05257   -23.76141
   563  O   6.0   -0.30    1.24    1.80     9.42595    80.84437   -25.43004
   564  C   4.0   -0.05    4.36    4.30     8.63416    79.48376   -19.61913
   565  C   4.0   -0.02    4.19    3.98     7.27544    77.96253   -17.57067
   566  C   4.0   -0.08    4.13    3.86     7.22631    79.51022   -15.17639
   567  C   4.0   -0.08    4.09    3.79     4.60715    77.16318   -18.30955
   568  H   1.0    0.13    1.26    1.48    12.86714    76.90429   -19.60402
   569  H   1.0    0.06    1.07    1.44     8.32235    77.05169   -22.77687
   570  H   1.0    0.05    1.04    1.43    10.13649    80.51933   -18.66293
   571  H   1.0    0.04    1.04    1.43     7.24143    80.79901   -20.37503
   572  H   1.0    0.05    1.06    1.44     8.30912    76.20509   -17.27776
   573  H   1.0    0.03    1.00    1.43     6.26066    78.44063   -13.70618
   574  H   1.0    0.04    1.00    1.43     9.16139    79.91084   -14.59624
   575  H   1.0    0.03    1.00    1.43     6.22287    81.27144   -15.53733
   576  H   1.0    0.03    1.00    1.43     3.77378    76.09548   -16.75809
   577  H   1.0    0.03    1.00    1.43     3.48276    78.84693   -18.68750
   578  H   1.0    0.04    1.00    1.43     4.70164    75.98966   -19.99897
   579  N   5.0   -0.14    3.44    2.04    13.21674    80.82358   -23.51764
   580  C   4.0    0.03    4.32    4.24    14.18617    82.87204   -25.11824
   581  C   4.0    0.14    3.34    3.06    17.08312    83.25566   -25.07099
   582  O   6.0   -0.31    1.26    1.80    18.44561    81.93852   -23.70472
   583  C   4.0   -0.06    4.12    3.83    12.82935    85.33813   -24.43983
   584  H   1.0    0.09    1.07    1.44    14.48853    80.09225   -22.26853
   585  H   1.0    0.05    1.06    1.44    13.84224    82.23898   -27.04765
   586  H   1.0    0.05    1.00    1.43    13.55500    86.85180   -25.63224
   587  H   1.0    0.05    1.00    1.43    10.80734    85.10003   -24.75730
   588  H   1.0    0.05    1.00    1.43    13.18273    85.77466   -22.45750
   589  N   5.0   -0.14    3.42    2.03    17.98641    85.07924   -26.57900
   590  C   4.0    0.04    4.35    4.29    20.56778    86.15261   -26.34089
   591  C   4.0    0.25    3.19    3.03    20.60368    89.01176   -25.91192
   592  O   6.0   -0.29    1.22    1.80    22.10979    90.36103   -27.07032
   593  C   4.0   -0.02    4.33    4.26    22.18160    85.52333   -28.66714
   594  C   4.0    0.16    3.24    3.04    22.21940    82.72275   -29.23973
   595  O   6.0   -0.27    1.20    1.80    23.90881    81.34892   -28.41392
   596  N   5.0   -0.18    3.19    1.95    20.29377    81.83836   -30.57577
   597  O   6.0   -0.28    1.20    1.80    19.12214    89.97930   -24.40203
   598  H   1.0    0.07    1.05    1.44    16.97352    85.87671   -28.01141
   599  H   1.0    0.07    1.06    1.44    21.40493    85.27955   -24.67415
   600  H   1.0    0.05    1.03    1.43    21.41060    86.50221   -30.30742
   601  H   1.0    0.06    1.03    1.43    24.11857    86.13371   -28.32888
   602  H   1.0    0.09    1.02    1.43    20.21062    79.96564   -31.02363
   603  H   1.0    0.08    1.03    1.43    18.89537    83.03078   -31.15591
   604  N   5.0   -0.20    3.08    1.94   -11.36810    55.53115   -18.79899
   605  C   4.0    0.02    4.16    3.92    -9.45412    57.45919   -19.30922
   606  C   4.0    0.15    3.30    3.05    -8.58171    59.14412   -17.16816
   607  O   6.0   -0.31    1.26    1.80    -9.27006    58.79090   -14.99498
   608  H   1.0    0.09    1.02    1.43   -11.62270    55.09772   -16.93761
   609  H   1.0    0.05    1.03    1.43    -7.77590    56.50336   -20.02543
   610  H   1.0    0.05    1.03    1.43   -10.19207    58.70571   -20.77376
   611  N   5.0   -0.14    3.43    2.04    -7.02881    60.99478   -17.83145
   612  C   4.0    0.03    4.44    4.45    -6.02869    62.77617   -16.00220
   613  C   4.0    0.14    3.39    3.08    -7.64437    65.19715   -15.81512
   614  O   6.0   -0.34    1.49    1.80    -7.66728    66.79020   -17.53666
   615  C   4.0   -0.05    4.35    4.30    -3.27178    63.40145   -16.60691
   616  C   4.0   -0.03    4.20    4.01    -1.88467    64.76085   -14.47152
   617  C   4.0   -0.07    4.14    3.88    -2.31259    63.35827   -11.99787
   618  C   4.0   -0.08    4.09    3.78     0.92685    65.06875   -15.03466
   619  H   1.0    0.10    1.07    1.44    -6.42761    61.30666   -19.63614
   620  H   1.0    0.05    1.09    1.44    -6.15036    61.87758   -14.15216
   621  H   1.0    0.05    1.03    1.43    -2.26725    61.64535   -16.99242
   622  H   1.0    0.05    1.03    1.43    -3.22064    64.62007   -18.26609
   623  H   1.0    0.04    1.06    1.44    -2.64312    66.66727   -14.28822
   624  H   1.0    0.04    1.00    1.43    -1.31625    64.34321   -10.48798
   625  H   1.0    0.05    1.01    1.43    -4.33116    63.31264   -11.59347
   626  H   1.0    0.05    1.00    1.43    -1.58796    61.43863   -12.18117
   627  H   1.0    0.04    1.00    1.43     1.82283    66.04616   -13.45863
   628  H   1.0    0.04    1.00    1.43     1.77080    63.20460   -15.27654
   629  H   1.0    0.03    1.00    1.43     1.14786    66.16965   -16.76187
   630  N   5.0   -0.14    3.48    2.06    -8.97574    65.45740   -13.69673
   631  C   4.0    0.04    4.47    4.49   -10.68917    67.56168   -13.34147
   632  C   4.0    0.15    3.45    3.09    -9.81503    69.31762   -11.27788
   633  O   6.0   -0.32    1.36    1.80    -9.36873    68.52971    -9.16328
   634  C   4.0   -0.02    4.36    4.31   -13.30762    66.60553   -12.64794
   635  C   4.0   -0.01    3.54    3.14   -14.64028    65.20815   -14.73986
   636  C   4.0   -0.03    3.47    3.10   -14.25657    62.62998   -15.10647
   637  C   4.0   -0.04    3.47    3.10   -16.31274    66.45741   -16.33479
   638  C   4.0   -0.04    3.43    3.09   -15.52177    61.32676   -17.00186
   639  C   4.0   -0.04    3.43    3.09   -17.57875    65.18302   -18.22830
   640  C   4.0    0.06    3.45    3.10   -17.18371    62.62450   -18.55333
   641  O   6.0   -0.25    2.10    1.84   -18.47263    61.36333   -20.42794
   642  H   1.0    0.12    1.14    1.45    -8.89750    64.23609   -12.20763
   643  H   1.0    0.07    1.09    1.44   -10.72918    68.62999   -15.10080
   644  H   1.0    0.06    1.04    1.43   -13.13427    65.31840   -11.04923
   645  H   1.0    0.05    1.04    1.43   -14.47991    68.21846   -12.13015
   646  H   1.0    0.07    1.03    1.43   -12.95452    61.62730   -13.89704
   647  H   1.0    0.06    1.03    1.43   -16.62776    68.45913   -16.08913
   648  H   1.0    0.05    1.03    1.43   -15.21261    59.32623   -17.26265
   649  H   1.0    0.05    1.03    1.43   -18.87167    66.18261   -19.44906
   650  H   1.0    0.11    1.02    1.43   -18.22410    59.53747   -20.24841
   651  N   5.0   -0.14    3.49    2.07    -9.64069    71.72852   -11.88827
   652  C   4.0    0.03    4.36    4.30    -9.53008    73.66999    -9.95697
   653  C   4.0    0.08    3.24    3.04   -12.23345    74.33176    -9.19730
   654  O   6.0   -0.31    1.16    1.80   -13.76354    75.07551   -10.78845
   655  C   4.0   -0.05    4.43    4.43    -8.26253    76.02797   -11.02466
   656  C   4.0   -0.03    4.20    4.01    -6.50723    77.48465    -9.29745
   657  C   4.0   -0.07    4.14    3.88    -4.63619    75.66469    -8.05590
   658  C   4.0   -0.09    4.14    3.88    -5.15067    79.40720   -10.89427
   659  H   1.0    0.09    1.07    1.44    -9.57185    72.39577   -13.69484
   660  H   1.0    0.04    1.07    1.44    -8.47786    72.99048    -8.32235
   661  H   1.0    0.04    1.05    1.44    -7.14958    75.45742   -12.66116
   662  H   1.0    0.05    1.05    1.44    -9.74793    77.33289   -11.60292
   663  H   1.0    0.04    1.05    1.44    -7.53455    78.43781    -7.78756
   664  H   1.0    0.04    1.00    1.43    -3.38259    76.73239    -6.81813
   665  H   1.0    0.04    1.01    1.43    -5.68334    74.27048    -6.96175
   666  H   1.0    0.04    1.00    1.43    -3.53942    74.72598    -9.52422
   667  H   1.0    0.03    1.00    1.43    -3.86910    80.48932    -9.69807
   668  H   1.0    0.03    1.00    1.43    -4.08501    78.42972   -12.36070
   669  H   1.0    0.03    1.00    1.43    -6.53737    80.66387   -11.75410
   670  N   5.0   -0.19    3.23    1.96    -1.28949    90.66014   -11.88827
   671  C   4.0    0.02    4.24    4.08     0.33656    89.59362    -9.95697
   672  C   4.0    0.07    3.23    3.04     2.26136    91.60392    -9.19730
   673  O   6.0   -0.31    1.16    1.80     3.67051    92.55714   -10.78845
   674  C   4.0   -0.05    4.43    4.43     1.74486    87.31690   -11.02466
   675  C   4.0   -0.03    4.21    4.01     2.12873    85.06842    -9.29745
   676  C   4.0   -0.08    4.13    3.87    -0.38292    84.35804    -8.05590
   677  C   4.0   -0.08    4.14    3.88     3.11543    82.93233   -10.89427
   678  H   1.0    0.10    1.04    1.43    -0.74605    90.26690   -13.69484
   679  H   1.0    0.03    1.06    1.44    -0.77801    89.02213    -8.32235
   680  H   1.0    0.03    1.05    1.44     0.69428    86.63834   -12.66116
   681  H   1.0    0.05    1.05    1.44     3.61766    87.95083   -11.60292
   682  H   1.0    0.03    1.06    1.44     3.46786    85.48153    -7.78756
   683  H   1.0    0.04    1.00    1.43    -0.08506    82.73853    -6.81813
   684  H   1.0    0.03    1.01    1.43    -1.06676    85.96200    -6.96175
   685  H   1.0    0.03    1.00    1.43    -1.74425    83.87757    -9.52422
   686  H   1.0    0.04    1.00    1.43     3.41179    81.28141    -9.69807
   687  H   1.0    0.03    1.00    1.43     1.73608    82.49819   -12.36070
   688  H   1.0    0.03    1.00    1.43     4.89709    83.50492   -11.75410
   689  N   5.0   -0.19    3.22    1.96    -5.22465    71.10787    -2.32247
   690  C   4.0    0.03    4.40    4.38    -4.64833    69.62300    -4.57314
   691  C   4.0    0.14    3.49    3.11    -5.31238    66.88167    -4.07425
   692  O   6.0   -0.29    1.26    1.80    -4.32692    65.73883    -2.30925
   693  C   4.0    0.06    4.29    4.17    -1.81971    69.66572    -5.10604
   694  O   6.0   -0.27    2.10    1.84    -0.93870    72.22724    -5.18163
   695  C   4.0   -0.08    4.11    3.83    -1.26801    68.33472    -7.56268
   696  H   1.0    0.09    1.03    1.43    -3.78963    71.12164    -1.03557
   697  H   1.0    0.04    1.05    1.44    -5.72381    70.39449    -6.15106
   698  H   1.0    0.06    1.05    1.44    -0.80121    68.67837    -3.61316
   699  H   1.0    0.11    1.01    1.43     0.88105    72.26110    -5.51989
   700  H   1.0    0.04    1.00    1.43     0.75566    68.36649    -7.94252
   701  H   1.0    0.04    1.01    1.43    -1.89857    66.37706    -7.46064
   702  H   1.0    0.04    1.00    1.43    -2.25297    69.27434    -9.10848
   703  N   5.0   -0.14    3.51    2.08    -6.97312    65.81554    -5.61627
   704  C   4.0    0.04    4.49    4.52    -7.95352    63.30486    -5.11738
   705  C   4.0    0.14    3.48    3.11    -8.06378    61.86289    -7.53056
   706  O   6.0   -0.32    1.37    1.80    -9.04132    62.78513    -9.42217
   707  C   4.0   -0.03    4.36    4.30   -10.60865    63.43036    -4.03079
   708  C   4.0   -0.01    3.53    3.13   -10.72990    64.41466    -1.35871
   709  C   4.0   -0.04    3.45    3.10   -10.96771    62.75175     0.66518
   710  C   4.0   -0.03    3.45    3.09   -10.64125    67.00596    -0.84471
   711  C   4.0   -0.03    3.41    3.08   -11.11689    63.62342     3.14450
   712  C   4.0   -0.04    3.40    3.08   -10.76945    67.90261     1.62516
   713  C   4.0    0.07    3.42    3.08   -11.00583    66.19306     3.63016
   714  O   6.0   -0.25    2.08    1.84   -11.11492    67.01322     6.12271
   715  H   1.0    0.12    1.13    1.45    -7.66770    66.64206    -7.21308
   716  H   1.0    0.06    1.07    1.44    -6.69861    62.34904    -3.79268
   717  H   1.0    0.05    1.04    1.43   -11.74435    64.67958    -5.20997
   718  H   1.0    0.05    1.04    1.43   -11.41333    61.53395    -4.03645
   719  H   1.0    0.05    1.03    1.43   -11.03830    60.74354     0.30614
   720  H   1.0    0.06    1.03    1.43   -10.47197    68.33093    -2.38672
   721  H   1.0    0.06    1.03    1.43   -11.31827    62.29953     4.68463
   722  H   1.0    0.05    1.03    1.43   -10.68716    69.90843     1.99366
   723  H   1.0    0.11    1.02    1.43   -11.01669    68.86145     6.18696
   724  N   5.0   -0.14    3.46    2.05    -7.03014    59.59029    -7.46064
   725  C   4.0    0.04    4.34    4.27    -7.47967    57.75722    -9.44107
   726  C   4.0    0.08    3.23    3.04    -9.87556    56.24925    -8.86092
   727  O   6.0   -0.29    1.12    1.80    -9.94335    54.71076    -7.11482
   728  C   4.0   -0.04    4.30    4.20    -5.20985    56.00815    -9.72453
   729  C   4.0   -0.02    4.22    4.05    -5.54914    53.98051   -11.70685
   730  C   4.0    0.24    3.13    3.03    -3.35584    52.15560   -11.75221
   731  O   6.0   -0.29    1.17    1.80    -1.30859    52.90475   -12.67628
   732  O   6.0   -0.29    1.17    1.80    -3.66432    49.99234   -10.82624
   733  H   1.0    0.08    1.06    1.44    -5.87126    58.96704    -6.05279
   734  H   1.0    0.07    1.08    1.44    -7.78248    58.76342   -11.21363
   735  H   1.0    0.05    1.03    1.43    -3.56993    57.13648   -10.25554
   736  H   1.0    0.06    1.03    1.43    -4.86899    55.07163    -7.92173
   737  H   1.0    0.06    1.04    1.43    -7.26566    52.91604   -11.30056
   738  H   1.0    0.06    1.03    1.43    -5.69170    54.86364   -13.56256
   739  N   5.0   -0.20    3.27    1.97     5.21538    94.93070   -15.60158
   740  C   4.0    0.03    4.33    4.25     4.78475    93.78306   -18.03177
   741  C   4.0    0.07    3.27    3.05     1.94028    93.59624   -18.44750
   742  O   6.0   -0.31    1.15    1.80     0.53436    92.75835   -16.77321
   743  C   4.0   -0.02    4.39    4.36     6.00990    91.15838   -18.15460
   744  C   4.0   -0.05    4.25    4.11     5.16252    89.74614   -20.51109
   745  C   4.0   -0.07    4.20    4.01     5.35684    89.64012   -15.84346
   746  C   4.0   -0.08    4.05    3.70     6.51782    87.26642   -20.83612
   747  H   1.0    0.12    1.05    1.44     3.97602    94.37881   -14.23342
   748  H   1.0    0.03    1.05    1.44     5.57082    94.96135   -19.52843
   749  H   1.0    0.04    1.06    1.44     8.05122    91.42484   -18.23397
   750  H   1.0    0.04    1.04    1.43     3.14447    89.36001   -20.37503
   751  H   1.0    0.04    1.03    1.43     5.54738    90.90880   -22.16838
   752  H   1.0    0.03    1.01    1.43     6.25109    87.78887   -15.98141
   753  H   1.0    0.05    1.01    1.43     6.04671    90.62976   -14.17483
   754  H   1.0    0.06    1.01    1.43     3.31153    89.42592   -15.73764
   755  H   1.0    0.04    1.00    1.43     5.83466    86.34831   -22.54821
   756  H   1.0    0.04    1.00    1.43     8.54022    87.62233   -20.99108
   757  H   1.0    0.03    1.01    1.43     6.13637    86.07518   -19.19962
   758  N   5.0   -0.21    3.17    1.95    -3.74513    90.21558   -21.07611
   759  C   4.0    0.03    4.20    4.00    -4.34282    87.63388   -21.87358
   760  C   4.0    0.07    3.19    3.04    -6.51401    87.52811   -23.76141
   761  O   6.0   -0.30    1.12    1.80    -6.49770    85.91626   -25.43004
   762  C   4.0   -0.05    4.35    4.30    -4.92348    85.91084   -19.61913
   763  C   4.0   -0.03    4.19    3.98    -2.92670    85.49478   -17.57067
   764  C   4.0   -0.09    4.13    3.86    -4.24247    84.67838   -15.17639
   765  C   4.0   -0.08    4.09    3.79    -0.90029    83.58365   -18.30955
   766  H   1.0    0.08    1.02    1.43    -4.80608    90.86645   -19.60402
   767  H   1.0    0.05    1.06    1.44    -2.66134    86.85685   -22.77687
   768  H   1.0    0.04    1.04    1.43    -6.57148    86.69412   -18.66293
   769  H   1.0    0.04    1.04    1.43    -5.36616    84.04708   -20.37503
   770  H   1.0    0.04    1.06    1.44    -1.92155    87.26869   -17.27776
   771  H   1.0    0.03    1.00    1.43    -2.83336    84.37690   -13.70618
   772  H   1.0    0.03    1.00    1.43    -5.55696    86.15390   -14.59624
   773  H   1.0    0.03    1.00    1.43    -5.26601    82.92876   -15.53733
   774  H   1.0    0.03    1.00    1.43     0.44104    83.39577   -16.75809
   775  H   1.0    0.04    1.00    1.43    -1.79627    81.76802   -18.68750
   776  H   1.0    0.04    1.00    1.43     0.06876    84.25223   -19.99897
   777  N   5.0   -0.21    3.27    1.97   -16.59153    75.22663   -15.60158
   778  C   4.0    0.03    4.43    4.43   -15.38234    75.42751   -18.03177
   779  C   4.0    0.14    3.48    3.11   -13.79831    73.05753   -18.44750
   780  O   6.0   -0.31    1.27    1.80   -12.36972    72.25892   -16.77321
   781  C   4.0   -0.03    4.39    4.36   -13.72187    77.80086   -18.15460
   782  C   4.0   -0.05    4.26    4.11   -12.07514    77.77313   -20.51109
   783  C   4.0   -0.07    4.20    4.01   -12.08049    77.99442   -15.84346
   784  C   4.0   -0.08    4.04    3.70   -10.60529    80.18671   -20.83612
   785  H   1.0    0.12    1.05    1.44   -15.49390    74.42926   -14.23342
   786  H   1.0    0.03    1.06    1.44   -16.79579    75.51912   -19.52843
   787  H   1.0    0.03    1.06    1.44   -14.97329    79.43547   -18.23397
   788  H   1.0    0.06    1.04    1.43   -10.73172    76.21851   -20.37503
   789  H   1.0    0.04    1.03    1.43   -13.27447    77.52509   -22.16838
   790  H   1.0    0.03    1.01    1.43   -10.92439    79.69449   -15.98141
   791  H   1.0    0.05    1.01    1.43   -13.28247    78.09705   -14.17483
   792  H   1.0    0.06    1.01    1.43   -10.87233    76.33024   -15.73764
   793  H   1.0    0.05    1.00    1.43    -9.46860    80.05413   -22.54821
   794  H   1.0    0.04    1.00    1.43   -11.92472    81.76021   -20.99108
   795  H   1.0    0.03    1.01    1.43    -9.38292    80.45199   -19.19962
   796  N   5.0   -0.14    3.47    2.06   -14.16597    71.86892   -20.62825
   797  C   4.0    0.03    4.44    4.44   -12.62122    69.73327   -21.37091
   798  C   4.0    0.15    3.46    3.10   -10.07081    70.72653   -22.24018
   799  O   6.0   -0.30    1.25    1.80    -9.95510    72.28755   -23.95417
   800  C   4.0   -0.05    4.38    4.35   -13.89243    68.34405   -23.55732
   801  C   4.0   -0.03    4.18    3.97   -13.21918    65.56818   -24.02598
   802  C   4.0   -0.08    4.10    3.80   -14.04712    64.76531   -26.66403
   803  C   4.0   -0.06    4.18    3.95   -10.42057    65.08271   -23.63480
   804  H   1.0    0.07    1.06    1.44   -15.51981    72.34725   -21.91326
   805  H   1.0    0.05    1.06    1.44   -12.37358    68.44253   -19.78543
   806  H   1.0    0.04    1.04    1.43   -15.92576    68.40514   -23.23040
   807  H   1.0    0.05    1.04    1.43   -13.42686    69.35831   -25.28831
   808  H   1.0    0.05    1.06    1.44   -14.22849    64.40961   -22.65403
   809  H   1.0    0.05    1.00    1.43   -13.54776    62.78809   -26.95127
   810  H   1.0    0.04    1.00    1.43   -16.08575    65.00621   -26.82844
   811  H   1.0    0.04    1.00    1.43   -13.08673    65.94121   -28.05487
   812  H   1.0    0.07    1.02    1.43   -10.02956    63.09166   -23.98629
   813  H   1.0    0.05    1.01    1.43    -9.34630    66.25177   -24.94816
   814  H   1.0    0.05    1.01    1.43    -9.92174    65.56498   -21.69594
   815  N   5.0   -0.15    3.50    2.08    -8.02786    69.82416   -21.07611
   816  C   4.0    0.04    4.40    4.37    -5.49320    70.59739   -21.87358
   817  C   4.0    0.14    3.41    3.08    -4.31601    68.76997   -23.76141
   818  O   6.0   -0.30    1.24    1.80    -2.92826    69.59003   -25.43004
   819  C   4.0   -0.05    4.36    4.30    -3.71068    70.95604   -19.61913
   820  C   4.0   -0.02    4.19    3.98    -4.34874    72.89334   -17.57067
   821  C   4.0   -0.08    4.13    3.86    -2.98384    72.16205   -15.17639
   822  C   4.0   -0.08    4.09    3.79    -3.70686    75.60382   -18.30955
   823  H   1.0    0.13    1.26    1.48    -8.06106    68.57991   -19.60402
   824  H   1.0    0.06    1.07    1.44    -5.66101    72.44211   -22.77687
   825  H   1.0    0.05    1.04    1.43    -3.56501    69.13720   -18.66293
   826  H   1.0    0.04    1.04    1.43    -1.87527    71.50456   -20.37503
   827  H   1.0    0.05    1.06    1.44    -6.38758    72.87687   -17.27776
   828  H   1.0    0.03    1.00    1.43    -3.42730    73.53311   -13.70618
   829  H   1.0    0.04    1.00    1.43    -3.60443    70.28591   -14.59624
   830  H   1.0    0.03    1.00    1.43    -0.95685    72.15044   -15.53733
   831  H   1.0    0.03    1.00    1.43    -4.21482    76.85939   -16.75809
   832  H   1.0    0.03    1.00    1.43    -1.68650    75.73570   -18.68750
   833  H   1.0    0.04    1.00    1.43    -4.77040    76.10876   -19.99897
   834  N   5.0   -0.14    3.44    2.04    -4.84165    66.31750   -23.51764
   835  C   4.0    0.03    4.32    4.24    -3.55235    64.45372   -25.11824
   836  C   4.0    0.14    3.34    3.06    -4.66860    61.75308   -25.07099
   837  O   6.0   -0.31    1.26    1.80    -6.49053    61.23169   -23.70472
   838  C   4.0   -0.07    4.12    3.85    -0.73824    64.39571   -24.43983
   839  H   1.0    0.09    1.07    1.44    -6.11089    65.58176   -22.26853
   840  H   1.0    0.05    1.06    1.44    -3.92863    65.06810   -27.04765
   841  H   1.0    0.05    1.00    1.43     0.20981    63.01044   -25.63224
   842  H   1.0    0.05    1.00    1.43     0.06656    66.26588   -24.75730
   843  H   1.0    0.04    1.00    1.43    -0.53688    63.87142   -22.45750
   844  N   5.0   -0.14    3.42    2.03    -3.54098    60.05901   -26.57900
   845  C   4.0    0.03    4.35    4.29    -3.90210    57.28680   -26.34089
   846  C   4.0    0.25    3.19    3.03    -1.44395    55.82613   -25.91192
   847  O   6.0   -0.29    1.22    1.80    -1.02851    53.84717   -27.07032
   848  C   4.0   -0.02    4.33    4.26    -5.25398    56.20383   -28.66714
   849  C   4.0    0.15    3.24    3.04    -7.69825    57.57138   -29.23973
   850  O   6.0   -0.29    1.20    1.80    -9.73273    56.79522   -28.41392
   851  N   5.0   -0.18    3.19    1.95    -7.50134    59.68123   -30.57577
   852  O   6.0   -0.28    1.21    1.80     0.13474    56.62542   -24.40203
   853  H   1.0    0.07    1.05    1.44    -2.34391    60.53747   -28.01141
   854  H   1.0    0.06    1.06    1.44    -5.07676    56.99834   -24.67415
   855  H   1.0    0.05    1.03    1.43    -4.02075    56.38210   -30.30742
   856  H   1.0    0.06    1.03    1.43    -5.69386    54.22117   -28.32888
   857  H   1.0    0.09    1.02    1.43    -9.08159    60.68959   -31.02363
   858  H   1.0    0.08    1.03    1.43    -5.76948    60.29606   -31.15591
   859  H   1.0    0.09    1.08    1.44     6.77384    94.52857   -15.05198
   860  H   1.0    0.04    1.04    1.43     1.18655    94.15380   -20.08826
   861  H   1.0    0.10    1.07    1.44    -2.11890    90.29584   -20.58468
   862  H   1.0    0.05    1.04    1.43    -7.93689    88.76527   -23.63527
   863  H   1.0    0.09    1.08    1.44   -17.02251    76.77736   -15.05198
   864  H   1.0    0.06    1.04    1.43    13.39246    48.55960   -10.19311
   865  H   1.0    0.09    1.07    1.44    16.73102    46.79897   -22.46316
   866  H   1.0    0.05    1.04    1.43    23.74584    61.35921   -40.55186
   867  H   1.0    0.10    1.07    1.44    26.61581    64.48230   -29.77303
   868  H   1.0    0.05    1.04    1.44    29.34550    57.71295   -20.08762
   869  H   1.0    0.09    1.08    1.44    27.15756    53.51795    -6.30530
   870  H   1.0    0.05    1.04    1.43    31.28374    57.80055   -11.10615
   871  H   1.0    0.09    1.07    1.44    31.22663    63.40552   -13.11287
   872  H   1.0    0.06    1.04    1.43    33.18086    67.05698   -19.16025
   873  H   1.0    0.10    1.08    1.44    31.96490    69.80369   -23.81947
   874  H   1.0    0.05    1.05    1.44     2.12687    55.50244     2.86731
   875  H   1.0    0.09    1.08    1.44     3.34881    61.24881     8.38263
   876  H   1.0    0.05    1.04    1.44    31.01558    77.94526   -11.52069
   877  H   1.0    0.09    1.08    1.44    29.53188    62.97432    -3.92415
   878  H   1.0    0.04    1.04    1.44    26.27774    58.88033     1.57081
   879  H   1.0    0.09    1.09    1.44     4.57415    46.28495     1.77377
   880  H   1.0    0.09    1.07    1.44   -12.87575    56.05945   -19.38247
   881  H   1.0    0.05    1.04    1.43   -12.77659    74.16342    -7.39515
   882  H   1.0    0.08    1.07    1.44    -2.86657    90.05120   -11.70237
   883  H   1.0    0.04    1.04    1.43     2.38714    92.15846    -7.39515
   884  H   1.0    0.09    1.07    1.44    -5.52990    72.72034    -2.76895
   885  H   1.0    0.06    1.04    1.43   -11.42819    56.50261    -9.90794

  Z AO/shell   Hii/eV     exponent
  1     Wed Apr 25 08:07:45 CEST 2018   EN: 2.200 GM2: 0.406  GM3: 0.0800  RAES: 1.40
     1s    -10.707211    1.230000
  6     Wed Apr 25 08:07:45 CEST 2018   EN: 2.550 GM2: 0.538  GM3: 0.1500  RAES: 3.00
     2s    -13.970922    2.096432
     2p    -10.063292    1.800000
  7     Wed Apr 25 08:07:45 CEST 2018   EN: 3.040 GM2: 0.461  GM3:-0.0640  RAES: 1.90
     2s    -16.686243    2.339881
     2p    -12.523956    2.014332
  8     Wed Apr 25 08:07:45 CEST 2018   EN: 3.440 GM2: 0.452  GM3:-0.0517  RAES: 1.80
     2s    -20.229985    2.439742
     2p    -15.503117    2.137023
 16     Tue Apr 24 11:44:34 CEST 2018   EN: 2.580 GM2: 0.340  GM3:-0.0502  RAES: 3.10
     3s    -20.029654    1.981333
     3p    -11.377694    2.025643
     3d     -0.420282    1.702555
 no old-style atom pair restraining (fixing) potential

molecular fragmentation (1/2 indicates fragments):
111111111111111111111111111111111111111111111111111111111111111111111111
111222222222222222222222222222222222222222222222222211111111111111111111
111111222222222222222222222222222222222222222222222222222222222222222222
222222222222222222222222222222222222222222222222222222222222222222222222
222222222222222222222222222222222222222222222222222222222222222222222222
222222222222222222222222222222222222222222222222222222222222222222222222
222222222222222222222222222222222222222222222222222222222222222222222222
222222222222222222222222222222222222222222222222222222222222222222222222
222222222222222222222222222222222222222222222222222222222222222222222222
222222222222222222222222222222222222222222222222222222222222222222222222
222222222222222222222222222222222222222222222222222222222222222222222222
222222222222222222222222222222222222222222222222222222222222222222222221
221122222222222222222
# atoms in fragment 1/2:   104   781
 fragment masses (1/2) :      737.00     5260.37
CMA distance (Bohr)    :  14.104
constraining FC (au)   :  0.0500
           ------------------------------------------------- 
          |        Self-Consistent Charge Iterations        |
           ------------------------------------------------- 

 Ncao       : 2166
 Nao        : 2162
 Nshell     : 1308
 Nel        : 2360
 T(el)      :   500.0
 intcut     :    35.0
 scfconv/Eh :  0.100E-06
   qconv/e  :  0.100E-04
 intneglect :  0.100E-08
 broydamp   :      0.400
 iter      E             dE          RMSdq      gap      omega  full diag
   1  -1342.9907712 -0.134299E+04  0.453E+00    2.78       0.0  T
   2  -1346.2164033 -0.322563E+01  0.213E+00    1.39       1.0  T
   3  -1346.4075354 -0.191132E+00  0.120E+00    1.47       1.0  T
   4  -1346.6038906 -0.196355E+00  0.258E-01    0.92       1.0  T
   5  -1346.6163519 -0.124613E-01  0.131E-01    1.07       1.0  T
   6  -1346.6189019 -0.255007E-02  0.623E-02    1.09       1.0  T
   7  -1346.6197972 -0.895304E-03  0.308E-02    1.09       1.0  T
   8  -1346.6199815 -0.184300E-03  0.184E-02    1.10       1.0  T
   9  -1346.6200379 -0.563853E-04  0.101E-02    1.10       1.0  T
  10  -1346.6200516 -0.136287E-04  0.608E-03    1.09       1.0  T
  11  -1346.6200570 -0.541769E-05  0.319E-03    1.09       1.1  T
  12  -1346.6200587 -0.176707E-05  0.156E-03    1.09       2.2  T
  13  -1346.6200591 -0.353990E-06  0.743E-04    1.09       4.5  T
  14  -1346.6200591 -0.488260E-07  0.347E-04    1.09       9.7  T
  15  -1346.6200592 -0.239152E-07  0.163E-04    1.09      20.6  T
  16  -1346.6200592 -0.372324E-08  0.847E-05    1.09      39.7  T
  17  -1346.6200592 -0.121236E-08  0.402E-05    1.09      83.5  T
speedup  1.16
cpu  time for SCC    3 m  4.9 s
wall time for SCC    2 m 39.4 s

   *** convergence criteria satisfied after 17 iterations ***

          eigenvalues
 #    :        1168       1169       1170       1171       1172       1173       1174       1175
 occ. :        2.000      2.000      2.000      2.000      2.000      2.000      2.000      2.000
 eps  :        -9.867     -9.818     -9.798     -9.798     -9.772     -9.736     -9.728     -9.709
 #    :        1176       1177       1178       1179       1180       1181       1182       1183
 occ. :        2.000      2.000      2.000      2.000      2.000      0.000      0.000      0.000
 eps  :        -9.704     -9.693     -9.579     -9.542     -9.387     -8.294     -8.246     -8.235
 #    :        1184       1185       1186       1187       1188       1189       1190       1191
 occ. :        0.000      0.000      0.000      0.000      0.000      0.000      0.000      0.000
 eps  :        -8.156     -8.120     -7.943     -7.732     -7.713     -7.676     -7.672     -7.671


   #   Z            q   n(s)   n(p)   n(d)      C6AA      α(0)
   1   7 N     -0.044  1.227  3.817  0.000    22.093     6.981
   2   6 C     -0.027  1.070  2.956  0.000    21.033     6.527
   3   6 C      0.269  1.030  2.701  0.000    22.459     7.761
   4   8 O     -0.455  1.742  4.713  0.000    22.819     6.405
   5   6 C     -0.079  1.050  3.028  0.000    21.975     6.669
   6   6 C     -0.089  1.047  3.042  0.000    22.164     6.698
   7   6 C     -0.053  1.062  2.991  0.000    21.583     6.624
   8   1 H      0.289  0.711  0.000  0.000     0.747     1.354
   9   1 H      0.290  0.710  0.000  0.000     0.745     1.352
  10   1 H      0.123  0.877  0.000  0.000     1.588     1.971
  11   1 H      0.075  0.925  0.000  0.000     2.031     2.229
  12   1 H      0.089  0.911  0.000  0.000     1.889     2.149
  13   1 H      0.091  0.909  0.000  0.000     1.867     2.137
  14   1 H      0.092  0.908  0.000  0.000     1.863     2.135
  15   1 H      0.121  0.879  0.000  0.000     1.602     1.979
  16   1 H      0.126  0.874  0.000  0.000     1.563     1.955
  17   7 N     -0.160  1.233  3.927  0.000    24.452     7.344
  18   6 C      0.004  1.058  2.937  0.000    20.488     6.441
  19   6 C      0.268  1.040  2.692  0.000    22.477     7.764
  20   8 O     -0.490  1.746  4.744  0.000    23.559     6.508
  21   6 C     -0.037  1.073  2.964  0.000    21.240     6.561
  22  16 S     -0.091  1.918  4.097  0.076   144.845    20.256
  23   1 H      0.218  0.782  0.000  0.000     1.021     1.583
  24   1 H      0.108  0.892  0.000  0.000     1.715     2.048
  25   1 H      0.079  0.921  0.000  0.000     1.993     2.207
  26   1 H      0.070  0.930  0.000  0.000     2.084     2.257
  27   7 N     -0.161  1.247  3.915  0.000    24.484     7.349
  28   6 C      0.012  1.056  2.933  0.000    20.379     6.427
  29   6 C      0.267  1.043  2.690  0.000    22.492     7.766
  30   8 O     -0.484  1.736  4.748  0.000    23.431     6.490
  31   6 C     -0.068  1.048  3.020  0.000    21.738     6.626
  32   6 C     -0.008  1.052  2.956  0.000    20.722     6.481
  33  16 S     -0.195  1.911  4.231  0.053   149.339    20.568
  34   6 C     -0.052  1.049  3.003  0.000    21.572     6.626
  35   1 H      0.239  0.761  0.000  0.000     0.927     1.508
  36   1 H      0.087  0.913  0.000  0.000     1.911     2.162
  37   1 H      0.063  0.937  0.000  0.000     2.169     2.303
  38   1 H      0.072  0.928  0.000  0.000     2.061     2.245
  39   1 H      0.066  0.934  0.000  0.000     2.134     2.284
  40   1 H      0.039  0.961  0.000  0.000     2.468     2.457
  41   1 H      0.043  0.957  0.000  0.000     2.414     2.430
  42   1 H      0.037  0.963  0.000  0.000     2.488     2.467
  43   1 H      0.060  0.940  0.000  0.000     2.195     2.317
  44   7 N     -0.161  1.235  3.926  0.000    24.492     7.350
  45   6 C      0.019  1.049  2.932  0.000    20.253     6.407
  46   6 C      0.269  1.039  2.693  0.000    22.467     7.763
  47   8 O     -0.480  1.738  4.742  0.000    23.351     6.479
  48   6 C     -0.130  1.044  3.086  0.000    23.040     6.843
  49   1 H      0.225  0.775  0.000  0.000     0.987     1.556
  50   1 H      0.077  0.923  0.000  0.000     2.007     2.215
  51   1 H      0.075  0.925  0.000  0.000     2.034     2.230
  52   1 H      0.070  0.930  0.000  0.000     2.089     2.260
  53   1 H      0.070  0.930  0.000  0.000     2.087     2.259
  54   7 N     -0.157  1.237  3.920  0.000    24.402     7.337
  55   6 C      0.019  1.057  2.924  0.000    20.255     6.409
  56   6 C      0.197  1.089  2.714  0.000    23.799     7.989
  57   8 O     -0.341  1.757  4.583  0.000    20.529     6.075
  58   6 C     -0.072  1.051  3.021  0.000    21.864     6.656
  59   6 C     -0.066  1.047  3.019  0.000    21.771     6.643
  60   6 C     -0.087  1.054  3.033  0.000    22.159     6.702
  61   6 C     -0.037  1.054  2.983  0.000    21.326     6.591
  62   7 N     -0.137  1.233  3.904  0.000    23.956     7.269
  63   1 H      0.216  0.784  0.000  0.000     1.028     1.588
  64   1 H      0.088  0.912  0.000  0.000     1.898     2.154
  65   1 H      0.059  0.941  0.000  0.000     2.209     2.324
  66   1 H      0.072  0.928  0.000  0.000     2.064     2.247
[...]
 599   1 H      0.034  0.966  0.000  0.000     2.529     2.487
 600   1 H      0.060  0.940  0.000  0.000     2.197     2.318
 601   1 H      0.065  0.935  0.000  0.000     2.137     2.286
 602   1 H      0.240  0.760  0.000  0.000     0.922     1.504
 603   1 H      0.223  0.777  0.000  0.000     0.995     1.563
 604   7 N     -0.382  1.328  4.054  0.000    29.874     8.118
 605   6 C     -0.006  1.041  2.965  0.000    20.764     6.502
 606   6 C      0.273  1.041  2.686  0.000    22.389     7.748
 607   8 O     -0.493  1.735  4.757  0.000    23.625     6.517
 608   1 H      0.161  0.839  0.000  0.000     1.326     1.804
 609   1 H      0.044  0.956  0.000  0.000     2.393     2.419
 610   1 H      0.058  0.942  0.000  0.000     2.227     2.334
 611   7 N     -0.184  1.246  3.938  0.000    24.995     7.425
 612   6 C      0.023  1.058  2.919  0.000    20.185     6.397
 613   6 C      0.264  1.051  2.685  0.000    22.538     7.774
 614   8 O     -0.489  1.724  4.765  0.000    23.531     6.505
 615   6 C     -0.068  1.053  3.015  0.000    21.786     6.644
 616   6 C     -0.014  1.055  2.959  0.000    20.795     6.486
 617   6 C     -0.119  1.042  3.077  0.000    22.831     6.813
 618   6 C     -0.118  1.045  3.073  0.000    22.808     6.810
 619   1 H      0.202  0.798  0.000  0.000     1.098     1.641
 620   1 H      0.069  0.931  0.000  0.000     2.099     2.266
 621   1 H      0.043  0.957  0.000  0.000     2.404     2.425
 622   1 H      0.049  0.951  0.000  0.000     2.326     2.385
 623   1 H      0.033  0.967  0.000  0.000     2.541     2.493
 624   1 H      0.053  0.947  0.000  0.000     2.282     2.362
 625   1 H      0.027  0.973  0.000  0.000     2.627     2.534
 626   1 H      0.034  0.966  0.000  0.000     2.526     2.485
 627   1 H      0.054  0.946  0.000  0.000     2.266     2.354
 628   1 H      0.038  0.962  0.000  0.000     2.475     2.460
 629   1 H      0.055  0.945  0.000  0.000     2.262     2.352
 630   7 N     -0.175  1.260  3.915  0.000    24.793     7.395
 631   6 C      0.024  1.053  2.922  0.000    20.161     6.392
 632   6 C      0.273  1.035  2.691  0.000    22.380     7.748
 633   8 O     -0.473  1.724  4.749  0.000    23.198     6.458
 634   6 C     -0.069  1.050  3.019  0.000    21.811     6.646
 635   6 C     -0.001  1.080  2.921  0.000    28.051     8.687
 636   6 C     -0.042  1.085  2.956  0.000    29.036     8.837
 637   6 C     -0.041  1.084  2.957  0.000    29.007     8.832
 638   6 C     -0.073  1.077  2.995  0.000    29.811     8.953
 639   6 C     -0.058  1.072  2.986  0.000    29.442     8.898
 640   6 C      0.143  1.047  2.810  0.000    24.889     8.177
 641   8 O     -0.439  1.724  4.715  0.000    21.615     6.276
 642   1 H      0.248  0.752  0.000  0.000     0.891     1.479
 643   1 H      0.082  0.918  0.000  0.000     1.959     2.189
 644   1 H      0.070  0.930  0.000  0.000     2.086     2.258
 645   1 H      0.057  0.943  0.000  0.000     2.237     2.339
 646   1 H      0.039  0.961  0.000  0.000     2.456     2.451
 647   1 H      0.047  0.953  0.000  0.000     2.363     2.404
 648   1 H      0.032  0.968  0.000  0.000     2.562     2.503
 649   1 H      0.057  0.943  0.000  0.000     2.236     2.338
 650   1 H      0.341  0.659  0.000  0.000     0.610     1.227
 651   7 N     -0.155  1.241  3.914  0.000    24.362     7.331
 652   6 C      0.024  1.054  2.921  0.000    20.171     6.395
 653   6 C      0.196  1.090  2.714  0.000    23.822     7.994
 654   8 O     -0.353  1.754  4.599  0.000    20.760     6.109
 655   6 C     -0.081  1.059  3.022  0.000    22.021     6.678
 656   6 C     -0.018  1.053  2.966  0.000    20.866     6.497
 657   6 C     -0.122  1.047  3.074  0.000    22.888     6.821
 658   6 C     -0.122  1.044  3.078  0.000    22.883     6.818
 659   1 H      0.221  0.779  0.000  0.000     1.004     1.569
 660   1 H      0.083  0.917  0.000  0.000     1.948     2.183
 661   1 H      0.067  0.933  0.000  0.000     2.115     2.274
 662   1 H      0.066  0.934  0.000  0.000     2.125     2.280
 663   1 H      0.037  0.963  0.000  0.000     2.489     2.467
 664   1 H      0.056  0.944  0.000  0.000     2.246     2.344
 665   1 H      0.035  0.965  0.000  0.000     2.523     2.484
 666   1 H      0.049  0.951  0.000  0.000     2.335     2.390
 667   1 H      0.060  0.940  0.000  0.000     2.203     2.321
 668   1 H      0.048  0.952  0.000  0.000     2.341     2.393
 669   1 H      0.043  0.957  0.000  0.000     2.407     2.426
 670   7 N     -0.381  1.323  4.058  0.000    29.859     8.116
 671   6 C      0.038  1.052  2.911  0.000    19.960     6.364
 672   6 C      0.198  1.092  2.710  0.000    23.783     7.987
 673   8 O     -0.373  1.759  4.614  0.000    21.140     6.164
 674   6 C     -0.075  1.061  3.014  0.000    21.920     6.662
 675   6 C     -0.016  1.053  2.963  0.000    20.820     6.490
 676   6 C     -0.124  1.046  3.078  0.000    22.936     6.828
 677   6 C     -0.124  1.044  3.080  0.000    22.920     6.824
 678   1 H      0.166  0.834  0.000  0.000     1.296     1.783
 679   1 H      0.051  0.949  0.000  0.000     2.307     2.375
 680   1 H      0.058  0.942  0.000  0.000     2.222     2.331
 681   1 H      0.043  0.957  0.000  0.000     2.411     2.428
 682   1 H      0.013  0.987  0.000  0.000     2.837     2.634
 683   1 H      0.049  0.951  0.000  0.000     2.334     2.389
 684   1 H      0.039  0.961  0.000  0.000     2.458     2.452
 685   1 H      0.051  0.949  0.000  0.000     2.302     2.373
 686   1 H      0.062  0.938  0.000  0.000     2.174     2.306
 687   1 H      0.049  0.951  0.000  0.000     2.327     2.386
 688   1 H      0.034  0.966  0.000  0.000     2.527     2.486
 689   7 N     -0.380  1.322  4.059  0.000    29.825     8.111
 690   6 C      0.028  1.057  2.915  0.000    20.114     6.387
 691   6 C      0.275  1.043  2.682  0.000    22.358     7.744
 692   8 O     -0.509  1.750  4.760  0.000    23.991     6.567
 693   6 C      0.115  1.044  2.841  0.000    18.769     6.182
 694   8 O     -0.468  1.719  4.750  0.000    22.226     6.364
 695   6 C     -0.127  1.045  3.082  0.000    22.997     6.838
 696   1 H      0.161  0.839  0.000  0.000     1.329     1.806
 697   1 H      0.046  0.954  0.000  0.000     2.376     2.410
 698   1 H      0.019  0.981  0.000  0.000     2.746     2.592
 699   1 H      0.312  0.688  0.000  0.000     0.687     1.302
 700   1 H      0.049  0.951  0.000  0.000     2.331     2.388
 701   1 H      0.032  0.968  0.000  0.000     2.563     2.504
 702   1 H      0.059  0.941  0.000  0.000     2.208     2.324
 703   7 N     -0.191  1.252  3.938  0.000    25.133     7.446
 704   6 C      0.028  1.051  2.921  0.000    20.088     6.380
 705   6 C      0.272  1.036  2.692  0.000    22.404     7.752
 706   8 O     -0.473  1.726  4.747  0.000    23.188     6.456
 707   6 C     -0.070  1.051  3.018  0.000    21.817     6.647
 708   6 C      0.001  1.080  2.919  0.000    28.001     8.679
 709   6 C     -0.044  1.086  2.958  0.000    29.096     8.846
 710   6 C     -0.037  1.087  2.950  0.000    28.918     8.819
 711   6 C     -0.058  1.075  2.983  0.000    29.442     8.898
 712   6 C     -0.070  1.083  2.987  0.000    29.749     8.944
 713   6 C      0.141  1.052  2.806  0.000    24.915     8.180
 714   8 O     -0.449  1.733  4.716  0.000    21.820     6.306
 715   1 H      0.243  0.757  0.000  0.000     0.911     1.495
 716   1 H      0.065  0.935  0.000  0.000     2.144     2.290
 717   1 H      0.070  0.930  0.000  0.000     2.091     2.261
 718   1 H      0.049  0.951  0.000  0.000     2.328     2.386
 719   1 H      0.040  0.960  0.000  0.000     2.451     2.448
 720   1 H      0.046  0.954  0.000  0.000     2.370     2.407
 721   1 H      0.053  0.947  0.000  0.000     2.288     2.365
 722   1 H      0.053  0.947  0.000  0.000     2.284     2.364
 723   1 H      0.347  0.653  0.000  0.000     0.595     1.212
 724   7 N     -0.166  1.246  3.921  0.000    24.601     7.366
 725   6 C      0.024  1.054  2.921  0.000    20.168     6.395
 726   6 C      0.205  1.089  2.706  0.000    23.647     7.964
 727   8 O     -0.350  1.753  4.597  0.000    20.705     6.101
 728   6 C     -0.044  1.045  2.999  0.000    21.360     6.579
 729   6 C     -0.077  1.053  3.024  0.000    21.963     6.672
 730   6 C      0.361  1.023  2.616  0.000    20.880     7.478
 731   8 O     -0.632  1.770  4.862  0.000    26.915     6.956
 732   8 O     -0.641  1.760  4.881  0.000    27.147     6.986
 733   1 H      0.216  0.784  0.000  0.000     1.030     1.590
 734   1 H      0.090  0.910  0.000  0.000     1.882     2.145
 735   1 H      0.047  0.953  0.000  0.000     2.359     2.402
 736   1 H      0.052  0.948  0.000  0.000     2.295     2.369
 737   1 H      0.010  0.990  0.000  0.000     2.893     2.660
 738   1 H      0.009  0.991  0.000  0.000     2.903     2.664
 739   7 N     -0.391  1.324  4.067  0.000    30.113     8.150
 740   6 C      0.040  1.053  2.907  0.000    19.911     6.355
 741   6 C      0.195  1.090  2.714  0.000    23.830     7.995
 742   8 O     -0.366  1.752  4.614  0.000    21.008     6.145
 743   6 C     -0.019  1.062  2.956  0.000    20.866     6.496
 744   6 C     -0.060  1.047  3.013  0.000    21.644     6.622
 745   6 C     -0.113  1.038  3.076  0.000    22.713     6.794
 746   6 C     -0.108  1.037  3.071  0.000    22.621     6.782
 747   1 H      0.187  0.813  0.000  0.000     1.177     1.699
 748   1 H      0.036  0.964  0.000  0.000     2.509     2.477
 749   1 H      0.028  0.972  0.000  0.000     2.613     2.528
 750   1 H      0.031  0.969  0.000  0.000     2.567     2.506
 751   1 H      0.029  0.971  0.000  0.000     2.603     2.523
 752   1 H      0.047  0.953  0.000  0.000     2.362     2.404
 753   1 H      0.049  0.951  0.000  0.000     2.338     2.391
 754   1 H      0.056  0.944  0.000  0.000     2.243     2.342
 755   1 H      0.041  0.959  0.000  0.000     2.435     2.440
 756   1 H      0.030  0.970  0.000  0.000     2.589     2.516
 757   1 H      0.049  0.951  0.000  0.000     2.332     2.388
 758   7 N     -0.387  1.326  4.061  0.000    30.028     8.138
 759   6 C      0.036  1.056  2.908  0.000    19.988     6.369
 760   6 C      0.201  1.089  2.710  0.000    23.726     7.977
 761   8 O     -0.383  1.762  4.622  0.000    21.352     6.195
 762   6 C     -0.073  1.059  3.014  0.000    21.882     6.658
 763   6 C     -0.007  1.051  2.956  0.000    20.673     6.467
 764   6 C     -0.114  1.044  3.070  0.000    22.726     6.796
 765   6 C     -0.113  1.042  3.071  0.000    22.724     6.797
 766   1 H      0.166  0.834  0.000  0.000     1.295     1.783
 767   1 H      0.059  0.941  0.000  0.000     2.205     2.322
 768   1 H      0.045  0.955  0.000  0.000     2.389     2.417
 769   1 H      0.044  0.956  0.000  0.000     2.391     2.418
 770   1 H      0.025  0.975  0.000  0.000     2.664     2.553
 771   1 H      0.052  0.948  0.000  0.000     2.290     2.367
 772   1 H      0.038  0.962  0.000  0.000     2.475     2.460
 773   1 H      0.045  0.955  0.000  0.000     2.382     2.414
 774   1 H      0.046  0.954  0.000  0.000     2.373     2.409
 775   1 H      0.044  0.956  0.000  0.000     2.399     2.422
 776   1 H      0.030  0.970  0.000  0.000     2.592     2.518
 777   7 N     -0.393  1.322  4.071  0.000    30.187     8.160
 778   6 C      0.033  1.056  2.911  0.000    20.026     6.373
 779   6 C      0.274  1.047  2.679  0.000    22.363     7.744
 780   8 O     -0.501  1.743  4.759  0.000    23.812     6.543
 781   6 C     -0.022  1.062  2.960  0.000    20.927     6.506
 782   6 C     -0.053  1.044  3.009  0.000    21.515     6.602
 783   6 C     -0.113  1.038  3.075  0.000    22.700     6.792
 784   6 C     -0.106  1.038  3.068  0.000    22.580     6.776
 785   1 H      0.174  0.826  0.000  0.000     1.246     1.749
 786   1 H      0.024  0.976  0.000  0.000     2.678     2.559
 787   1 H      0.032  0.968  0.000  0.000     2.563     2.504
 788   1 H      0.019  0.981  0.000  0.000     2.743     2.590
 789   1 H      0.021  0.979  0.000  0.000     2.723     2.581
 790   1 H      0.045  0.955  0.000  0.000     2.387     2.416
 791   1 H      0.052  0.948  0.000  0.000     2.300     2.372
 792   1 H      0.045  0.955  0.000  0.000     2.382     2.413
 793   1 H      0.034  0.966  0.000  0.000     2.536     2.490
 794   1 H      0.040  0.960  0.000  0.000     2.453     2.449
 795   1 H      0.047  0.953  0.000  0.000     2.364     2.404
 796   7 N     -0.175  1.251  3.924  0.000    24.793     7.395
 797   6 C      0.031  1.052  2.917  0.000    20.053     6.376
 798   6 C      0.281  1.039  2.680  0.000    22.240     7.723
 799   8 O     -0.519  1.751  4.768  0.000    24.206     6.596
 800   6 C     -0.078  1.059  3.020  0.000    21.986     6.674
 801   6 C     -0.011  1.054  2.958  0.000    20.741     6.478
 802   6 C     -0.117  1.045  3.072  0.000    22.799     6.808
 803   6 C     -0.115  1.042  3.073  0.000    22.765     6.803
 804   1 H      0.206  0.794  0.000  0.000     1.075     1.624
 805   1 H      0.048  0.952  0.000  0.000     2.342     2.393
 806   1 H      0.054  0.946  0.000  0.000     2.269     2.355
 807   1 H      0.058  0.942  0.000  0.000     2.223     2.332
 808   1 H      0.028  0.972  0.000  0.000     2.619     2.531
 809   1 H      0.044  0.956  0.000  0.000     2.391     2.418
 810   1 H      0.051  0.949  0.000  0.000     2.302     2.373
 811   1 H      0.044  0.956  0.000  0.000     2.398     2.422
 812   1 H      0.054  0.946  0.000  0.000     2.270     2.356
 813   1 H      0.030  0.970  0.000  0.000     2.583     2.513
 814   1 H      0.027  0.973  0.000  0.000     2.635     2.538
 815   7 N     -0.231  1.277  3.954  0.000    26.045     7.580
 816   6 C      0.025  1.059  2.916  0.000    20.156     6.393
 817   6 C      0.276  1.043  2.681  0.000    22.335     7.739
 818   8 O     -0.486  1.744  4.742  0.000    23.475     6.496
 819   6 C     -0.076  1.057  3.019  0.000    21.936     6.667
 820   6 C     -0.008  1.051  2.958  0.000    20.690     6.470
 821   6 C     -0.115  1.044  3.071  0.000    22.748     6.799
 822   6 C     -0.115  1.043  3.072  0.000    22.755     6.802
 823   1 H      0.262  0.738  0.000  0.000     0.835     1.430
 824   1 H      0.072  0.928  0.000  0.000     2.062     2.246
 825   1 H      0.046  0.954  0.000  0.000     2.365     2.405
 826   1 H      0.058  0.942  0.000  0.000     2.225     2.333
 827   1 H      0.021  0.979  0.000  0.000     2.712     2.575
 828   1 H      0.055  0.945  0.000  0.000     2.255     2.348
 829   1 H      0.027  0.973  0.000  0.000     2.633     2.538
 830   1 H      0.052  0.948  0.000  0.000     2.294     2.369
 831   1 H      0.050  0.950  0.000  0.000     2.314     2.379
 832   1 H      0.048  0.952  0.000  0.000     2.339     2.392
 833   1 H      0.031  0.969  0.000  0.000     2.570     2.507
 834   7 N     -0.172  1.238  3.935  0.000    24.728     7.386
 835   6 C      0.021  1.061  2.918  0.000    20.230     6.405
 836   6 C      0.271  1.048  2.681  0.000    22.426     7.754
 837   8 O     -0.500  1.752  4.748  0.000    23.790     6.539
 838   6 C     -0.128  1.046  3.082  0.000    23.008     6.840
 839   1 H      0.198  0.802  0.000  0.000     1.116     1.655
 840   1 H      0.077  0.923  0.000  0.000     2.009     2.217
 841   1 H      0.070  0.930  0.000  0.000     2.083     2.257
 842   1 H      0.092  0.908  0.000  0.000     1.862     2.134
 843   1 H      0.052  0.948  0.000  0.000     2.295     2.369
 844   7 N     -0.179  1.251  3.928  0.000    24.881     7.408
 845   6 C      0.023  1.074  2.903  0.000    20.198     6.401
 846   6 C      0.371  1.015  2.615  0.000    20.719     7.449
 847   8 O     -0.630  1.762  4.868  0.000    26.860     6.949
 848   6 C     -0.092  1.058  3.034  0.000    22.237     6.712
 849   6 C      0.289  1.037  2.674  0.000    22.100     7.697
 850   8 O     -0.519  1.758  4.761  0.000    24.210     6.597
 851   7 N     -0.278  1.266  4.012  0.000    27.191     7.744
 852   8 O     -0.616  1.756  4.859  0.000    26.504     6.902
 853   1 H      0.204  0.796  0.000  0.000     1.084     1.631
 854   1 H      0.037  0.963  0.000  0.000     2.494     2.469
 855   1 H      0.061  0.939  0.000  0.000     2.184     2.311
 856   1 H      0.068  0.932  0.000  0.000     2.109     2.271
 857   1 H      0.235  0.765  0.000  0.000     0.944     1.522
 858   1 H      0.225  0.775  0.000  0.000     0.986     1.556
 859   1 H      0.176  0.824  0.000  0.000     1.235     1.741
 860   1 H      0.063  0.937  0.000  0.000     2.162     2.299
 861   1 H      0.170  0.830  0.000  0.000     1.275     1.769
 862   1 H      0.077  0.923  0.000  0.000     2.010     2.217
 863   1 H      0.185  0.815  0.000  0.000     1.185     1.705
 864   1 H      0.093  0.907  0.000  0.000     1.845     2.124
 865   1 H      0.189  0.811  0.000  0.000     1.163     1.689
 866   1 H      0.097  0.903  0.000  0.000     1.816     2.107
 867   1 H      0.188  0.812  0.000  0.000     1.167     1.692
 868   1 H      0.088  0.912  0.000  0.000     1.900     2.155
 869   1 H      0.183  0.817  0.000  0.000     1.199     1.715
 870   1 H      0.063  0.937  0.000  0.000     2.165     2.301
 871   1 H      0.186  0.814  0.000  0.000     1.180     1.701
 872   1 H      0.070  0.930  0.000  0.000     2.084     2.257
 873   1 H      0.189  0.811  0.000  0.000     1.162     1.688
 874   1 H      0.085  0.915  0.000  0.000     1.924     2.169
 875   1 H      0.183  0.817  0.000  0.000     1.199     1.715
 876   1 H      0.089  0.911  0.000  0.000     1.888     2.149
 877   1 H      0.179  0.821  0.000  0.000     1.221     1.731
 878   1 H      0.062  0.938  0.000  0.000     2.177     2.307
 879   1 H      0.183  0.817  0.000  0.000     1.196     1.713
 880   1 H      0.184  0.816  0.000  0.000     1.192     1.710
 881   1 H      0.081  0.919  0.000  0.000     1.968     2.193
 882   1 H      0.184  0.816  0.000  0.000     1.189     1.708
 883   1 H      0.061  0.939  0.000  0.000     2.189     2.313
 884   1 H      0.192  0.808  0.000  0.000     1.150     1.680
 885   1 H      0.076  0.924  0.000  0.000     2.023     2.224

 Mol. C6AA /au·bohr⁶  :    7299455.477345
 Mol. C8AA /au·bohr⁸  :  164815727.346039
 Mol. α(0) /au        :       4062.915700

 
molecular dipole:
                 x           y           z       tot (Debye)
 q only:      -29.798    -171.410      24.597
   full:      -29.487    -169.095      22.787     440.120
molecular quadrupole (traceless):
                xx          xy          yy          xz          yz          zz
 q only:     6392.435   -4688.195  -14393.437     353.296    3232.345    8001.002
  q+dip:     6189.863   -4525.895  -14122.842     278.180    2978.341    7932.979
   full:     6202.373   -4526.430  -14129.751     278.335    2979.824    7927.378
speedup  1.21
cpu  time for grad    3 m 41.8 s
wall time for grad    3 m  2.7 s

SCC energy    :   -1346.6498365
rep           :      16.6417724
ES            :       3.7007589
AES           :      -0.0297861
AXC           :       0.4637920
disp          :      -1.2356142
XB            :       0.0000000
fix           :       0.0000000
Gborn         :       0.0000000
Gsasa         :       0.0000000
Ghb           :       0.0000000
Gshift        :       0.0000000
Gsolv         :      -0.8031606     -503.99
Etot ala COSMO:   -1346.6498365
grad norm     :       0.9113155
total E       :   -1329.8538730
atomizationE  :     247.3739519   155229.50
(atE without considering molecular charge,
 total energy contains solvation terms)
H-L gap (eV)  :          1.0927

------------------------------------------------------------------------
 * finished run on 2019/05/04 at 15:58:13.907     
------------------------------------------------------------------------
 total:
 * wall-time:     0 d,  0 h,  3 min,  8.161 sec
 *  cpu-time:     0 d,  0 h,  3 min, 46.148 sec
 * ratio c/w:     1.202 speedup
 SCF:
 * wall-time:     0 d,  0 h,  3 min,  6.111 sec
 *  cpu-time:     0 d,  0 h,  3 min, 44.795 sec
 * ratio c/w:     1.208 speedup

