      -----------------------------------------------------------      
     |                   =====================                   |     
     |                           x T B                           |     
     |                   =====================                   |     
     |                         S. Grimme                         |     
     |          Mulliken Center for Theoretical Chemistry        |     
     |                    University of Bonn                     |     
     |                 Version 6.0.1 (SAW181210)                 |     
      -----------------------------------------------------------      

   This program is distributed in the hope that it will be useful,
   but WITHOUT ANY WARRANTY; without even the implied warranty of
   MERCHANTABILITY or FITNESS FOR A PARTICULAR PURPOSE.
   
   FOR NON-COMMERCIAL, ACADEMIA USE ONLY.
   
   Cite this work as:
   S. Grimme, C. Bannwarth, P. Shushkov, J. Comput. Theory Chem., 2017,
   13, 1989-2009.
   C. Bannwarth, S. Ehlert and S. Grimme., ChemRxiv, 2018, preprint.
   http://doi.org/10.26434/chemrxiv.7246238.v1
   
   for sTDA-xTB:
   S. Grimme and C. Bannwarth, J. Chem. Phys., 2016, 145, 054103.
   
   in the mass-spec context:
   V. Asgeirsson, C. Bauer and S. Grimme, Chem. Sci., 2017, 8, 4879.
   
   if GBSA is used:
   P. Shushkov, F. März and S. Grimme, unpublished.
   
   for ANC optimizer:
   S. Grimme, unpublished.
   Rational Function algorithm used in ANCopt:
   F. Eckert, P. Pulay, H.-J. Werner, J. Comput. Chem., 1997, 18, 1473.
   
   with help from (in alphabetical order)
   C. Bannwarth, F. Bohle, G. Brandenburg, E. Caldeweyher, M. Checinski,
   S. Dohm, S. Ehlert, S. Ehrlich, F. März, H. Neugebauer, J. Pisarek,
   P. Pracht, P. Shushkov, and S. Spicher.
   
 * started run on 2019/05/04 at 17:34:49.103     
========================================================================
 # omp threads = 2
========================================================================
number of atoms            : 939
number of electrons        : 2522
charge                     : -5
spin                       : .0
first test random number   : .8886

########################################################################
# WARNING! Please study the warnings concerning your input carefully
#  - Process number higher than OMP_NUM_THREADS, I hope you know what you are doing.
########################################################################

           ------------------------------------------------- 
          |                 G F N 2 - x T B                 |
          | Geometry, Frequencies, Noncovalent interactions |
          |            JCTC 2018 parametrisation            |
           ------------------------------------------------- 
 
      method parameters     
 k(s)        :  1.8500
 k(p)        :  2.2300
 k(d)        :  2.2300
 k(f)        :  2.0000
 kEN (H0ij)  : -2.0000
 D4 a1       :  0.5200
 D4 a2       :  5.0000
 D4 s6       :  1.0000
 D4 s8       :  2.7000
 D4 s9       :  5.0000
 alphaj      :  2.0000

 Solvent             : h2o
 Using internal parameter file: .param_gbsa2_h2o
 Gsolv ref. state (COSMO-RS): gsolv [1 M gas/solution]
 temperature (mdtemp)       :    298.150000000000     
 dielectric constant        :    80.2000000000000     
 rho                        :    1.00000000000000     
 mass                       :    18.0000000000000     
 surface tension            :    15.5689454083859     
 probe radius               :   0.975313790000000     
 vdW radii scaling          :    1.00000000000000     
 Gshift (Eh)                :   1.857443126794793E-003
 c1                         :    1.55243817000000     
 soset                      :   0.130326360000000     
 HB correction              :  T

            Z     q(EN)     CN     RAES       Cart. coordinates
     1  N   5.0   -0.23    3.19    1.95     6.64617   174.85445    -1.30202
     2  C   4.0    0.02    4.18    3.97     8.42062   173.11401    -0.10960
     3  C   4.0    0.06    3.18    3.03     9.35036   174.16659     2.43019
     4  O   6.0   -0.31    1.12    1.80     9.51666   172.77575     4.30480
     5  C   4.0   -0.06    4.31    4.22    10.63727   172.60001    -1.92563
     6  C   4.0   -0.03    4.14    3.88    10.46341   170.74430    -4.18196
     7  C   4.0   -0.09    4.07    3.75     7.77811   170.12258    -5.11927
     8  C   4.0   -0.09    4.09    3.79    12.06023   171.75152    -6.37405
     9  H   1.0    0.07    1.03    1.43     7.12994   175.29854    -3.11427
    10  H   1.0    0.04    1.06    1.44     7.49276   171.31500     0.26834
    11  H   1.0    0.03    1.05    1.44    11.14182   174.41604    -2.75522
    12  H   1.0    0.04    1.04    1.43    12.18873   171.89892    -0.76534
    13  H   1.0    0.03    1.06    1.44    11.18340   168.94528    -3.48465
    14  H   1.0    0.03    1.00    1.43     7.90661   168.80733    -6.69908
    15  H   1.0    0.03    1.00    1.43     6.71231   169.26653    -3.57914
    16  H   1.0    0.03    1.00    1.43     6.85971   171.86302    -5.72587
    17  H   1.0    0.03    1.00    1.43    11.92984   170.44005    -7.95575
    18  H   1.0    0.02    1.00    1.43    11.34214   173.59967    -6.93340
    19  H   1.0    0.03    1.00    1.43    14.01799   171.91593    -5.75611
    20  N   5.0   -0.21    3.27    1.97     4.77912   171.49452     6.85215
    21  C   4.0    0.03    4.33    4.25     4.45597   168.77520     6.81813
    22  C   4.0    0.15    3.42    3.08     6.75955   167.46751     7.93874
    23  O   6.0   -0.31    1.23    1.80     6.82191   165.14504     8.09748
    24  C   4.0   -0.04    4.38    4.35     3.96465   167.79822     4.14795
    25  C   4.0   -0.03    4.21    4.01     1.83114   165.84424     4.03079
    26  C   4.0   -0.09    4.13    3.86    -0.40440   167.13303     2.78546
    27  C   4.0   -0.08    4.09    3.79     2.56625   163.44807     2.60593
    28  H   1.0    0.09    1.03    1.43     5.04557   172.29198     5.11738
    29  H   1.0    0.03    1.07    1.44     2.77979   168.28199     7.90850
    30  H   1.0    0.03    1.05    1.44     3.44119   169.38559     2.94230
    31  H   1.0    0.05    1.04    1.43     5.68241   166.91004     3.43741
    32  H   1.0    0.04    1.07    1.44     1.36249   165.20173     5.92996
    33  H   1.0    0.03    1.00    1.43    -1.96909   165.79700     2.66829
    34  H   1.0    0.03    1.00    1.43    -0.95620   168.76198     3.91929
    35  H   1.0    0.03    1.00    1.43     0.14173   167.74341     0.89573
    36  H   1.0    0.03    1.00    1.43     0.96376   162.15360     2.60026
    37  H   1.0    0.03    1.00    1.43     3.07458   163.94695     0.67274
    38  H   1.0    0.05    1.00    1.43     4.17440   162.57312     3.55080
    39  N   5.0   -0.14    3.52    2.09     8.65306   168.95095     8.67951
    40  C   4.0    0.04    4.47    4.49    10.73175   167.94939    10.14405
    41  C   4.0    0.15    3.47    3.10    10.24798   168.10813    12.98242
    42  O   6.0   -0.30    1.31    1.80    11.65583   167.03099    14.48853
    43  C   4.0   -0.03    4.35    4.30    13.18273   169.28354     9.51099
    44  C   4.0    0.16    3.30    3.05    15.34646   168.30466    11.06435
    45  O   6.0   -0.27    1.24    1.80    15.57134   166.02376    11.47064
    46  N   5.0   -0.19    3.18    1.95    16.92817   170.01297    11.99598
    47  H   1.0    0.09    1.07    1.44     8.78345   170.83501     8.29023
    48  H   1.0    0.07    1.07    1.44    10.99254   165.97085     9.63760
    49  H   1.0    0.05    1.03    1.43    13.62681   168.98118     7.52300
    50  H   1.0    0.04    1.04    1.43    12.97675   171.29799     9.88894
    51  H   1.0    0.09    1.02    1.43    18.43050   169.45362    13.06557
    52  H   1.0    0.07    1.03    1.43    16.64093   171.88569    11.64260
    53  N   5.0   -0.15    3.47    2.06     8.25621   169.42716    13.73264
    54  C   4.0    0.04    4.52    4.56     7.86693   169.79755    16.41038
    55  C   4.0    0.16    3.45    3.09     5.44808   168.77142    17.50453
    56  O   6.0   -0.31    1.31    1.80     3.36749   169.58401    16.85069
    57  C   4.0   -0.03    4.35    4.28     8.19952   172.54332    17.13226
    58  C   4.0    0.14    3.25    3.04     8.82691   172.83811    19.88370
    59  O   6.0   -0.31    1.22    1.80     7.34725   172.09923    21.53343
    60  N   5.0   -0.20    3.18    1.95    11.05679   173.87179    20.41471
    61  H   1.0    0.08    1.06    1.44     6.94096   170.22462    12.57046
    62  H   1.0    0.06    1.12    1.45     9.29934   168.59946    17.27965
    63  H   1.0    0.03    1.04    1.43     9.73776   173.35401    16.02866
    64  H   1.0    0.05    1.03    1.43     6.44963   173.56188    16.75620
    65  H   1.0    0.07    1.02    1.43    11.58969   174.12124    22.24963
    66  H   1.0    0.07    1.03    1.43    12.23220   174.41415    18.98608
    67  N   5.0   -0.14    3.49    2.07     5.80524   166.99319    19.24308
    68  C   4.0    0.03    4.42    4.41     3.75111   165.53810    20.32589
    69  C   4.0    0.08    3.26    3.05     1.66863   167.23130    21.30099
    70  O   6.0   -0.31    1.25    1.80    -0.32125   167.40893    20.14070
    71  C   4.0   -0.03    4.34    4.26     4.66951   163.68617    22.39703
    72  C   4.0   -0.05    4.25    4.09     6.95797   164.75387    23.81622
    73  C   4.0   -0.08    4.13    3.86     5.34603   161.17851    21.21973
    74  C   4.0   -0.09    4.00    3.62     7.67418   163.27421    26.19538
    75  H   1.0    0.07    1.09    1.44     7.53434   166.51320    19.94795
    76  H   1.0    0.05    1.07    1.44     2.94608   164.42694    18.78955
    77  H   1.0    0.03    1.06    1.44     3.13695   163.42917    23.74819
    78  H   1.0    0.04    1.04    1.43     8.58502   164.73119    22.55388
    79  H   1.0    0.04    1.03    1.43     6.53467   166.68706    24.38691
    80  H   1.0    0.04    1.00    1.43     5.98854   159.89538    22.69750
    81  H   1.0    0.04    1.00    1.43     3.67930   160.40183    20.29188
    82  H   1.0    0.04    1.00    1.43     6.84648   161.46952    19.84023
    83  H   1.0    0.03    1.00    1.43     9.31068   164.16616    27.07221
    84  H   1.0    0.03    1.00    1.43     6.08114   163.29122    27.50118
    85  H   1.0    0.04    1.00    1.43     8.12960   161.33535    25.66815
    86  N   5.0   -0.19    3.31    1.99    -1.69130   170.30588    16.86580
    87  C   4.0    0.04    4.29    4.17    -3.12939   168.61458    15.32379
    88  C   4.0    0.07    3.23    3.04    -5.57847   167.98341    16.66549
    89  O   6.0   -0.32    1.12    1.80    -7.57024   168.90560    15.88882
    90  C   4.0   -0.04    4.35    4.28    -1.60627   166.25998    14.65860
    91  C   4.0   -0.03    4.17    3.94    -2.48688   164.82946    12.28700
    92  C   4.0   -0.08    4.12    3.84    -4.62038   166.15982    10.79222
    93  C   4.0   -0.08    4.11    3.82    -0.24566   164.34758    10.55223
    94  H   1.0    0.14    1.13    1.45    -0.03024   169.59912    17.54422
    95  H   1.0    0.04    1.08    1.44    -3.59237   169.50086    13.52288
    96  H   1.0    0.06    1.04    1.43     0.34960   166.82312    14.34491
    97  H   1.0    0.05    1.03    1.43    -1.71776   164.94851    16.24408
    98  H   1.0    0.03    1.06    1.44    -3.29379   163.05122    12.94462
    99  H   1.0    0.03    1.00    1.43    -5.11171   165.00898     9.15572
   100  H   1.0    0.05    1.00    1.43    -6.26255   166.37525    12.01677
   101  H   1.0    0.03    1.00    1.43    -3.95520   168.00986    10.17617
   102  H   1.0    0.03    1.00    1.43    -0.89762   163.33468     8.88171
   103  H   1.0    0.04    1.00    1.43     0.57826   166.15415    10.00232
   104  H   1.0    0.04    1.00    1.43     1.15084   163.21752    11.55945
   105  N   5.0   -0.22    3.30    1.98   -17.24186   155.88916     2.46798
   106  C   4.0    0.02    4.37    4.32   -14.71152   155.50933     3.42229
   107  C   4.0    0.14    3.46    3.10   -13.86870   152.89395     2.68341
   108  O   6.0   -0.34    1.41    1.80   -12.05078   152.60482     1.27368
   109  C   4.0   -0.05    4.38    4.34   -14.65294   155.85137     6.28523
   110  C   4.0   -0.03    4.25    4.10   -16.46518   157.84314     7.36237
   111  C   4.0   -0.09    4.10    3.81   -16.09858   158.30423    10.17239
   112  C   4.0   -0.09    4.16    3.91   -16.20818   160.30923     5.96209
   113  H   1.0    0.07    1.07    1.44   -18.42294   156.67907     3.77000
   114  H   1.0    0.03    1.06    1.44   -13.42461   156.91339     2.63995
   115  H   1.0    0.04    1.04    1.43   -15.13859   154.05046     7.15828
   116  H   1.0    0.03    1.03    1.43   -12.74431   156.40506     6.82758
   117  H   1.0    0.03    1.07    1.44   -18.36814   157.09670     7.11104
   118  H   1.0    0.03    1.00    1.43   -17.44406   159.73287    10.79789
   119  H   1.0    0.03    1.00    1.43   -16.42172   156.54301    11.18907
   120  H   1.0    0.03    1.00    1.43   -14.17294   158.95997    10.49932
   121  H   1.0    0.02    1.00    1.43   -17.51776   161.67928     6.77089
   122  H   1.0    0.03    1.00    1.43   -14.27310   160.98953     6.15295
   123  H   1.0    0.03    1.02    1.43   -16.65227   160.00121     3.97409
   124  N   5.0   -0.15    3.50    2.08   -15.28032   151.00800     3.54324
   125  C   4.0    0.03    4.41    4.40   -14.71152   148.37183     3.01222
   126  C   4.0    0.16    3.50    3.12   -14.19373   147.96743     0.22299
   127  O   6.0   -0.31    1.24    1.80   -12.36637   146.69565    -0.46676
   128  C   4.0   -0.05    4.25    4.09   -16.90927   146.68809     3.86071
   129  C   4.0   -0.03    4.14    3.88   -16.59935   143.81570     3.36182
   130  C   4.0    0.24    3.08    3.02   -16.22519   142.19243     5.76933
   131  O   6.0   -0.30    1.15    1.80   -17.98830   140.65608     6.35515
   132  O   6.0   -0.29    1.14    1.80   -14.18428   142.43431     7.02033
   133  H   1.0    0.07    1.06    1.44   -16.85447   151.24611     4.62983
   134  H   1.0    0.05    1.06    1.44   -13.03155   147.84082     4.07803
   135  H   1.0    0.04    1.03    1.43   -17.15682   146.92808     5.89217
   136  H   1.0    0.03    1.03    1.43   -18.60813   147.29847     2.86671
   137  H   1.0    0.05    1.03    1.43   -18.29066   143.12973     2.40751
   138  H   1.0    0.06    1.03    1.43   -14.94962   143.53224     2.16185
   139  N   5.0   -0.15    3.54    2.11   -15.79244   149.05780    -1.37761
   140  C   4.0    0.03    4.48    4.51   -15.59213   148.55514    -4.07236
   141  C   4.0    0.16    3.52    3.12   -13.38115   149.97432    -5.06636
   142  O   6.0   -0.31    1.27    1.80   -12.00165   149.05213    -6.64995
   143  C   4.0   -0.05    4.28    4.16   -17.97885   149.29780    -5.53690
   144  C   4.0   -0.03    4.18    3.96   -18.76120   147.29658    -7.50977
   145  C   4.0    0.24    3.11    3.03   -20.02354   148.40963    -9.83224
   146  O   6.0   -0.32    1.19    1.80   -20.54699   150.72265    -9.86248
   147  O   6.0   -0.31    1.17    1.80   -20.48463   146.96021   -11.64449
   148  H   1.0    0.07    1.06    1.44   -17.20973   150.26534    -0.87872
   149  H   1.0    0.06    1.07    1.44   -15.38615   146.52557    -4.36338
   150  H   1.0    0.04    1.03    1.43   -19.53599   149.52646    -4.20842
   151  H   1.0    0.05    1.04    1.43   -17.63303   151.07036    -6.52900
   152  H   1.0    0.07    1.03    1.43   -17.07934   146.28369    -8.13149
   153  H   1.0    0.04    1.03    1.43   -20.08968   145.98700    -6.63672
   154  N   5.0   -0.14    3.62    2.18   -13.02399   152.21365    -4.05724
   155  C   4.0    0.04    4.51    4.56   -11.09836   153.84637    -4.98888
   156  C   4.0    0.16    3.57    3.15    -8.48109   153.09237    -4.00055
   157  O   6.0   -0.32    1.34    1.80    -6.55735   153.70086    -5.14005
   158  C   4.0   -0.04    4.50    4.53   -11.77677   156.51277    -4.27645
   159  C   4.0   -0.04    4.18    3.96   -10.70341   157.26866    -1.79713
   160  S   6.0   -0.02    2.73    3.11    -7.76299   158.79178    -2.44342
   161  C   4.0   -0.07    3.94    3.52    -8.96486   161.82479    -3.35426
   162  H   1.0    0.09    1.09    1.44   -14.04822   152.93552    -2.59270
   163  H   1.0    0.05    1.07    1.44   -11.00009   153.77834    -7.04490
   164  H   1.0    0.05    1.09    1.44   -11.04545   157.79779    -5.70886
   165  H   1.0    0.03    1.04    1.43   -13.82712   156.67718    -4.16307
   166  H   1.0    0.03    1.07    1.44   -11.96574   158.58202    -0.83526
   167  H   1.0    0.06    1.11    1.45   -10.37837   155.61137    -0.61794
   168  H   1.0    0.03    1.09    1.44    -7.38505   163.05500    -3.83425
   169  H   1.0    0.05    1.04    1.43   -10.19696   161.59425    -4.98888
   170  H   1.0    0.03    1.04    1.43   -10.02689   162.62604    -1.78012
   171  N   5.0   -0.14    3.56    2.12    -8.39227   151.76200    -1.89351
   172  C   4.0    0.04    4.46    4.47    -6.03389   150.60738    -1.12628
   173  C   4.0    0.16    3.60    3.17    -5.20808   148.67986    -3.06891
   174  O   6.0   -0.31    1.44    1.80    -3.14639   148.88584    -4.09504
   175  C   4.0   -0.05    4.39    4.36    -6.31357   149.31859     1.42296
   176  C   4.0   -0.02    4.22    4.05    -5.15895   146.68620     1.80847
   177  C   4.0   -0.08    4.06    3.72    -2.22232   146.51423     1.56658
   178  C   4.0   -0.07    4.11    3.82    -6.05468   145.75078     4.35771
   179  H   1.0    0.12    1.15    1.45    -9.87949   151.45587    -0.70676
   180  H   1.0    0.05    1.06    1.44    -4.61282   152.08892    -0.95053
   181  H   1.0    0.03    1.05    1.44    -5.44619   150.54502     2.83270
   182  H   1.0    0.06    1.05    1.44    -8.32991   149.12961     1.79902
   183  H   1.0    0.05    1.09    1.44    -5.79579   145.47488     0.26834
   184  H   1.0    0.04    1.00    1.43    -1.63650   144.56404     1.87650
   185  H   1.0    0.05    1.01    1.43    -1.66863   147.12083    -0.32125
   186  H   1.0    0.04    1.00    1.43    -1.36060   147.74066     2.98010
   187  H   1.0    0.05    1.00    1.43    -5.26856   143.87806     4.69786
   188  H   1.0    0.04    1.00    1.43    -5.41218   147.05847     5.81469
   189  H   1.0    0.05    1.00    1.43    -8.11259   145.65819     4.35393
   190  N   5.0   -0.14    3.58    2.14    -6.82380   146.79391    -3.51678
   191  C   4.0    0.03    4.44    4.44    -6.35704   144.85505    -5.38761
   192  C   4.0    0.17    3.58    3.16    -4.92652   146.09093    -7.53056
   193  O   6.0   -0.31    1.28    1.80    -2.94230   145.20276    -8.33369
   194  C   4.0   -0.04    4.36    4.31    -8.84959   143.88940    -6.43263
   195  C   4.0   -0.03    4.16    3.91   -10.44074   142.21511    -4.73565
   196  C   4.0    0.24    3.11    3.02   -12.90305   141.40252    -6.07925
   197  O   6.0   -0.29    1.19    1.80   -13.43973   142.40219    -8.17495
   198  O   6.0   -0.29    1.15    1.80   -14.32412   139.77925    -5.05880
   199  H   1.0    0.09    1.07    1.44    -8.49810   146.56903    -2.58703
   200  H   1.0    0.04    1.05    1.44    -5.31580   143.27524    -4.57314
   201  H   1.0    0.08    1.05    1.44   -10.00799   145.52402    -6.90884
   202  H   1.0    0.05    1.04    1.43    -8.43952   142.79714    -8.12960
   203  H   1.0    0.04    1.03    1.43    -9.37304   140.52191    -4.24810
   204  H   1.0    0.06    1.03    1.43   -10.94151   143.24879    -3.02545
   205  N   5.0   -0.13    3.56    2.12    -5.98098   148.19609    -8.40550
   206  C   4.0    0.03    4.41    4.39    -4.84526   149.78535   -10.32357
   207  C   4.0    0.16    3.56    3.14    -2.14484   150.39762    -9.62626
   208  O   6.0   -0.31    1.42    1.80    -0.37039   149.56614   -10.88860
   209  C   4.0   -0.05    4.28    4.15    -6.35326   152.24010   -10.69207
   210  C   4.0   -0.05    4.16    3.91    -8.97998   151.91318   -11.89960
   211  C   4.0   -0.05    4.15    3.89   -10.52577   154.37927   -11.95819
   212  C   4.0   -0.04    4.11    3.82   -13.36603   153.88794   -12.13771
   213  N   5.0   -0.12    3.99    2.84   -14.14271   152.84103   -14.64916
   214  H   1.0    0.10    1.07    1.44    -7.68174   148.86694    -7.79512
   215  H   1.0    0.04    1.06    1.44    -4.86415   148.76868   -12.11503
   216  H   1.0    0.07    1.06    1.44    -6.62916   153.11693    -8.84770
   217  H   1.0    0.04    1.03    1.43    -5.26667   153.49299   -11.91283
   218  H   1.0    0.03    1.03    1.43    -8.74754   151.26500   -13.84035
   219  H   1.0    0.06    1.03    1.43   -10.04578   150.52423   -10.81679
   220  H   1.0    0.05    1.03    1.43   -10.16862   155.44319   -10.23098
   221  H   1.0    0.03    1.03    1.43    -9.96264   155.49043   -13.59847
   222  H   1.0    0.05    1.02    1.43   -13.90460   152.52734   -10.68829
   223  H   1.0    0.03    1.02    1.43   -14.37326   155.66051   -11.84858
   224  H   1.0    0.05    1.01    1.43   -16.08535   152.53868   -14.67939
   225  H   1.0    0.04    1.01    1.43   -13.67028   154.10337   -16.07968
   226  H   1.0    0.05    1.01    1.43   -13.22619   151.13272   -14.97797
   227  N   5.0   -0.13    3.60    2.16    -1.78390   151.80735    -7.59481
   228  C   4.0    0.04    4.65    4.71     0.76723   152.47632    -6.97120
   229  C   4.0    0.17    3.71    3.25     2.34326   150.17463    -7.18663
   230  O   6.0   -0.31    1.37    1.80     4.03268   150.00456    -8.73998
   231  C   4.0   -0.05    4.49    4.52     0.98077   153.32291    -4.28590
   232  C   4.0   -0.03    4.25    4.10     3.55457   154.60415    -4.03456
   233  C   4.0   -0.08    4.15    3.90     3.59237   156.93796    -5.73343
   234  C   4.0   -0.08    4.07    3.74     4.17818   155.33169    -1.26990
   235  H   1.0    0.11    1.09    1.44    -3.15773   152.47254    -6.41562
   236  H   1.0    0.04    1.09    1.44     1.36249   154.00511    -8.21653
   237  H   1.0    0.04    1.03    1.43    -0.51212   154.66840    -3.83425
   238  H   1.0    0.04    1.05    1.44     0.88250   151.70720    -3.01222
   239  H   1.0    0.04    1.06    1.44     5.02100   153.28134    -4.61849
   240  H   1.0    0.03    1.00    1.43     5.42540   157.86204    -5.56335
   241  H   1.0    0.03    1.02    1.43     3.27867   156.35215    -7.68363
   242  H   1.0    0.03    1.00    1.43     2.09949   158.22486    -5.13816
   243  H   1.0    0.04    1.00    1.43     6.02823   156.23498    -1.21509
   244  H   1.0    0.04    1.00    1.43     2.74010   156.63560    -0.57826
   245  H   1.0    0.03    1.00    1.43     4.19330   153.62716    -0.11527
   246  N   5.0   -0.14    3.59    2.15     1.71587   148.38506    -5.57091
   247  C   4.0    0.04    4.42    4.41     2.97821   145.97188    -5.45186
   248  C   4.0    0.17    3.54    3.13     3.92685   144.97600    -7.99921
   249  O   6.0   -0.28    1.30    1.80     6.05657   144.05759    -8.19385
   250  C   4.0   -0.04    4.25    4.10     1.26801   144.04436    -4.11015
   251  C   4.0   -0.03    4.17    3.93     2.31680   141.33827    -3.95520
   252  C   4.0    0.25    3.12    3.03     5.12116   141.20221    -3.20875
   253  O   6.0   -0.25    1.17    1.80     6.62916   140.05704    -4.64495
   254  O   6.0   -0.30    1.17    1.80     5.81280   142.25857    -1.20565
   255  H   1.0    0.10    1.12    1.45     0.29480   148.55892    -4.28023
   256  H   1.0    0.05    1.07    1.44     4.70164   146.23077    -4.35204
   257  H   1.0    0.04    1.03    1.43     0.95242   144.69065    -2.18074
   258  H   1.0    0.07    1.04    1.43    -0.52345   143.95176    -5.12305
   259  H   1.0    0.05    1.03    1.43     1.24155   140.29136    -2.54357
   260  H   1.0    0.06    1.03    1.43     2.11649   140.44443    -5.79957
   261  N   5.0   -0.12    3.56    2.13     2.41885   145.15174    -9.97208
   262  C   4.0    0.04    4.63    4.70     3.44119   144.18987   -12.31345
   263  C   4.0    0.16    3.59    3.16     5.52745   145.90952   -13.24131
   264  O   6.0   -0.31    1.41    1.80     7.61560   145.05158   -13.81390
   265  C   4.0   -0.03    4.33    4.25     1.47399   143.76090   -14.37137
   266  C   4.0   -0.07    4.16    3.92    -0.71054   142.28125   -13.34524
   267  C   4.0   -0.07    4.22    4.05     0.62361   146.24022   -15.45607
   268  H   1.0    0.12    1.09    1.44     0.63684   145.88495   -10.00799
   269  H   1.0    0.06    1.08    1.44     4.19708   142.32471   -11.87693
   270  H   1.0    0.04    1.06    1.44     2.31302   142.66486   -15.90015
   271  H   1.0    0.03    1.00    1.43    -2.09193   141.99779   -14.84569
   272  H   1.0    0.04    1.00    1.43    -0.02835   140.45955   -12.66683
   273  H   1.0    0.06    1.02    1.43    -1.56469   143.33382   -11.79378
   274  H   1.0    0.03    1.00    1.43    -0.78046   145.88495   -16.92061
   275  H   1.0    0.07    1.03    1.43    -0.20220   147.38162   -13.95374
   276  H   1.0    0.04    1.03    1.43     2.25066   147.21154   -16.26298
   277  N   5.0   -0.13    3.62    2.18     4.98321   148.34349   -13.35091
   278  C   4.0    0.04    4.62    4.69     6.91829   150.07448   -14.14082
   279  C   4.0    0.17    3.71    3.24     9.40328   149.29969   -12.92195
   280  O   6.0   -0.31    1.47    1.80    11.20796   148.66474   -14.22208
   281  C   4.0   -0.02    4.37    4.32     6.26444   152.74466   -13.43973
   282  C   4.0   -0.08    4.19    3.98     8.60581   154.38494   -13.50209
   283  C   4.0   -0.08    4.16    3.92     4.32180   153.71598   -15.26332
   284  H   1.0    0.10    1.08    1.44     3.27678   149.12961   -12.91817
   285  H   1.0    0.05    1.07    1.44     7.11104   149.97243   -16.18928
   286  H   1.0    0.06    1.07    1.44     5.49910   152.81080   -11.52922
   287  H   1.0    0.03    1.00    1.43     8.08803   156.31057   -12.98809
   288  H   1.0    0.04    1.02    1.43     9.97964   153.64417   -12.15850
   289  H   1.0    0.04    1.00    1.43     9.39572   154.35282   -15.40316
   290  H   1.0    0.03    1.00    1.43     3.83992   155.65484   -14.76065
   291  H   1.0    0.04    1.00    1.43     5.10226   153.65740   -17.16816
   292  H   1.0    0.04    1.00    1.43     2.64562   152.52545   -15.15371
   293  N   5.0   -0.14    3.57    2.13     9.48076   149.31103   -10.43129
   294  C   4.0    0.04    4.62    4.68    11.63504   148.31703    -9.15572
   295  C   4.0    0.17    3.66    3.21    12.77077   146.11928   -10.60325
   296  O   6.0   -0.33    1.59    1.81    14.62459   146.49911   -11.88071
   297  C   4.0   -0.02    4.36    4.31    10.95474   147.58193    -6.52333
   298  C   4.0   -0.07    4.14    3.89    13.20163   146.34794    -5.19864
   299  C   4.0   -0.08    4.15    3.90    10.03822   149.92519    -5.11360
   300  H   1.0    0.09    1.09    1.44     8.08992   149.99133    -9.28422
   301  H   1.0    0.04    1.07    1.44    13.08824   149.77590    -9.09525
   302  H   1.0    0.07    1.07    1.44     9.43918   146.18731    -6.53845
   303  H   1.0    0.05    1.00    1.43    12.64983   145.83204    -3.28245
   304  H   1.0    0.05    1.02    1.43    13.75532   144.66419    -6.24743
   305  H   1.0    0.04    1.00    1.43    14.76632   147.68775    -5.14383
   306  H   1.0    0.04    1.00    1.43     9.53934   149.39606    -3.18608
   307  H   1.0    0.04    1.00    1.43    11.54812   151.32547    -5.08903
   308  H   1.0    0.04    1.01    1.43     8.38849   150.68864    -6.08303
   309  N   5.0   -0.13    3.50    2.08    11.71819   143.85728   -10.50877
   310  C   4.0    0.05    4.58    4.64    12.95785   141.81448   -11.89205
   311  C   4.0    0.16    3.61    3.17    13.91594   142.50612   -14.47152
   312  O   6.0   -0.29    1.30    1.80    16.01732   141.80692   -15.20851
   313  C   4.0   -0.03    4.41    4.41    11.27033   139.55059   -12.16984
   314  C   4.0    0.16    3.29    3.05    11.78433   137.67598   -10.21019
   315  O   6.0   -0.30    1.29    1.80    12.44385   138.36573    -8.07102
   316  N   5.0   -0.17    3.21    1.96    11.54812   135.27225   -10.87537
   317  H   1.0    0.11    1.06    1.44    10.10814   143.39618    -9.55445
   318  H   1.0    0.05    1.11    1.45    14.60002   141.35717   -10.73553
   319  H   1.0    0.06    1.04    1.43     9.30312   140.14019   -12.00732
   320  H   1.0    0.04    1.05    1.44    11.59536   138.67754   -14.00665
   321  H   1.0    0.09    1.03    1.43    11.88260   133.87763    -9.58658
   322  H   1.0    0.07    1.03    1.43    11.03222   134.81683   -12.67628
   323  N   5.0   -0.13    3.62    2.18    12.31345   143.86673   -15.83590
   324  C   4.0    0.04    4.47    4.49    12.93517   144.77757   -18.31900
   325  C   4.0    0.17    3.52    3.12    15.62236   145.77535   -18.33412
   326  O   6.0   -0.30    1.24    1.80    16.99431   145.49756   -20.17660
   327  C   4.0   -0.04    4.34    4.28    11.04923   146.79391   -19.11458
   328  C   4.0   -0.03    4.22    4.04     8.55101   145.70543   -19.90826
   329  C   4.0    0.24    3.14    3.03     7.71197   146.74289   -22.44239
   330  O   6.0   -0.31    1.18    1.80     6.43263   148.72143   -22.44428
   331  O   6.0   -0.31    1.17    1.80     8.33936   145.60716   -24.43416
   332  H   1.0    0.12    1.13    1.45    10.54656   144.36750   -15.24820
   333  H   1.0    0.05    1.06    1.44    12.82368   143.25634   -19.70228
   334  H   1.0    0.08    1.09    1.44    10.71664   148.06381   -17.52721
   335  H   1.0    0.05    1.04    1.43    11.82213   147.84460   -20.70762
   336  H   1.0    0.05    1.04    1.43     8.71920   143.65886   -20.06889
   337  H   1.0    0.05    1.03    1.43     7.12238   146.18542   -18.50609
   338  N   5.0   -0.13    3.68    2.25    16.38392   146.87517   -16.22897
   339  C   4.0    0.04    4.49    4.53    18.95206   147.66697   -15.92661
   340  C   4.0    0.16    3.49    3.11    20.53376   145.49945   -14.96663
   341  O   6.0   -0.30    1.29    1.80    22.37436   144.79836   -16.16661
   342  C   4.0   -0.05    4.33    4.26    19.08812   149.88928   -14.12759
   343  C   4.0   -0.05    4.19    3.99    17.33068   152.03601   -14.82112
   344  C   4.0   -0.02    4.18    3.96    18.32845   153.77078   -16.91116
   345  N   5.0   -0.15    3.38    2.01    20.97407   154.56258   -16.58612
   346  C   4.0    0.08    3.32    3.06    21.78854   156.66962   -15.44473
   347  N   5.0   -0.18    3.24    1.97    20.18416   158.31935   -14.40916
   348  N   5.0   -0.20    3.23    1.96    24.26597   157.12882   -15.33324
   349  H   1.0    0.13    1.20    1.47    15.25198   147.23422   -14.71152
   350  H   1.0    0.06    1.07    1.44    19.70039   148.29246   -17.74075
   351  H   1.0    0.05    1.04    1.43    18.57979   149.24489   -12.23787
   352  H   1.0    0.04    1.04    1.43    21.01186   150.62439   -14.12759
   353  H   1.0    0.05    1.04    1.43    15.54489   151.24044   -15.47308
   354  H   1.0    0.04    1.03    1.43    17.01698   153.19630   -13.14871
   355  H   1.0    0.04    1.03    1.43    18.19428   152.77678   -18.71018
   356  H   1.0    0.04    1.03    1.43    17.17194   155.47531   -16.96029
   357  H   1.0    0.07    1.06    1.44    22.32333   153.38717   -17.30233
   358  H   1.0    0.08    1.03    1.43    18.28688   157.98865   -14.47530
   359  H   1.0    0.12    1.06    1.44    20.85691   159.90861   -13.55122
   360  H   1.0    0.07    1.02    1.43    25.51319   155.88160   -16.11180
   361  H   1.0    0.08    1.02    1.43    24.91226   158.72564   -14.46963
   362  N   5.0   -0.14    3.53    2.10    19.80055   144.42042   -12.82935
   363  C   4.0    0.04    4.33    4.26    21.17627   142.32282   -11.72008
   364  C   4.0    0.10    3.36    3.07    21.93972   140.59372   -13.83846
   365  O   6.0   -0.31    1.12    1.80    23.61402   139.02336   -13.55878
   366  C   4.0   -0.04    4.27    4.14    19.54355   140.81104    -9.86626
   367  C   4.0   -0.05    4.20    3.99    17.87303   142.35117    -8.06724
   368  C   4.0    0.00    4.23    4.06    16.51998   140.74868    -6.05279
   369  N   5.0   -0.14    3.41    2.03    17.93539   140.64096    -3.67741
   370  C   4.0    0.09    3.34    3.06    18.77254   138.52636    -2.56436
   371  N   5.0   -0.19    3.24    1.97    18.30955   136.23979    -3.53946
   372  N   5.0   -0.19    3.24    1.97    20.05755   138.69833    -0.41196
   373  H   1.0    0.09    1.09    1.44    18.25286   144.96088   -11.81646
   374  H   1.0    0.04    1.05    1.44    22.79765   143.04281   -10.67128
   375  H   1.0    0.05    1.04    1.43    18.29255   139.59406   -10.96041
   376  H   1.0    0.04    1.03    1.43    20.79454   139.66587    -8.69841
   377  H   1.0    0.04    1.04    1.43    19.05033   143.72689    -7.08458
   378  H   1.0    0.05    1.05    1.44    16.42739   143.31871    -9.17084
   379  H   1.0    0.06    1.05    1.44    14.67372   141.57260    -5.66162
   380  H   1.0    0.06    1.05    1.44    16.29889   138.82494    -6.75577
   381  H   1.0    0.12    1.15    1.45    18.31522   142.31337    -2.79679
   382  H   1.0    0.08    1.03    1.43    17.29666   136.07539    -5.17029
   383  H   1.0    0.07    1.02    1.43    18.97096   134.66187    -2.65129
   384  H   1.0    0.08    1.03    1.43    20.39581   140.42554     0.37228
   385  H   1.0    0.07    1.03    1.43    20.70573   137.10340     0.45353
   386  N   5.0   -0.24    3.22    1.96    -7.85559   167.22185   -10.44074
   387  C   4.0    0.02    4.20    4.01    -6.72553   164.83135    -9.76043
   388  C   4.0    0.06    3.20    3.04    -8.59636   162.68273   -10.23287
   389  O   6.0   -0.32    1.13    1.80    -8.27700   160.57379    -9.32202
   390  C   4.0   -0.05    4.44    4.45    -5.91295   164.90882    -6.99199
   391  C   4.0   -0.03    4.18    3.96    -3.82292   166.69084    -6.06980
   392  C   4.0   -0.09    4.12    3.83    -4.84715   169.24386    -5.29879
   393  C   4.0   -0.09    4.12    3.83    -2.47932   165.48330    -3.81914
   394  H   1.0    0.07    1.04    1.43    -8.10881   168.39537    -8.93273
   395  H   1.0    0.03    1.05    1.44    -5.05313   164.47230   -10.90939
   396  H   1.0    0.03    1.06    1.44    -7.58536   165.39826    -5.89406
   397  H   1.0    0.05    1.05    1.44    -5.28178   163.00965    -6.50444
   398  H   1.0    0.03    1.06    1.44    -2.50011   167.00075    -7.61938
   399  H   1.0    0.02    1.00    1.43    -3.28623   170.42871    -4.66195
   400  H   1.0    0.02    1.00    1.43    -5.77311   170.11313    -6.92018
   401  H   1.0    0.03    1.00    1.43    -6.20397   168.98874    -3.77000
   402  H   1.0    0.03    1.00    1.43    -0.99400   166.75131    -3.16529
   403  H   1.0    0.03    1.00    1.43    -3.84748   165.16772    -2.31113
   404  H   1.0    0.03    1.00    1.43    -1.66107   163.68806    -4.41062
   405  N   5.0   -0.23    3.24    1.96    -0.34960   163.51610   -18.82545
   406  C   4.0    0.02    4.30    4.19     1.13573   162.81690   -16.68250
   407  C   4.0    0.07    3.24    3.04     3.73410   162.07613   -17.64059
   408  O   6.0   -0.33    1.14    1.80     5.58981   163.39515   -17.20973
   409  C   4.0   -0.06    4.38    4.35    -0.13417   160.66450   -15.26143
   410  C   4.0   -0.03    4.23    4.06     1.12439   160.13727   -12.72164
   411  C   4.0   -0.08    4.16    3.92     1.75745   162.56556   -11.33080
   412  C   4.0   -0.08    4.12    3.84    -0.50267   158.46297   -11.09458
   413  H   1.0    0.07    1.03    1.43    -1.79902   162.31990   -19.25253
   414  H   1.0    0.04    1.08    1.44     1.32470   164.36458   -15.33702
   415  H   1.0    0.03    1.03    1.43    -2.10326   161.15772   -14.91372
   416  H   1.0    0.03    1.03    1.43    -0.02835   158.95052   -16.40093
   417  H   1.0    0.03    1.06    1.44     2.89317   159.14894   -13.09391
   418  H   1.0    0.03    1.00    1.43     2.64940   162.09691    -9.53367
   419  H   1.0    0.04    1.01    1.43     3.04624   163.68239   -12.48542
   420  H   1.0    0.03    1.00    1.43     0.01890   163.62003   -10.99821
   421  H   1.0    0.03    1.01    1.43     0.45731   158.13038    -9.30312
   422  H   1.0    0.04    1.00    1.43    -2.30736   159.40027   -10.76199
   423  H   1.0    0.04    1.00    1.43    -0.80880   156.67529   -12.06968
   424  N   5.0   -0.22    3.20    1.96    10.30279   165.90282   -15.71685
   425  C   4.0    0.03    4.16    3.93    11.70685   163.85436   -14.53010
   426  C   4.0    0.06    3.21    3.04    14.42806   163.85625   -15.42961
   427  O   6.0   -0.31    1.16    1.80    16.16283   163.84113   -13.87437
   428  C   4.0   -0.07    4.11    3.81    10.46152   161.31268   -15.06301
   429  H   1.0    0.09    1.03    1.43     9.61493   165.42850   -17.45351
   430  H   1.0    0.04    1.06    1.44    11.67662   164.08301   -12.48353
   431  H   1.0    0.04    1.00    1.43    11.55567   159.82546   -14.15027
   432  H   1.0    0.05    1.00    1.43     8.54345   161.33535   -14.31278
   433  H   1.0    0.04    1.00    1.43    10.41617   161.00276   -17.09824
   434  N   5.0   -0.20    3.19    1.95    19.25442   167.23886   -11.38182
   435  C   4.0    0.03    4.31    4.22    20.72462   166.41305    -9.21997
   436  C   4.0    0.14    3.40    3.08    22.14192   163.89404    -9.39761
   437  O   6.0   -0.31    1.27    1.80    21.82822   162.38037   -11.13993
   438  C   4.0    0.02    4.16    3.93    19.21095   166.64170    -6.78979
   439  O   6.0   -0.27    2.15    1.85    20.83423   166.34313    -4.69786
   440  H   1.0    0.10    1.04    1.43    17.44406   166.58690   -11.50654
   441  H   1.0    0.03    1.08    1.44    22.30066   167.73963    -9.18407
   442  H   1.0    0.03    1.02    1.43    18.32845   168.50119    -6.70853
   443  H   1.0    0.04    1.03    1.43    17.76531   165.17528    -6.74632
   444  H   1.0    0.15    1.21    1.47    20.30888   164.88048    -3.69252
   445  N   5.0   -0.14    3.63    2.18    23.76141   163.52932    -7.53434
   446  C   4.0    0.03    4.53    4.58    25.36201   161.34858    -7.39261
   447  C   4.0    0.16    3.61    3.17    23.79543   159.36248    -6.12838
   448  O   6.0   -0.32    1.73    1.81    22.69939   159.85759    -4.15929
   449  C   4.0    0.04    4.29    4.17    27.61079   161.89471    -5.67296
   450  O   6.0   -0.26    2.19    1.86    26.72261   162.22352    -3.13317
   451  C   4.0   -0.09    4.11    3.83    28.95438   164.29655    -6.49877
   452  H   1.0    0.09    1.10    1.44    24.00141   164.75387    -6.06413
   453  H   1.0    0.03    1.05    1.44    26.04798   160.77599    -9.24832
   454  H   1.0    0.03    1.04    1.43    28.94682   160.33002    -5.76366
   455  H   1.0    0.10    1.02    1.43    27.86779   163.34224    -2.20153
   456  H   1.0    0.02    1.00    1.43    30.55687   164.66883    -5.25911
   457  H   1.0    0.02    1.00    1.43    29.63657   164.09246    -8.43196
   458  H   1.0    0.04    1.00    1.43    27.65803   165.89526    -6.41373
   459  N   5.0   -0.15    3.46    2.05    23.67638   157.10048    -7.21308
   460  C   4.0    0.02    4.33    4.26    22.26853   155.09548    -5.95075
   461  C   4.0    0.16    3.62    3.18    23.03009   155.17485    -3.16151
   462  O   6.0   -0.30    1.56    1.80    21.38792   155.29012    -1.54202
   463  C   4.0   -0.06    4.22    4.04    23.48551   152.38561    -7.15261
   464  C   4.0   -0.02    4.19    3.98    22.14381   150.34849    -5.64083
   465  C   4.0   -0.08    4.12    3.84    21.16493   148.41341    -7.54379
   466  C   4.0   -0.08    4.05    3.70    23.91637   148.91796    -3.69252
   467  H   1.0    0.07    1.05    1.44    24.49652   156.61671    -8.88927
   468  H   1.0    0.04    1.04    1.43    20.22763   155.23532    -6.19263
   469  H   1.0    0.04    1.02    1.43    23.05655   152.19853    -9.15761
   470  H   1.0    0.03    1.01    1.43    25.52075   152.28546    -6.85593
   471  H   1.0    0.04    1.07    1.44    20.65470   151.23477    -4.52778
   472  H   1.0    0.04    1.00    1.43    20.18605   146.91107    -6.52900
   473  H   1.0    0.04    1.00    1.43    19.86669   149.34693    -8.84203
   474  H   1.0    0.04    1.00    1.43    22.75986   147.63106    -8.58691
   475  H   1.0    0.04    0.99    1.43    22.80710   147.49689    -2.69475
   476  H   1.0    0.03    0.99    1.43    25.45272   148.01278    -4.72243
   477  H   1.0    0.04    1.00    1.43    24.67793   150.28235    -2.35082
   478  N   5.0   -0.15    3.48    2.07    25.49240   155.16540    -2.60593
   479  C   4.0    0.03    4.39    4.36    26.38246   155.70775    -0.04346
   480  C   4.0    0.18    3.61    3.17    24.19794   156.81702     1.49855
   481  O   6.0   -0.28    1.23    1.80    23.18883   155.59814     3.22198
   482  C   4.0   -0.05    4.27    4.13    28.66525   157.51622    -0.18519
   483  C   4.0   -0.03    4.22    4.04    28.96005   159.45319     1.94642
   484  C   4.0    0.24    3.13    3.03    29.99184   158.32502     4.35960
   485  O   6.0   -0.31    1.17    1.80    32.33321   158.03778     4.58636
   486  O   6.0   -0.27    1.18    1.80    28.44793   157.75243     6.04523
   487  H   1.0    0.06    1.05    1.44    26.89647   154.79312    -3.87205
   488  H   1.0    0.05    1.05    1.44    27.02119   154.00133     0.91841
   489  H   1.0    0.04    1.03    1.43    30.37923   156.37293    -0.19275
   490  H   1.0    0.05    1.05    1.44    28.52163   158.58013    -1.94264
   491  H   1.0    0.04    1.03    1.43    30.25829   160.92906     1.33226
   492  H   1.0    0.05    1.06    1.44    27.11568   160.26766     2.36783
   493  N   5.0   -0.13    3.67    2.24    23.43071   159.09792     0.76912
   494  C   4.0    0.04    4.54    4.60    21.46918   160.49631     2.05224
   495  C   4.0    0.18    3.61    3.18    19.05600   159.15650     1.55902
   496  O   6.0   -0.31    1.55    1.80    17.86358   158.22864     3.28056
   497  C   4.0    0.05    4.31    4.22    21.18005   163.15327     0.96943
   498  O   6.0   -0.28    2.51    1.99    20.78888   162.98697    -1.70264
   499  C   4.0   -0.07    4.09    3.78    23.53465   164.71607     1.48721
   500  H   1.0    0.10    1.11    1.45    24.15826   160.04089    -0.74644
   501  H   1.0    0.07    1.06    1.44    21.94350   160.65316     4.04968
   502  H   1.0    0.05    1.04    1.43    19.57378   164.09246     1.85382
   503  H   1.0    0.17    1.24    1.48    22.14759   162.00054    -2.48121
   504  H   1.0    0.04    1.00    1.43    23.30977   166.60958     0.70676
   505  H   1.0    0.04    1.00    1.43    23.85023   164.86347     3.51678
   506  H   1.0    0.05    1.01    1.43    25.17682   163.82601     0.61794
   507  N   5.0   -0.12    3.72    2.30    18.35491   159.04312    -0.83904
   508  C   4.0    0.03    4.53    4.58    15.97007   157.96219    -1.59304
   509  C   4.0    0.17    3.64    3.19    15.53355   155.64728    -0.03024
   510  O   6.0   -0.32    1.48    1.80    13.88949   155.62082     1.58359
   511  C   4.0   -0.05    4.41    4.40    16.04188   157.34425    -4.37661
   512  C   4.0   -0.02    4.27    4.14    16.82423   159.71964    -5.82980
   513  C   4.0   -0.07    4.08    3.77    17.53288   159.22642    -8.59447
   514  C   4.0   -0.08    4.13    3.86    14.74931   161.70385    -5.62949
   515  H   1.0    0.11    1.16    1.45    19.41504   159.69318    -2.31113
   516  H   1.0    0.04    1.07    1.44    14.40727   159.27177    -1.30391
   517  H   1.0    0.04    1.04    1.43    17.41760   155.85137    -4.72998
   518  H   1.0    0.03    1.03    1.43    14.17672   156.74710    -5.01155
   519  H   1.0    0.06    1.10    1.44    18.54955   160.43395    -4.96053
   520  H   1.0    0.07    1.01    1.43    18.06011   161.01032    -9.48076
   521  H   1.0    0.05    1.00    1.43    19.12025   157.91495    -8.65683
   522  H   1.0    0.04    1.00    1.43    15.90960   158.41195    -9.56768
   523  H   1.0    0.04    1.01    1.43    15.32757   163.38571    -6.66884
   524  H   1.0    0.03    1.00    1.43    13.01265   160.94229    -6.43452
   525  H   1.0    0.04    1.01    1.43    14.45829   162.17061    -3.64528
   526  N   5.0   -0.13    3.58    2.14    17.10391   153.74621    -0.40629
   527  C   4.0    0.04    4.49    4.52    17.05667   151.49933     1.15651
   528  C   4.0    0.17    3.55    3.14    16.26109   152.12483     3.83236
   529  O   6.0   -0.30    1.24    1.80    14.63215   150.90596     4.93785
   530  C   4.0   -0.04    4.30    4.20    19.67961   150.25778     1.21509
   531  C   4.0   -0.03    4.19    3.99    19.63803   147.54791     2.13350
   532  C   4.0    0.23    3.17    3.03    17.48374   146.06637     0.92975
   533  O   6.0   -0.34    1.28    1.80    17.92594   144.92497    -1.10927
   534  O   6.0   -0.30    1.17    1.80    15.34646   146.07582     2.01445
   535  H   1.0    0.10    1.12    1.45    18.44373   153.70464    -1.79146
   536  H   1.0    0.06    1.07    1.44    15.69795   150.17652     0.35338
   537  H   1.0    0.05    1.04    1.43    20.46195   150.26723    -0.68975
   538  H   1.0    0.06    1.03    1.43    20.89659   151.33492     2.48121
   539  H   1.0    0.04    1.03    1.43    21.41437   146.63140     1.63650
   540  H   1.0    0.06    1.03    1.43    19.38103   147.52335     4.17629
   541  N   5.0   -0.12    3.69    2.26    17.44028   154.07125     4.85093
   542  C   4.0    0.04    4.49    4.52    17.19084   154.66651     7.49087
   543  C   4.0    0.16    3.58    3.15    14.72663   155.95530     8.03700
   544  O   6.0   -0.33    1.33    1.80    13.80256   155.82302    10.12137
   545  C   4.0   -0.03    4.33    4.26    19.42827   156.28412     8.32424
   546  C   4.0   -0.02    4.27    4.15    18.77821   158.43084    10.05523
   547  C   4.0    0.25    3.15    3.03    20.15582   160.81190     9.29745
   548  O   6.0   -0.28    1.16    1.80    22.39892   161.11992    10.03444
   549  O   6.0   -0.28    1.17    1.80    18.98419   162.36903     7.93874
   550  H   1.0    0.13    1.18    1.46    18.59112   155.27689     3.88339
   551  H   1.0    0.06    1.07    1.44    17.23430   152.93741     8.60959
   552  H   1.0    0.06    1.03    1.43    20.77187   155.07658     9.31635
   553  H   1.0    0.08    1.06    1.44    20.31077   157.08914     6.64617
   554  H   1.0    0.07    1.08    1.44    16.75242   158.79367     9.96641
   555  H   1.0    0.06    1.03    1.43    19.32434   157.94707    11.98086
   556  N   5.0   -0.13    3.61    2.17    13.64382   157.20252     6.18129
   557  C   4.0    0.04    4.50    4.54    11.34780   158.54990     6.71609
   558  C   4.0    0.15    3.51    3.12     9.02722   156.92284     6.34192
   559  O   6.0   -0.32    1.32    1.80     7.07324   157.37449     7.48709
   560  C   4.0   -0.04    4.40    4.37    11.19285   160.98008     5.21375
   561  C   4.0   -0.04    4.09    3.78    10.48420   160.68151     2.47743
   562  S   6.0   -0.06    2.49    3.10    10.40294   163.72586     0.90707
   563  C   4.0   -0.07    3.88    3.43    13.68917   164.62915     0.87683
   564  H   1.0    0.13    1.15    1.45    14.28822   157.30835     4.36716
   565  H   1.0    0.06    1.08    1.44    11.37615   159.15272     8.68518
   566  H   1.0    0.06    1.05    1.44     9.77366   162.19140     6.08681
   567  H   1.0    0.06    1.05    1.44    13.03533   161.89849     5.27423
   568  H   1.0    0.05    1.07    1.44    11.87693   159.49287     1.53257
   569  H   1.0    0.04    1.07    1.44     8.61715   159.82357     2.33948
   570  H   1.0    0.04    1.04    1.43    13.87248   166.46596    -0.03968
   571  H   1.0    0.05    1.04    1.43    14.37137   164.74064     2.81758
   572  H   1.0    0.04    1.04    1.43    14.76443   163.21374    -0.16441
   573  N   5.0   -0.14    3.59    2.15     9.24454   155.02745     4.73754
   574  C   4.0    0.03    4.50    4.53     7.32647   153.12071     4.62794
   575  C   4.0    0.16    3.69    3.23     7.21686   152.00200     7.21686
   576  O   6.0   -0.31    1.50    1.80     5.21753   151.88483     8.29779
   577  C   4.0   -0.05    4.40    4.37     8.02567   151.09304     2.74388
   578  C   4.0   -0.02    4.20    3.99     7.21497   148.38884     3.36938
   579  C   4.0   -0.07    4.05    3.71     4.49566   147.73311     2.45853
   580  C   4.0   -0.05    4.06    3.73     9.22375   146.51801     2.32247
   581  H   1.0    0.10    1.09    1.44    10.71097   154.77422     3.51111
   582  H   1.0    0.04    1.06    1.44     5.51800   153.89928     4.02134
   583  H   1.0    0.03    1.04    1.43     7.16017   151.57870     0.93919
   584  H   1.0    0.06    1.05    1.44    10.07791   151.07792     2.56058
   585  H   1.0    0.06    1.09    1.44     7.11671   148.19231     5.41784
   586  H   1.0    0.07    1.01    1.43     4.06669   145.78480     2.97443
   587  H   1.0    0.04    1.00    1.43     3.15773   149.01056     3.36560
   588  H   1.0    0.04    1.00    1.43     4.40117   147.95609     0.41385
   589  H   1.0    0.07    1.00    1.43     8.64361   144.59238     2.77034
   590  H   1.0    0.05    1.00    1.43     9.35981   146.75423     0.28157
   591  H   1.0    0.07    1.00    1.43    11.04167   146.92619     3.19931
   592  N   5.0   -0.14    3.57    2.13     9.38438   151.22532     8.22598
   593  C   4.0    0.03    4.45    4.47     9.51099   150.24077    10.78845
   594  C   4.0    0.17    3.66    3.21     7.56646   151.71476    12.21708
   595  O   6.0   -0.30    1.34    1.80     5.63894   150.71698    13.03155
   596  C   4.0   -0.04    4.35    4.29    12.06968   150.77367    12.02811
   597  C   4.0   -0.03    4.15    3.90    14.35436   149.36016    11.01521
   598  C   4.0    0.24    3.10    3.02    16.38581   148.95198    13.08635
   599  O   6.0   -0.31    1.26    1.80    15.65449   148.36238    15.25765
   600  O   6.0   -0.26    1.15    1.80    18.71018   149.18819    12.59502
   601  H   1.0    0.10    1.07    1.44    11.08135   151.25555     7.31324
   602  H   1.0    0.05    1.05    1.44     9.22942   148.19987    10.80923
   603  H   1.0    0.07    1.07    1.44    12.47030   152.78245    11.81079
   604  H   1.0    0.06    1.05    1.44    11.91472   150.29746    14.02555
   605  H   1.0    0.05    1.03    1.43    13.75909   147.51390    10.32168
   606  H   1.0    0.06    1.03    1.43    15.20285   150.44675     9.48453
   607  N   5.0   -0.13    3.57    2.13     8.08992   154.16195    12.39471
   608  C   4.0    0.03    4.39    4.37     6.56869   155.95908    13.79689
   609  C   4.0    0.17    3.54    3.14     3.78512   155.46586    13.27155
   610  O   6.0   -0.32    1.37    1.80     2.36972   154.56258    14.88537
   611  C   4.0   -0.05    4.26    4.11     7.31513   158.69163    13.08824
   612  C   4.0   -0.04    4.17    3.93    10.07791   159.47397    13.64382
   613  C   4.0   -0.05    4.15    3.91    10.38782   161.15583    15.96629
   614  C   4.0   -0.02    4.13    3.86    13.18273   161.73409    16.38770
   615  N   5.0   -0.11    3.98    2.82    13.65894   163.46507    18.57790
   616  H   1.0    0.09    1.08    1.44     9.61682   154.98398    11.55378
   617  H   1.0    0.04    1.06    1.44     6.89372   155.75121    15.82079
   618  H   1.0    0.07    1.05    1.44     7.01466   158.93351    11.06435
   619  H   1.0    0.04    1.03    1.43     6.10004   159.98042    14.13893
   620  H   1.0    0.05    1.03    1.43    11.19663   157.77133    13.95374
   621  H   1.0    0.05    1.03    1.43    10.80923   160.51143    12.02244
   622  H   1.0    0.05    1.03    1.43     9.38060   162.93028    15.68095
   623  H   1.0    0.04    1.03    1.43     9.65272   160.18829    17.62925
   624  H   1.0    0.05    1.02    1.43    14.18050   159.96908    16.75053
   625  H   1.0    0.07    1.02    1.43    13.93862   162.63548    14.69640
   626  H   1.0    0.06    1.01    1.43    15.55433   163.38949    19.09379
   627  H   1.0    0.07    1.02    1.43    13.20352   165.31323    18.08657
   628  H   1.0    0.06    1.01    1.43    12.55723   162.92461    20.11424
   629  N   5.0   -0.13    3.55    2.12     3.01411   155.98176    10.96797
   630  C   4.0    0.04    4.55    4.60     0.41007   155.63216    10.35381
   631  C   4.0    0.17    3.80    3.33    -0.48566   153.04513    11.11726
   632  O   6.0   -0.32    1.55    1.80    -2.15996   152.76923    12.65172
   633  C   4.0   -0.05    4.52    4.57     0.02646   155.94396     7.56457
   634  C   4.0   -0.03    4.30    4.19    -2.63806   155.31091     6.81057
   635  C   4.0   -0.08    4.11    3.83    -3.53946   157.02678     4.68841
   636  C   4.0   -0.08    4.26    4.13    -2.50389   152.59726     6.02445
   637  H   1.0    0.11    1.09    1.44     4.12716   156.62616     9.53367
   638  H   1.0    0.04    1.06    1.44    -0.68219   157.05890    11.36103
   639  H   1.0    0.04    1.04    1.43     0.40440   157.89983     7.03923
   640  H   1.0    0.05    1.05    1.44     1.30580   154.68352     6.55735
   641  H   1.0    0.04    1.06    1.44    -4.01189   155.58870     8.32046
   642  H   1.0    0.04    1.00    1.43    -5.47265   156.51655     4.18952
   643  H   1.0    0.03    1.00    1.43    -3.47332   158.98264     5.33281
   644  H   1.0    0.04    1.00    1.43    -2.30547   156.78300     3.05758
   645  H   1.0    0.03    1.01    1.43    -4.37850   151.97365     5.44241
   646  H   1.0    0.03    1.01    1.43    -1.18486   152.41963     4.45219
   647  H   1.0    0.05    1.14    1.45    -1.85193   151.46909     7.61938
   648  N   5.0   -0.15    3.75    2.34     0.60849   151.11194    10.04767
   649  C   4.0    0.04    4.58    4.64    -0.52723   148.74411    10.44452
   650  C   4.0    0.17    3.62    3.18    -1.09604   148.32459    13.19785
   651  O   6.0   -0.30    1.29    1.80    -2.88561   147.02068    13.77232
   652  C   4.0   -0.04    4.37    4.32     1.03746   146.63517     9.31824
   653  C   4.0   -0.02    4.25    4.09     3.72276   146.38573    10.24042
   654  C   4.0    0.24    3.15    3.03     5.10226   144.39585     8.76077
   655  O   6.0   -0.31    1.24    1.80     4.21220   143.82893     6.65561
   656  O   6.0   -0.31    1.18    1.80     7.02600   143.38674     9.68485
   657  H   1.0    0.12    1.14    1.45     2.19775   151.14973     8.95730
   658  H   1.0    0.04    1.08    1.44    -2.32247   148.68175     9.43540
   659  H   1.0    0.05    1.04    1.43     0.09260   144.85127     9.73209
   660  H   1.0    0.05    1.04    1.43     1.12817   146.92808     7.28111
   661  H   1.0    0.08    1.06    1.44     4.70353   148.18097    10.00043
   662  H   1.0    0.05    1.03    1.43     3.72087   145.84338    12.22842
   663  N   5.0   -0.13    3.67    2.23     0.30047   149.45654    14.93261
   664  C   4.0    0.04    4.58    4.64    -0.38550   148.98410    17.56500
   665  C   4.0    0.16    3.58    3.15    -2.85349   150.28046    18.15649
   666  O   6.0   -0.31    1.25    1.80    -4.52589   149.22977    19.40749
   667  C   4.0   -0.03    4.28    4.17     1.62138   149.84582    19.47930
   668  C   4.0   -0.06    4.20    4.00     4.09126   150.47699    18.15649
   669  C   4.0   -0.07    4.19    3.98     0.69731   152.07759    21.07989
   670  H   1.0    0.11    1.11    1.45     1.80280   150.62250    14.61514
   671  H   1.0    0.05    1.07    1.44    -0.54046   146.93753    17.74075
   672  H   1.0    0.03    1.06    1.44     1.97098   148.28113    20.77376
   673  H   1.0    0.04    1.00    1.43     5.47076   151.07981    19.56244
   674  H   1.0    0.05    1.00    1.43     4.77534   148.79891    17.17572
   675  H   1.0    0.08    1.06    1.44     3.75866   151.99444    16.80344
   676  H   1.0    0.03    1.00    1.43     2.18263   152.61427    22.40270
   677  H   1.0    0.05    1.01    1.43     0.25889   153.65929    19.83456
   678  H   1.0    0.05    1.01    1.43    -0.99211   151.50878    22.11357
   679  N   5.0   -0.14    3.67    2.24    -3.03490   152.58214    17.18517
   680  C   4.0    0.04    4.59    4.65    -5.11927   154.26589    17.68217
   681  C   4.0    0.16    3.65    3.20    -7.57591   153.06969    16.96407
   682  O   6.0   -0.30    1.25    1.80    -9.46375   153.38339    18.25475
   683  C   4.0   -0.02    4.36    4.31    -4.77345   156.67907    16.21007
   684  C   4.0   -0.07    4.23    4.06    -6.80679   156.94174    14.19373
   685  C   4.0   -0.08    4.12    3.84    -4.66762   158.89005    18.02232
   686  H   1.0    0.12    1.13    1.45    -1.71776   153.35315    16.00787
   687  H   1.0    0.05    1.07    1.44    -5.14005   154.66840    19.70228
   688  H   1.0    0.05    1.08    1.44    -2.98577   156.65450    15.18773
   689  H   1.0    0.03    1.00    1.43    -6.50633   158.70107    13.16383
   690  H   1.0    0.05    1.02    1.43    -6.68207   155.34114    12.90305
   691  H   1.0    0.05    1.02    1.43    -8.65494   156.96820    15.10458
   692  H   1.0    0.04    1.00    1.43    -4.41629   160.62860    16.94517
   693  H   1.0    0.04    1.00    1.43    -6.43074   158.97131    19.08623
   694  H   1.0    0.04    1.00    1.43    -3.08214   158.62738    19.30922
   695  N   5.0   -0.14    3.74    2.32    -7.51733   151.66563    14.90994
   696  C   4.0    0.04    4.65    4.72    -9.68485   150.30124    14.12192
   697  C   4.0    0.16    3.57    3.15   -10.43696   148.33593    16.06645
   698  O   6.0   -0.29    1.29    1.80   -12.66494   148.06570    16.66549
   699  C   4.0   -0.02    4.40    4.38    -9.17273   149.06536    11.68607
   700  C   4.0   -0.07    4.13    3.86   -11.66339   148.47010    10.34814
   701  C   4.0   -0.08    4.26    4.12    -7.53623   150.78879    10.13460
   702  H   1.0    0.09    1.14    1.45    -5.98098   151.45209    13.76665
   703  H   1.0    0.05    1.07    1.44   -11.23442   151.64295    13.91972
   704  H   1.0    0.06    1.07    1.44    -8.18251   147.27957    11.95441
   705  H   1.0    0.05    1.00    1.43   -11.25521   147.55547     8.54723
   706  H   1.0    0.06    1.00    1.43   -12.78022   147.21343    11.53867
   707  H   1.0    0.04    1.00    1.43   -12.68951   150.22754    10.02689
   708  H   1.0    0.04    1.00    1.43    -7.14505   149.89117     8.32235
   709  H   1.0    0.04    1.00    1.43    -8.53022   152.56891     9.83602
   710  H   1.0    0.06    1.05    1.44    -5.77311   151.12894    11.14560
   711  N   5.0   -0.12    3.55    2.12    -8.64172   146.97722    17.11903
   712  C   4.0    0.06    4.52    4.56    -9.43351   145.34827    19.11269
   713  C   4.0    0.09    3.31    3.05   -10.48987   146.77690    21.28398
   714  O   6.0   -0.30    1.13    1.80   -12.40794   146.02857    22.35357
   715  C   4.0   -0.04    4.39    4.37    -7.36048   143.60783    19.90826
   716  C   4.0    0.14    3.28    3.05    -7.04301   141.55937    18.06578
   717  O   6.0   -0.28    1.22    1.80    -6.79356   142.09794    15.77543
   718  N   5.0   -0.19    3.16    1.95    -7.19230   139.15942    18.95962
   719  H   1.0    0.12    1.07    1.44    -6.77089   146.97533    16.65604
   720  H   1.0    0.07    1.09    1.44   -10.94529   144.15396    18.38325
   721  H   1.0    0.06    1.04    1.43    -5.59170   144.65663    20.03487
   722  H   1.0    0.04    1.05    1.44    -7.82158   142.78013    21.73752
   723  H   1.0    0.09    1.02    1.43    -6.98443   137.66843    17.75587
   724  H   1.0    0.07    1.02    1.43    -7.51166   138.84761    20.83423
   725  N   5.0   -0.23    3.21    1.96    13.77677   152.54905    33.30579
   726  C   4.0    0.02    4.25    4.09    13.24129   152.62691    30.61104
   727  C   4.0    0.07    3.26    3.05    13.36485   150.00255    29.61704
   728  O   6.0   -0.32    1.14    1.80    11.87646   149.26897    28.03345
   729  C   4.0   -0.05    4.28    4.15    15.07782   154.32254    29.14650
   730  C   4.0   -0.04    4.18    3.96    13.73588   156.00068    27.17363
   731  C   4.0    0.24    3.11    3.03    15.33098   156.53738    24.85116
   732  O   6.0   -0.30    1.19    1.80    17.59584   155.83419    24.82092
   733  O   6.0   -0.30    1.17    1.80    14.30629   157.66140    23.03891
   734  H   1.0    0.06    1.02    1.43    15.53117   153.17270    33.80468
   735  H   1.0    0.04    1.07    1.44    11.38064   153.46331    30.32002
   736  H   1.0    0.03    1.03    1.43    16.05441   155.55673    30.47498
   737  H   1.0    0.06    1.04    1.43    16.43999   153.13677    28.15440
   738  H   1.0    0.05    1.03    1.43    12.01776   155.05060    26.55191
   739  H   1.0    0.03    1.03    1.43    13.26599   157.80597    28.04668
   740  N   5.0   -0.22    3.20    1.96     8.12477   144.48294    26.27790
   741  C   4.0    0.03    4.22    4.04     8.93325   142.70474    24.35983
   742  C   4.0    0.07    3.22    3.04     8.11328   140.05997    25.05714
   743  O   6.0   -0.32    1.18    1.80     6.50597   138.93899    23.79480
   744  C   4.0   -0.05    4.25    4.10    11.81313   142.78333    23.99133
   745  C   4.0   -0.05    4.15    3.91    12.84336   145.22160    22.78380
   746  C   4.0   -0.05    4.14    3.89    15.75196   145.32725    22.72521
   747  C   4.0   -0.03    4.11    3.83    16.74659   148.03265    22.54569
   748  N   5.0   -0.10    4.03    2.95    16.22828   149.22873    20.03424
   749  H   1.0    0.09    1.04    1.43     9.55612   145.62041    26.88828
   750  H   1.0    0.04    1.06    1.44     8.06223   143.22944    22.56837
   751  H   1.0    0.04    1.03    1.43    12.71044   142.58385    25.83570
   752  H   1.0    0.04    1.03    1.43    12.35486   141.21587    22.77057
   753  H   1.0    0.04    1.03    1.43    12.16581   145.34439    20.84305
   754  H   1.0    0.05    1.03    1.43    12.17340   146.83909    23.86661
   755  H   1.0    0.03    1.03    1.43    16.49476   144.48598    24.45242
   756  H   1.0    0.05    1.03    1.43    16.43268   144.28398    21.08493
   757  H   1.0    0.05    1.02    1.43    15.83756   149.17937    23.99511
   758  H   1.0    0.06    1.02    1.43    18.78528   148.01865    22.83482
   759  H   1.0    0.08    1.01    1.43    16.93775   151.06228    20.00401
   760  H   1.0    0.11    1.05    1.44    17.08528   148.18842    18.60372
   761  H   1.0    0.07    1.02    1.43    14.29058   149.28916    19.70543
   762  N   5.0   -0.21    3.25    1.97     1.28837   138.73064    24.71132
   763  C   4.0    0.03    4.35    4.30    -0.05580   138.32621    22.36995
   764  C   4.0    0.07    3.26    3.05     0.39033   135.65963    21.44209
   765  O   6.0   -0.31    1.12    1.80    -1.39674   134.28021    20.86950
   766  C   4.0   -0.02    4.32    4.23     0.55630   140.24434    20.31203
   767  C   4.0   -0.08    4.16    3.92     0.36714   142.87602    21.33816
   768  C   4.0   -0.07    4.18    3.96     3.12865   139.74113    19.22733
   769  H   1.0    0.10    1.04    1.43     2.81436   139.90730    24.67541
   770  H   1.0    0.04    1.07    1.44    -2.04902   138.60416    22.80647
   771  H   1.0    0.05    1.06    1.44    -0.81242   140.06573    18.78325
   772  H   1.0    0.04    1.00    1.43     0.81236   144.21407    19.83771
   773  H   1.0    0.04    1.00    1.43    -1.55159   143.19607    22.01657
   774  H   1.0    0.04    1.01    1.43     1.70578   143.08945    22.88962
   775  H   1.0    0.04    1.00    1.43     3.52301   141.13472    17.76279
   776  H   1.0    0.07    1.03    1.43     4.53003   139.88560    20.72966
   777  H   1.0    0.04    1.01    1.43     3.15631   137.84640    18.42042
   778  N   5.0   -0.22    3.30    1.98    23.45963   140.92523    23.02001
   779  C   4.0    0.03    4.35    4.29    22.74487   143.43268    22.26223
   780  C   4.0    0.15    3.44    3.09    21.59325   143.31639    19.62795
   781  O   6.0   -0.28    1.25    1.80    20.48190   145.14071    18.71900
   782  C   4.0   -0.04    4.34    4.27    25.05736   145.15901    22.30947
   783  C   4.0    0.15    3.24    3.04    24.39422   147.83523    22.99545
   784  O   6.0   -0.27    1.20    1.80    24.47301   149.52884    21.39863
   785  N   5.0   -0.20    3.18    1.95    23.68767   148.23661    25.37272
   786  H   1.0    0.07    1.03    1.43    25.18299   140.36884    22.35861
   787  H   1.0    0.04    1.06    1.44    21.39248   144.28768    23.56047
   788  H   1.0    0.03    1.04    1.43    26.39752   144.45291    23.70598
   789  H   1.0    0.06    1.04    1.43    25.92773   145.17365    20.44243
   790  H   1.0    0.09    1.02    1.43    23.21437   150.01331    25.95098
   791  H   1.0    0.06    1.03    1.43    23.61807   146.76680    26.61805
   792  N   5.0   -0.14    3.52    2.09    21.83392   141.14811    18.40152
   793  C   4.0    0.04    4.56    4.62    21.04862   140.97089    15.79181
   794  C   4.0    0.14    3.53    3.13    19.01605   139.09823    15.38741
   795  O   6.0   -0.32    1.56    1.80    19.46579   136.87253    14.97923
   796  C   4.0   -0.03    4.38    4.34    23.28396   140.48114    14.09106
   797  C   4.0    0.15    3.26    3.04    24.93621   142.74576    13.83405
   798  O   6.0   -0.26    1.24    1.80    24.10071   144.87778    14.23846
   799  N   5.0   -0.19    3.18    1.95    27.32160   142.31557    13.16509
   800  H   1.0    0.08    1.07    1.44    22.55192   139.52690    19.15741
   801  H   1.0    0.08    1.11    1.45    20.18312   142.78638    15.34583
   802  H   1.0    0.04    1.04    1.43    24.41114   138.94881    14.88096
   803  H   1.0    0.04    1.04    1.43    22.60778   139.96379    12.21645
   804  H   1.0    0.09    1.02    1.43    28.54631   143.79055    12.95911
   805  H   1.0    0.07    1.03    1.43    27.92697   140.51062    12.85896
   806  N   5.0   -0.15    3.55    2.11    16.72973   140.03637    15.45922
   807  C   4.0    0.03    4.50    4.54    14.58280   138.43049    15.05104
   808  C   4.0    0.16    3.60    3.17    15.13507   136.33325    13.10840
   809  O   6.0   -0.31    1.46    1.80    14.79591   134.12443    13.69232
   810  C   4.0   -0.03    4.33    4.25    12.13105   140.01185    14.53892
   811  C   4.0   -0.04    4.26    4.12    10.49539   138.84177    12.47345
   812  C   4.0   -0.07    4.19    3.99    12.75782   142.69615    13.84350
   813  C   4.0   -0.08    4.10    3.81     8.99621   136.63061    13.35406
   814  H   1.0    0.08    1.10    1.44    16.30833   141.88785    15.79370
   815  H   1.0    0.05    1.07    1.44    14.22626   137.37074    16.78014
   816  H   1.0    0.04    1.06    1.44    11.06167   139.99645    16.30015
   817  H   1.0    0.06    1.04    1.43     9.17623   140.26456    11.78370
   818  H   1.0    0.05    1.06    1.44    11.71377   138.20817    10.93899
   819  H   1.0    0.05    1.00    1.43    11.00703   143.72661    13.50335
   820  H   1.0    0.05    1.02    1.43    13.79466   143.56606    15.39497
   821  H   1.0    0.05    1.00    1.43    13.91501   142.69358    12.13897
   822  H   1.0    0.04    1.16    1.46     7.88499   135.90401    11.77992
   823  H   1.0    0.05    1.01    1.43    10.28546   135.17491    14.03436
   824  H   1.0    0.04    1.00    1.43     7.74792   137.23129    14.87718
   825  N   5.0   -0.14    3.54    2.11    16.05752   136.98990    10.86151
   826  C   4.0    0.03    4.49    4.52    16.33644   135.09194     8.87541
   827  C   4.0    0.17    3.61    3.18    17.52660   132.85990    10.10185
   828  O   6.0   -0.31    1.26    1.80    16.52228   130.76889    10.08862
   829  C   4.0   -0.06    4.32    4.24    18.10421   135.98063     6.78160
   830  C   4.0   -0.05    4.18    3.95    17.03515   137.93109     4.98636
   831  C   4.0   -0.01    4.19    3.98    15.19832   136.85098     3.01726
   832  N   5.0   -0.13    3.38    2.01    14.34999   138.83984     1.26171
   833  C   4.0    0.11    3.33    3.06    12.90371   138.45508    -0.77353
   834  N   5.0   -0.17    3.23    1.96    12.09757   136.12528    -1.37446
   835  N   5.0   -0.17    3.25    1.97    12.27302   140.41648    -2.22295
   836  H   1.0    0.07    1.05    1.44    16.61298   138.76835    10.37019
   837  H   1.0    0.04    1.05    1.44    14.50738   134.70560     8.01181
   838  H   1.0    0.04    1.04    1.43    19.77444   136.80998     7.65654
   839  H   1.0    0.04    1.04    1.43    18.64001   134.34241     5.65343
   840  H   1.0    0.05    1.03    1.43    16.01528   139.34692     6.08051
   841  H   1.0    0.04    1.04    1.43    18.59265   138.81462     3.96779
   842  H   1.0    0.04    1.02    1.43    16.14363   135.37783     1.93067
   843  H   1.0    0.04    1.02    1.43    13.54636   136.07218     3.97157
   844  H   1.0    0.09    1.06    1.44    14.90981   140.64851     1.62831
   845  H   1.0    0.08    1.03    1.43    12.58733   134.62274    -0.27275
   846  H   1.0    0.11    1.02    1.43    10.99450   135.85876    -2.93348
   847  H   1.0    0.09    1.03    1.43    12.89313   142.18597    -1.77319
   848  H   1.0    0.12    1.03    1.43    11.17064   140.14738    -3.78197
   849  N   5.0   -0.13    3.66    2.21    19.67445   133.40913    11.24891
   850  C   4.0    0.03    4.41    4.40    21.33268   131.54183    12.31849
   851  C   4.0    0.10    3.32    3.06    20.08352   130.42137    14.60695
   852  O   6.0   -0.32    1.16    1.80    20.48077   128.25216    15.26647
   853  C   4.0    0.05    4.26    4.12    23.79559   132.78417    13.16320
   854  O   6.0   -0.26    2.15    1.85    23.35245   134.17469    15.44410
   855  C   4.0   -0.08    4.09    3.79    24.82197   134.56568    11.10718
   856  H   1.0    0.09    1.11    1.45    20.33852   135.20562    11.47190
   857  H   1.0    0.04    1.06    1.44    21.76667   130.09768    10.91632
   858  H   1.0    0.03    1.04    1.43    25.21988   131.33560    13.50146
   859  H   1.0    0.16    1.16    1.46    21.91226   135.31604    15.22111
   860  H   1.0    0.03    1.00    1.43    26.57840   135.43473    11.74213
   861  H   1.0    0.03    1.00    1.43    25.18526   133.50929     9.37619
   862  H   1.0    0.04    1.01    1.43    23.44799   136.04848    10.70845
   863  N   5.0   -0.19    3.36    2.00    13.41766   130.11961    15.71244
   864  C   4.0    0.03    4.37    4.33    11.68771   128.61993    14.27625
   865  C   4.0    0.15    3.45    3.10    12.92072   126.11439    13.68477
   866  O   6.0   -0.30    1.23    1.80    11.73293   124.14023    13.84161
   867  C   4.0   -0.04    4.39    4.36    11.14454   130.02238    11.84228
   868  C   4.0   -0.06    4.21    4.02     8.41776   130.11070    11.13741
   869  C   4.0   -0.01    4.24    4.07     8.09559   131.61249     8.72046
   870  N   5.0   -0.15    3.51    2.08     6.86508   134.04676     9.13997
   871  C   4.0    0.09    3.34    3.06     6.31116   135.72163     7.34096
   872  N   5.0   -0.18    3.24    1.97     6.87555   135.29322     4.92022
   873  N   5.0   -0.17    3.24    1.97     5.17870   137.85708     7.98346
   874  H   1.0    0.11    1.09    1.44    13.06042   132.01042    15.60284
   875  H   1.0    0.04    1.06    1.44     9.93176   128.28085    15.29670
   876  H   1.0    0.06    1.06    1.44    11.80129   131.96493    12.04259
   877  H   1.0    0.06    1.05    1.44    12.15626   129.09132    10.30783
   878  H   1.0    0.04    1.03    1.43     7.71544   128.19883    10.82939
   879  H   1.0    0.04    1.04    1.43     7.33987   131.02542    12.63597
   880  H   1.0    0.04    1.04    1.43     9.95076   131.96848     7.89653
   881  H   1.0    0.04    1.03    1.43     6.93686   130.53147     7.40521
   882  H   1.0    0.06    1.16    1.45     6.39199   134.50102    10.95222
   883  H   1.0    0.08    1.03    1.43     7.75074   133.65326     4.40999
   884  H   1.0    0.10    1.02    1.43     6.43113   136.60593     3.58040
   885  H   1.0    0.09    1.03    1.43     4.74379   138.19983     9.82972
   886  H   1.0    0.11    1.03    1.43     4.74126   139.15921     6.63231
   887  N   5.0   -0.13    3.47    2.06    15.34695   126.22360    13.06494
   888  C   4.0    0.04    4.25    4.10    16.80473   123.97888    12.43377
   889  C   4.0    0.08    3.17    3.03    17.34142   122.17213    14.66742
   890  O   6.0   -0.30    1.11    1.80    16.05045   120.24225    14.90364
   891  C   4.0   -0.08    4.10    3.80    19.21825   124.70859    11.06183
   892  H   1.0    0.11    1.09    1.44    16.36774   127.85559    12.98179
   893  H   1.0    0.06    1.07    1.44    15.62590   122.85927    11.16954
   894  H   1.0    0.03    1.00    1.43    20.27643   123.00006    10.61018
   895  H   1.0    0.04    1.00    1.43    18.72884   125.70905     9.32895
   896  H   1.0    0.06    1.03    1.43    20.34127   125.92806    12.28448
   897  N   5.0   -0.22    3.19    1.95     7.99173   127.04875   -11.32261
   898  C   4.0    0.03    4.25    4.09     9.15174   126.52489    -8.89620
   899  C   4.0    0.06    3.19    3.03     9.25130   123.69549    -8.34251
   900  O   6.0   -0.32    1.12    1.80    11.26021   122.55544    -8.55605
   901  C   4.0   -0.05    4.27    4.14     7.85638   128.02018    -6.80616
   902  C   4.0   -0.04    4.21    4.02     9.10769   130.57338    -6.39231
   903  C   4.0    0.25    3.13    3.03     7.25591   132.74898    -6.19200
   904  O   6.0   -0.29    1.18    1.80     5.76640   132.83822    -4.36842
   905  O   6.0   -0.27    1.20    1.80     7.32702   134.41350    -7.84740
   906  H   1.0    0.08    1.03    1.43     6.37538   128.09469   -11.23379
   907  H   1.0    0.04    1.07    1.44    11.11293   127.15312    -8.94155
   908  H   1.0    0.05    1.04    1.43     5.88652   128.34050    -7.32017
   909  H   1.0    0.04    1.03    1.43     7.96003   126.95626    -5.04494
   910  H   1.0    0.04    1.03    1.43    10.18785   130.50529    -4.64054
   911  H   1.0    0.04    1.04    1.43    10.36278   130.96197    -7.97968
   912  H   1.0    0.08    1.07    1.44     5.09836   174.15053    -1.33866
   913  H   1.0    0.04    1.04    1.43     9.82742   175.98896     2.57999
   914  H   1.0    0.08    1.07    1.44     3.39555   172.22232     7.52193
   915  H   1.0    0.05    1.05    1.44     1.91650   168.20959    22.89866
   916  H   1.0    0.09    1.08    1.44    -1.29108   171.69283    15.96650
   917  H   1.0    0.05    1.04    1.43    -5.56563   166.83059    18.16279
   918  H   1.0    0.08    1.07    1.44   -17.19065   156.92464     1.11975
   919  H   1.0    0.08    1.06    1.44    21.07505   140.71388   -15.51446
   920  H   1.0    0.08    1.07    1.44    -6.85463   168.02605   -11.55604
   921  H   1.0    0.04    1.05    1.44   -10.12355   162.97845   -11.30585
   922  H   1.0    0.08    1.08    1.44    -1.04957   165.04277   -18.55733
   923  H   1.0    0.04    1.05    1.44     3.95481   160.48872   -18.64183
   924  H   1.0    0.09    1.07    1.44     8.98184   166.32953   -14.73420
   925  H   1.0    0.04    1.04    1.44    14.81155   163.86973   -17.27997
   926  H   1.0    0.07    1.07    1.44    19.13036   168.93504   -11.36953
   927  H   1.0    0.07    1.05    1.44    -9.63876   148.35514    21.88053
   928  H   1.0    0.08    1.07    1.44    12.65838   153.52562    34.13530
   929  H   1.0    0.04    1.05    1.44    14.68810   148.81268    30.25288
   930  H   1.0    0.09    1.07    1.44     6.90015   145.48049    25.64721
   931  H   1.0    0.04    1.05    1.44     8.87541   139.19895    26.55676
   932  H   1.0    0.08    1.07    1.44     0.23301   139.40339    25.86292
   933  H   1.0    0.05    1.05    1.44     2.15275   134.99567    21.28685
   934  H   1.0    0.08    1.07    1.44    23.52245   140.84139    24.71753
   935  H   1.0    0.08    1.05    1.44    18.88828   131.46240    15.63589
   936  H   1.0    0.09    1.08    1.44    13.32800   129.67611    17.35190
   937  H   1.0    0.05    1.04    1.43    18.71894   122.57334    15.89727
   938  H   1.0    0.09    1.07    1.44     9.08322   127.91384   -12.29874
   939  H   1.0    0.04    1.04    1.43     7.68568   122.78139    -7.80927

  Z AO/shell   Hii/eV     exponent
  1     Wed Apr 25 08:07:45 CEST 2018   EN: 2.200 GM2: 0.406  GM3: 0.0800  RAES: 1.40
     1s    -10.707211    1.230000
  6     Wed Apr 25 08:07:45 CEST 2018   EN: 2.550 GM2: 0.538  GM3: 0.1500  RAES: 3.00
     2s    -13.970922    2.096432
     2p    -10.063292    1.800000
  7     Wed Apr 25 08:07:45 CEST 2018   EN: 3.040 GM2: 0.461  GM3:-0.0640  RAES: 1.90
     2s    -16.686243    2.339881
     2p    -12.523956    2.014332
  8     Wed Apr 25 08:07:45 CEST 2018   EN: 3.440 GM2: 0.452  GM3:-0.0517  RAES: 1.80
     2s    -20.229985    2.439742
     2p    -15.503117    2.137023
 16     Tue Apr 24 11:44:34 CEST 2018   EN: 2.580 GM2: 0.340  GM3:-0.0502  RAES: 3.10
     3s    -20.029654    1.981333
     3p    -11.377694    2.025643
     3d     -0.420282    1.702555
 no old-style atom pair restraining (fixing) potential

molecular fragmentation (1/2 indicates fragments):
111111111111111111122222222222222222222222222222222222222222222222222222
222222222222222222222222222222222222222222222222222222222222222222222222
222222222222222222222222222222222222222222222222222222222222222222222222
222222222222222222222222222222222222222222222222222222222222222222222222
222222222222222222222222222222222222222222222222222222222222222222222222
222222222222222222222222222222222222222222222222222222222222222222222222
222222222222222222222222222222222222222222222222222222222222222222222222
222222222222222222222222222222222222222222222222222222222222222222222222
222222222222222222222222222222222222222222222222222222222222222222222222
222222222222222222222222222222222222222222222222222222222222222222222222
222222222222222222222222222222222222222222222222222222222222222222222222
222222222222222222222222222222222222222222222222222222222222222222222222
222222222222222222222222222222222222222222222221122222222222222222222222
222
# atoms in fragment 1/2:    21   918
 fragment masses (1/2) :      115.17     6224.37
CMA distance (Bohr)    :  22.586
constraining FC (au)   :  0.0500
           ------------------------------------------------- 
          |        Self-Consistent Charge Iterations        |
           ------------------------------------------------- 

 Ncao       : 2274
 Nao        : 2272
 Nshell     : 1382
 Nel        : 2522
 T(el)      :   500.0
 intcut     :    35.0
 scfconv/Eh :  0.100E-06
   qconv/e  :  0.100E-04
 intneglect :  0.100E-08
 broydamp   :      0.400
 iter      E             dE          RMSdq      gap      omega  full diag
   1  -1443.5189718 -0.144352E+04  0.462E+00    2.82       0.0  T
   2  -1447.3399776 -0.382101E+01  0.215E+00    1.53       1.0  T
   3  -1447.6021524 -0.262175E+00  0.123E+00    1.76       1.0  T
   4  -1447.8379912 -0.235839E+00  0.275E-01    1.37       1.0  T
   5  -1447.8527825 -0.147913E-01  0.147E-01    1.53       1.0  T
   6  -1447.8554290 -0.264657E-02  0.640E-02    1.49       1.0  T
   7  -1447.8563132 -0.884189E-03  0.308E-02    1.46       1.0  T
   8  -1447.8564640 -0.150744E-03  0.149E-02    1.44       1.0  T
   9  -1447.8565139 -0.499152E-04  0.729E-03    1.44       1.0  T
  10  -1447.8565236 -0.967684E-05  0.318E-03    1.44       1.0  T
  11  -1447.8565262 -0.262269E-05  0.152E-03    1.44       2.1  T
  12  -1447.8565266 -0.415420E-06  0.676E-04    1.44       4.8  T
  13  -1447.8565267 -0.743203E-07  0.317E-04    1.44      10.3  T
  14  -1447.8565267 -0.207795E-07  0.137E-04    1.44      23.8  T
  15  -1447.8565267 -0.327077E-08  0.727E-05    1.44      44.9  T
  16  -1447.8565267 -0.103773E-08  0.344E-05    1.44      94.9  T
speedup  0.92
cpu  time for SCC    1 m 44.5 s
wall time for SCC    1 m 53.3 s

   *** convergence criteria satisfied after 16 iterations ***

          eigenvalues
 #    :        1249       1250       1251       1252       1253       1254       1255       1256
 occ. :        2.000      2.000      2.000      2.000      2.000      2.000      2.000      2.000
 eps  :        -9.889     -9.886     -9.854     -9.846     -9.826     -9.738     -9.689     -9.662
 #    :        1257       1258       1259       1260       1261       1262       1263       1264
 occ. :        2.000      2.000      2.000      2.000      2.000      0.000      0.000      0.000
 eps  :        -9.630     -9.538     -9.494     -9.430     -9.423     -7.985     -7.907     -7.896
 #    :        1265       1266       1267       1268       1269       1270       1271       1272
 occ. :        0.000      0.000      0.000      0.000      0.000      0.000      0.000      0.000
 eps  :        -7.772     -7.702     -7.675     -7.675     -7.665     -7.589     -7.549     -7.546


   #   Z            q   n(s)   n(p)   n(d)      C6AA      α(0)
   1   7 N     -0.389  1.324  4.065  0.000    30.064     8.143
[...]
 653   6 C     -0.085  1.053  3.032  0.000    22.117     6.695
 654   6 C      0.364  1.022  2.614  0.000    20.828     7.469
 655   8 O     -0.649  1.774  4.876  0.000    27.356     7.012
 656   8 O     -0.641  1.754  4.888  0.000    27.161     6.987
 657   1 H      0.234  0.766  0.000  0.000     0.950     1.526
 658   1 H      0.034  0.966  0.000  0.000     2.531     2.488
 659   1 H      0.020  0.980  0.000  0.000     2.727     2.582
 660   1 H      0.033  0.967  0.000  0.000     2.542     2.493
 661   1 H      0.048  0.952  0.000  0.000     2.351     2.398
 662   1 H      0.009  0.991  0.000  0.000     2.915     2.670
 663   7 N     -0.196  1.251  3.945  0.000    25.257     7.464
 664   6 C      0.033  1.057  2.910  0.000    20.008     6.365
 665   6 C      0.286  1.037  2.677  0.000    22.149     7.707
 666   8 O     -0.521  1.748  4.773  0.000    24.264     6.604
 667   6 C     -0.021  1.062  2.959  0.000    20.911     6.504
 668   6 C     -0.138  1.049  3.089  0.000    23.206     6.869
 669   6 C     -0.132  1.049  3.084  0.000    23.102     6.854
 670   1 H      0.234  0.766  0.000  0.000     0.950     1.527
 671   1 H      0.043  0.957  0.000  0.000     2.409     2.427
 672   1 H      0.046  0.954  0.000  0.000     2.374     2.410
 673   1 H      0.056  0.944  0.000  0.000     2.243     2.342
 674   1 H      0.023  0.977  0.000  0.000     2.694     2.567
 675   1 H      0.086  0.914  0.000  0.000     1.916     2.164
 676   1 H      0.073  0.927  0.000  0.000     2.052     2.240
 677   1 H      0.052  0.948  0.000  0.000     2.292     2.367
 678   1 H      0.045  0.955  0.000  0.000     2.384     2.414
 679   7 N     -0.186  1.253  3.933  0.000    25.021     7.429
 680   6 C      0.019  1.056  2.925  0.000    20.236     6.402
 681   6 C      0.299  1.027  2.674  0.000    21.932     7.671
 682   8 O     -0.509  1.742  4.767  0.000    23.990     6.567
 683   6 C     -0.022  1.056  2.966  0.000    20.930     6.506
 684   6 C     -0.125  1.044  3.081  0.000    22.956     6.831
 685   6 C     -0.123  1.046  3.077  0.000    22.909     6.824
 686   1 H      0.239  0.761  0.000  0.000     0.927     1.508
 687   1 H      0.075  0.925  0.000  0.000     2.027     2.227
 688   1 H      0.049  0.951  0.000  0.000     2.334     2.389
 689   1 H      0.063  0.937  0.000  0.000     2.169     2.303
 690   1 H      0.035  0.965  0.000  0.000     2.511     2.478
 691   1 H      0.046  0.954  0.000  0.000     2.367     2.406
 692   1 H      0.060  0.940  0.000  0.000     2.205     2.322
 693   1 H      0.058  0.942  0.000  0.000     2.226     2.333
 694   1 H      0.054  0.946  0.000  0.000     2.266     2.354
 695   7 N     -0.196  1.243  3.953  0.000    25.250     7.463
 696   6 C      0.035  1.044  2.921  0.000    19.967     6.357
 697   6 C      0.280  1.038  2.682  0.000    22.257     7.729
 698   8 O     -0.509  1.745  4.763  0.000    23.979     6.565
 699   6 C     -0.011  1.044  2.967  0.000    20.732     6.474
 700   6 C     -0.106  1.042  3.064  0.000    22.578     6.774
 701   6 C     -0.121  1.044  3.076  0.000    22.853     6.813
 702   1 H      0.220  0.780  0.000  0.000     1.012     1.576
 703   1 H      0.070  0.930  0.000  0.000     2.080     2.255
 704   1 H      0.023  0.977  0.000  0.000     2.687     2.564
 705   1 H      0.032  0.968  0.000  0.000     2.559     2.502
 706   1 H      0.036  0.964  0.000  0.000     2.499     2.472
 707   1 H      0.055  0.945  0.000  0.000     2.263     2.353
 708   1 H      0.038  0.962  0.000  0.000     2.478     2.462
 709   1 H      0.062  0.938  0.000  0.000     2.175     2.306
 710   1 H      0.063  0.937  0.000  0.000     2.170     2.304
 711   7 N     -0.155  1.233  3.922  0.000    24.354     7.329
 712   6 C      0.054  1.033  2.912  0.000    19.635     6.303
 713   6 C      0.212  1.078  2.710  0.000    23.508     7.941
 714   8 O     -0.347  1.742  4.606  0.000    20.657     6.094
 715   6 C     -0.096  1.049  3.047  0.000    22.313     6.722
 716   6 C      0.285  1.034  2.681  0.000    22.174     7.711
 717   8 O     -0.528  1.784  4.744  0.000    24.412     6.624
 718   7 N     -0.279  1.272  4.008  0.000    27.222     7.749
 719   1 H      0.212  0.788  0.000  0.000     1.047     1.603
 720   1 H      0.080  0.920  0.000  0.000     1.976     2.198
 721   1 H      0.100  0.900  0.000  0.000     1.788     2.091
 722   1 H      0.089  0.911  0.000  0.000     1.884     2.147
 723   1 H      0.235  0.765  0.000  0.000     0.944     1.522
 724   1 H      0.245  0.755  0.000  0.000     0.905     1.490
 725   7 N     -0.394  1.327  4.068  0.000    30.217     8.164
 726   6 C      0.034  1.052  2.914  0.000    20.019     6.373
 727   6 C      0.202  1.086  2.711  0.000    23.695     7.973
 728   8 O     -0.387  1.746  4.640  0.000    21.415     6.204
 729   6 C     -0.058  1.058  3.000  0.000    21.612     6.618
 730   6 C     -0.096  1.067  3.029  0.000    22.326     6.727
 731   6 C      0.362  1.026  2.612  0.000    20.862     7.475
 732   8 O     -0.663  1.781  4.882  0.000    27.709     7.057
 733   8 O     -0.657  1.769  4.888  0.000    27.553     7.038
 734   1 H      0.169  0.831  0.000  0.000     1.280     1.772
 735   1 H      0.057  0.943  0.000  0.000     2.239     2.340
 736   1 H      0.052  0.948  0.000  0.000     2.294     2.369
 737   1 H      0.037  0.963  0.000  0.000     2.489     2.467
 738   1 H      0.030  0.970  0.000  0.000     2.586     2.515
 739   1 H      0.040  0.960  0.000  0.000     2.452     2.449
 740   7 N     -0.382  1.316  4.066  0.000    29.864     8.116
 741   6 C      0.039  1.048  2.913  0.000    19.934     6.360
 742   6 C      0.193  1.093  2.713  0.000    23.872     8.002
 743   8 O     -0.364  1.760  4.604  0.000    20.967     6.139
 744   6 C     -0.082  1.061  3.021  0.000    22.068     6.688
 745   6 C     -0.077  1.052  3.025  0.000    21.977     6.675
 746   6 C     -0.087  1.055  3.032  0.000    22.158     6.702
 747   6 C     -0.025  1.051  2.974  0.000    21.120     6.560
 748   7 N     -0.138  1.234  3.904  0.000    23.988     7.274
 749   1 H      0.183  0.817  0.000  0.000     1.197     1.714
 750   1 H      0.030  0.970  0.000  0.000     2.584     2.514
 751   1 H      0.079  0.921  0.000  0.000     1.986     2.204
 752   1 H      0.051  0.949  0.000  0.000     2.303     2.373
 753   1 H      0.033  0.967  0.000  0.000     2.548     2.496
 754   1 H      0.064  0.936  0.000  0.000     2.151     2.293
 755   1 H      0.099  0.901  0.000  0.000     1.791     2.093
 756   1 H      0.062  0.938  0.000  0.000     2.174     2.306
 757   1 H      0.100  0.900  0.000  0.000     1.788     2.091
 758   1 H      0.099  0.901  0.000  0.000     1.792     2.093
 759   1 H      0.266  0.734  0.000  0.000     0.825     1.423
 760   1 H      0.295  0.705  0.000  0.000     0.727     1.336
 761   1 H      0.274  0.726  0.000  0.000     0.795     1.397
 762   7 N     -0.376  1.308  4.068  0.000    29.707     8.095
 763   6 C      0.036  1.051  2.913  0.000    19.977     6.365
 764   6 C      0.203  1.092  2.706  0.000    23.687     7.971
 765   8 O     -0.387  1.760  4.627  0.000    21.421     6.205
 766   6 C     -0.011  1.050  2.961  0.000    20.741     6.477
 767   6 C     -0.106  1.037  3.068  0.000    22.563     6.771
 768   6 C     -0.126  1.040  3.086  0.000    22.966     6.832
 769   1 H      0.167  0.833  0.000  0.000     1.289     1.778
 770   1 H      0.047  0.953  0.000  0.000     2.358     2.402
 771   1 H      0.008  0.992  0.000  0.000     2.918     2.671
 772   1 H      0.022  0.978  0.000  0.000     2.700     2.570
 773   1 H      0.037  0.963  0.000  0.000     2.491     2.468
 774   1 H      0.060  0.940  0.000  0.000     2.204     2.322
 775   1 H      0.016  0.984  0.000  0.000     2.791     2.613
 776   1 H      0.089  0.911  0.000  0.000     1.884     2.146
 777   1 H      0.033  0.967  0.000  0.000     2.548     2.496
 778   7 N     -0.390  1.322  4.068  0.000    30.102     8.149
 779   6 C      0.025  1.054  2.921  0.000    20.164     6.395
 780   6 C      0.276  1.039  2.685  0.000    22.333     7.739
 781   8 O     -0.509  1.767  4.742  0.000    23.984     6.566
 782   6 C     -0.103  1.062  3.041  0.000    22.449     6.744
 783   6 C      0.289  1.032  2.678  0.000    22.093     7.696
 784   8 O     -0.538  1.781  4.757  0.000    24.635     6.655
 785   7 N     -0.285  1.267  4.018  0.000    27.356     7.768
 786   1 H      0.176  0.824  0.000  0.000     1.235     1.741
 787   1 H      0.067  0.933  0.000  0.000     2.118     2.276
 788   1 H      0.089  0.911  0.000  0.000     1.893     2.152
 789   1 H      0.053  0.947  0.000  0.000     2.286     2.364
 790   1 H      0.231  0.769  0.000  0.000     0.962     1.537
 791   1 H      0.246  0.754  0.000  0.000     0.898     1.484
 792   7 N     -0.172  1.239  3.933  0.000    24.721     7.385
 793   6 C      0.023  1.038  2.939  0.000    20.169     6.391
 794   6 C      0.266  1.030  2.704  0.000    22.512     7.771
 795   8 O     -0.454  1.719  4.736  0.000    22.794     6.401
 796   6 C     -0.107  1.055  3.053  0.000    22.535     6.756
 797   6 C      0.291  1.027  2.683  0.000    22.072     7.693
 798   8 O     -0.532  1.788  4.744  0.000    24.495     6.636
 799   7 N     -0.287  1.269  4.017  0.000    27.397     7.774
 800   1 H      0.243  0.757  0.000  0.000     0.913     1.497
 801   1 H      0.075  0.925  0.000  0.000     2.031     2.229
 802   1 H      0.115  0.885  0.000  0.000     1.656     2.012
 803   1 H      0.077  0.923  0.000  0.000     2.006     2.215
 804   1 H      0.230  0.770  0.000  0.000     0.964     1.538
 805   1 H      0.250  0.750  0.000  0.000     0.885     1.474
 806   7 N     -0.164  1.245  3.919  0.000    24.539     7.357
 807   6 C      0.002  1.069  2.930  0.000    20.550     6.454
 808   6 C      0.282  1.038  2.680  0.000    22.227     7.720
 809   8 O     -0.425  1.737  4.688  0.000    22.180     6.314
 810   6 C     -0.028  1.067  2.961  0.000    21.041     6.524
 811   6 C     -0.073  1.045  3.028  0.000    21.890     6.660
 812   6 C     -0.100  1.037  3.064  0.000    22.468     6.758
 813   6 C     -0.161  1.045  3.116  0.000    23.681     6.939
 814   1 H      0.205  0.795  0.000  0.000     1.079     1.627
 815   1 H      0.092  0.908  0.000  0.000     1.858     2.132
 816   1 H      0.059  0.941  0.000  0.000     2.209     2.324
 817   1 H      0.049  0.951  0.000  0.000     2.328     2.386
 818   1 H      0.035  0.965  0.000  0.000     2.518     2.481
 819   1 H      0.042  0.958  0.000  0.000     2.425     2.435
 820   1 H      0.049  0.951  0.000  0.000     2.328     2.386
 821   1 H      0.022  0.978  0.000  0.000     2.706     2.573
 822   1 H      0.092  0.908  0.000  0.000     1.864     2.135
 823   1 H      0.064  0.936  0.000  0.000     2.153     2.294
 824   1 H      0.039  0.961  0.000  0.000     2.461     2.453
 825   7 N     -0.180  1.237  3.943  0.000    24.901     7.411
 826   6 C      0.004  1.061  2.935  0.000    20.494     6.444
 827   6 C      0.285  1.025  2.690  0.000    22.166     7.711
 828   8 O     -0.457  1.739  4.718  0.000    22.846     6.408
 829   6 C     -0.101  1.058  3.042  0.000    22.405     6.737
 830   6 C     -0.091  1.051  3.040  0.000    22.237     6.714
 831   6 C     -0.045  1.063  2.982  0.000    21.468     6.613
 832   7 N     -0.145  1.210  3.936  0.000    24.144     7.298
 833   6 C      0.228  1.023  2.750  0.000    23.216     7.889
 834   7 N     -0.232  1.222  4.009  0.000    26.073     7.584
 835   7 N     -0.227  1.231  3.996  0.000    25.961     7.567
 836   1 H      0.182  0.818  0.000  0.000     1.205     1.720
 837   1 H      0.083  0.917  0.000  0.000     1.946     2.182
 838   1 H      0.076  0.924  0.000  0.000     2.024     2.225
 839   1 H      0.111  0.889  0.000  0.000     1.691     2.034
 840   1 H      0.048  0.952  0.000  0.000     2.341     2.393
 841   1 H      0.086  0.914  0.000  0.000     1.921     2.168
 842   1 H      0.117  0.883  0.000  0.000     1.636     2.000
 843   1 H      0.090  0.910  0.000  0.000     1.882     2.145
 844   1 H      0.208  0.792  0.000  0.000     1.067     1.618
 845   1 H      0.270  0.730  0.000  0.000     0.808     1.408
 846   1 H      0.212  0.788  0.000  0.000     1.045     1.601
 847   1 H      0.217  0.783  0.000  0.000     1.026     1.586
 848   1 H      0.229  0.771  0.000  0.000     0.968     1.541
 849   7 N     -0.167  1.227  3.941  0.000    24.619     7.369
 850   6 C      0.008  1.058  2.934  0.000    20.445     6.438
 851   6 C      0.215  1.080  2.705  0.000    23.453     7.932
 852   8 O     -0.358  1.742  4.616  0.000    20.862     6.124
 853   6 C      0.106  1.051  2.843  0.000    18.925     6.209
 854   8 O     -0.524  1.730  4.794  0.000    23.408     6.531
 855   6 C     -0.149  1.053  3.095  0.000    23.433     6.904
 856   1 H      0.204  0.796  0.000  0.000     1.085     1.632
 857   1 H      0.101  0.899  0.000  0.000     1.779     2.086
 858   1 H      0.074  0.926  0.000  0.000     2.045     2.236
 859   1 H      0.342  0.658  0.000  0.000     0.606     1.222
 860   1 H      0.074  0.926  0.000  0.000     2.039     2.233
 861   1 H      0.079  0.921  0.000  0.000     1.990     2.206
 862   1 H      0.044  0.956  0.000  0.000     2.396     2.421
 863   7 N     -0.401  1.326  4.076  0.000    30.401     8.189
 864   6 C      0.036  1.047  2.916  0.000    19.971     6.364
 865   6 C      0.276  1.040  2.684  0.000    22.333     7.739
 866   8 O     -0.523  1.753  4.769  0.000    24.294     6.608
 867   6 C     -0.089  1.059  3.030  0.000    22.182     6.702
 868   6 C     -0.080  1.050  3.030  0.000    22.022     6.680
 869   6 C     -0.031  1.059  2.972  0.000    21.196     6.568
 870   7 N     -0.177  1.233  3.945  0.000    24.835     7.402
 871   6 C      0.233  1.017  2.750  0.000    23.114     7.871
 872   7 N     -0.245  1.228  4.016  0.000    26.383     7.629
 873   7 N     -0.236  1.230  4.006  0.000    26.170     7.598
 874   1 H      0.187  0.813  0.000  0.000     1.177     1.700
 875   1 H      0.013  0.987  0.000  0.000     2.847     2.639
 876   1 H      0.081  0.919  0.000  0.000     1.971     2.195
 877   1 H      0.069  0.931  0.000  0.000     2.100     2.266
 878   1 H      0.070  0.930  0.000  0.000     2.083     2.257
 879   1 H      0.061  0.939  0.000  0.000     2.191     2.315
 880   1 H      0.092  0.908  0.000  0.000     1.859     2.132
 881   1 H      0.089  0.911  0.000  0.000     1.892     2.151
 882   1 H      0.250  0.750  0.000  0.000     0.884     1.473
 883   1 H      0.263  0.737  0.000  0.000     0.833     1.430
 884   1 H      0.218  0.782  0.000  0.000     1.017     1.580
 885   1 H      0.230  0.770  0.000  0.000     0.966     1.540
 886   1 H      0.215  0.785  0.000  0.000     1.032     1.591
 887   7 N     -0.162  1.242  3.919  0.000    24.496     7.351
 888   6 C      0.027  1.055  2.919  0.000    20.136     6.391
 889   6 C      0.201  1.093  2.706  0.000    23.729     7.977
 890   8 O     -0.365  1.766  4.599  0.000    20.998     6.144
 891   6 C     -0.148  1.049  3.099  0.000    23.417     6.900
 892   1 H      0.227  0.773  0.000  0.000     0.978     1.549
 893   1 H      0.075  0.925  0.000  0.000     2.028     2.227
 894   1 H      0.070  0.930  0.000  0.000     2.082     2.256
 895   1 H      0.078  0.922  0.000  0.000     2.000     2.212
 896   1 H      0.089  0.911  0.000  0.000     1.888     2.148
 897   7 N     -0.380  1.313  4.067  0.000    29.818     8.110
 898   6 C      0.035  1.056  2.910  0.000    20.006     6.371
 899   6 C      0.200  1.090  2.709  0.000    23.737     7.979
 900   8 O     -0.352  1.748  4.604  0.000    20.744     6.106
 901   6 C     -0.054  1.052  3.002  0.000    21.547     6.608
 902   6 C     -0.095  1.068  3.027  0.000    22.307     6.724
 903   6 C      0.371  1.018  2.611  0.000    20.714     7.448
 904   8 O     -0.676  1.782  4.895  0.000    28.070     7.103
 905   8 O     -0.657  1.782  4.875  0.000    27.563     7.039
 906   1 H      0.149  0.851  0.000  0.000     1.410     1.860
 907   1 H      0.060  0.940  0.000  0.000     2.196     2.318
 908   1 H      0.024  0.976  0.000  0.000     2.670     2.555
 909   1 H      0.045  0.955  0.000  0.000     2.380     2.412
 910   1 H      0.045  0.955  0.000  0.000     2.387     2.416
 911   1 H      0.031  0.969  0.000  0.000     2.572     2.508
 912   1 H      0.180  0.820  0.000  0.000     1.214     1.726
 913   1 H      0.088  0.912  0.000  0.000     1.901     2.156
 914   1 H      0.192  0.808  0.000  0.000     1.146     1.677
 915   1 H      0.079  0.921  0.000  0.000     1.985     2.203
 916   1 H      0.185  0.815  0.000  0.000     1.183     1.704
 917   1 H      0.065  0.935  0.000  0.000     2.145     2.290
 918   1 H      0.186  0.814  0.000  0.000     1.182     1.703
 919   1 H      0.069  0.931  0.000  0.000     2.099     2.265
 920   1 H      0.185  0.815  0.000  0.000     1.183     1.704
 921   1 H      0.087  0.913  0.000  0.000     1.903     2.157
 922   1 H      0.198  0.802  0.000  0.000     1.117     1.656
 923   1 H      0.061  0.939  0.000  0.000     2.190     2.314
 924   1 H      0.184  0.816  0.000  0.000     1.193     1.711
 925   1 H      0.082  0.918  0.000  0.000     1.959     2.189
 926   1 H      0.185  0.815  0.000  0.000     1.185     1.705
 927   1 H      0.080  0.920  0.000  0.000     1.975     2.197
 928   1 H      0.192  0.808  0.000  0.000     1.145     1.676
 929   1 H      0.083  0.917  0.000  0.000     1.944     2.180
 930   1 H      0.173  0.827  0.000  0.000     1.252     1.753
 931   1 H      0.094  0.906  0.000  0.000     1.841     2.122
 932   1 H      0.190  0.810  0.000  0.000     1.159     1.686
 933   1 H      0.085  0.915  0.000  0.000     1.925     2.170
 934   1 H      0.208  0.792  0.000  0.000     1.064     1.616
 935   1 H      0.085  0.915  0.000  0.000     1.925     2.170
 936   1 H      0.166  0.834  0.000  0.000     1.299     1.786
 937   1 H      0.087  0.913  0.000  0.000     1.904     2.158
 938   1 H      0.189  0.811  0.000  0.000     1.164     1.690
 939   1 H      0.074  0.926  0.000  0.000     2.038     2.232

 Mol. C6AA /au·bohr⁶  :    7911775.371714
 Mol. C8AA /au·bohr⁸  :  174518436.916341
 Mol. α(0) /au        :       4183.179017

 
molecular dipole:
                 x           y           z       tot (Debye)
 q only:        8.907    -703.206      -9.869
   full:        7.075    -702.877      -8.245    1786.786
molecular quadrupole (traceless):
                xx          xy          yy          xz          yz          zz
 q only:    48546.043    1269.787  -97666.379    -197.982   -2925.112   49120.337
  q+dip:    48594.410    1006.943  -97634.445     -31.331   -2431.875   49040.035
   full:    48590.727    1011.133  -97631.061     -26.267   -2433.641   49040.334
speedup  0.94
cpu  time for grad    1 m 57.8 s
wall time for grad    2 m  5.2 s

SCC energy    :   -1447.8889787
rep           :      17.1297592
ES            :       6.2722818
AES           :      -0.3483595
AXC           :       0.4584380
disp          :      -1.3202585
XB            :       0.0000000
fix           :       0.0000000
Gborn         :       0.0000000
Gsasa         :       0.0000000
Ghb           :       0.0000000
Gshift        :       0.0000000
Gsolv         :      -2.2044592    -1383.32
Etot ala COSMO:   -1447.8889787
grad norm     :       0.9349591
total E       :   -1430.6109402
atomizationE  :     259.2620079   162689.37
(atE without considering molecular charge,
 total energy contains solvation terms)
H-L gap (eV)  :          1.4377

------------------------------------------------------------------------
 * finished run on 2019/05/04 at 17:36:59.147     
------------------------------------------------------------------------
 total:
 * wall-time:     0 d,  0 h,  2 min, 10.042 sec
 *  cpu-time:     0 d,  0 h,  2 min,  1.525 sec
 * ratio c/w:     0.935 speedup
 SCF:
 * wall-time:     0 d,  0 h,  2 min,  8.063 sec
 *  cpu-time:     0 d,  0 h,  2 min,  0.252 sec
 * ratio c/w:     0.939 speedup

