      -----------------------------------------------------------      
     |                   =====================                   |     
     |                           x T B                           |     
     |                   =====================                   |     
     |                         S. Grimme                         |     
     |          Mulliken Center for Theoretical Chemistry        |     
     |                    University of Bonn                     |     
     |                 Version 6.0.1 (SAW181210)                 |     
      -----------------------------------------------------------      

   This program is distributed in the hope that it will be useful,
   but WITHOUT ANY WARRANTY; without even the implied warranty of
   MERCHANTABILITY or FITNESS FOR A PARTICULAR PURPOSE.
   
   FOR NON-COMMERCIAL, ACADEMIA USE ONLY.
   
   Cite this work as:
   S. Grimme, C. Bannwarth, P. Shushkov, J. Comput. Theory Chem., 2017,
   13, 1989-2009.
   C. Bannwarth, S. Ehlert and S. Grimme., ChemRxiv, 2018, preprint.
   http://doi.org/10.26434/chemrxiv.7246238.v1
   
   for sTDA-xTB:
   S. Grimme and C. Bannwarth, J. Chem. Phys., 2016, 145, 054103.
   
   in the mass-spec context:
   V. Asgeirsson, C. Bauer and S. Grimme, Chem. Sci., 2017, 8, 4879.
   
   if GBSA is used:
   P. Shushkov, F. März and S. Grimme, unpublished.
   
   for ANC optimizer:
   S. Grimme, unpublished.
   Rational Function algorithm used in ANCopt:
   F. Eckert, P. Pulay, H.-J. Werner, J. Comput. Chem., 1997, 18, 1473.
   
   with help from (in alphabetical order)
   C. Bannwarth, F. Bohle, G. Brandenburg, E. Caldeweyher, M. Checinski,
   S. Dohm, S. Ehlert, S. Ehrlich, F. März, H. Neugebauer, J. Pisarek,
   P. Pracht, P. Shushkov, and S. Spicher.
   
 * started run on 2019/05/11 at 23:08:38.180     
========================================================================
 # omp threads = 2
========================================================================
number of atoms            : 447
number of electrons        : 1232
charge                     : -3
spin                       : .0
first test random number   : .8574

########################################################################
# WARNING! Please study the warnings concerning your input carefully
#  - Process number higher than OMP_NUM_THREADS, I hope you know what you are doing.
########################################################################

           ------------------------------------------------- 
          |                 G F N 2 - x T B                 |
          | Geometry, Frequencies, Noncovalent interactions |
          |            JCTC 2018 parametrisation            |
           ------------------------------------------------- 
 
      method parameters     
 k(s)        :  1.8500
 k(p)        :  2.2300
 k(d)        :  2.2300
 k(f)        :  2.0000
 kEN (H0ij)  : -2.0000
 D4 a1       :  0.5200
 D4 a2       :  5.0000
 D4 s6       :  1.0000
 D4 s8       :  2.7000
 D4 s9       :  5.0000
 alphaj      :  2.0000

 Solvent             : h2o
 Using internal parameter file: .param_gbsa2_h2o
 Gsolv ref. state (COSMO-RS): gsolv [1 M gas/solution]
 temperature (mdtemp)       :    298.150000000000     
 dielectric constant        :    80.2000000000000     
 rho                        :    1.00000000000000     
 mass                       :    18.0000000000000     
 surface tension            :    15.5689454083859     
 probe radius               :   0.975313790000000     
 vdW radii scaling          :    1.00000000000000     
 Gshift (Eh)                :   1.857443126794793E-003
 c1                         :    1.55243817000000     
 soset                      :   0.130326360000000     
 HB correction              :  T

            Z     q(EN)     CN     RAES       Cart. coordinates
     1  N   5.0   -0.23    3.24    1.96   -36.74943   135.35513    31.27449
     2  C   4.0    0.02    4.31    4.21   -38.23202   136.34051    33.36214
     3  C   4.0    0.14    3.44    3.09   -40.82304   137.33736    32.56702
     4  O   6.0   -0.32    1.28    1.80   -42.21617   138.30818    34.12644
     5  C   4.0   -0.04    4.28    4.15   -36.74185   138.43821    34.65665
     6  C   4.0   -0.03    4.11    3.82   -37.76246   139.31688    37.21032
     7  C   4.0    0.24    3.04    3.02   -36.26034   141.72584    38.33217
     8  O   6.0   -0.31    1.16    1.80   -34.81455   142.91326    36.87946
     9  O   6.0   -0.30    1.14    1.80   -36.64593   142.29219    40.59897
    10  H   1.0    0.07    1.03    1.43   -35.27644   136.47013    30.76588
    11  H   1.0    0.04    1.05    1.44   -38.58985   134.79617    34.70659
    12  H   1.0    0.04    1.03    1.43   -34.78631   137.81680    34.90736
    13  H   1.0    0.05    1.03    1.43   -36.70285   140.07245    33.39005
    14  H   1.0    0.07    1.03    1.43   -39.72828   139.89209    37.03915
    15  H   1.0    0.04    1.02    1.43   -37.65226   137.80377    38.60810
    16  N   5.0   -0.15    3.52    2.09   -41.55596   136.80327    30.19615
    17  C   4.0    0.03    4.58    4.64   -44.10175   137.31822    29.41974
    18  C   4.0    0.14    3.56    3.15   -45.26757   135.24156    27.82881
    19  O   6.0   -0.32    1.31    1.80   -47.56342   134.90830    27.89978
    20  C   4.0   -0.03    4.29    4.18   -44.28613   139.92670    28.25719
    21  C   4.0   -0.08    4.16    3.92   -46.77606   140.17781    26.84703
    22  C   4.0   -0.07    4.15    3.90   -43.97762   141.85651    30.37774
    23  H   1.0    0.07    1.07    1.44   -40.24639   136.72695    28.81554
    24  H   1.0    0.06    1.09    1.44   -45.23780   137.34924    31.15855
    25  H   1.0    0.03    1.06    1.44   -42.72222   140.14879    26.91679
    26  H   1.0    0.03    1.00    1.43   -47.02136   142.11130    26.19090
    27  H   1.0    0.05    1.01    1.43   -46.81570   138.93837    25.21033
    28  H   1.0    0.05    1.00    1.43   -48.35208   139.69007    28.06806
    29  H   1.0    0.03    1.00    1.43   -44.23571   143.75830    29.63496
    30  H   1.0    0.05    1.00    1.43   -45.34546   141.53763    31.87040
    31  H   1.0    0.05    1.01    1.43   -42.09192   141.75722    31.17534
    32  N   5.0   -0.16    3.50    2.08   -43.75411   133.70366    26.53214
    33  C   4.0    0.03    4.44    4.45   -44.82155   131.22700    26.02501
    34  C   4.0    0.15    3.43    3.09   -45.14886   129.82234    28.55740
    35  O   6.0   -0.31    1.26    1.80   -46.48057   127.94483    28.68387
    36  C   4.0   -0.05    4.15    3.89   -43.52539   129.66501    23.91258
    37  C   4.0   -0.03    4.12    3.84   -45.47911   128.64411    21.99170
    38  C   4.0    0.24    3.04    3.02   -44.50714   127.22910    19.52346
    39  O   6.0   -0.31    1.15    1.80   -42.89828   125.53116    19.80116
    40  O   6.0   -0.31    1.15    1.80   -45.52551   127.87793    17.49005
    41  H   1.0    0.07    1.06    1.44   -41.87832   133.98915    26.34140
    42  H   1.0    0.06    1.08    1.44   -46.77121   131.57678    25.39319
    43  H   1.0    0.04    1.03    1.43   -42.20873   130.91023    22.92390
    44  H   1.0    0.05    1.02    1.43   -42.44409   128.10748    24.71100
    45  H   1.0    0.05    1.02    1.43   -46.72302   127.30986    22.95854
    46  H   1.0    0.05    1.02    1.43   -46.63989   130.20845    21.30412
    47  N   5.0   -0.14    3.52    2.09   -44.12141   130.92527    30.60614
    48  C   4.0    0.04    4.42    4.41   -44.60469   129.91034    33.13196
    49  C   4.0    0.16    3.51    3.12   -47.36193   130.43845    33.72507
    50  O   6.0   -0.30    1.26    1.80   -48.89677   128.76696    34.11966
    51  C   4.0   -0.05    4.25    4.11   -43.00250   131.13864    35.24816
    52  C   4.0   -0.04    4.13    3.86   -40.67630   129.60154    36.01456
    53  C   4.0    0.24    3.07    3.02   -41.32944   127.15287    37.59393
    54  O   6.0   -0.30    1.16    1.80   -39.97830   126.78510    39.49810
    55  O   6.0   -0.30    1.17    1.80   -43.08419   125.77996    36.82360
    56  H   1.0    0.08    1.08    1.44   -42.53531   131.96939    30.37048
    57  H   1.0    0.07    1.06    1.44   -44.33083   127.85597    33.17577
    58  H   1.0    0.05    1.03    1.43   -42.42258   133.02829    34.65296
    59  H   1.0    0.05    1.04    1.43   -44.18047   131.33479    36.93332
    60  H   1.0    0.04    1.02    1.43   -39.62850   129.00532    34.33456
    61  H   1.0    0.04    1.02    1.43   -39.41630   130.73077    37.19256
    62  N   5.0   -0.14    3.54    2.11   -47.90283   132.91730    33.80220
    63  C   4.0    0.03    4.47    4.49   -50.31122   133.81685    34.69526
    64  C   4.0    0.16    3.57    3.15   -52.33891   132.58072    33.10582
    65  O   6.0   -0.32    1.31    1.80   -54.03551   131.29381    34.02538
    66  C   4.0   -0.05    4.29    4.19   -50.53720   136.67145    34.60730
    67  C   4.0   -0.05    4.22    4.04   -52.15080   137.47148    36.83235
    68  C   4.0   -0.01    4.20    4.00   -51.82546   140.26635    37.41612
    69  N   5.0   -0.15    3.39    2.02   -52.26544   140.78255    40.08443
    70  C   4.0    0.09    3.33    3.06   -54.18046   142.02949    41.13156
    71  N   5.0   -0.19    3.26    1.97   -56.14768   142.82082    39.79151
    72  N   5.0   -0.20    3.24    1.96   -54.18003   142.41339    43.63363
    73  H   1.0    0.08    1.07    1.44   -46.50124   134.18400    33.55783
    74  H   1.0    0.05    1.06    1.44   -50.58705   133.12725    36.63596
    75  H   1.0    0.04    1.03    1.43   -48.64963   137.48994    34.80201
    76  H   1.0    0.05    1.03    1.43   -51.33427   137.30326    32.81629
    77  H   1.0    0.04    1.02    1.43   -54.12413   136.98290    36.51899
    78  H   1.0    0.04    1.04    1.43   -51.50904   136.42609    38.49393
    79  H   1.0    0.04    1.03    1.43   -49.86427   140.79950    37.03686
    80  H   1.0    0.04    1.03    1.43   -53.02999   141.44987    36.24587
    81  H   1.0    0.07    1.07    1.44   -50.87605   140.16956    41.24563
    82  H   1.0    0.08    1.03    1.43   -56.29791   142.47556    37.92625
    83  H   1.0    0.08    1.03    1.43   -57.49813   143.91425    40.56885
    84  H   1.0    0.08    1.03    1.43   -52.61381   142.08274    44.66314
    85  H   1.0    0.07    1.03    1.43   -55.47556   143.58717    44.39216
    86  N   5.0   -0.13    3.58    2.14   -52.19595   132.91387    30.61863
    87  C   4.0    0.05    4.55    4.61   -54.35536   132.06269    29.18260
    88  C   4.0    0.15    3.34    3.06   -54.39513   129.22123    28.56209
    89  O   6.0   -0.31    1.23    1.80   -55.97878   128.35301    27.12691
    90  C   4.0    0.05    4.24    4.07   -54.72350   133.89513    26.98861
    91  O   6.0   -0.26    2.17    1.85   -54.42712   136.29527    28.14078
    92  C   4.0   -0.08    4.07    3.74   -57.29476   133.61095    25.71258
    93  H   1.0    0.11    1.08    1.44   -50.81572   133.91564    29.75199
    94  H   1.0    0.06    1.08    1.44   -56.00201   132.29693    30.44389
    95  H   1.0    0.05    1.03    1.43   -53.19685   133.58390    25.60483
    96  H   1.0    0.11    1.03    1.43   -54.86166   137.57778    26.91621
    97  H   1.0    0.03    1.00    1.43   -57.34338   134.72306    23.98661
    98  H   1.0    0.06    1.01    1.43   -57.62403   131.64225    25.24459
    99  H   1.0    0.04    1.00    1.43   -58.77965   134.26070    26.97082
   100  N   5.0   -0.13    3.50    2.08   -52.77546   127.78634    29.89305
   101  C   4.0    0.03    4.34    4.28   -52.76640   125.03527    30.04295
   102  C   4.0    0.14    3.43    3.09   -54.11683   124.07499    32.42481
   103  O   6.0   -0.33    1.27    1.80   -54.60448   121.80597    32.64612
   104  C   4.0   -0.03    4.26    4.12   -50.00831   124.08324    30.05906
   105  C   4.0   -0.05    4.14    3.87   -49.61047   121.20705    30.12774
   106  C   4.0   -0.01    4.16    3.92   -49.68773   119.91681    27.50721
   107  N   5.0   -0.15    3.36    2.01   -47.98022   117.73897    27.32664
   108  C   4.0    0.09    3.32    3.06   -45.64506   117.70570    26.36421
   109  N   5.0   -0.19    3.25    1.97   -44.43988   119.84570    25.80585
   110  N   5.0   -0.20    3.23    1.96   -44.43268   115.50534    26.06492
   111  H   1.0    0.11    1.10    1.44   -51.38388   128.62485    30.89932
   112  H   1.0    0.06    1.05    1.44   -53.79443   124.30459    28.40164
   113  H   1.0    0.07    1.04    1.44   -49.06676   124.88433    28.41691
   114  H   1.0    0.07    1.03    1.43   -49.10485   124.95070    31.69759
   115  H   1.0    0.05    1.03    1.43   -47.72888   120.89692    30.90607
   116  H   1.0    0.06    1.04    1.43   -51.03587   120.35143    31.33843
   117  H   1.0    0.04    1.02    1.43   -51.58618   119.22582    27.11395
   118  H   1.0    0.04    1.03    1.43   -49.20427   121.28144    26.03690
   119  H   1.0    0.07    1.07    1.44   -48.73858   116.06186    27.83568
   120  H   1.0    0.09    1.03    1.43   -45.28233   121.53458    26.06299
   121  H   1.0    0.08    1.03    1.43   -42.83331   119.85958    24.78994
   122  H   1.0    0.07    1.03    1.43   -45.37601   113.85605    26.18124
   123  H   1.0    0.07    1.03    1.43   -42.75684   115.49249    25.16256
   124  N   5.0   -0.14    3.52    2.09   -54.67228   125.75947    34.23358
   125  C   4.0    0.03    4.42    4.42   -56.37564   125.03245    36.24870
   126  C   4.0    0.14    3.47    3.10   -59.08366   125.52957    35.33233
   127  O   6.0   -0.33    1.36    1.80   -60.80719   124.08220    35.88696
   128  C   4.0   -0.05    4.18    3.97   -55.65535   126.02096    38.87553
   129  C   4.0   -0.04    4.16    3.92   -52.89879   125.50269    39.62508
   130  C   4.0   -0.05    4.14    3.87   -51.83698   122.85976    38.98339
   131  C   4.0   -0.03    4.12    3.85   -49.29494   123.13405    37.61091
   132  N   5.0   -0.12    3.99    2.84   -48.17847   120.65438    36.81204
   133  H   1.0    0.11    1.09    1.44   -54.09146   127.58546    34.13935
   134  H   1.0    0.06    1.09    1.44   -56.31842   122.95780    36.33900
   135  H   1.0    0.05    1.03    1.43   -55.96054   128.05638    38.95578
   136  H   1.0    0.04    1.03    1.43   -56.94484   125.15514    40.22972
   137  H   1.0    0.05    1.04    1.43   -51.71630   126.90449    38.68221
   138  H   1.0    0.05    1.03    1.43   -52.73588   125.83360    41.64970
   139  H   1.0    0.05    1.03    1.43   -51.59531   121.76904    40.71056
   140  H   1.0    0.05    1.03    1.43   -53.12596   121.82425    37.76262
   141  H   1.0    0.06    1.02    1.43   -49.52996   124.30798    35.93428
   142  H   1.0    0.06    1.02    1.43   -47.92564   124.07273    38.83168
   143  H   1.0    0.06    1.02    1.43   -46.38809   121.00204    36.12882
   144  H   1.0    0.06    1.02    1.43   -48.03358   119.46489    38.34962
   145  H   1.0    0.05    1.02    1.43   -49.27637   119.79678    35.44888
   146  N   5.0   -0.15    3.57    2.13   -59.46541   127.28784    33.56880
   147  C   4.0    0.04    4.55    4.61   -61.91889   127.36529    32.35378
   148  C   4.0    0.16    3.48    3.11   -62.48557   125.09397    30.71772
   149  O   6.0   -0.31    1.25    1.80   -64.47742   124.97804    29.59753
   150  C   4.0   -0.04    4.42    4.41   -62.23639   129.65755    30.70209
   151  C   4.0   -0.02    4.21    4.02   -62.82257   131.93609    32.33923
   152  C   4.0   -0.07    4.15    3.90   -61.03594   132.22465    34.62155
   153  C   4.0   -0.07    4.11    3.82   -62.76067   134.30424    30.69085
   154  H   1.0    0.09    1.07    1.44   -58.15285   128.59503    33.11961
   155  H   1.0    0.05    1.07    1.44   -63.39442   127.35977    33.81605
   156  H   1.0    0.05    1.03    1.43   -60.51557   129.94697    29.59346
   157  H   1.0    0.05    1.04    1.43   -63.78506   129.32901    29.38798
   158  H   1.0    0.04    1.06    1.44   -64.73478   131.72794    33.09474
   159  H   1.0    0.04    1.00    1.43   -61.50229   134.00044    35.54982
   160  H   1.0    0.04    1.01    1.43   -61.28256   130.73220    36.00232
   161  H   1.0    0.05    1.00    1.43   -59.06426   132.32628    34.05024
   162  H   1.0    0.05    1.01    1.43   -63.64782   135.87257    31.67306
   163  H   1.0    0.04    1.00    1.43   -60.81145   134.81663    30.28134
   164  H   1.0    0.04    1.00    1.43   -63.75931   134.00006    28.92548
   165  N   5.0   -0.13    3.51    2.09   -60.67274   123.33409    30.55275
   166  C   4.0    0.04    4.44    4.45   -61.21915   120.73924    30.01263
   167  C   4.0    0.15    3.47    3.10   -61.74067   119.24106    32.45664
   168  O   6.0   -0.31    1.36    1.80   -63.86071   118.33498    32.70339
   169  C   4.0   -0.05    4.26    4.13   -59.14213   119.49186    28.46232
   170  C   4.0   -0.04    4.24    4.07   -59.94308   116.79309    27.76275
   171  C   4.0    0.15    3.23    3.04   -62.37518   116.74744    26.19781
   172  O   6.0   -0.30    1.19    1.80   -64.39064   115.96325    27.00086
   173  N   5.0   -0.19    3.19    1.95   -62.11639   117.69607    23.84703
   174  H   1.0    0.10    1.11    1.45   -59.00378   123.67560    31.40362
   175  H   1.0    0.07    1.07    1.44   -63.00106   120.70176    28.95768
   176  H   1.0    0.05    1.03    1.43   -58.83794   120.61648    26.76167
   177  H   1.0    0.05    1.03    1.43   -57.39264   119.45119    29.55318
   178  H   1.0    0.03    1.03    1.43   -58.45617   115.88696    26.66217
   179  H   1.0    0.05    1.03    1.43   -60.27477   115.67848    29.46300
   180  H   1.0    0.07    1.03    1.43   -60.38699   118.03727    23.13258
   181  H   1.0    0.09    1.03    1.43   -63.57344   117.56069    22.62947
   182  N   5.0   -0.14    3.42    2.03   -59.91988   118.98228    34.22158
   183  C   4.0    0.03    4.29    4.18   -60.24614   117.34676    36.45669
   184  C   4.0    0.16    3.36    3.07   -62.67128   118.00710    38.03739
   185  O   6.0   -0.30    1.20    1.80   -63.42702   116.61105    39.72332
   186  C   4.0   -0.04    4.15    3.89   -57.70570   116.89587    37.90804
   187  C   4.0   -0.03    4.15    3.91   -57.23747   118.26510    40.44528
   188  C   4.0    0.14    3.19    3.03   -55.19077   117.08536    42.14364
   189  O   6.0   -0.30    1.20    1.80   -54.81755   114.82193    42.38566
   190  N   5.0   -0.19    3.19    1.95   -53.69714   118.76902    43.36626
   191  H   1.0    0.09    1.06    1.44   -58.19395   119.75982    33.92624
   192  H   1.0    0.06    1.06    1.44   -60.80931   115.48725    35.70303
   193  H   1.0    0.06    1.03    1.43   -57.61055   114.87831    38.32596
   194  H   1.0    0.05    1.03    1.43   -56.17595   117.33982    36.60258
   195  H   1.0    0.04    1.03    1.43   -56.77360   120.24521    40.15605
   196  H   1.0    0.06    1.03    1.43   -58.97588   118.15591    41.56084
   197  H   1.0    0.10    1.03    1.43   -54.30228   120.52011    43.85662
   198  H   1.0    0.09    1.04    1.43   -52.52750   117.99871    44.66395
   199  N   5.0   -0.12    3.62    2.18   -63.96041   120.02916    37.20708
   200  C   4.0    0.04    4.45    4.46   -66.27369   120.90047    38.31268
   201  C   4.0    0.15    3.48    3.11   -68.53046   120.57166    36.59866
   202  O   6.0   -0.32    1.33    1.80   -70.56379   119.99673    37.54166
   203  C   4.0   -0.03    4.32    4.23   -65.92160   123.61190    39.19695
   204  C   4.0   -0.01    3.52    3.12   -64.18660   123.63717    41.49513
   205  C   4.0   -0.05    3.47    3.10   -65.12379   124.43288    43.82258
   206  C   4.0   -0.03    3.48    3.10   -61.65534   122.85987    41.49067
   207  C   4.0   -0.04    3.46    3.10   -63.68841   124.46054    46.01686
   208  C   4.0   -0.05    3.42    3.09   -60.15836   122.96501    43.65491
   209  C   4.0    0.07    3.43    3.09   -61.14715   123.81383    45.94613
   210  O   6.0   -0.24    2.12    1.84   -59.76675   124.07384    48.09534
   211  H   1.0    0.11    1.14    1.45   -63.00319   121.33619    36.18868
   212  H   1.0    0.07    1.07    1.44   -66.67632   119.69285    39.95528
   213  H   1.0    0.06    1.03    1.43   -65.10100   124.71989    37.66496
   214  H   1.0    0.04    1.03    1.43   -67.74460   124.41644    39.70668
   215  H   1.0    0.04    1.03    1.43   -67.08699   124.98192    43.96600
   216  H   1.0    0.07    1.05    1.44   -60.79444   122.26944    39.74912
   217  H   1.0    0.05    1.04    1.43   -64.56995   124.85183    47.80609
   218  H   1.0    0.06    1.03    1.43   -58.18309   122.46361    43.61287
   219  H   1.0    0.15    1.08    1.44   -57.97876   123.79551    47.70021
   220  N   5.0   -0.14    3.56    2.13   -68.34335   120.87975    34.10590
   221  C   4.0    0.04    4.44    4.45   -70.40544   119.88981    32.55619
   222  C   4.0    0.15    3.45    3.09   -70.65783   117.03316    33.09290
   223  O   6.0   -0.32    1.28    1.80   -72.70633   116.20457    33.85818
   224  C   4.0   -0.05    4.22    4.04   -69.99120   120.65688    29.79352
   225  C   4.0   -0.05    4.12    3.83   -72.42896   120.99840    28.24686
   226  C   4.0   -0.01    4.12    3.85   -71.84721   121.42370    25.39412
   227  N   5.0   -0.15    3.33    1.99   -74.08811   122.20300    23.88733
   228  C   4.0    0.08    3.30    3.05   -74.42551   122.24408    21.37057
   229  N   5.0   -0.20    3.24    1.96   -72.72189   121.25772    19.80234
   230  N   5.0   -0.20    3.23    1.96   -76.48638   123.33491    20.36893
   231  H   1.0    0.11    1.09    1.44   -66.62817   120.93515    33.26580
   232  H   1.0    0.05    1.07    1.44   -72.16785   120.70007    33.25838
   233  H   1.0    0.06    1.04    1.43   -68.96449   122.44930    29.83034
   234  H   1.0    0.06    1.02    1.43   -68.77702   119.25373    28.88595
   235  H   1.0    0.04    1.02    1.43   -73.60815   119.32063    28.45740
   236  H   1.0    0.04    1.02    1.43   -73.47237   122.61486    28.98100
   237  H   1.0    0.04    1.02    1.43   -70.40498   122.90022    25.24888
   238  H   1.0    0.04    1.02    1.43   -71.09283   119.66457    24.62919
   239  H   1.0    0.07    1.07    1.44   -75.48113   122.97406    24.94505
   240  H   1.0    0.08    1.03    1.43   -71.09045   120.54149    20.47184
   241  H   1.0    0.07    1.03    1.43   -72.96359   121.33530    17.91825
   242  H   1.0    0.07    1.03    1.43   -77.92235   123.91792    21.47131
   243  H   1.0    0.07    1.03    1.43   -76.81017   123.19209    18.49908
   244  N   5.0   -0.14    3.44    2.04   -68.58228   115.61569    32.83284
   245  C   4.0    0.03    4.36    4.31   -68.37709   112.87322    33.16618
   246  C   4.0    0.16    3.41    3.08   -68.22944   112.16274    35.99209
   247  O   6.0   -0.30    1.24    1.80   -66.78328   110.59776    36.85763
   248  C   4.0   -0.03    4.21    4.01   -66.16140   111.61105    31.76543
   249  C   4.0   -0.03    4.10    3.80   -66.73825   110.18139    29.29494
   250  C   4.0    0.24    3.05    3.02   -65.80638   107.33024    29.06805
   251  O   6.0   -0.30    1.16    1.80   -65.73362   106.46854    26.86666
   252  O   6.0   -0.29    1.16    1.80   -65.30392   106.14615    31.03872
   253  H   1.0    0.11    1.10    1.44   -66.94278   116.48295    32.33393
   254  H   1.0    0.05    1.05    1.44   -70.17555   112.04443    32.52455
   255  H   1.0    0.06    1.03    1.43   -64.72135   113.04310    31.40869
   256  H   1.0    0.08    1.06    1.44   -65.36019   110.22371    33.07691
   257  H   1.0    0.05    1.03    1.43   -68.77756   110.04554    28.99529
   258  H   1.0    0.06    1.02    1.43   -65.94401   111.18621    27.68116
   259  N   5.0   -0.14    3.52    2.09   -70.01323   113.40787    37.29909
   260  C   4.0    0.04    4.40    4.38   -70.99200   112.56254    39.70350
   261  C   4.0    0.14    3.53    3.13   -73.45852   113.90695    40.39718
   262  O   6.0   -0.29    1.44    1.80   -75.03474   112.65310    41.54004
   263  C   4.0   -0.03    4.26    4.11   -68.94845   112.49961    41.75114
   264  C   4.0   -0.04    4.03    3.67   -69.97404   111.93875    44.39545
   265  S   6.0   -0.03    2.42    3.10   -72.03847   109.11538    44.95507
   266  C   4.0   -0.08    3.87    3.42   -70.95932   108.24346    48.14754
   267  H   1.0    0.12    1.18    1.46   -71.22134   114.49673    36.27588
   268  H   1.0    0.06    1.07    1.44   -71.60163   110.57696    39.52139
   269  H   1.0    0.06    1.03    1.43   -67.54295   111.10808    41.16905
   270  H   1.0    0.06    1.03    1.43   -68.00491   114.33696    41.82065
   271  H   1.0    0.04    1.07    1.44   -68.37575   111.70873    45.66825
   272  H   1.0    0.05    1.07    1.44   -71.11264   113.55032    44.96723
   273  H   1.0    0.03    1.05    1.44   -72.33815   106.87162    48.79065
   274  H   1.0    0.03    1.03    1.43   -69.09195   107.40513    48.03458
   275  H   1.0    0.03    1.03    1.43   -70.95455   109.91221    49.33399
   276  N   5.0   -0.14    3.46    2.05   -74.09001   116.19038    39.52256
   277  C   4.0    0.04    4.46    4.47   -76.77367   116.68563    39.64633
   278  C   4.0    0.10    3.46    3.10   -78.13680   114.35033    38.70182
   279  O   6.0   -0.30    1.12    1.80   -79.74888   113.10376    39.78292
   280  C   4.0   -0.05    4.45    4.46   -77.66558   118.70640    37.83631
   281  C   4.0   -0.02    4.21    4.03   -77.24867   121.33701    38.84898
   282  C   4.0   -0.08    4.14    3.89   -78.85826   123.07969    37.23028
   283  C   4.0   -0.08    4.14    3.89   -77.94868   121.60063    41.62198
   284  H   1.0    0.11    1.08    1.44   -72.89012   117.48288    38.77233
   285  H   1.0    0.05    1.06    1.44   -77.34381   117.02864    41.59983
   286  H   1.0    0.05    1.03    1.43   -76.68694   118.52334    36.03544
   287  H   1.0    0.04    1.05    1.44   -79.69049   118.43004    37.52185
   288  H   1.0    0.05    1.05    1.44   -75.24612   121.82412    38.65400
   289  H   1.0    0.03    1.00    1.43   -78.41444   125.04149    37.64577
   290  H   1.0    0.04    1.00    1.43   -78.54965   122.72993    35.23450
   291  H   1.0    0.03    1.01    1.43   -80.83108   122.75065    37.67554
   292  H   1.0    0.03    1.00    1.43   -77.94896   123.59047    42.14754
   293  H   1.0    0.03    1.00    1.43   -79.82743   120.86096    41.99326
   294  H   1.0    0.04    1.00    1.43   -76.59644   120.64688    42.83369
   295  N   5.0   -0.23    3.16    1.95   -62.39668   122.94120    57.40427
   296  C   4.0    0.02    4.23    4.06   -60.45582   122.71131    55.42620
   297  C   4.0    0.15    3.38    3.07   -60.22834   125.17248    53.84164
   298  O   6.0   -0.31    1.31    1.80   -58.12744   125.74405    53.03383
   299  C   4.0   -0.05    4.15    3.89   -60.56040   120.26006    53.82683
   300  C   4.0   -0.03    3.95    3.54   -58.26882   119.92727    51.96936
   301  S   6.0   -0.06    2.31    3.10   -56.16165   116.99437    52.02846
   302  C   4.0   -0.06    3.87    3.42   -54.66681   117.00019    48.92886
   303  H   1.0    0.07    1.01    1.43   -63.85425   121.69659    57.57344
   304  H   1.0    0.04    1.06    1.44   -58.62970   122.66755    56.42590
   305  H   1.0    0.03    1.02    1.43   -60.65692   118.67483    55.14186
   306  H   1.0    0.04    1.02    1.43   -62.28812   120.28013    52.70389
   307  H   1.0    0.05    1.07    1.44   -58.99078   119.90091    50.04625
   308  H   1.0    0.07    1.06    1.44   -56.96085   121.50084    52.16609
   309  H   1.0    0.04    1.05    1.44   -52.92738   115.94280    49.12884
   310  H   1.0    0.05    1.04    1.43   -55.91717   116.11358    47.56542
   311  H   1.0    0.07    1.05    1.44   -54.25919   118.95408    48.45453
   312  N   5.0   -0.15    3.38    2.01   -62.24696   126.64645    53.46686
   313  C   4.0    0.03    4.36    4.32   -61.94953   129.20665    52.52081
   314  C   4.0    0.09    3.34    3.06   -60.12612   130.85537    53.99320
   315  O   6.0   -0.28    1.13    1.80   -58.30945   131.82524    52.93542
   316  C   4.0   -0.05    4.43    4.43   -64.28818   130.89003    52.69139
   317  C   4.0   -0.03    4.17    3.94   -66.24037   130.65046    50.59462
   318  C   4.0   -0.08    4.11    3.83   -67.67835   133.15457    50.37593
   319  C   4.0   -0.08    4.15    3.91   -65.03110   129.97989    48.08436
   320  H   1.0    0.07    1.06    1.44   -63.89435   126.23515    54.36792
   321  H   1.0    0.06    1.06    1.44   -61.16874   129.08746    50.61058
   322  H   1.0    0.03    1.03    1.43   -65.18155   130.57026    54.52173
   323  H   1.0    0.06    1.06    1.44   -63.59167   132.83672    52.67000
   324  H   1.0    0.03    1.05    1.44   -67.57115   129.14637    51.10720
   325  H   1.0    0.04    1.00    1.43   -69.16795   132.97233    48.97575
   326  H   1.0    0.03    1.00    1.43   -68.51183   133.66047    52.18498
   327  H   1.0    0.05    1.00    1.43   -66.41785   134.66859    49.79700
   328  H   1.0    0.04    1.00    1.43   -66.46893   129.76079    46.63409
   329  H   1.0    0.04    1.00    1.43   -63.75709   131.48379    47.50951
   330  H   1.0    0.04    1.03    1.43   -63.95035   128.26117    48.20233
   331  N   5.0   -0.20    3.19    1.95   -53.21155   127.75159    53.83702
   332  C   4.0    0.04    4.17    3.93   -51.98622   128.06927    51.39334
   333  C   4.0    0.08    3.18    3.03   -51.34684   130.89352    50.96210
   334  O   6.0   -0.30    1.11    1.80   -49.67089   131.56575    49.52148
   335  C   4.0   -0.02    4.20    4.01   -53.55704   127.01884    49.18220
   336  C   4.0    0.25    3.07    3.02   -53.51931   124.07477    48.69092
   337  O   6.0   -0.31    1.16    1.80   -52.44470   122.63649    50.18980
   338  O   6.0   -0.33    1.23    1.80   -54.65485   123.39555    46.70733
   339  H   1.0    0.12    1.07    1.44   -55.03416   127.15952    53.79608
   340  H   1.0    0.05    1.05    1.44   -50.15167   127.09598    51.44097
   341  H   1.0    0.06    1.03    1.43   -55.53683   127.53445    49.45762
   342  H   1.0    0.05    1.03    1.43   -52.88001   127.87874    47.43568
   343  N   5.0   -0.19    3.24    1.96   -55.36272   136.64971    50.02144
   344  C   4.0    0.03    4.43    4.42   -57.75028   137.47127    48.99547
   345  C   4.0    0.15    3.38    3.07   -59.80796   138.19351    50.94957
   346  O   6.0   -0.29    1.20    1.80   -60.50635   136.88327    52.71367
   347  C   4.0   -0.02    4.38    4.34   -58.68372   135.29070    47.33425
   348  C   4.0   -0.05    4.19    3.98   -56.83111   134.72731    45.15999
   349  C   4.0   -0.07    4.17    3.93   -61.33675   135.92178    46.42452
   350  C   4.0   -0.07    4.01    3.64   -55.82780   132.02940    45.26908
   351  H   1.0    0.08    1.06    1.44   -54.53679   135.27528    48.98148
   352  H   1.0    0.03    1.06    1.44   -57.39275   139.15129    47.83093
   353  H   1.0    0.06    1.06    1.44   -58.79378   133.64110    48.58464
   354  H   1.0    0.04    1.03    1.43   -57.81501   134.98099    43.37005
   355  H   1.0    0.04    1.03    1.43   -55.24701   136.04350    45.19888
   356  H   1.0    0.04    1.00    1.43   -62.00801   134.50317    45.09853
   357  H   1.0    0.06    1.01    1.43   -62.63656   135.95011    48.01733
   358  H   1.0    0.04    1.02    1.43   -61.40045   137.75903    45.55149
   359  H   1.0    0.04    1.00    1.43   -54.56171   131.64398    43.69918
   360  H   1.0    0.05    1.00    1.43   -54.81314   131.67368    47.02184
   361  H   1.0    0.04    1.00    1.43   -57.37986   130.68228    45.17795
   362  N   5.0   -0.14    3.46    2.05   -60.86643   140.44881    50.36736
   363  C   4.0    0.03    4.23    4.07   -63.04210   141.61111    51.56270
   364  C   4.0    0.08    3.22    3.04   -65.56638   140.77546    50.39223
   365  O   6.0   -0.31    1.15    1.80   -65.71546   139.72152    48.33506
   366  C   4.0   -0.04    4.24    4.07   -62.83183   144.50024    51.25364
   367  C   4.0    0.24    3.08    3.02   -65.27280   146.12733    51.84344
   368  O   6.0   -0.31    1.15    1.80   -65.42610   147.11152    53.97658
   369  O   6.0   -0.30    1.16    1.80   -66.81362   146.38765    50.08531
   370  H   1.0    0.07    1.09    1.44   -60.34118   141.27991    48.73729
   371  H   1.0    0.05    1.05    1.44   -63.01227   141.07873    53.55962
   372  H   1.0    0.04    1.02    1.43   -61.31475   145.19747    52.46571
   373  H   1.0    0.05    1.03    1.43   -62.37290   144.91610    49.28212
   374  N   5.0   -0.21    3.21    1.96   -70.54782   147.71514    43.06829
   375  C   4.0    0.02    4.28    4.15   -69.88969   147.47334    40.40823
   376  C   4.0    0.15    3.45    3.09   -69.36863   144.73205    39.65327
   377  O   6.0   -0.32    1.33    1.80   -70.13860   143.88133    37.63205
   378  C   4.0   -0.04    4.23    4.06   -67.56519   149.14312    39.82643
   379  C   4.0   -0.03    4.12    3.85   -67.15833   149.70148    37.01709
   380  C   4.0    0.24    3.06    3.02   -64.68995   151.31523    36.43719
   381  O   6.0   -0.30    1.16    1.80   -62.63250   150.34943    37.05543
   382  O   6.0   -0.31    1.15    1.80   -65.00919   153.39204    35.37226
   383  H   1.0    0.08    1.03    1.43   -69.47918   148.86526    44.15047
   384  H   1.0    0.04    1.05    1.44   -71.49263   148.13298    39.26861
   385  H   1.0    0.04    1.03    1.43   -67.80050   150.93809    40.82168
   386  H   1.0    0.05    1.03    1.43   -65.87538   148.22209    40.58186
   387  H   1.0    0.05    1.02    1.43   -66.95807   147.91815    35.99449
   388  H   1.0    0.04    1.02    1.43   -68.75428   150.74219    36.24514
   389  N   5.0   -0.15    3.49    2.07   -67.84814   143.37905    41.14129
   390  C   4.0    0.03    4.39    4.36   -67.07907   140.90429    40.26760
   391  C   4.0    0.09    3.30    3.05   -69.40930   139.35923    39.72437
   392  O   6.0   -0.32    1.20    1.80   -69.62447   137.81120    38.00353
   393  C   4.0   -0.05    4.34    4.26   -65.29747   139.70377    42.17640
   394  C   4.0   -0.02    4.18    3.97   -62.67130   140.96184    41.95382
   395  C   4.0   -0.08    4.09    3.79   -61.95857   142.31737    44.40600
   396  C   4.0   -0.08    4.09    3.78   -60.66574   139.07462    41.03471
   397  H   1.0    0.08    1.06    1.44   -67.59138   143.79622    42.99076
   398  H   1.0    0.05    1.06    1.44   -66.10192   141.13753    38.44853
   399  H   1.0    0.06    1.04    1.43   -66.08273   139.89782    44.06835
   400  H   1.0    0.04    1.03    1.43   -65.17184   137.68926    41.75654
   401  H   1.0    0.04    1.07    1.44   -62.81163   142.42874    40.50059
   402  H   1.0    0.03    1.00    1.43   -59.92483   142.30246    44.70476
   403  H   1.0    0.04    1.00    1.43   -62.58598   144.27971    44.34565
   404  H   1.0    0.06    1.02    1.43   -62.90457   141.44664    45.99751
   405  H   1.0    0.04    1.01    1.43   -58.80729   139.55092    41.74761
   406  H   1.0    0.03    1.00    1.43   -61.10494   137.16335    41.62289
   407  H   1.0    0.04    1.00    1.43   -60.61498   139.07257    38.98117
   408  N   5.0   -0.20    3.24    1.97   -72.02180   140.81222    33.65119
   409  C   4.0    0.03    4.29    4.17   -70.53278   139.96401    31.52325
   410  C   4.0    0.15    3.46    3.10   -71.30686   137.34176    30.59755
   411  O   6.0   -0.31    1.23    1.80   -71.27418   136.80323    28.34375
   412  C   4.0    0.04    4.17    3.94   -67.72438   139.84467    32.24063
   413  O   6.0   -0.26    2.09    1.84   -67.09572   137.68496    33.59868
   414  H   1.0    0.12    1.06    1.44   -71.10778   141.60500    35.13850
   415  H   1.0    0.04    1.05    1.44   -70.79605   141.28568    29.94286
   416  H   1.0    0.04    1.02    1.43   -66.60786   139.78804    30.50260
   417  H   1.0    0.04    1.01    1.43   -67.24019   141.57731    33.28939
   418  H   1.0    0.16    1.08    1.44   -67.98672   137.66282    35.22884
   419  N   5.0   -0.14    3.47    2.06   -71.87742   135.67479    32.41378
   420  C   4.0    0.04    4.35    4.30   -72.87921   133.25307    31.71071
   421  C   4.0    0.07    3.19    3.04   -75.76842   133.33322    31.31279
   422  O   6.0   -0.31    1.13    1.80   -76.96421   131.36179    31.20356
   423  C   4.0   -0.04    4.33    4.26   -72.09819   131.11884    33.49316
   424  C   4.0   -0.04    4.06    3.73   -70.37350   129.24250    32.16975
   425  S   6.0   -0.03    2.59    3.10   -69.88237   126.37339    33.97524
   426  C   4.0   -0.07    3.91    3.48   -73.11332   125.29361    34.21312
   427  H   1.0    0.09    1.07    1.44   -72.08247   136.25359    34.22701
   428  H   1.0    0.06    1.08    1.44   -72.13149   132.88056    29.80590
   429  H   1.0    0.05    1.03    1.43   -71.18888   131.91127    35.16418
   430  H   1.0    0.05    1.05    1.44   -73.83553   130.17683    34.08003
   431  H   1.0    0.05    1.07    1.44   -71.17915   128.70608    30.35097
   432  H   1.0    0.04    1.07    1.44   -68.51064   130.05852    31.85920
   433  H   1.0    0.05    1.05    1.44   -73.06520   123.56327    35.30534
   434  H   1.0    0.04    1.04    1.43   -74.24789   126.66284    35.23850
   435  H   1.0    0.04    1.04    1.43   -73.90175   125.00397    32.34572
   436  H   1.0    0.08    1.07    1.44   -36.10544   133.83988    31.70093
   437  H   1.0    0.06    1.06    1.44   -77.74409   113.65494    36.98914
   438  H   1.0    0.08    1.07    1.44   -61.65983   122.85907    58.93491
   439  H   1.0    0.05    1.05    1.44   -60.40305   131.15617    55.83816
   440  H   1.0    0.09    1.07    1.44   -52.36254   126.59630    54.75193
   441  H   1.0    0.06    1.05    1.44   -52.31775   132.23238    51.87634
   442  H   1.0    0.09    1.07    1.44   -54.28813   137.96652    50.08331
   443  H   1.0    0.06    1.05    1.44   -67.18516   141.08590    51.31648
   444  H   1.0    0.08    1.07    1.44   -72.13122   148.31986    43.20869
   445  H   1.0    0.06    1.05    1.44   -70.94543   139.55329    40.80775
   446  H   1.0    0.09    1.07    1.44   -73.12718   141.99695    33.13439
   447  H   1.0    0.05    1.04    1.43   -76.65345   134.99450    31.14562

  Z AO/shell   Hii/eV     exponent
  1     Wed Apr 25 08:07:45 CEST 2018   EN: 2.200 GM2: 0.406  GM3: 0.0800  RAES: 1.40
     1s    -10.707211    1.230000
  6     Wed Apr 25 08:07:45 CEST 2018   EN: 2.550 GM2: 0.538  GM3: 0.1500  RAES: 3.00
     2s    -13.970922    2.096432
     2p    -10.063292    1.800000
  7     Wed Apr 25 08:07:45 CEST 2018   EN: 3.040 GM2: 0.461  GM3:-0.0640  RAES: 1.90
     2s    -16.686243    2.339881
     2p    -12.523956    2.014332
  8     Wed Apr 25 08:07:45 CEST 2018   EN: 3.440 GM2: 0.452  GM3:-0.0517  RAES: 1.80
     2s    -20.229985    2.439742
     2p    -15.503117    2.137023
 16     Tue Apr 24 11:44:34 CEST 2018   EN: 2.580 GM2: 0.340  GM3:-0.0502  RAES: 3.10
     3s    -20.029654    1.981333
     3p    -11.377694    2.025643
     3d     -0.420282    1.702555
 no old-style atom pair restraining (fixing) potential

molecular fragmentation (1/2 indicates fragments):
111111111111111111111111111111111111111111111111111111111111111111111111
111111111111111111111111111111111111111111111111111111111111111111111111
111111111111111111111111111111111111111111111111111111111111111111111111
111111111111111111111111111111111111111111111111111111111111111111111111
111111222222222222222222222222222222222222222222222222222222222222222222
222222222222222222222222222222222222222222222222222222222222222222222222
222112222222222
# atoms in fragment 1/2:   296   151
 fragment masses (1/2) :     2092.39     1055.29
CMA distance (Bohr)    :  15.955
constraining FC (au)   :  0.0500
           ------------------------------------------------- 
          |        Self-Consistent Charge Iterations        |
           ------------------------------------------------- 

 Ncao       : 1116
 Nao        : 1113
 Nshell     : 667
 Nel        : 1232
 T(el)      :   500.0
 intcut     :    35.0
 scfconv/Eh :  0.100E-06
   qconv/e  :  0.100E-04
 intneglect :  0.100E-08
 broydamp   :      0.400
 iter      E             dE          RMSdq      gap      omega  full diag
   1   -706.2063937 -0.706206E+03  0.477E+00    3.26       0.0  T
   2   -708.1017663 -0.189537E+01  0.221E+00    1.68       1.0  T
   3   -708.2258246 -0.124058E+00  0.127E+00    1.86       1.0  T
   4   -708.3398977 -0.114073E+00  0.263E-01    1.28       1.0  T
   5   -708.3459357 -0.603798E-02  0.136E-01    1.39       1.0  T
   6   -708.3469430 -0.100726E-02  0.563E-02    1.33       1.0  T
   7   -708.3472932 -0.350230E-03  0.242E-02    1.31       1.0  T
   8   -708.3473331 -0.399214E-04  0.125E-02    1.30       1.0  T
   9   -708.3473517 -0.186321E-04  0.539E-03    1.29       1.0  T
  10   -708.3473540 -0.231275E-05  0.244E-03    1.28       1.9  T
  11   -708.3473546 -0.557010E-06  0.997E-04    1.28       4.7  T
  12   -708.3473547 -0.670802E-07  0.460E-04    1.28      10.3  T
  13   -708.3473547 -0.174227E-07  0.220E-04    1.28      21.5  T
  14   -708.3473547 -0.347814E-08  0.960E-05    1.28      49.3  T
  15   -708.3473547 -0.955424E-09  0.453E-05    1.28     104.4  T
speedup  1.89
cpu  time for SCC   13.66 s
wall time for SCC    7.23 s

   *** convergence criteria satisfied after 15 iterations ***

          eigenvalues
 #    :         604        605        606        607        608        609        610        611
 occ. :        2.000      2.000      2.000      2.000      2.000      2.000      2.000      2.000
 eps  :       -10.006     -9.924     -9.822     -9.785     -9.730     -9.661     -9.655     -9.645
 #    :         612        613        614        615        616        617        618        619
 occ. :        2.000      2.000      2.000      2.000      2.000      0.000      0.000      0.000
 eps  :        -9.631     -9.501     -9.398     -9.367     -9.261     -7.980     -7.922     -7.634
 #    :         620        621        622        623        624        625        626        627
 occ. :        0.000      0.000      0.000      0.000      0.000      0.000      0.000      0.000
 eps  :        -7.544     -7.271     -7.200     -6.877     -6.620     -6.618     -6.586     -6.569


   #   Z            q   n(s)   n(p)   n(d)      C6AA      α(0)
   1   7 N     -0.395  1.313  4.082  0.000    30.242     8.167
   2   6 C      0.032  1.056  2.911  0.000    20.046     6.377
   3   6 C      0.273  1.047  2.680  0.000    22.394     7.750
   4   8 O     -0.479  1.747  4.732  0.000    23.319     6.474
   5   6 C     -0.040  1.050  2.990  0.000    21.277     6.566
   6   6 C     -0.099  1.071  3.028  0.000    22.407     6.742
   7   6 C      0.363  1.038  2.599  0.000    20.847     7.471
   8   8 O     -0.643  1.773  4.869  0.000    27.194     6.992
   9   8 O     -0.651  1.779  4.872  0.000    27.405     7.019
  10   1 H      0.166  0.834  0.000  0.000     1.295     1.783
  11   1 H      0.035  0.965  0.000  0.000     2.519     2.482
  12   1 H      0.022  0.978  0.000  0.000     2.710     2.575
  13   1 H      0.027  0.973  0.000  0.000     2.630     2.536
  14   1 H      0.039  0.961  0.000  0.000     2.457     2.451
  15   1 H      0.003  0.997  0.000  0.000     3.010     2.713
  16   7 N     -0.198  1.251  3.948  0.000    25.309     7.472
  17   6 C      0.014  1.059  2.928  0.000    20.329     6.417
  18   6 C      0.268  1.044  2.689  0.000    22.486     7.767
  19   8 O     -0.471  1.734  4.736  0.000    23.147     6.450
  20   6 C     -0.014  1.058  2.956  0.000    20.789     6.485
  21   6 C     -0.122  1.040  3.082  0.000    22.883     6.820
  22   6 C     -0.110  1.039  3.072  0.000    22.660     6.786
  23   1 H      0.211  0.789  0.000  0.000     1.053     1.608
  24   1 H      0.084  0.916  0.000  0.000     1.936     2.176
  25   1 H      0.041  0.959  0.000  0.000     2.435     2.440
  26   1 H      0.058  0.942  0.000  0.000     2.220     2.330
  27   1 H      0.044  0.956  0.000  0.000     2.398     2.422
  28   1 H      0.063  0.937  0.000  0.000     2.169     2.303
  29   1 H      0.050  0.950  0.000  0.000     2.316     2.380
  30   1 H      0.053  0.947  0.000  0.000     2.284     2.363
  31   1 H      0.027  0.973  0.000  0.000     2.628     2.535
  32   7 N     -0.187  1.247  3.940  0.000    25.053     7.434
  33   6 C      0.013  1.072  2.916  0.000    20.353     6.421
  34   6 C      0.268  1.049  2.683  0.000    22.475     7.763
  35   8 O     -0.449  1.731  4.718  0.000    22.675     6.384
  36   6 C     -0.056  1.054  3.002  0.000    21.583     6.615
  37   6 C     -0.101  1.078  3.023  0.000    22.431     6.745
  38   6 C      0.369  1.029  2.603  0.000    20.750     7.454
  39   8 O     -0.632  1.766  4.866  0.000    26.917     6.956
  40   8 O     -0.647  1.781  4.867  0.000    27.315     7.007
  41   1 H      0.206  0.794  0.000  0.000     1.074     1.623
  42   1 H      0.100  0.900  0.000  0.000     1.782     2.088
  43   1 H      0.047  0.953  0.000  0.000     2.361     2.403
  44   1 H      0.054  0.946  0.000  0.000     2.275     2.359
  45   1 H      0.034  0.966  0.000  0.000     2.535     2.490
  46   1 H      0.019  0.981  0.000  0.000     2.741     2.589
  47   7 N     -0.203  1.261  3.942  0.000    25.405     7.486
  48   6 C      0.019  1.063  2.917  0.000    20.252     6.408
  49   6 C      0.274  1.042  2.684  0.000    22.374     7.746
  50   8 O     -0.454  1.725  4.729  0.000    22.790     6.401
  51   6 C     -0.052  1.053  2.998  0.000    21.497     6.601
  52   6 C     -0.095  1.068  3.027  0.000    22.314     6.727
  53   6 C      0.363  1.029  2.608  0.000    20.841     7.471
  54   8 O     -0.654  1.786  4.868  0.000    27.489     7.029
  55   8 O     -0.608  1.749  4.859  0.000    26.309     6.877
  56   1 H      0.191  0.809  0.000  0.000     1.150     1.680
  57   1 H      0.100  0.900  0.000  0.000     1.785     2.089
  58   1 H      0.029  0.971  0.000  0.000     2.594     2.519
  59   1 H      0.036  0.964  0.000  0.000     2.499     2.472
  60   1 H      0.024  0.976  0.000  0.000     2.670     2.555
  61   1 H      0.008  0.992  0.000  0.000     2.921     2.673
  62   7 N     -0.185  1.245  3.940  0.000    25.015     7.428
  63   6 C      0.018  1.059  2.923  0.000    20.273     6.409
  64   6 C      0.274  1.040  2.687  0.000    22.374     7.748
  65   8 O     -0.483  1.729  4.754  0.000    23.403     6.486
  66   6 C     -0.083  1.055  3.028  0.000    22.069     6.687
  67   6 C     -0.088  1.054  3.034  0.000    22.167     6.702
  68   6 C     -0.029  1.055  2.974  0.000    21.177     6.567
  69   7 N     -0.136  1.208  3.928  0.000    23.953     7.269
  70   6 C      0.229  1.019  2.751  0.000    23.181     7.883
  71   7 N     -0.227  1.218  4.009  0.000    25.975     7.569
  72   7 N     -0.257  1.238  4.019  0.000    26.664     7.669
  73   1 H      0.191  0.809  0.000  0.000     1.154     1.683
  74   1 H      0.079  0.921  0.000  0.000     1.994     2.208
  75   1 H      0.060  0.940  0.000  0.000     2.201     2.320
  76   1 H      0.081  0.919  0.000  0.000     1.971     2.196
  77   1 H      0.085  0.915  0.000  0.000     1.927     2.171
  78   1 H      0.070  0.930  0.000  0.000     2.090     2.261
  79   1 H      0.087  0.913  0.000  0.000     1.913     2.163
  80   1 H      0.096  0.904  0.000  0.000     1.820     2.109
  81   1 H      0.231  0.769  0.000  0.000     0.960     1.535
  82   1 H      0.250  0.750  0.000  0.000     0.882     1.471
  83   1 H      0.242  0.758  0.000  0.000     0.915     1.499
  84   1 H      0.240  0.760  0.000  0.000     0.922     1.504
  85   1 H      0.236  0.764  0.000  0.000     0.941     1.520
  86   7 N     -0.168  1.243  3.925  0.000    24.639     7.372
  87   6 C      0.016  1.064  2.920  0.000    20.289     6.410
  88   6 C      0.262  1.046  2.692  0.000    22.574     7.780
  89   8 O     -0.468  1.738  4.729  0.000    23.079     6.441
  90   6 C      0.119  1.044  2.837  0.000    18.728     6.178
  91   8 O     -0.484  1.725  4.759  0.000    22.548     6.410
  92   6 C     -0.146  1.045  3.101  0.000    23.385     6.896
  93   1 H      0.224  0.776  0.000  0.000     0.991     1.560
  94   1 H      0.093  0.907  0.000  0.000     1.851     2.128
  95   1 H      0.018  0.982  0.000  0.000     2.771     2.603
  96   1 H      0.340  0.660  0.000  0.000     0.613     1.230
  97   1 H      0.056  0.944  0.000  0.000     2.249     2.345
  98   1 H      0.078  0.922  0.000  0.000     1.998     2.210
  99   1 H      0.067  0.933  0.000  0.000     2.120     2.277
 100   7 N     -0.180  1.239  3.942  0.000    24.905     7.412
 101   6 C      0.007  1.068  2.925  0.000    20.469     6.444
 102   6 C      0.252  1.053  2.694  0.000    22.761     7.813
 103   8 O     -0.479  1.731  4.747  0.000    23.318     6.474
 104   6 C     -0.091  1.060  3.031  0.000    22.230     6.712
 105   6 C     -0.103  1.060  3.043  0.000    22.466     6.749
 106   6 C     -0.032  1.059  2.973  0.000    21.245     6.579
 107   7 N     -0.144  1.212  3.931  0.000    24.109     7.292
 108   6 C      0.232  1.021  2.747  0.000    23.132     7.874
 109   7 N     -0.235  1.223  4.012  0.000    26.161     7.596
 110   7 N     -0.259  1.243  4.016  0.000    26.718     7.677
 111   1 H      0.197  0.803  0.000  0.000     1.123     1.660
 112   1 H      0.102  0.898  0.000  0.000     1.767     2.079
 113   1 H      0.084  0.916  0.000  0.000     1.943     2.180
 114   1 H      0.072  0.928  0.000  0.000     2.068     2.249
 115   1 H      0.083  0.917  0.000  0.000     1.947     2.182
 116   1 H      0.095  0.905  0.000  0.000     1.835     2.118
 117   1 H      0.098  0.902  0.000  0.000     1.804     2.101
 118   1 H      0.076  0.924  0.000  0.000     2.016     2.221
 119   1 H      0.248  0.752  0.000  0.000     0.893     1.480
 120   1 H      0.227  0.773  0.000  0.000     0.977     1.548
 121   1 H      0.240  0.760  0.000  0.000     0.921     1.504
 122   1 H      0.257  0.743  0.000  0.000     0.856     1.449
 123   1 H      0.251  0.749  0.000  0.000     0.881     1.470
 124   7 N     -0.175  1.244  3.931  0.000    24.793     7.395
 125   6 C      0.007  1.065  2.928  0.000    20.461     6.441
 126   6 C      0.259  1.049  2.692  0.000    22.640     7.793
 127   8 O     -0.492  1.739  4.753  0.000    23.603     6.514
 128   6 C     -0.072  1.051  3.021  0.000    21.875     6.659
 129   6 C     -0.070  1.049  3.021  0.000    21.841     6.654
 130   6 C     -0.096  1.055  3.041  0.000    22.337     6.730
 131   6 C     -0.047  1.062  2.984  0.000    21.508     6.620
 132   7 N     -0.141  1.229  3.912  0.000    24.049     7.284
 133   1 H      0.221  0.779  0.000  0.000     1.003     1.569
 134   1 H      0.094  0.906  0.000  0.000     1.843     2.123
 135   1 H      0.063  0.937  0.000  0.000     2.167     2.302
 136   1 H      0.060  0.940  0.000  0.000     2.204     2.322
 137   1 H      0.060  0.940  0.000  0.000     2.203     2.321
 138   1 H      0.046  0.954  0.000  0.000     2.368     2.406
 139   1 H      0.070  0.930  0.000  0.000     2.083     2.257
 140   1 H      0.081  0.919  0.000  0.000     1.972     2.196
 141   1 H      0.116  0.884  0.000  0.000     1.644     2.005
 142   1 H      0.100  0.900  0.000  0.000     1.785     2.089
 143   1 H      0.297  0.703  0.000  0.000     0.724     1.333
 144   1 H      0.298  0.702  0.000  0.000     0.721     1.330
 145   1 H      0.298  0.702  0.000  0.000     0.718     1.327
 146   7 N     -0.171  1.243  3.928  0.000    24.702     7.382
 147   6 C      0.019  1.055  2.926  0.000    20.237     6.403
 148   6 C      0.275  1.038  2.687  0.000    22.342     7.741
 149   8 O     -0.446  1.729  4.716  0.000    22.612     6.375
 150   6 C     -0.079  1.054  3.025  0.000    21.980     6.671
 151   6 C     -0.017  1.059  2.958  0.000    20.840     6.493
 152   6 C     -0.126  1.044  3.082  0.000    22.975     6.835
 153   6 C     -0.122  1.042  3.080  0.000    22.898     6.822
 154   1 H      0.213  0.787  0.000  0.000     1.043     1.600
 155   1 H      0.088  0.912  0.000  0.000     1.895     2.153
 156   1 H      0.055  0.945  0.000  0.000     2.255     2.348
 157   1 H      0.078  0.922  0.000  0.000     1.998     2.210
 158   1 H      0.043  0.957  0.000  0.000     2.414     2.430
 159   1 H      0.055  0.945  0.000  0.000     2.263     2.352
 160   1 H      0.038  0.962  0.000  0.000     2.480     2.463
 161   1 H      0.041  0.959  0.000  0.000     2.441     2.443
 162   1 H      0.058  0.942  0.000  0.000     2.223     2.332
 163   1 H      0.037  0.963  0.000  0.000     2.483     2.464
 164   1 H      0.039  0.961  0.000  0.000     2.456     2.451
 165   7 N     -0.181  1.236  3.946  0.000    24.927     7.415
 166   6 C      0.018  1.060  2.922  0.000    20.270     6.411
 167   6 C      0.262  1.052  2.685  0.000    22.575     7.780
 168   8 O     -0.490  1.745  4.745  0.000    23.566     6.509
 169   6 C     -0.089  1.059  3.030  0.000    22.198     6.707
 170   6 C     -0.103  1.059  3.044  0.000    22.468     6.748
 171   6 C      0.285  1.040  2.675  0.000    22.179     7.711
 172   8 O     -0.497  1.761  4.737  0.000    23.724     6.530
 173   7 N     -0.292  1.272  4.020  0.000    27.523     7.792
 174   1 H      0.180  0.820  0.000  0.000     1.212     1.724
 175   1 H      0.095  0.905  0.000  0.000     1.832     2.117
 176   1 H      0.090  0.910  0.000  0.000     1.882     2.146
 177   1 H      0.084  0.916  0.000  0.000     1.937     2.176
 178   1 H      0.085  0.915  0.000  0.000     1.930     2.173
 179   1 H      0.047  0.953  0.000  0.000     2.362     2.403
 180   1 H      0.233  0.767  0.000  0.000     0.950     1.527
 181   1 H      0.235  0.765  0.000  0.000     0.942     1.521
 182   7 N     -0.178  1.253  3.925  0.000    24.857     7.405
 183   6 C      0.014  1.078  2.908  0.000    20.358     6.428
 184   6 C      0.282  1.044  2.674  0.000    22.231     7.720
 185   8 O     -0.506  1.762  4.744  0.000    23.923     6.558
 186   6 C     -0.072  1.056  3.015  0.000    21.877     6.661
 187   6 C     -0.097  1.058  3.039  0.000    22.355     6.732
 188   6 C      0.291  1.044  2.665  0.000    22.072     7.692
 189   8 O     -0.485  1.753  4.732  0.000    23.450     6.493
 190   7 N     -0.283  1.281  4.001  0.000    27.297     7.760
 191   1 H      0.226  0.774  0.000  0.000     0.983     1.553
 192   1 H      0.070  0.930  0.000  0.000     2.082     2.257
 193   1 H      0.074  0.926  0.000  0.000     2.039     2.233
 194   1 H      0.090  0.910  0.000  0.000     1.879     2.143
 195   1 H      0.073  0.927  0.000  0.000     2.050     2.239
 196   1 H      0.064  0.936  0.000  0.000     2.154     2.295
 197   1 H      0.212  0.788  0.000  0.000     1.048     1.604
 198   1 H      0.199  0.801  0.000  0.000     1.109     1.650
 199   7 N     -0.184  1.251  3.934  0.000    24.989     7.424
 200   6 C      0.032  1.052  2.916  0.000    20.038     6.373
 201   6 C      0.272  1.045  2.683  0.000    22.399     7.751
 202   8 O     -0.493  1.731  4.762  0.000    23.638     6.519
 203   6 C     -0.077  1.056  3.020  0.000    21.955     6.669
 204   6 C      0.000  1.082  2.918  0.000    28.018     8.682
 205   6 C     -0.046  1.087  2.958  0.000    29.130     8.851
 206   6 C     -0.049  1.086  2.963  0.000    29.219     8.865
 207   6 C     -0.067  1.075  2.991  0.000    29.663     8.931
 208   6 C     -0.078  1.079  2.999  0.000    29.957     8.975
 209   6 C      0.145  1.044  2.810  0.000    24.831     8.166
 210   8 O     -0.438  1.722  4.716  0.000    21.601     6.274
 211   1 H      0.233  0.767  0.000  0.000     0.954     1.530
 212   1 H      0.065  0.935  0.000  0.000     2.141     2.288
 213   1 H      0.075  0.925  0.000  0.000     2.028     2.227
 214   1 H      0.073  0.927  0.000  0.000     2.058     2.243
 215   1 H      0.051  0.949  0.000  0.000     2.310     2.377
 216   1 H      0.055  0.945  0.000  0.000     2.257     2.349
 217   1 H      0.053  0.947  0.000  0.000     2.280     2.361
 218   1 H      0.035  0.965  0.000  0.000     2.514     2.480
 219   1 H      0.310  0.690  0.000  0.000     0.692     1.307
 220   7 N     -0.164  1.258  3.906  0.000    24.544     7.358
 221   6 C      0.015  1.068  2.917  0.000    20.331     6.419
 222   6 C      0.269  1.050  2.681  0.000    22.458     7.760
 223   8 O     -0.497  1.748  4.748  0.000    23.714     6.529
 224   6 C     -0.086  1.056  3.029  0.000    22.132     6.698
 225   6 C     -0.078  1.056  3.022  0.000    21.994     6.678
 226   6 C     -0.028  1.062  2.966  0.000    21.174     6.569
 227   7 N     -0.145  1.214  3.931  0.000    24.130     7.296
 228   6 C      0.232  1.023  2.746  0.000    23.140     7.876
 229   7 N     -0.245  1.227  4.018  0.000    26.394     7.630
 230   7 N     -0.259  1.239  4.020  0.000    26.720     7.677
 231   1 H      0.210  0.790  0.000  0.000     1.056     1.610
 232   1 H      0.106  0.894  0.000  0.000     1.731     2.057
 233   1 H      0.095  0.905  0.000  0.000     1.830     2.116
 234   1 H      0.060  0.940  0.000  0.000     2.205     2.322
 235   1 H      0.063  0.937  0.000  0.000     2.161     2.299
 236   1 H      0.073  0.927  0.000  0.000     2.057     2.243
 237   1 H      0.095  0.905  0.000  0.000     1.831     2.116
 238   1 H      0.084  0.916  0.000  0.000     1.934     2.175
 239   1 H      0.230  0.770  0.000  0.000     0.965     1.539
 240   1 H      0.244  0.756  0.000  0.000     0.908     1.493
 241   1 H      0.258  0.742  0.000  0.000     0.853     1.447
 242   1 H      0.247  0.753  0.000  0.000     0.894     1.481
 243   1 H      0.257  0.743  0.000  0.000     0.856     1.450
 244   7 N     -0.185  1.256  3.929  0.000    25.003     7.426
 245   6 C      0.024  1.069  2.906  0.000    20.177     6.397
 246   6 C      0.281  1.043  2.677  0.000    22.251     7.724
 247   8 O     -0.483  1.755  4.728  0.000    23.402     6.486
 248   6 C     -0.059  1.048  3.011  0.000    21.635     6.623
 249   6 C     -0.099  1.076  3.023  0.000    22.398     6.740
 250   6 C      0.368  1.031  2.601  0.000    20.760     7.456
 251   8 O     -0.648  1.770  4.878  0.000    27.335     7.010
 252   8 O     -0.646  1.779  4.867  0.000    27.275     7.002
 253   1 H      0.234  0.766  0.000  0.000     0.950     1.527
 254   1 H      0.056  0.944  0.000  0.000     2.242     2.342
 255   1 H      0.047  0.953  0.000  0.000     2.361     2.403
 256   1 H      0.055  0.945  0.000  0.000     2.262     2.352
 257   1 H      0.018  0.982  0.000  0.000     2.764     2.600
 258   1 H      0.040  0.960  0.000  0.000     2.454     2.450
 259   7 N     -0.229  1.274  3.955  0.000    26.008     7.574
 260   6 C      0.041  1.057  2.903  0.000    19.903     6.354
 261   6 C      0.268  1.045  2.687  0.000    22.483     7.767
 262   8 O     -0.476  1.751  4.725  0.000    23.257     6.466
 263   6 C     -0.056  1.050  3.006  0.000    21.574     6.613
 264   6 C     -0.011  1.071  2.940  0.000    20.779     6.492
 265  16 S     -0.244  1.935  4.253  0.057   151.514    20.717
 266   6 C     -0.069  1.062  3.007  0.000    21.896     6.676
 267   1 H      0.231  0.769  0.000  0.000     0.961     1.536
 268   1 H      0.050  0.950  0.000  0.000     2.321     2.383
 269   1 H      0.062  0.938  0.000  0.000     2.180     2.309
 270   1 H      0.050  0.950  0.000  0.000     2.324     2.384
 271   1 H      0.060  0.940  0.000  0.000     2.203     2.321
 272   1 H      0.041  0.959  0.000  0.000     2.437     2.441
 273   1 H      0.085  0.915  0.000  0.000     1.930     2.172
 274   1 H      0.065  0.935  0.000  0.000     2.144     2.290
 275   1 H      0.068  0.932  0.000  0.000     2.112     2.273
 276   7 N     -0.176  1.245  3.930  0.000    24.805     7.397
 277   6 C      0.035  1.051  2.913  0.000    19.956     6.356
 278   6 C      0.219  1.080  2.701  0.000    23.382     7.921
 279   8 O     -0.388  1.751  4.637  0.000    21.439     6.208
 280   6 C     -0.078  1.056  3.021  0.000    21.951     6.665
 281   6 C     -0.012  1.051  2.961  0.000    20.752     6.479
 282   6 C     -0.124  1.044  3.080  0.000    22.918     6.823
 283   6 C     -0.119  1.040  3.079  0.000    22.841     6.814
 284   1 H      0.232  0.768  0.000  0.000     0.958     1.533
 285   1 H      0.087  0.913  0.000  0.000     1.910     2.161
 286   1 H      0.072  0.928  0.000  0.000     2.064     2.247
 287   1 H      0.065  0.935  0.000  0.000     2.143     2.289
 288   1 H      0.043  0.957  0.000  0.000     2.413     2.429
 289   1 H      0.048  0.952  0.000  0.000     2.341     2.393
 290   1 H      0.052  0.948  0.000  0.000     2.299     2.371
 291   1 H      0.051  0.949  0.000  0.000     2.308     2.376
 292   1 H      0.053  0.947  0.000  0.000     2.287     2.365
 293   1 H      0.042  0.958  0.000  0.000     2.417     2.431
 294   1 H      0.031  0.969  0.000  0.000     2.573     2.508
 295   7 N     -0.398  1.312  4.086  0.000    30.310     8.177
 296   6 C      0.032  1.067  2.901  0.000    20.055     6.381
 297   6 C      0.272  1.053  2.675  0.000    22.399     7.750
 298   8 O     -0.506  1.757  4.749  0.000    23.925     6.558
 299   6 C     -0.064  1.061  3.003  0.000    21.733     6.639
 300   6 C     -0.002  1.078  2.924  0.000    20.636     6.473
 301  16 S     -0.246  1.916  4.283  0.046   151.587    20.722
 302   6 C     -0.044  1.050  2.994  0.000    21.429     6.604
 303   1 H      0.175  0.825  0.000  0.000     1.240     1.745
 304   1 H      0.040  0.960  0.000  0.000     2.452     2.449
 305   1 H      0.069  0.931  0.000  0.000     2.099     2.266
 306   1 H      0.054  0.946  0.000  0.000     2.267     2.355
 307   1 H      0.036  0.964  0.000  0.000     2.506     2.476
 308   1 H      0.038  0.962  0.000  0.000     2.470     2.458
 309   1 H      0.060  0.940  0.000  0.000     2.198     2.319
 310   1 H      0.045  0.955  0.000  0.000     2.388     2.416
 311   1 H      0.060  0.940  0.000  0.000     2.195     2.317
 312   7 N     -0.168  1.252  3.916  0.000    24.630     7.371
 313   6 C      0.033  1.051  2.916  0.000    20.019     6.371
 314   6 C      0.204  1.079  2.717  0.000    23.664     7.970
 315   8 O     -0.358  1.757  4.601  0.000    20.858     6.123
 316   6 C     -0.072  1.059  3.014  0.000    21.844     6.647
 317   6 C     -0.009  1.055  2.954  0.000    20.706     6.472
 318   6 C     -0.114  1.043  3.071  0.000    22.728     6.797
 319   6 C     -0.130  1.040  3.090  0.000    23.041     6.843
 320   1 H      0.224  0.776  0.000  0.000     0.991     1.559
 321   1 H      0.085  0.915  0.000  0.000     1.932     2.174
 322   1 H      0.059  0.941  0.000  0.000     2.211     2.325
 323   1 H      0.061  0.939  0.000  0.000     2.192     2.315
 324   1 H      0.045  0.955  0.000  0.000     2.378     2.412
 325   1 H      0.056  0.944  0.000  0.000     2.245     2.343
 326   1 H      0.036  0.964  0.000  0.000     2.505     2.475
 327   1 H      0.031  0.969  0.000  0.000     2.573     2.508
 328   1 H      0.053  0.947  0.000  0.000     2.284     2.364
 329   1 H      0.042  0.958  0.000  0.000     2.422     2.434
 330   1 H      0.051  0.949  0.000  0.000     2.311     2.377
 331   7 N     -0.403  1.317  4.086  0.000    30.468     8.198
 332   6 C      0.055  1.056  2.889  0.000    19.674     6.319
 333   6 C      0.198  1.100  2.702  0.000    23.773     7.985
 334   8 O     -0.393  1.749  4.644  0.000    21.549     6.224
 335   6 C     -0.088  1.074  3.014  0.000    22.189     6.708
 336   6 C      0.373  1.030  2.597  0.000    20.674     7.441
 337   8 O     -0.605  1.770  4.835  0.000    26.245     6.868
 338   8 O     -0.630  1.756  4.874  0.000    26.867     6.949
 339   1 H      0.176  0.824  0.000  0.000     1.238     1.743
 340   1 H      0.033  0.967  0.000  0.000     2.548     2.496
 341   1 H      0.046  0.954  0.000  0.000     2.370     2.407
 342   1 H      0.026  0.974  0.000  0.000     2.638     2.540
 343   7 N     -0.391  1.323  4.068  0.000    30.119     8.151
 344   6 C      0.033  1.065  2.901  0.000    20.023     6.372
 345   6 C      0.278  1.051  2.671  0.000    22.292     7.731
 346   8 O     -0.486  1.754  4.732  0.000    23.474     6.496
 347   6 C     -0.021  1.065  2.956  0.000    20.901     6.502
 348   6 C     -0.074  1.056  3.018  0.000    21.917     6.665
 349   6 C     -0.126  1.043  3.084  0.000    22.976     6.834
 350   6 C     -0.100  1.035  3.065  0.000    22.463     6.759
 351   1 H      0.163  0.837  0.000  0.000     1.316     1.797
 352   1 H      0.013  0.987  0.000  0.000     2.843     2.637
 353   1 H      0.047  0.953  0.000  0.000     2.358     2.402
 354   1 H      0.071  0.929  0.000  0.000     2.077     2.254
 355   1 H      0.044  0.956  0.000  0.000     2.392     2.418
 356   1 H      0.050  0.950  0.000  0.000     2.317     2.381
 357   1 H      0.021  0.979  0.000  0.000     2.714     2.576
 358   1 H      0.074  0.926  0.000  0.000     2.040     2.234
 359   1 H      0.040  0.960  0.000  0.000     2.452     2.449
 360   1 H      0.013  0.987  0.000  0.000     2.841     2.636
 361   1 H      0.033  0.967  0.000  0.000     2.546     2.495
 362   7 N     -0.191  1.252  3.939  0.000    25.140     7.447
 363   6 C      0.041  1.056  2.903  0.000    19.897     6.354
 364   6 C      0.207  1.087  2.706  0.000    23.607     7.957
 365   8 O     -0.349  1.734  4.615  0.000    20.685     6.098
 366   6 C     -0.106  1.080  3.026  0.000    22.530     6.758
 367   6 C      0.369  1.024  2.607  0.000    20.745     7.453
 368   8 O     -0.634  1.775  4.859  0.000    26.961     6.962
 369   8 O     -0.630  1.770  4.860  0.000    26.880     6.951
 370   1 H      0.206  0.794  0.000  0.000     1.073     1.623
 371   1 H      0.072  0.928  0.000  0.000     2.063     2.246
 372   1 H      0.046  0.954  0.000  0.000     2.373     2.409
 373   1 H      0.044  0.956  0.000  0.000     2.393     2.419
 374   7 N     -0.395  1.312  4.083  0.000    30.239     8.167
 375   6 C      0.036  1.061  2.903  0.000    19.987     6.369
 376   6 C      0.271  1.051  2.677  0.000    22.415     7.754
 377   8 O     -0.492  1.741  4.750  0.000    23.598     6.513
 378   6 C     -0.044  1.056  2.988  0.000    21.369     6.581
 379   6 C     -0.093  1.070  3.023  0.000    22.282     6.722
 380   6 C      0.368  1.029  2.602  0.000    20.753     7.455
 381   8 O     -0.636  1.766  4.870  0.000    27.023     6.970
 382   8 O     -0.646  1.776  4.871  0.000    27.284     7.003
 383   1 H      0.154  0.846  0.000  0.000     1.374     1.836
 384   1 H      0.036  0.964  0.000  0.000     2.508     2.477
 385   1 H      0.024  0.976  0.000  0.000     2.672     2.556
 386   1 H      0.033  0.967  0.000  0.000     2.545     2.495
 387   1 H      0.014  0.986  0.000  0.000     2.825     2.628
 388   1 H      0.012  0.988  0.000  0.000     2.852     2.641
 389   7 N     -0.165  1.246  3.919  0.000    24.577     7.363
 390   6 C      0.032  1.056  2.911  0.000    20.026     6.370
 391   6 C      0.206  1.085  2.709  0.000    23.626     7.961
 392   8 O     -0.357  1.738  4.619  0.000    20.840     6.121
 393   6 C     -0.085  1.065  3.020  0.000    22.119     6.695
 394   6 C     -0.022  1.062  2.960  0.000    20.936     6.508
 395   6 C     -0.124  1.044  3.080  0.000    22.947     6.831
 396   6 C     -0.144  1.049  3.095  0.000    23.342     6.890
 397   1 H      0.214  0.786  0.000  0.000     1.039     1.597
 398   1 H      0.093  0.907  0.000  0.000     1.854     2.129
 399   1 H      0.078  0.922  0.000  0.000     1.998     2.211
 400   1 H      0.084  0.916  0.000  0.000     1.942     2.179
 401   1 H      0.043  0.957  0.000  0.000     2.406     2.426
 402   1 H      0.043  0.957  0.000  0.000     2.415     2.430
 403   1 H      0.023  0.977  0.000  0.000     2.694     2.567
 404   1 H      0.058  0.942  0.000  0.000     2.221     2.331
 405   1 H      0.062  0.938  0.000  0.000     2.175     2.306
 406   1 H      0.063  0.937  0.000  0.000     2.165     2.301
 407   1 H      0.059  0.941  0.000  0.000     2.207     2.323
 408   7 N     -0.407  1.307  4.101  0.000    30.571     8.212
 409   6 C      0.024  1.059  2.917  0.000    20.181     6.399
 410   6 C      0.275  1.045  2.680  0.000    22.344     7.741
 411   8 O     -0.500  1.746  4.753  0.000    23.777     6.538
 412   6 C      0.087  1.035  2.878  0.000    19.338     6.297
 413   8 O     -0.475  1.705  4.770  0.000    22.353     6.382
 414   1 H      0.174  0.826  0.000  0.000     1.248     1.750
 415   1 H      0.018  0.982  0.000  0.000     2.762     2.599
 416   1 H      0.040  0.960  0.000  0.000     2.453     2.449
 417   1 H      0.007  0.993  0.000  0.000     2.937     2.680
 418   1 H      0.337  0.663  0.000  0.000     0.621     1.238
 419   7 N     -0.159  1.241  3.918  0.000    24.437     7.342
 420   6 C      0.016  1.061  2.922  0.000    20.299     6.415
 421   6 C      0.197  1.089  2.714  0.000    23.796     7.989
 422   8 O     -0.351  1.745  4.607  0.000    20.729     6.104
 423   6 C     -0.075  1.051  3.023  0.000    21.900     6.658
 424   6 C     -0.015  1.066  2.950  0.000    20.854     6.502
 425  16 S     -0.228  1.922  4.248  0.058   150.781    20.667
 426   6 C     -0.065  1.053  3.011  0.000    21.812     6.662
 427   1 H      0.218  0.782  0.000  0.000     1.019     1.582
 428   1 H      0.122  0.878  0.000  0.000     1.594     1.974
 429   1 H      0.070  0.930  0.000  0.000     2.081     2.256
 430   1 H      0.076  0.924  0.000  0.000     2.019     2.222
 431   1 H      0.067  0.933  0.000  0.000     2.119     2.277
 432   1 H      0.064  0.936  0.000  0.000     2.154     2.295
 433   1 H      0.060  0.940  0.000  0.000     2.199     2.319
 434   1 H      0.057  0.943  0.000  0.000     2.231     2.336
 435   1 H      0.068  0.932  0.000  0.000     2.110     2.271
 436   1 H      0.186  0.814  0.000  0.000     1.180     1.701
 437   1 H      0.055  0.945  0.000  0.000     2.259     2.350
 438   1 H      0.187  0.813  0.000  0.000     1.176     1.699
 439   1 H      0.062  0.938  0.000  0.000     2.174     2.306
 440   1 H      0.172  0.828  0.000  0.000     1.261     1.759
 441   1 H      0.075  0.925  0.000  0.000     2.026     2.226
 442   1 H      0.179  0.821  0.000  0.000     1.221     1.731
 443   1 H      0.056  0.944  0.000  0.000     2.242     2.341
 444   1 H      0.188  0.812  0.000  0.000     1.169     1.694
 445   1 H      0.075  0.925  0.000  0.000     2.030     2.228
 446   1 H      0.172  0.828  0.000  0.000     1.263     1.760
 447   1 H      0.068  0.932  0.000  0.000     2.111     2.272

 Mol. C6AA /au·bohr⁶  :    1897944.284270
 Mol. C8AA /au·bohr⁸  :   42907087.463498
 Mol. α(0) /au        :       2058.931491

 
molecular dipole:
                 x           y           z       tot (Debye)
 q only:      160.697    -402.617    -138.694
   full:      164.466    -398.398    -138.018    1150.340
molecular quadrupole (traceless):
                xx          xy          yy          xz          yz          zz
 q only:    21688.200   31991.423  -47441.720   11601.921  -27800.002   25753.520
  q+dip:    20713.207   32315.455  -46174.977   11730.648  -27424.911   25461.770
   full:    20710.466   32313.356  -46171.789   11732.046  -27424.672   25461.323
speedup  1.91
cpu  time for grad   16.05 s
wall time for grad    8.42 s

SCC energy    :    -708.3633335
rep           :       8.0833599
ES            :       2.9276623
AES           :      -0.1130402
AXC           :       0.2157816
disp          :      -0.5780663
XB            :       0.0000000
fix           :       0.0000000
Gborn         :       0.0000000
Gsasa         :       0.0000000
Ghb           :       0.0000000
Gshift        :       0.0000000
Gsolv         :      -0.9677821     -607.29
Etot ala COSMO:    -708.3633335
grad norm     :       0.5567527
total E       :    -700.2310706
atomizationE  :     125.1232270    78516.01
(atE without considering molecular charge,
 total energy contains solvation terms)
H-L gap (eV)  :          1.2811

------------------------------------------------------------------------
 * finished run on 2019/05/11 at 23:08:47.233     
------------------------------------------------------------------------
 total:
 * wall-time:     0 d,  0 h,  0 min,  9.051 sec
 *  cpu-time:     0 d,  0 h,  0 min, 17.202 sec
 * ratio c/w:     1.901 speedup
 SCF:
 * wall-time:     0 d,  0 h,  0 min,  8.850 sec
 *  cpu-time:     0 d,  0 h,  0 min, 16.905 sec
 * ratio c/w:     1.910 speedup

