      -----------------------------------------------------------      
     |                   =====================                   |     
     |                           x T B                           |     
     |                   =====================                   |     
     |                         S. Grimme                         |     
     |          Mulliken Center for Theoretical Chemistry        |     
     |                    University of Bonn                     |     
     |                 Version 6.0.1 (SAW181210)                 |     
      -----------------------------------------------------------      

   This program is distributed in the hope that it will be useful,
   but WITHOUT ANY WARRANTY; without even the implied warranty of
   MERCHANTABILITY or FITNESS FOR A PARTICULAR PURPOSE.
   
   FOR NON-COMMERCIAL, ACADEMIA USE ONLY.
   
   Cite this work as:
   S. Grimme, C. Bannwarth, P. Shushkov, J. Comput. Theory Chem., 2017,
   13, 1989-2009.
   C. Bannwarth, S. Ehlert and S. Grimme., ChemRxiv, 2018, preprint.
   http://doi.org/10.26434/chemrxiv.7246238.v1
   
   for sTDA-xTB:
   S. Grimme and C. Bannwarth, J. Chem. Phys., 2016, 145, 054103.
   
   in the mass-spec context:
   V. Asgeirsson, C. Bauer and S. Grimme, Chem. Sci., 2017, 8, 4879.
   
   if GBSA is used:
   P. Shushkov, F. März and S. Grimme, unpublished.
   
   for ANC optimizer:
   S. Grimme, unpublished.
   Rational Function algorithm used in ANCopt:
   F. Eckert, P. Pulay, H.-J. Werner, J. Comput. Chem., 1997, 18, 1473.
   
   with help from (in alphabetical order)
   C. Bannwarth, F. Bohle, G. Brandenburg, E. Caldeweyher, M. Checinski,
   S. Dohm, S. Ehlert, S. Ehrlich, F. März, H. Neugebauer, J. Pisarek,
   P. Pracht, P. Shushkov, and S. Spicher.
   
 * started run on 2019/05/10 at 12:44:11.171     
========================================================================
 # omp threads = 2
========================================================================
number of atoms            : 422
number of electrons        : 1182
charge                     : -12
spin                       : .0
first test random number   : .4283

########################################################################
# WARNING! Please study the warnings concerning your input carefully
#  - Process number higher than OMP_NUM_THREADS, I hope you know what you are doing.
########################################################################

           ------------------------------------------------- 
          |                 G F N 2 - x T B                 |
          | Geometry, Frequencies, Noncovalent interactions |
          |            JCTC 2018 parametrisation            |
           ------------------------------------------------- 
 
      method parameters     
 k(s)        :  1.8500
 k(p)        :  2.2300
 k(d)        :  2.2300
 k(f)        :  2.0000
 kEN (H0ij)  : -2.0000
 D4 a1       :  0.5200
 D4 a2       :  5.0000
 D4 s6       :  1.0000
 D4 s8       :  2.7000
 D4 s9       :  5.0000
 alphaj      :  2.0000

 Solvent             : h2o
 Using internal parameter file: .param_gbsa2_h2o
 Gsolv ref. state (COSMO-RS): gsolv [1 M gas/solution]
 temperature (mdtemp)       :    298.150000000000     
 dielectric constant        :    80.2000000000000     
 rho                        :    1.00000000000000     
 mass                       :    18.0000000000000     
 surface tension            :    15.5689454083859     
 probe radius               :   0.975313790000000     
 vdW radii scaling          :    1.00000000000000     
 Gshift (Eh)                :   1.857443126794793E-003
 c1                         :    1.55243817000000     
 soset                      :   0.130326360000000     
 HB correction              :  T

            Z     q(EN)     CN     RAES       Cart. coordinates
     1  N   5.0   -0.26    3.25    1.97   -41.57358   137.30481    30.27497
     2  C   4.0    0.02    4.44    4.45   -44.12658   137.83584    29.50858
     3  C   4.0    0.13    3.58    3.16   -45.33100   135.58432    28.21131
     4  O   6.0   -0.33    1.38    1.80   -47.56127   135.06353    28.66818
     5  C   4.0   -0.05    4.27    4.14   -44.28489   140.24988    27.93819
     6  C   4.0   -0.12    4.14    3.88   -46.82461   140.40001    26.58200
     7  C   4.0   -0.14    4.12    3.85   -43.86220   142.46808    29.72741
     8  H   1.0    0.02    1.02    1.43   -40.17703   137.55344    28.99726
     9  H   1.0    0.03    1.07    1.44   -45.20854   138.10617    31.26066
    10  H   1.0   -0.02    1.05    1.44   -42.75810   140.19281    26.54263
    11  H   1.0   -0.03    1.00    1.43   -46.99590   142.19770    25.60535
    12  H   1.0    0.01    1.00    1.43   -46.99474   138.88748    25.20238
    13  H   1.0    0.03    1.00    1.43   -48.36502   140.22152    27.92818
    14  H   1.0   -0.04    1.00    1.43   -43.82679   144.23825    28.68538
    15  H   1.0   -0.00    1.00    1.43   -45.36293   142.55536    31.12598
    16  H   1.0   -0.03    1.00    1.43   -42.06610   142.25253    30.70219
    17  N   5.0   -0.18    3.50    2.08   -43.93771   134.14098    26.70561
    18  C   4.0    0.02    4.48    4.52   -45.07720   131.75881    25.99501
    19  C   4.0    0.16    3.51    3.12   -45.80820   130.36146    28.42554
    20  O   6.0   -0.32    1.29    1.80   -47.70429   129.03670    28.50821
    21  C   4.0   -0.08    4.20    4.00   -43.51487   130.14975    24.16287
    22  C   4.0   -0.05    4.18    3.95   -45.32104   128.67602    22.45039
    23  C   4.0    0.20    3.07    3.02   -44.02930   126.96299    20.40046
    24  O   6.0   -0.41    1.16    1.80   -42.83787   125.09576    21.18914
    25  O   6.0   -0.45    1.16    1.80   -44.39701   127.58239    18.16119
    26  H   1.0    0.03    1.05    1.44   -42.10826   134.51566    26.28652
    27  H   1.0    0.04    1.07    1.44   -46.88834   132.19667    25.07248
    28  H   1.0   -0.01    1.03    1.43   -42.33756   131.40413    23.02314
    29  H   1.0    0.02    1.02    1.43   -42.26954   128.86355    25.18526
    30  H   1.0    0.04    1.03    1.43   -46.50206   127.45279    23.61847
    31  H   1.0    0.01    1.03    1.43   -46.53262   129.99504    21.42730
    32  N   5.0   -0.15    3.50    2.08   -44.36766   130.77981    30.45066
    33  C   4.0    0.04    4.43    4.44   -45.07124   129.78232    32.89620
    34  C   4.0    0.15    3.51    3.12   -47.58555   130.77048    33.88680
    35  O   6.0   -0.31    1.27    1.80   -48.94856   129.35253    35.10455
    36  C   4.0   -0.06    4.29    4.17   -43.10291   130.41263    34.93500
    37  C   4.0   -0.08    4.16    3.92   -41.28413   128.21675    35.37025
    38  C   4.0    0.22    3.11    3.03   -42.73738   125.96395    36.62489
    39  O   6.0   -0.39    1.16    1.80   -42.67499   125.87107    38.96963
    40  O   6.0   -0.35    1.18    1.80   -43.86696   124.45006    35.20478
    41  H   1.0    0.05    1.07    1.44   -42.65503   131.62018    30.29065
    42  H   1.0    0.06    1.07    1.44   -45.25925   127.71628    32.78633
    43  H   1.0    0.01    1.03    1.43   -42.08889   132.12031    34.37848
    44  H   1.0    0.03    1.04    1.43   -44.06070   130.82666    36.71904
    45  H   1.0    0.00    1.02    1.43   -40.44966   127.62536    33.58027
    46  H   1.0   -0.01    1.02    1.43   -39.79294   128.80556    36.66786
    47  N   5.0   -0.16    3.48    2.06   -48.09800   133.27173    33.63880
    48  C   4.0    0.03    4.48    4.51   -50.48026   134.05470    34.76201
    49  C   4.0    0.15    3.49    3.11   -52.64223   132.78828    33.36499
    50  O   6.0   -0.32    1.25    1.80   -54.32005   131.55432    34.42880
    51  C   4.0   -0.06    4.24    4.08   -50.73438   136.93042    34.87227
    52  C   4.0   -0.06    4.18    3.95   -51.58953   137.76654    37.49261
    53  C   4.0   -0.04    4.22    4.04   -51.21409   140.60800    37.91352
    54  N   5.0   -0.18    3.30    1.98   -51.80181   141.51230    40.43035
    55  C   4.0    0.05    3.28    3.05   -54.50505   141.34467    41.04968
    56  N   5.0   -0.21    3.15    1.95   -55.91614   142.93289    39.32545
    57  N   5.0   -0.23    3.11    1.94   -54.76188   141.98551    43.75830
    58  H   1.0    0.11    1.11    1.45   -47.65572   134.13291    31.96629
    59  H   1.0    0.05    1.07    1.44   -50.52446   133.28961    36.69094
    60  H   1.0    0.02    1.03    1.43   -48.88578   137.76538    34.49668
    61  H   1.0    0.03    1.03    1.43   -52.07227   137.61152    33.45970
    62  H   1.0    0.04    1.02    1.43   -53.58190   137.30354    37.81469
    63  H   1.0    0.03    1.03    1.43   -50.51779   136.74805    38.94339
    64  H   1.0   -0.00    1.03    1.43   -49.23174   141.08485    37.56427
    65  H   1.0    0.02    1.04    1.43   -52.43591   141.66773    36.63565
    66  H   1.0    0.05    1.08    1.44   -50.89728   140.47601    41.77167
    67  H   1.0    0.07    1.03    1.43   -57.69183   142.23540    39.09121
    68  H   1.0    0.06    1.02    1.43   -56.16918   144.72560    40.00912
    69  H   1.0    0.06    1.02    1.43   -55.04256   140.41464    44.83932
    70  H   1.0    0.06    1.03    1.43   -56.29949   143.10524    44.03515
    71  N   5.0   -0.13    3.56    2.12   -52.51210   132.92889    30.83105
    72  C   4.0    0.04    4.50    4.54   -54.61175   131.99641    29.36131
    73  C   4.0    0.14    3.41    3.08   -54.66385   129.09839    29.26579
    74  O   6.0   -0.33    1.24    1.80   -56.52356   127.98711    28.44179
    75  C   4.0    0.04    4.23    4.06   -54.59084   133.23531    26.73622
    76  O   6.0   -0.28    2.15    1.85   -53.89845   135.78734    27.12424
    77  C   4.0   -0.11    4.07    3.75   -57.15458   132.98451    25.44821
    78  H   1.0    0.10    1.09    1.44   -51.32418   134.16248    29.97407
    79  H   1.0    0.05    1.06    1.44   -56.37407   132.54091    30.33350
    80  H   1.0    0.03    1.03    1.43   -53.10895   132.30542    25.60166
    81  H   1.0    0.07    1.03    1.43   -54.36416   136.74486    25.63763
    82  H   1.0   -0.01    1.00    1.43   -57.04728   133.64513    23.50709
    83  H   1.0    0.04    1.01    1.43   -57.75691   131.02446    25.48191
    84  H   1.0    0.02    1.00    1.43   -58.54655   134.10441    26.46921
    85  N   5.0   -0.13    3.53    2.10   -52.63265   127.87987    30.14793
    86  C   4.0    0.04    4.41    4.40   -52.55068   125.14171    30.23188
    87  C   4.0    0.15    3.47    3.10   -53.99354   124.14368    32.51513
    88  O   6.0   -0.34    1.27    1.80   -54.77290   121.95705    32.54390
    89  C   4.0   -0.04    4.27    4.13   -49.81074   124.18530    30.29115
    90  C   4.0   -0.05    4.16    3.91   -49.56133   121.32133    29.99053
    91  C   4.0   -0.03    4.19    3.99   -50.11175   120.42007    27.27410
    92  N   5.0   -0.17    3.38    2.01   -48.48522   118.34165    26.50528
    93  C   4.0    0.05    3.33    3.06   -46.25138   118.57072    25.36030
    94  N   5.0   -0.22    3.25    1.97   -45.15842   120.81731    25.08997
    95  N   5.0   -0.27    3.24    1.96   -45.05330   116.50184    24.56512
    96  H   1.0    0.11    1.10    1.44   -50.98992   128.80805    30.44728
    97  H   1.0    0.05    1.06    1.44   -53.53334   124.41139    28.55594
    98  H   1.0    0.06    1.04    1.44   -48.79419   125.15076    28.78434
    99  H   1.0    0.06    1.03    1.43   -48.95336   124.80146    32.06269
   100  H   1.0    0.03    1.03    1.43   -47.62021   120.82383    30.46634
   101  H   1.0    0.04    1.03    1.43   -50.86061   120.37972    31.27856
   102  H   1.0    0.02    1.02    1.43   -52.05775   119.76439    27.12339
   103  H   1.0    0.03    1.03    1.43   -49.88343   121.98389    25.94564
   104  H   1.0    0.03    1.07    1.44   -49.12841   116.58218    26.87396
   105  H   1.0    0.08    1.04    1.43   -46.01397   122.39728    25.71206
   106  H   1.0    0.05    1.03    1.43   -43.69475   121.11610    23.90501
   107  H   1.0    0.01    1.03    1.43   -45.89204   114.79377    24.60329
   108  H   1.0    0.01    1.03    1.43   -43.40084   116.66741    23.63695
   109  N   5.0   -0.14    3.53    2.10   -54.28917   125.69811    34.49898
   110  C   4.0    0.03    4.45    4.46   -56.04562   124.92080    36.43127
   111  C   4.0    0.14    3.45    3.10   -58.74520   125.52982    35.63066
   112  O   6.0   -0.33    1.35    1.80   -60.48091   124.01340    36.11663
   113  C   4.0   -0.05    4.19    3.99   -55.23915   125.76705    39.07620
   114  C   4.0   -0.05    4.18    3.96   -52.44844   125.16450    39.63274
   115  C   4.0   -0.05    4.13    3.86   -51.49662   122.47988    38.97843
   116  C   4.0   -0.03    4.15    3.90   -48.93212   122.73331    37.66835
   117  N   5.0   -0.14    3.99    2.83   -47.83224   120.32642    36.70373
   118  H   1.0    0.11    1.08    1.44   -53.79698   127.54134    34.41974
   119  H   1.0    0.06    1.09    1.44   -56.01069   122.84138    36.43170
   120  H   1.0    0.04    1.02    1.43   -55.51826   127.81075    39.29005
   121  H   1.0    0.04    1.02    1.43   -56.48688   124.88402    40.46669
   122  H   1.0    0.06    1.04    1.43   -51.33248   126.54783    38.58044
   123  H   1.0    0.04    1.02    1.43   -52.13993   125.57200    41.63625
   124  H   1.0    0.03    1.02    1.43   -51.36214   121.37994    40.71340
   125  H   1.0    0.04    1.03    1.43   -52.82373   121.53759    37.72065
   126  H   1.0    0.06    1.03    1.43   -49.14036   124.02879    36.07971
   127  H   1.0    0.04    1.02    1.43   -47.57979   123.59440    38.96373
   128  H   1.0    0.05    1.03    1.43   -46.11304   120.86352    35.90866
   129  H   1.0    0.02    1.02    1.43   -47.54438   119.07602    38.17055
   130  H   1.0    0.04    1.02    1.43   -49.00477   119.50579    35.37987
   131  N   5.0   -0.14    3.51    2.09   -59.11245   127.36406    33.83322
   132  C   4.0    0.04    4.49    4.52   -61.68502   127.64694    32.92089
   133  C   4.0    0.16    3.47    3.10   -62.51634   125.28586    31.48143
   134  O   6.0   -0.32    1.27    1.80   -64.76063   124.91045    31.06605
   135  C   4.0   -0.05    4.34    4.28   -61.97825   129.95867    31.24336
   136  C   4.0   -0.02    4.17    3.95   -62.52779   132.36752    32.75575
   137  C   4.0   -0.08    4.12    3.85   -60.96883   132.61044    35.18564
   138  C   4.0   -0.09    4.10    3.81   -62.10321   134.69154    31.10318
   139  H   1.0    0.09    1.07    1.44   -58.05207   128.94592    33.95723
   140  H   1.0    0.05    1.05    1.44   -63.03222   127.79237    34.51115
   141  H   1.0    0.05    1.03    1.43   -60.25115   130.17217    30.13584
   142  H   1.0    0.04    1.03    1.43   -63.55737   129.64462    29.95684
   143  H   1.0    0.04    1.05    1.44   -64.51674   132.36233    33.35167
   144  H   1.0    0.04    1.00    1.43   -61.48965   134.35204    36.16597
   145  H   1.0    0.04    1.00    1.43   -61.33521   131.08314    36.52019
   146  H   1.0    0.05    1.00    1.43   -58.94289   132.69650    34.82212
   147  H   1.0    0.04    1.00    1.43   -62.78791   136.35794    32.09429
   148  H   1.0    0.03    1.00    1.43   -60.09319   134.93768    30.74262
   149  H   1.0    0.02    1.00    1.43   -63.13603   134.52477    29.33900
   150  N   5.0   -0.14    3.50    2.08   -60.68994   123.75035    30.67308
   151  C   4.0    0.04    4.42    4.42   -61.19164   121.22043    29.77001
   152  C   4.0    0.15    3.49    3.11   -61.64147   119.32530    31.92124
   153  O   6.0   -0.31    1.29    1.80   -63.47871   117.92196    31.85258
   154  C   4.0   -0.05    4.27    4.14   -59.03509   120.30396    28.08502
   155  C   4.0   -0.05    4.23    4.06   -59.67101   117.73360    26.90204
   156  C   4.0    0.13    3.22    3.04   -61.78418   117.92242    24.95411
   157  O   6.0   -0.33    1.21    1.80   -63.92676   118.62525    25.44760
   158  N   5.0   -0.24    3.18    1.95   -61.09875   117.30679    22.58792
   159  H   1.0    0.10    1.10    1.44   -58.89193   124.24030    31.07950
   160  H   1.0    0.07    1.07    1.44   -62.96770   121.28168    28.70483
   161  H   1.0    0.04    1.03    1.43   -58.72618   121.72349    26.62119
   162  H   1.0    0.05    1.03    1.43   -57.33581   120.15925    29.24617
   163  H   1.0    0.01    1.03    1.43   -57.97777   116.95065    26.03814
   164  H   1.0    0.05    1.04    1.43   -60.31602   116.45130    28.38203
   165  H   1.0    0.03    1.03    1.43   -59.39896   116.53996    22.22447
   166  H   1.0    0.04    1.03    1.43   -62.44873   117.23947    21.24691
   167  N   5.0   -0.15    3.46    2.05   -59.85543   119.12362    33.73145
   168  C   4.0    0.03    4.37    4.33   -60.26535   117.40156    35.84077
   169  C   4.0    0.15    3.40    3.08   -62.63179   118.05010    37.42912
   170  O   6.0   -0.32    1.22    1.80   -63.39228   116.59804    39.06132
   171  C   4.0   -0.05    4.21    4.01   -57.82004   116.84735    37.34749
   172  C   4.0   -0.04    4.19    3.98   -57.45038   118.23335    39.87090
   173  C   4.0    0.13    3.20    3.04   -55.37782   117.05791    41.50016
   174  O   6.0   -0.38    1.22    1.80   -54.49945   114.96682    41.13099
   175  N   5.0   -0.21    3.18    1.95   -54.49680   118.52403    43.39195
   176  H   1.0    0.10    1.07    1.44   -58.48673   120.44978    33.87183
   177  H   1.0    0.05    1.07    1.44   -60.85407   115.61279    34.95113
   178  H   1.0    0.03    1.03    1.43   -57.79467   114.83614    37.79602
   179  H   1.0    0.04    1.03    1.43   -56.23419   117.25423    36.09929
   180  H   1.0    0.04    1.02    1.43   -57.06046   120.24149    39.62537
   181  H   1.0    0.05    1.03    1.43   -59.18755   118.10310    40.98635
   182  H   1.0    0.09    1.02    1.43   -55.28442   120.17512    43.91512
   183  H   1.0    0.07    1.03    1.43   -53.32074   117.74474    44.67266
   184  N   5.0   -0.13    3.56    2.12   -63.93100   120.09350    36.64387
   185  C   4.0    0.04    4.40    4.39   -66.26305   120.88113    37.78940
   186  C   4.0    0.14    3.51    3.12   -68.47527   120.71180    35.94144
   187  O   6.0   -0.33    1.39    1.80   -70.45453   119.77919    36.78570
   188  C   4.0   -0.04    4.30    4.20   -66.03790   123.48657    39.03200
   189  C   4.0   -0.01    3.53    3.13   -64.49871   123.40681    41.43209
   190  C   4.0   -0.06    3.47    3.10   -65.60610   123.99657    43.73826
   191  C   4.0   -0.04    3.48    3.11   -61.93311   122.82093    41.45335
   192  C   4.0   -0.06    3.45    3.09   -64.20931   124.14070    45.94229
   193  C   4.0   -0.05    3.43    3.09   -60.49835   123.01676    43.63549
   194  C   4.0    0.06    3.43    3.09   -61.59783   123.80749    45.88565
   195  O   6.0   -0.25    2.12    1.84   -60.25895   124.28844    48.02505
   196  H   1.0    0.11    1.13    1.45   -62.96564   121.47762    35.74712
   197  H   1.0    0.06    1.07    1.44   -66.70191   119.50235    39.28432
   198  H   1.0    0.05    1.03    1.43   -65.15273   124.78877    37.69202
   199  H   1.0    0.04    1.03    1.43   -67.91861   124.21485    39.45954
   200  H   1.0    0.03    1.03    1.43   -67.60416   124.41262    43.83295
   201  H   1.0    0.07    1.05    1.44   -61.00237   122.35354    39.70863
   202  H   1.0    0.04    1.03    1.43   -65.09436   124.59977    47.71986
   203  H   1.0    0.05    1.03    1.43   -58.47843   122.71276    43.62651
   204  H   1.0    0.15    1.10    1.44   -58.40903   124.14341    47.71121
   205  N   5.0   -0.13    3.52    2.09   -68.24287   121.16830    33.43520
   206  C   4.0    0.03    4.49    4.53   -70.44052   120.38293    31.99062
   207  C   4.0    0.15    3.53    3.13   -70.86942   117.57283    32.61745
   208  O   6.0   -0.34    1.20    1.80   -72.99261   116.69318    33.04412
   209  C   4.0   -0.05    4.26    4.12   -70.00082   120.91731    29.19167
   210  C   4.0   -0.07    4.17    3.94   -72.45832   120.96964    27.67052
   211  C   4.0   -0.03    4.20    4.00   -71.89516   121.31523    24.85203
   212  N   5.0   -0.18    3.38    2.01   -74.20982   121.63210    23.39087
   213  C   4.0    0.04    3.33    3.06   -74.35526   121.67536    20.87408
   214  N   5.0   -0.25    3.26    1.97   -72.32600   121.24540    19.46027
   215  N   5.0   -0.28    3.24    1.96   -76.55759   122.16409    19.75381
   216  H   1.0    0.11    1.09    1.44   -67.21158   122.65075    32.78141
   217  H   1.0    0.04    1.05    1.44   -72.15546   121.36468    32.64351
   218  H   1.0    0.05    1.03    1.43   -69.07743   122.76212    29.09067
   219  H   1.0    0.05    1.03    1.43   -68.69189   119.50585    28.45104
   220  H   1.0    0.02    1.02    1.43   -73.48793   119.21321    28.00606
   221  H   1.0    0.02    1.02    1.43   -73.62692   122.52320    28.37140
   222  H   1.0    0.02    1.02    1.43   -70.68631   122.98375    24.64425
   223  H   1.0    0.02    1.02    1.43   -70.86695   119.64137    24.21259
   224  H   1.0    0.03    1.07    1.44   -75.76745   122.04386    24.41111
   225  H   1.0    0.05    1.04    1.43   -70.64192   120.89027    20.27134
   226  H   1.0    0.00    1.03    1.43   -72.45040   121.20700    17.56042
   227  H   1.0    0.01    1.03    1.43   -78.13862   122.42120    20.77870
   228  H   1.0   -0.01    1.03    1.43   -76.71756   122.05670    17.85944
   229  N   5.0   -0.15    3.50    2.08   -68.74962   116.17456    32.50143
   230  C   4.0    0.03    4.37    4.33   -68.61299   113.47198    32.87415
   231  C   4.0    0.14    3.42    3.08   -68.67170   112.64927    35.65109
   232  O   6.0   -0.36    1.25    1.80   -67.76800   110.62350    36.34246
   233  C   4.0   -0.04    4.27    4.14   -66.31589   112.27628    31.58610
   234  C   4.0   -0.05    4.14    3.88   -66.61425   111.70192    28.77957
   235  C   4.0    0.21    3.08    3.02   -65.09367   109.27799    27.98352
   236  O   6.0   -0.40    1.16    1.80   -63.59171   109.52723    26.18707
   237  O   6.0   -0.42    1.17    1.80   -65.54580   107.28838    29.15721
   238  H   1.0    0.11    1.11    1.44   -67.07782   117.09318    32.29502
   239  H   1.0    0.03    1.06    1.44   -70.36977   112.66583    32.09026
   240  H   1.0    0.06    1.03    1.43   -64.69514   113.51343    31.90104
   241  H   1.0    0.05    1.05    1.44   -65.96507   110.49530    32.57569
   242  H   1.0    0.01    1.03    1.43   -68.59568   111.29514    28.36423
   243  H   1.0    0.04    1.02    1.43   -65.99607   113.29399    27.62511
   244  N   5.0   -0.14    3.49    2.07   -70.04822   114.13506    37.18781
   245  C   4.0    0.03    4.49    4.52   -70.86117   113.18286    39.60261
   246  C   4.0    0.13    3.52    3.12   -73.43250   114.17086    40.33076
   247  O   6.0   -0.35    1.34    1.80   -75.03076   112.67715    41.23343
   248  C   4.0   -0.04    4.31    4.21   -68.87548   113.48017    41.69295
   249  C   4.0   -0.05    4.08    3.77   -69.79972   112.30704    44.14361
   250  S   6.0   -0.15    2.55    3.10   -70.71233   108.99259    43.83351
   251  C   4.0   -0.15    3.88    3.44   -70.81600   108.18731    47.18845
   252  H   1.0    0.11    1.11    1.45   -70.46382   115.93662    36.72209
   253  H   1.0    0.04    1.11    1.45   -71.09136   111.12551    39.36413
   254  H   1.0    0.05    1.03    1.43   -67.14078   112.56921    41.04316
   255  H   1.0    0.04    1.02    1.43   -68.48515   115.48613    42.01192
   256  H   1.0    0.01    1.07    1.44   -68.31487   112.38386    45.57284
   257  H   1.0    0.02    1.07    1.44   -71.45602   113.33187    44.81410
   258  H   1.0   -0.05    1.05    1.44   -71.45170   106.24395    47.28384
   259  H   1.0   -0.02    1.04    1.43   -68.93713   108.39725    47.98311
   260  H   1.0   -0.02    1.03    1.43   -72.16785   109.40019    48.14596
   261  N   5.0   -0.15    3.42    2.03   -74.13255   116.59521    39.78178
   262  C   4.0    0.03    4.39    4.36   -76.84432   117.01693    39.75450
   263  C   4.0    0.06    3.39    3.08   -78.17589   114.78108    38.56230
   264  O   6.0   -0.42    1.12    1.80   -79.82636   113.48982    39.60158
   265  C   4.0   -0.07    4.38    4.34   -77.64302   119.32158    38.24179
   266  C   4.0   -0.03    4.18    3.97   -77.09695   121.84360    39.51911
   267  C   4.0   -0.12    4.13    3.86   -78.54285   123.89519    38.11186
   268  C   4.0   -0.12    4.13    3.86   -77.90353   121.88848    42.28116
   269  H   1.0    0.10    1.08    1.44   -73.01415   117.71870    38.72044
   270  H   1.0    0.02    1.06    1.44   -77.49530   117.13624    41.72135
   271  H   1.0    0.04    1.03    1.43   -76.68500   119.28289    36.41293
   272  H   1.0   -0.00    1.04    1.43   -79.67993   119.17212    37.90957
   273  H   1.0    0.04    1.05    1.44   -75.05772   122.22063    39.42041
   274  H   1.0    0.01    1.00    1.43   -78.05071   125.75291    38.84953
   275  H   1.0    0.01    1.00    1.43   -78.13783   123.85596    36.09920
   276  H   1.0   -0.02    1.00    1.43   -80.55382   123.60952    38.40626
   277  H   1.0   -0.01    1.00    1.43   -77.74953   123.79470    43.04616
   278  H   1.0   -0.02    1.00    1.43   -79.86012   121.29738    42.45033
   279  H   1.0    0.01    1.00    1.43   -76.74369   120.66083    43.45172
   280  N   5.0   -0.36    2.20    1.90   -62.58272   123.21877    57.99499
   281  C   4.0    0.04    4.22    4.04   -60.83043   122.93070    55.90580
   282  C   4.0    0.14    3.42    3.08   -60.50839   125.39877    54.41687
   283  O   6.0   -0.32    1.30    1.80   -58.39862   125.92251    53.56552
   284  C   4.0   -0.08    4.26    4.12   -61.44954   120.66181    54.22078
   285  C   4.0   -0.04    4.04    3.69   -59.48885   120.17411    52.13834
   286  S   6.0   -0.17    2.43    3.10   -56.62783   118.47468    53.01816
   287  C   4.0   -0.09    3.87    3.43   -55.14675   117.98909    49.94705
   288  H   1.0    0.05    1.01    1.43   -64.20041   122.17250    58.03019
   289  H   1.0    0.01    1.06    1.44   -58.94152   122.60069    56.72380
   290  H   1.0   -0.01    1.03    1.43   -61.65116   118.99469    55.42117
   291  H   1.0    0.02    1.03    1.43   -63.26188   121.00298    53.27935
   292  H   1.0    0.02    1.07    1.44   -60.37399   119.05507    50.63883
   293  H   1.0    0.07    1.08    1.44   -58.87713   121.96051    51.31759
   294  H   1.0    0.00    1.05    1.44   -53.16430   117.63835    50.31034
   295  H   1.0    0.01    1.03    1.43   -56.04926   116.41662    48.98427
   296  H   1.0    0.07    1.05    1.44   -55.35785   119.71782    48.85843
   297  N   5.0   -0.16    3.40    2.02   -62.47681   126.97498    54.13938
   298  C   4.0    0.05    4.33    4.26   -62.06902   129.41870    52.97822
   299  C   4.0    0.02    2.30    3.00   -60.18835   131.06861    54.40182
   300  O   6.0   -0.28    1.09    1.80   -58.29380   131.90970    53.34446
   301  C   4.0   -0.07    4.39    4.36   -64.41884   131.07364    52.82291
   302  C   4.0   -0.04    4.17    3.93   -66.25893   130.49789    50.67648
   303  C   4.0   -0.11    4.11    3.82   -67.98922   132.78230    50.30967
   304  C   4.0   -0.08    4.13    3.87   -64.90194   129.89375    48.21643
   305  H   1.0    0.05    1.05    1.44   -64.19663   126.63113    54.92119
   306  H   1.0    0.06    1.06    1.44   -61.22830   129.11132    51.10434
   307  H   1.0   -0.00    1.03    1.43   -65.43145   130.94304    54.61914
   308  H   1.0    0.05    1.05    1.44   -63.76626   133.02709    52.60400
   309  H   1.0    0.01    1.05    1.44   -67.40934   128.85322    51.21633
   310  H   1.0    0.01    1.00    1.43   -69.39922   132.40154    48.86174
   311  H   1.0   -0.01    1.00    1.43   -68.95825   133.24284    52.06550
   312  H   1.0    0.04    1.00    1.43   -66.89435   134.42084    49.72432
   313  H   1.0    0.03    1.00    1.43   -66.25170   129.56968    46.69602
   314  H   1.0    0.04    1.01    1.43   -63.68343   131.45479    47.68325
   315  H   1.0    0.04    1.01    1.43   -63.74630   128.21097    48.37720
   316  N   5.0   -0.31    2.20    1.90   -53.49587   128.02428    54.12650
   317  C   4.0    0.07    4.09    3.79   -52.44476   128.57124    51.66779
   318  C   4.0    0.02    2.20    3.00   -52.19804   131.45802    51.25659
   319  O   6.0   -0.34    1.09    1.80   -51.24088   132.32302    49.33112
   320  C   4.0   -0.02    4.25    4.10   -54.00167   127.42203    49.51820
   321  C   4.0    0.24    3.08    3.02   -53.67823   124.56423    48.87708
   322  O   6.0   -0.36    1.17    1.80   -51.84964   123.38844    49.70938
   323  O   6.0   -0.34    1.27    1.80   -55.31908   123.67074    47.38053
   324  H   1.0    0.14    1.06    1.44   -55.35878   127.59768    54.14659
   325  H   1.0    0.02    1.05    1.44   -50.51709   127.79733    51.58402
   326  H   1.0    0.07    1.03    1.43   -56.01523   127.73640    49.86032
   327  H   1.0    0.05    1.04    1.43   -53.49837   128.38723    47.76060
   328  N   5.0   -0.28    2.21    1.90   -55.73119   137.10962    50.47450
   329  C   4.0    0.05    4.34    4.28   -58.13574   137.85514    49.38146
   330  C   4.0    0.14    3.41    3.08   -60.10067   138.89979    51.25931
   331  O   6.0   -0.33    1.20    1.80   -61.12419   137.61633    52.89854
   332  C   4.0   -0.02    4.37    4.32   -59.24756   135.55575    48.00540
   333  C   4.0   -0.05    4.19    3.98   -57.53980   134.72614    45.79995
   334  C   4.0   -0.07    4.16    3.92   -61.93353   136.12396    47.15273
   335  C   4.0   -0.07    4.03    3.67   -56.79691   131.96914    46.07069
   336  H   1.0    0.11    1.03    1.43   -54.77865   135.86872    49.37377
   337  H   1.0    0.02    1.06    1.44   -57.73646   139.33873    47.97781
   338  H   1.0    0.07    1.07    1.44   -59.33681   134.02309    49.40069
   339  H   1.0    0.03    1.03    1.43   -58.52118   134.96439    44.00740
   340  H   1.0    0.03    1.03    1.43   -55.82141   135.86486    45.71113
   341  H   1.0    0.03    1.00    1.43   -62.61789   134.69761    45.83428
   342  H   1.0    0.06    1.01    1.43   -63.21829   136.15511    48.75714
   343  H   1.0    0.04    1.01    1.43   -62.05838   137.95715    46.25627
   344  H   1.0    0.04    1.00    1.43   -55.47658   131.38936    44.60529
   345  H   1.0    0.06    1.01    1.43   -55.94566   131.65726    47.90959
   346  H   1.0    0.04    1.00    1.43   -58.45128   130.74144    45.94336
   347  N   5.0   -0.17    3.44    2.04   -60.59881   141.40252    50.86126
   348  C   4.0    0.03    4.23    4.07   -62.79708   142.72712    51.86880
   349  C   4.0    0.01    2.23    3.00   -65.30452   141.53206    51.01211
   350  O   6.0   -0.31    1.12    1.80   -65.36948   140.24958    49.06090
   351  C   4.0   -0.06    4.27    4.14   -62.72670   145.40604    50.78090
   352  C   4.0    0.21    3.07    3.02   -64.74146   147.35887    51.77405
   353  O   6.0   -0.45    1.16    1.80   -64.82348   147.71536    54.10082
   354  O   6.0   -0.40    1.16    1.80   -65.95458   148.52690    50.14471
   355  H   1.0    0.06    1.09    1.44   -60.16611   142.00405    49.10032
   356  H   1.0    0.01    1.05    1.44   -62.65940   142.71090    53.92793
   357  H   1.0   -0.00    1.03    1.43   -60.86602   146.21785    51.17298
   358  H   1.0    0.04    1.03    1.43   -62.99378   145.29516    48.73040
   359  N   5.0   -0.36    2.22    1.90   -70.82567   148.56296    43.70408
   360  C   4.0    0.04    4.22    4.05   -69.77064   147.91437    41.25687
   361  C   4.0    0.10    3.36    3.07   -70.23079   145.00427    40.88892
   362  O   6.0   -0.35    1.26    1.80   -70.77497   144.36032    38.57123
   363  C   4.0   -0.06    4.27    4.14   -67.06780   148.83584    41.05388
   364  C   4.0   -0.06    4.15    3.91   -66.04870   148.92288    38.36775
   365  C   4.0    0.21    3.09    3.02   -63.15341   149.51470    38.39126
   366  O   6.0   -0.35    1.16    1.80   -61.73312   147.93794    39.41403
   367  O   6.0   -0.44    1.16    1.80   -62.48355   151.53960    37.38947
   368  H   1.0    0.09    1.02    1.43   -69.50169   148.25410    45.07315
   369  H   1.0   -0.00    1.05    1.44   -70.96497   148.82169    39.80772
   370  H   1.0   -0.00    1.03    1.43   -66.99864   150.73101    41.88542
   371  H   1.0    0.05    1.04    1.43   -65.87901   147.58751    42.19786
   372  H   1.0    0.04    1.02    1.43   -66.34393   147.07618    37.48107
   373  H   1.0   -0.01    1.02    1.43   -67.03800   150.36718    37.27421
   374  N   5.0   -0.15    3.39    2.02   -68.11396   143.59324    42.00347
   375  C   4.0    0.05    4.33    4.26   -67.37382   141.44190    40.51649
   376  C   4.0    0.03    2.33    3.00   -69.54579   139.70844    39.87170
   377  O   6.0   -0.32    1.17    1.80   -69.51016   138.12768    38.08619
   378  C   4.0   -0.05    4.38    4.34   -65.39088   139.81325    41.83934
   379  C   4.0   -0.02    4.17    3.95   -62.71589   140.91034    41.65669
   380  C   4.0   -0.08    4.09    3.79   -62.16014   142.58452    43.93085
   381  C   4.0   -0.09    4.09    3.79   -60.80410   138.77745    41.29250
   382  H   1.0    0.06    1.07    1.44   -68.64006   143.01610    43.76014
   383  H   1.0    0.05    1.05    1.44   -66.57457   142.11276    38.69612
   384  H   1.0    0.04    1.03    1.43   -65.98300   139.57514    43.80732
   385  H   1.0    0.04    1.04    1.43   -65.46072   137.93915    40.94447
   386  H   1.0    0.04    1.06    1.44   -62.64436   142.12820    39.97483
   387  H   1.0    0.03    1.00    1.43   -60.16231   143.06174    44.00711
   388  H   1.0    0.04    1.00    1.43   -63.24347   144.32403    43.75465
   389  H   1.0    0.05    1.00    1.43   -62.75412   141.67243    45.67257
   390  H   1.0    0.04    1.00    1.43   -58.87566   139.39489    41.64559
   391  H   1.0    0.03    1.01    1.43   -61.25370   137.21808    42.53707
   392  H   1.0    0.03    1.00    1.43   -60.92076   138.05916    39.36420
   393  N   5.0   -0.31    2.21    1.90   -71.31000   141.54515    33.54214
   394  C   4.0    0.04    4.20    4.00   -69.82859   140.25843    31.63020
   395  C   4.0    0.13    3.40    3.08   -70.90776   137.73962    30.75376
   396  O   6.0   -0.38    1.21    1.80   -70.83631   137.12994    28.48380
   397  C   4.0    0.02    4.14    3.88   -67.07044   139.95651    32.47560
   398  O   6.0   -0.27    2.06    1.83   -66.58392   137.83282    33.99312
   399  H   1.0    0.14    1.03    1.43   -70.71815   141.39329    35.35044
   400  H   1.0   -0.00    1.06    1.44   -69.84736   141.48830    29.95144
   401  H   1.0    0.02    1.02    1.43   -65.87748   139.69139    30.80714
   402  H   1.0    0.03    1.01    1.43   -66.50223   141.70074    33.47085
   403  H   1.0    0.16    1.09    1.44   -67.65396   137.90708    35.50084
   404  N   5.0   -0.15    3.43    2.03   -71.80660   136.17002    32.57629
   405  C   4.0    0.04    4.30    4.20   -72.99219   133.82138    31.90250
   406  C   4.0   -0.03    2.21    3.00   -75.88172   134.01161    31.66204
   407  O   6.0   -0.37    1.11    1.80   -77.26868   132.17435    32.11681
   408  C   4.0   -0.04    4.34    4.28   -72.25957   131.68465    33.69805
   409  C   4.0   -0.04    4.05    3.71   -70.28320   129.94970    32.57172
   410  S   6.0   -0.05    2.53    3.10   -69.76584   127.04871    34.37545
   411  C   4.0   -0.08    3.90    3.46   -73.01200   125.98175    34.70175
   412  H   1.0    0.08    1.06    1.44   -72.20584   136.86245    34.30862
   413  H   1.0    0.04    1.08    1.44   -72.28297   133.39895    29.98710
   414  H   1.0    0.04    1.03    1.43   -71.60221   132.48677    35.49351
   415  H   1.0    0.05    1.06    1.44   -73.98917   130.62660    34.09499
   416  H   1.0    0.03    1.07    1.44   -70.81976   129.39022    30.66168
   417  H   1.0    0.04    1.07    1.44   -68.43662   130.86588    32.51576
   418  H   1.0    0.05    1.05    1.44   -72.91074   124.05430    35.40096
   419  H   1.0    0.03    1.03    1.43   -74.01722   127.13823    36.07542
   420  H   1.0    0.03    1.04    1.43   -73.94787   126.06105    32.87910
   421  H   1.0    0.04    1.08    1.44   -41.15346   138.30702    31.58327
   422  H   1.0    0.03    1.05    1.44   -77.73896   114.24972    36.80223

  Z AO/shell   Hii/eV     exponent
  1     Wed Apr 25 08:07:45 CEST 2018   EN: 2.200 GM2: 0.406  GM3: 0.0800  RAES: 1.40
     1s    -10.707211    1.230000
  6     Wed Apr 25 08:07:45 CEST 2018   EN: 2.550 GM2: 0.538  GM3: 0.1500  RAES: 3.00
     2s    -13.970922    2.096432
     2p    -10.063292    1.800000
  7     Wed Apr 25 08:07:45 CEST 2018   EN: 3.040 GM2: 0.461  GM3:-0.0640  RAES: 1.90
     2s    -16.686243    2.339881
     2p    -12.523956    2.014332
  8     Wed Apr 25 08:07:45 CEST 2018   EN: 3.440 GM2: 0.452  GM3:-0.0517  RAES: 1.80
     2s    -20.229985    2.439742
     2p    -15.503117    2.137023
 16     Tue Apr 24 11:44:34 CEST 2018   EN: 2.580 GM2: 0.340  GM3:-0.0502  RAES: 3.10
     3s    -20.029654    1.981333
     3p    -11.377694    2.025643
     3d     -0.420282    1.702555
 no old-style atom pair restraining (fixing) potential

molecular fragmentation (1/2 indicates fragments):
111111111111111111111111111111111111111111111111111111111111111111111111
111111111111111111111111111111111111111111111111111111111111111111111111
111111111111111111111111111111111111111111111111111111111111111111111111
111111111111111111111111111111111111111111111111111111111111111222222222
222222222222222222222222222222222222222222222222222222222222222222222222
22222222222222222222222222222222222222222222222222222222222211
# atoms in fragment 1/2:   281   141
 fragment masses (1/2) :     1964.29     1045.21
CMA distance (Bohr)    :  16.737
constraining FC (au)   :  0.0500
           ------------------------------------------------- 
          |        Self-Consistent Charge Iterations        |
           ------------------------------------------------- 

 Ncao       : 1064
 Nao        : 1061
 Nshell     : 633
 Nel        : 1182
 T(el)      :   500.0
 intcut     :    35.0
 scfconv/Eh :  0.100E-06
   qconv/e  :  0.100E-04
 intneglect :  0.100E-08
 broydamp   :      0.400
 iter      E             dE          RMSdq      gap      omega  full diag
   1   -672.6927065 -0.672693E+03  0.494E+00    0.21       0.0  T
   2   -668.1528240  0.453988E+01  0.394E+00    0.02       1.0  T
   3   -671.9974419 -0.384462E+01  0.289E+00    0.07       1.0  T
   4   -673.2596772 -0.126224E+01  0.238E+00    0.24       1.0  T
   5   -673.9096641 -0.649987E+00  0.190E+00    0.40       1.0  T
   6   -674.6398604 -0.730196E+00  0.151E+00    0.19       1.0  T
   7   -675.0986300 -0.458770E+00  0.118E+00    0.26       1.0  T
   8   -675.1981234 -0.994934E-01  0.106E+00    0.01       1.0  T
   9   -675.3407034 -0.142580E+00  0.910E-01    0.17       1.0  T
  10   -675.2872992  0.534042E-01  0.916E-01    0.02       1.0  T
  11   -673.4620893  0.182521E+01  0.197E+00    0.08       1.0  T
  12   -675.2891348 -0.182705E+01  0.762E-01    0.11       1.0  T
  13   -674.3570138  0.932121E+00  0.157E+00    0.12       1.0  T
  14   -674.9465679 -0.589554E+00  0.106E+00    0.00       1.0  T
  15   -675.2132854 -0.266717E+00  0.830E-01    0.00       1.0  T
  16   -675.3866601 -0.173375E+00  0.641E-01    0.06       1.0  T
  17   -675.4810488 -0.943887E-01  0.489E-01    0.06       1.0  T
  18   -675.4229003  0.581485E-01  0.592E-01    0.02       1.0  T
  19   -675.5046694 -0.817691E-01  0.421E-01    0.05       1.0  T
  20   -675.5515237 -0.468544E-01  0.303E-01    0.03       1.0  T
  21   -675.5639199 -0.123962E-01  0.263E-01    0.06       1.0  T
  22   -675.5761409 -0.122209E-01  0.209E-01    0.04       1.0  T
  23   -675.5805159 -0.437505E-02  0.195E-01    0.05       1.0  T
  24   -675.5804425  0.733772E-04  0.198E-01    0.01       1.0  T
  25   -675.5945706 -0.141281E-01  0.107E-01    0.05       1.0  T
  26   -675.5970067 -0.243610E-02  0.838E-02    0.04       1.0  T
  27   -675.5964546  0.552041E-03  0.885E-02    0.02       1.0  T
  28   -675.6002466 -0.379199E-02  0.270E-02    0.03       1.0  T
  29   -675.5996235  0.623168E-03  0.423E-02    0.03       1.0  T
  30   -675.6003916 -0.768118E-03  0.222E-02    0.03       1.0  T
  31   -675.6006171 -0.225528E-03  0.772E-03    0.03       1.0  T
  32   -675.6006425 -0.254091E-04  0.391E-03    0.03       1.2  T
  33   -675.6006343  0.817646E-05  0.541E-03    0.03       1.0  T
  34   -675.6006442 -0.981881E-05  0.346E-03    0.03       1.4  T
  35   -675.6006488 -0.461663E-05  0.185E-03    0.03       2.6  T
  36   -675.6006496 -0.866885E-06  0.110E-03    0.03       4.4  T
  37   -675.6006499 -0.274855E-06  0.803E-04    0.03       6.1  T
  38   -675.6006502 -0.288914E-06  0.360E-04    0.03      13.5  T
  39   -675.6006502 -0.305444E-07  0.272E-04    0.03      17.9  T
  40   -675.6006503 -0.278866E-07  0.149E-04    0.03      32.8  T
  41   -675.6006503 -0.776345E-08  0.901E-05    0.03      54.0  T
  42   -675.6006503 -0.400246E-08  0.244E-05    0.03     199.4  T
speedup  1.96
cpu  time for SCC   34.06 s
wall time for SCC   17.34 s

   *** convergence criteria satisfied after 42 iterations ***

          eigenvalues
 #    :         579        580        581        582        583        584        585        586
 occ. :        2.000      2.000      2.000      2.000      2.000      1.971      1.912      1.855
 eps  :        -8.486     -8.282     -8.151     -7.760     -7.371     -7.154     -7.105     -7.083
 #    :         587        588        589        590        591        592        593        594
 occ. :        1.850      1.840      1.720      1.652      1.370      1.002      0.332      0.233
 eps  :        -7.081     -7.078     -7.051     -7.040     -7.006     -6.973     -6.903     -6.885
 #    :         595        596        597        598        599        600        601        602
 occ. :        0.118      0.079      0.057      0.005      0.003      0.000      0.000      0.000
 eps  :        -6.854     -6.835     -6.821     -6.712     -6.696     -6.554     -6.501     -6.446


   #   Z            q   n(s)   n(p)   n(d)      C6AA      α(0)
   1   7 N     -0.400  1.318  4.082  0.000    30.373     8.185
   2   6 C      0.028  1.056  2.916  0.000    20.111     6.386
   3   6 C      0.266  1.047  2.688  0.000    22.514     7.772
   4   8 O     -0.535  1.766  4.769  0.000    24.576     6.647
   5   6 C     -0.023  1.066  2.957  0.000    20.946     6.509
   6   6 C     -0.111  1.038  3.074  0.000    22.683     6.791
   7   6 C     -0.114  1.040  3.074  0.000    22.725     6.796
   8   1 H      0.183  0.817  0.000  0.000     1.198     1.714
   9   1 H      0.025  0.975  0.000  0.000     2.654     2.548
  10   1 H      0.062  0.938  0.000  0.000     2.179     2.308
  11   1 H      0.058  0.942  0.000  0.000     2.228     2.334
  12   1 H      0.040  0.960  0.000  0.000     2.453     2.449
  13   1 H      0.018  0.982  0.000  0.000     2.759     2.597
  14   1 H      0.060  0.940  0.000  0.000     2.203     2.321
  15   1 H      0.018  0.982  0.000  0.000     2.763     2.599
  16   1 H      0.052  0.948  0.000  0.000     2.299     2.371
  17   7 N     -0.174  1.246  3.929  0.000    24.775     7.392
  18   6 C      0.022  1.065  2.913  0.000    20.192     6.395
  19   6 C      0.277  1.042  2.680  0.000    22.307     7.735
  20   8 O     -0.498  1.744  4.754  0.000    23.734     6.532
  21   6 C     -0.061  1.054  3.007  0.000    21.666     6.627
  22   6 C     -0.096  1.069  3.027  0.000    22.339     6.730
  23   6 C      0.370  1.024  2.607  0.000    20.730     7.451
  24   8 O     -0.619  1.753  4.866  0.000    26.602     6.915
  25   8 O     -0.635  1.772  4.863  0.000    27.003     6.967
  26   1 H      0.236  0.764  0.000  0.000     0.941     1.519
  27   1 H      0.076  0.924  0.000  0.000     2.020     2.223
  28   1 H      0.064  0.936  0.000  0.000     2.152     2.294
  29   1 H      0.059  0.941  0.000  0.000     2.209     2.324
  30   1 H      0.020  0.980  0.000  0.000     2.734     2.586
  31   1 H      0.015  0.985  0.000  0.000     2.804     2.619
  32   7 N     -0.188  1.248  3.940  0.000    25.080     7.438
  33   6 C      0.028  1.058  2.914  0.000    20.101     6.384
  34   6 C      0.279  1.044  2.677  0.000    22.281     7.731
  35   8 O     -0.527  1.766  4.761  0.000    24.393     6.622
  36   6 C     -0.050  1.052  2.998  0.000    21.469     6.595
  37   6 C     -0.105  1.071  3.034  0.000    22.503     6.755
  38   6 C      0.364  1.027  2.609  0.000    20.818     7.467
  39   8 O     -0.656  1.788  4.867  0.000    27.524     7.034
  40   8 O     -0.613  1.743  4.869  0.000    26.429     6.892
  41   1 H      0.224  0.776  0.000  0.000     0.992     1.560
  42   1 H      0.098  0.902  0.000  0.000     1.807     2.102
  43   1 H      0.063  0.937  0.000  0.000     2.163     2.300
  44   1 H      0.004  0.996  0.000  0.000     2.992     2.705
  45   1 H      0.059  0.941  0.000  0.000     2.213     2.326
  46   1 H      0.038  0.962  0.000  0.000     2.482     2.464
  47   7 N     -0.236  1.302  3.934  0.000    26.162     7.597
  48   6 C      0.046  1.052  2.901  0.000    19.786     6.331
  49   6 C      0.272  1.044  2.683  0.000    22.396     7.750
  50   8 O     -0.566  1.772  4.794  0.000    25.294     6.743
  51   6 C     -0.067  1.058  3.009  0.000    21.785     6.645
  52   6 C     -0.047  1.049  2.998  0.000    21.413     6.588
  53   6 C      0.005  1.052  2.942  0.000    20.562     6.469
  54   7 N     -0.255  1.365  3.890  0.000    26.623     7.663
  55   6 C      0.002  1.171  2.826  0.000    27.954     8.656
  56   7 N     -0.352  1.356  3.997  0.000    29.078     8.009
  57   7 N     -0.370  1.374  3.995  0.000    29.539     8.072
  58   1 H      0.232  0.768  0.000  0.000     0.957     1.533
  59   1 H      0.027  0.973  0.000  0.000     2.625     2.534
  60   1 H      0.083  0.917  0.000  0.000     1.950     2.184
  61   1 H      0.044  0.956  0.000  0.000     2.399     2.422
  62   1 H     -0.019  1.019  0.000  0.000     3.404     2.885
  63   1 H      0.012  0.988  0.000  0.000     2.851     2.641
  64   1 H      0.068  0.932  0.000  0.000     2.107     2.270
  65   1 H      0.054  0.946  0.000  0.000     2.267     2.355
  66   1 H      0.132  0.868  0.000  0.000     1.527     1.936
  67   1 H      0.083  0.917  0.000  0.000     1.958     2.192
  68   1 H      0.110  0.890  0.000  0.000     1.711     2.049
  69   1 H      0.078  0.922  0.000  0.000     2.014     2.223
  70   1 H      0.084  0.916  0.000  0.000     1.956     2.191
  71   7 N     -0.193  1.254  3.940  0.000    25.194     7.455
  72   6 C      0.039  1.056  2.906  0.000    19.926     6.355
  73   6 C      0.265  1.045  2.691  0.000    22.537     7.774
  74   8 O     -0.485  1.736  4.749  0.000    23.459     6.494
  75   6 C      0.120  1.047  2.833  0.000    18.718     6.177
  76   8 O     -0.503  1.742  4.761  0.000    22.956     6.468
  77   6 C     -0.142  1.045  3.097  0.000    23.304     6.884
  78   1 H      0.239  0.761  0.000  0.000     0.927     1.508
  79   1 H      0.023  0.977  0.000  0.000     2.694     2.567
  80   1 H      0.046  0.954  0.000  0.000     2.372     2.408
  81   1 H      0.358  0.642  0.000  0.000     0.570     1.186
  82   1 H      0.091  0.909  0.000  0.000     1.865     2.136
  83   1 H      0.078  0.922  0.000  0.000     2.002     2.212
  84   1 H      0.035  0.965  0.000  0.000     2.510     2.478
  85   7 N     -0.179  1.247  3.932  0.000    24.875     7.407
  86   6 C      0.017  1.062  2.921  0.000    20.300     6.416
  87   6 C      0.257  1.047  2.697  0.000    22.682     7.800
  88   8 O     -0.470  1.718  4.751  0.000    23.123     6.447
  89   6 C     -0.080  1.056  3.025  0.000    22.030     6.682
  90   6 C     -0.104  1.059  3.044  0.000    22.478     6.750
  91   6 C     -0.033  1.055  2.978  0.000    21.241     6.577
  92   7 N     -0.142  1.208  3.934  0.000    24.072     7.287
  93   6 C      0.233  1.019  2.749  0.000    23.119     7.872
  94   7 N     -0.225  1.220  4.006  0.000    25.928     7.563
  95   7 N     -0.252  1.233  4.019  0.000    26.558     7.654
  96   1 H      0.207  0.793  0.000  0.000     1.069     1.620
  97   1 H      0.108  0.892  0.000  0.000     1.716     2.049
  98   1 H      0.092  0.908  0.000  0.000     1.858     2.131
  99   1 H      0.044  0.956  0.000  0.000     2.391     2.418
 100   1 H      0.103  0.897  0.000  0.000     1.755     2.072
 101   1 H      0.079  0.921  0.000  0.000     1.987     2.204
 102   1 H      0.094  0.906  0.000  0.000     1.840     2.121
 103   1 H      0.078  0.922  0.000  0.000     2.002     2.212
 104   1 H      0.255  0.745  0.000  0.000     0.863     1.456
 105   1 H      0.209  0.791  0.000  0.000     1.059     1.612
 106   1 H      0.247  0.753  0.000  0.000     0.894     1.481
 107   1 H      0.268  0.732  0.000  0.000     0.817     1.416
 108   1 H      0.264  0.736  0.000  0.000     0.831     1.428
 109   7 N     -0.183  1.247  3.936  0.000    24.957     7.420
 110   6 C      0.036  1.057  2.907  0.000    19.956     6.359
 111   6 C      0.224  1.052  2.725  0.000    23.290     7.903
 112   8 O     -0.547  1.751  4.796  0.000    24.849     6.683
 113   6 C     -0.035  1.042  2.993  0.000    21.198     6.555
 114   6 C     -0.047  1.045  3.002  0.000    21.422     6.590
 115   6 C     -0.083  1.052  3.031  0.000    22.079     6.691
 116   6 C     -0.031  1.053  2.978  0.000    21.223     6.575
 117   7 N     -0.141  1.231  3.910  0.000    24.045     7.283
 118   1 H      0.179  0.821  0.000  0.000     1.223     1.732
 119   1 H      0.091  0.909  0.000  0.000     1.866     2.136
 120   1 H     -0.028  1.028  0.000  0.000     3.583     2.960
 121   1 H      0.004  0.996  0.000  0.000     2.997     2.707
 122   1 H      0.050  0.950  0.000  0.000     2.322     2.383
 123   1 H     -0.005  1.005  0.000  0.000     3.152     2.776
 124   1 H      0.068  0.932  0.000  0.000     2.109     2.271
 125   1 H      0.083  0.917  0.000  0.000     1.951     2.185
 126   1 H      0.103  0.897  0.000  0.000     1.754     2.071
 127   1 H      0.097  0.903  0.000  0.000     1.812     2.105
 128   1 H      0.324  0.676  0.000  0.000     0.647     1.260
 129   1 H      0.311  0.689  0.000  0.000     0.681     1.293
 130   1 H      0.307  0.693  0.000  0.000     0.693     1.304
 131   7 N     -0.222  1.273  3.948  0.000    25.841     7.550
 132   6 C      0.063  1.045  2.891  0.000    19.515     6.289
 133   6 C      0.277  1.040  2.683  0.000    22.311     7.735
 134   8 O     -0.487  1.731  4.756  0.000    23.496     6.499
 135   6 C     -0.068  1.057  3.011  0.000    21.793     6.645
 136   6 C      0.015  1.050  2.935  0.000    20.295     6.408
 137   6 C     -0.065  1.029  3.036  0.000    21.813     6.660
 138   6 C     -0.098  1.038  3.060  0.000    22.425     6.752
 139   1 H      0.171  0.829  0.000  0.000     1.267     1.763
 140   1 H     -0.002  1.002  0.000  0.000     3.096     2.752
 141   1 H      0.077  0.923  0.000  0.000     2.012     2.218
 142   1 H      0.068  0.932  0.000  0.000     2.106     2.270
 143   1 H     -0.008  1.008  0.000  0.000     3.208     2.801
 144   1 H     -0.023  1.023  0.000  0.000     3.487     2.920
 145   1 H     -0.006  1.006  0.000  0.000     3.161     2.780
 146   1 H      0.034  0.966  0.000  0.000     2.533     2.489
 147   1 H      0.011  0.989  0.000  0.000     2.879     2.653
 148   1 H      0.044  0.956  0.000  0.000     2.395     2.420
 149   1 H      0.065  0.935  0.000  0.000     2.141     2.288
 150   7 N     -0.166  1.239  3.928  0.000    24.600     7.366
 151   6 C      0.016  1.062  2.922  0.000    20.305     6.417
 152   6 C      0.272  1.050  2.678  0.000    22.406     7.751
 153   8 O     -0.474  1.737  4.737  0.000    23.211     6.459
 154   6 C     -0.080  1.057  3.024  0.000    22.028     6.681
 155   6 C     -0.105  1.059  3.046  0.000    22.496     6.752
 156   6 C      0.288  1.038  2.674  0.000    22.115     7.700
 157   8 O     -0.503  1.757  4.745  0.000    23.841     6.546
 158   7 N     -0.290  1.273  4.017  0.000    27.475     7.785
 159   1 H      0.193  0.807  0.000  0.000     1.142     1.674
 160   1 H      0.112  0.888  0.000  0.000     1.678     2.026
 161   1 H      0.083  0.917  0.000  0.000     1.952     2.185
 162   1 H      0.080  0.920  0.000  0.000     1.976     2.198
 163   1 H      0.099  0.901  0.000  0.000     1.796     2.096
 164   1 H      0.060  0.940  0.000  0.000     2.197     2.318
 165   1 H      0.245  0.755  0.000  0.000     0.905     1.490
 166   1 H      0.247  0.753  0.000  0.000     0.897     1.483
 167   7 N     -0.179  1.247  3.932  0.000    24.875     7.407
 168   6 C      0.017  1.069  2.915  0.000    20.304     6.417
 169   6 C      0.280  1.047  2.673  0.000    22.255     7.725
 170   8 O     -0.493  1.749  4.744  0.000    23.629     6.517
 171   6 C     -0.078  1.055  3.023  0.000    21.990     6.677
 172   6 C     -0.085  1.050  3.035  0.000    22.120     6.696
 173   6 C      0.291  1.040  2.670  0.000    22.072     7.692
 174   8 O     -0.431  1.714  4.717  0.000    22.304     6.332
 175   7 N     -0.271  1.254  4.016  0.000    27.003     7.718
 176   1 H      0.203  0.797  0.000  0.000     1.090     1.636
 177   1 H      0.103  0.897  0.000  0.000     1.760     2.075
 178   1 H      0.107  0.893  0.000  0.000     1.724     2.053
 179   1 H      0.102  0.898  0.000  0.000     1.764     2.077
 180   1 H      0.028  0.972  0.000  0.000     2.613     2.528
 181   1 H      0.043  0.957  0.000  0.000     2.411     2.428
 182   1 H      0.151  0.849  0.000  0.000     1.393     1.849
 183   1 H      0.221  0.779  0.000  0.000     1.004     1.570
 184   7 N     -0.196  1.254  3.942  0.000    25.253     7.464
 185   6 C      0.044  1.054  2.902  0.000    19.841     6.343
 186   6 C      0.260  1.054  2.686  0.000    22.626     7.791
 187   8 O     -0.509  1.736  4.774  0.000    23.992     6.567
 188   6 C     -0.051  1.049  3.002  0.000    21.487     6.599
 189   6 C     -0.000  1.079  2.921  0.000    28.035     8.685
 190   6 C     -0.046  1.084  2.962  0.000    29.146     8.854
 191   6 C     -0.046  1.083  2.963  0.000    29.138     8.852
 192   6 C     -0.061  1.073  2.988  0.000    29.506     8.908
 193   6 C     -0.069  1.074  2.995  0.000    29.709     8.938
 194   6 C      0.152  1.047  2.801  0.000    24.707     8.146
 195   8 O     -0.478  1.744  4.734  0.000    22.426     6.393
 196   1 H      0.211  0.789  0.000  0.000     1.052     1.606
 197   1 H      0.064  0.936  0.000  0.000     2.158     2.298
 198   1 H      0.027  0.973  0.000  0.000     2.624     2.533
 199   1 H      0.037  0.963  0.000  0.000     2.484     2.465
 200   1 H      0.039  0.961  0.000  0.000     2.467     2.456
 201   1 H      0.069  0.931  0.000  0.000     2.099     2.266
 202   1 H      0.019  0.981  0.000  0.000     2.754     2.595
 203   1 H      0.015  0.985  0.000  0.000     2.814     2.623
 204   1 H      0.301  0.699  0.000  0.000     0.719     1.332
 205   7 N     -0.183  1.274  3.909  0.000    24.960     7.420
 206   6 C      0.026  1.064  2.910  0.000    20.119     6.383
 207   6 C      0.281  1.045  2.674  0.000    22.237     7.722
 208   8 O     -0.491  1.740  4.751  0.000    23.587     6.512
 209   6 C     -0.080  1.055  3.025  0.000    22.024     6.681
 210   6 C     -0.076  1.052  3.024  0.000    21.954     6.671
 211   6 C     -0.023  1.053  2.970  0.000    21.063     6.549
 212   7 N     -0.142  1.209  3.933  0.000    24.070     7.287
 213   6 C      0.232  1.018  2.750  0.000    23.128     7.874
 214   7 N     -0.245  1.225  4.019  0.000    26.378     7.628
 215   7 N     -0.255  1.233  4.022  0.000    26.632     7.665
 216   1 H      0.215  0.785  0.000  0.000     1.034     1.593
 217   1 H      0.064  0.936  0.000  0.000     2.159     2.298
 218   1 H      0.061  0.939  0.000  0.000     2.190     2.314
 219   1 H      0.075  0.925  0.000  0.000     2.030     2.228
 220   1 H      0.075  0.925  0.000  0.000     2.030     2.228
 221   1 H      0.053  0.947  0.000  0.000     2.287     2.365
 222   1 H      0.074  0.926  0.000  0.000     2.043     2.235
 223   1 H      0.098  0.902  0.000  0.000     1.806     2.102
 224   1 H      0.224  0.776  0.000  0.000     0.990     1.559
 225   1 H      0.238  0.762  0.000  0.000     0.929     1.510
 226   1 H      0.275  0.725  0.000  0.000     0.793     1.395
 227   1 H      0.248  0.752  0.000  0.000     0.890     1.478
 228   1 H      0.275  0.725  0.000  0.000     0.791     1.393
 229   7 N     -0.190  1.249  3.941  0.000    25.119     7.444
 230   6 C      0.028  1.064  2.909  0.000    20.122     6.389
 231   6 C      0.273  1.049  2.678  0.000    22.392     7.749
 232   8 O     -0.478  1.744  4.733  0.000    23.293     6.471
 233   6 C     -0.055  1.047  3.008  0.000    21.550     6.609
 234   6 C     -0.096  1.070  3.027  0.000    22.346     6.731
 235   6 C      0.371  1.026  2.603  0.000    20.707     7.447
 236   8 O     -0.629  1.758  4.871  0.000    26.839     6.946
 237   8 O     -0.640  1.771  4.868  0.000    27.111     6.981
 238   1 H      0.212  0.788  0.000  0.000     1.045     1.602
 239   1 H      0.082  0.918  0.000  0.000     1.964     2.192
 240   1 H      0.030  0.970  0.000  0.000     2.580     2.512
 241   1 H      0.061  0.939  0.000  0.000     2.187     2.313
 242   1 H      0.027  0.973  0.000  0.000     2.633     2.538
 243   1 H      0.026  0.974  0.000  0.000     2.637     2.540
 244   7 N     -0.204  1.248  3.956  0.000    25.430     7.490
 245   6 C      0.043  1.052  2.905  0.000    19.856     6.344
 246   6 C      0.259  1.051  2.691  0.000    22.648     7.794
 247   8 O     -0.476  1.752  4.723  0.000    23.249     6.465
 248   6 C     -0.047  1.046  3.001  0.000    21.391     6.581
 249   6 C      0.003  1.061  2.936  0.000    20.535     6.453
 250  16 S     -0.219  1.914  4.247  0.059   150.401    20.641
 251   6 C     -0.071  1.060  3.012  0.000    21.942     6.682
 252   1 H      0.193  0.807  0.000  0.000     1.142     1.674
 253   1 H      0.089  0.911  0.000  0.000     1.890     2.150
 254   1 H      0.055  0.945  0.000  0.000     2.257     2.349
 255   1 H      0.005  0.995  0.000  0.000     2.970     2.695
 256   1 H      0.038  0.962  0.000  0.000     2.482     2.464
 257   1 H      0.021  0.979  0.000  0.000     2.713     2.576
 258   1 H      0.115  0.885  0.000  0.000     1.651     2.009
 259   1 H      0.067  0.933  0.000  0.000     2.120     2.277
 260   1 H      0.062  0.938  0.000  0.000     2.172     2.305
 261   7 N     -0.201  1.273  3.927  0.000    25.363     7.480
 262   6 C      0.039  1.054  2.907  0.000    19.921     6.353
 263   6 C      0.185  1.065  2.749  0.000    24.027     8.028
 264   8 O     -0.428  1.747  4.682  0.000    22.251     6.324
 265   6 C     -0.074  1.060  3.014  0.000    21.892     6.659
 266   6 C     -0.003  1.051  2.952  0.000    20.605     6.456
 267   6 C     -0.112  1.043  3.070  0.000    22.692     6.790
 268   6 C     -0.112  1.040  3.072  0.000    22.690     6.791
 269   1 H      0.195  0.805  0.000  0.000     1.132     1.667
 270   1 H      0.072  0.928  0.000  0.000     2.062     2.246
 271   1 H      0.053  0.947  0.000  0.000     2.282     2.362
 272   1 H      0.075  0.925  0.000  0.000     2.035     2.231
 273   1 H     -0.000  1.000  0.000  0.000     3.067     2.739
 274   1 H      0.012  0.988  0.000  0.000     2.865     2.647
 275   1 H      0.042  0.958  0.000  0.000     2.428     2.437
 276   1 H      0.069  0.931  0.000  0.000     2.097     2.265
 277   1 H      0.025  0.975  0.000  0.000     2.653     2.547
 278   1 H      0.066  0.934  0.000  0.000     2.131     2.283
 279   1 H      0.028  0.972  0.000  0.000     2.619     2.531
 280   7 N     -0.692  1.539  4.152  0.000    41.132     9.497
 281   6 C      0.089  1.052  2.859  0.000    19.130     6.231
 282   6 C      0.279  1.058  2.663  0.000    22.279     7.729
 283   8 O     -0.590  1.792  4.798  0.000    25.868     6.819
 284   6 C     -0.035  1.059  2.976  0.000    21.193     6.553
 285   6 C      0.029  1.060  2.911  0.000    20.091     6.383
 286  16 S     -0.230  1.889  4.270  0.071   150.888    20.674
 287   6 C     -0.045  1.051  2.994  0.000    21.448     6.607
 288   1 H      0.049  0.951  0.000  0.000     2.350     2.401
 289   1 H     -0.036  1.036  0.000  0.000     3.772     3.037
 290   1 H      0.061  0.939  0.000  0.000     2.190     2.314
 291   1 H     -0.005  1.005  0.000  0.000     3.147     2.774
 292   1 H      0.017  0.983  0.000  0.000     2.782     2.608
 293   1 H     -0.032  1.032  0.000  0.000     3.687     3.003
 294   1 H      0.091  0.909  0.000  0.000     1.866     2.136
 295   1 H      0.085  0.915  0.000  0.000     1.930     2.173
 296   1 H      0.016  0.984  0.000  0.000     2.799     2.616
 297   7 N     -0.217  1.271  3.946  0.000    25.727     7.533
 298   6 C      0.095  1.046  2.860  0.000    19.024     6.210
 299   6 C     -0.026  1.333  2.693  0.000    31.852     9.117
 300   8 O     -0.553  1.824  4.729  0.000    24.992     6.703
 301   6 C     -0.041  1.053  2.988  0.000    21.289     6.565
 302   6 C      0.003  1.059  2.938  0.000    20.499     6.440
 303   6 C     -0.092  1.039  3.052  0.000    22.304     6.733
 304   6 C     -0.070  1.028  3.042  0.000    21.887     6.670
 305   1 H      0.200  0.800  0.000  0.000     1.108     1.649
 306   1 H     -0.055  1.055  0.000  0.000     4.221     3.213
 307   1 H      0.048  0.952  0.000  0.000     2.342     2.393
 308   1 H     -0.011  1.011  0.000  0.000     3.261     2.824
 309   1 H      0.048  0.952  0.000  0.000     2.341     2.393
 310   1 H      0.048  0.952  0.000  0.000     2.344     2.394
 311   1 H      0.062  0.938  0.000  0.000     2.171     2.304
 312   1 H     -0.015  1.015  0.000  0.000     3.341     2.858
 313   1 H      0.029  0.971  0.000  0.000     2.607     2.525
 314   1 H     -0.025  1.025  0.000  0.000     3.532     2.939
 315   1 H      0.022  0.978  0.000  0.000     2.705     2.572
 316   7 N     -0.604  1.524  4.081  0.000    37.865     9.112
 317   6 C      0.104  1.067  2.829  0.000    18.888     6.192
 318   6 C      0.004  1.401  2.595  0.000    31.051     9.002
 319   8 O     -0.508  1.779  4.729  0.000    23.956     6.562
 320   6 C     -0.014  1.054  2.960  0.000    20.825     6.497
 321   6 C      0.375  1.035  2.589  0.000    20.640     7.435
 322   8 O     -0.571  1.735  4.836  0.000    25.409     6.758
 323   8 O     -0.649  1.755  4.895  0.000    27.367     7.014
 324   1 H      0.054  0.946  0.000  0.000     2.288     2.370
 325   1 H     -0.014  1.014  0.000  0.000     3.314     2.847
 326   1 H     -0.063  1.063  0.000  0.000     4.423     3.289
 327   1 H     -0.064  1.064  0.000  0.000     4.461     3.303
 328   7 N     -0.688  1.537  4.151  0.000    40.982     9.480
 329   6 C      0.114  1.055  2.831  0.000    18.734     6.164
 330   6 C      0.279  1.055  2.666  0.000    22.284     7.730
 331   8 O     -0.565  1.754  4.811  0.000    25.267     6.739
 332   6 C      0.049  1.051  2.900  0.000    19.713     6.314
 333   6 C     -0.014  1.045  2.970  0.000    20.828     6.498
 334   6 C     -0.045  1.031  3.014  0.000    21.440     6.602
 335   6 C     -0.036  1.025  3.010  0.000    21.266     6.576
 336   1 H      0.019  0.981  0.000  0.000     2.761     2.603
 337   1 H     -0.109  1.109  0.000  0.000     5.893     3.796
 338   1 H     -0.026  1.026  0.000  0.000     3.551     2.947
 339   1 H     -0.010  1.010  0.000  0.000     3.228     2.810
 340   1 H      0.006  0.994  0.000  0.000     2.957     2.689
 341   1 H     -0.020  1.020  0.000  0.000     3.430     2.896
 342   1 H      0.002  0.998  0.000  0.000     3.030     2.722
 343   1 H      0.003  0.997  0.000  0.000     3.002     2.710
 344   1 H      0.016  0.984  0.000  0.000     2.796     2.615
 345   1 H      0.014  0.986  0.000  0.000     2.819     2.625
 346   1 H     -0.014  1.014  0.000  0.000     3.317     2.848
 347   7 N     -0.233  1.302  3.931  0.000    26.098     7.587
 348   6 C      0.064  1.079  2.857  0.000    19.524     6.294
 349   6 C     -0.079  1.380  2.699  0.000    33.315     9.325
 350   8 O     -0.623  1.814  4.809  0.000    26.684     6.926
 351   6 C     -0.057  1.067  2.989  0.000    21.587     6.614
 352   6 C      0.374  1.026  2.600  0.000    20.664     7.439
 353   8 O     -0.603  1.738  4.865  0.000    26.199     6.862
 354   8 O     -0.644  1.772  4.872  0.000    27.218     6.995
 355   1 H      0.129  0.871  0.000  0.000     1.554     1.953
 356   1 H      0.001  0.999  0.000  0.000     3.033     2.724
 357   1 H     -0.001  1.001  0.000  0.000     3.083     2.746
 358   1 H     -0.057  1.057  0.000  0.000     4.257     3.227
 359   7 N     -0.659  1.533  4.126  0.000    39.893     9.353
 360   6 C      0.101  1.064  2.835  0.000    18.940     6.200
 361   6 C      0.194  1.164  2.641  0.000    23.850     7.997
 362   8 O     -0.593  1.806  4.787  0.000    25.946     6.829
 363   6 C      0.002  1.048  2.950  0.000    20.544     6.453
 364   6 C     -0.066  1.065  3.002  0.000    21.778     6.645
 365   6 C      0.372  1.029  2.600  0.000    20.700     7.446
 366   8 O     -0.678  1.790  4.888  0.000    28.125     7.110
 367   8 O     -0.606  1.735  4.871  0.000    26.278     6.873
 368   1 H     -0.009  1.009  0.000  0.000     3.240     2.820
 369   1 H     -0.022  1.022  0.000  0.000     3.478     2.917
 370   1 H      0.011  0.989  0.000  0.000     2.874     2.651
 371   1 H     -0.048  1.048  0.000  0.000     4.046     3.146
 372   1 H     -0.046  1.046  0.000  0.000     3.997     3.126
 373   1 H      0.023  0.977  0.000  0.000     2.683     2.561
 374   7 N     -0.289  1.394  3.896  0.000    27.459     7.783
 375   6 C      0.120  1.040  2.841  0.000    18.638     6.148
 376   6 C     -0.073  1.376  2.698  0.000    33.159     9.302
 377   8 O     -0.598  1.793  4.805  0.000    26.077     6.846
 378   6 C     -0.006  1.048  2.958  0.000    20.675     6.471
 379   6 C      0.032  1.050  2.918  0.000    20.004     6.362
 380   6 C     -0.042  1.026  3.016  0.000    21.389     6.594
 381   6 C     -0.074  1.035  3.039  0.000    21.980     6.685
 382   1 H      0.124  0.876  0.000  0.000     1.594     1.978
 383   1 H     -0.068  1.068  0.000  0.000     4.549     3.336
 384   1 H     -0.019  1.019  0.000  0.000     3.417     2.891
 385   1 H     -0.024  1.024  0.000  0.000     3.503     2.927
 386   1 H     -0.007  1.007  0.000  0.000     3.188     2.792
 387   1 H      0.006  0.994  0.000  0.000     2.956     2.689
 388   1 H      0.006  0.994  0.000  0.000     2.954     2.688
 389   1 H      0.007  0.993  0.000  0.000     2.938     2.680
 390   1 H      0.038  0.962  0.000  0.000     2.477     2.461
 391   1 H      0.009  0.991  0.000  0.000     2.901     2.664
 392   1 H      0.018  0.982  0.000  0.000     2.769     2.602
 393   7 N     -0.666  1.515  4.152  0.000    40.157     9.383
 394   6 C      0.070  1.064  2.866  0.000    19.427     6.279
 395   6 C      0.265  1.065  2.670  0.000    22.531     7.773
 396   8 O     -0.524  1.727  4.797  0.000    24.331     6.613
 397   6 C      0.137  1.034  2.829  0.000    18.570     6.174
 398   8 O     -0.513  1.711  4.802  0.000    23.167     6.498
 399   1 H     -0.006  1.006  0.000  0.000     3.185     2.795
 400   1 H     -0.012  1.012  0.000  0.000     3.271     2.828
 401   1 H      0.007  0.993  0.000  0.000     2.940     2.681
 402   1 H     -0.063  1.063  0.000  0.000     4.436     3.294
 403   1 H      0.274  0.726  0.000  0.000     0.804     1.409
 404   7 N     -0.191  1.264  3.927  0.000    25.140     7.447
 405   6 C      0.045  1.072  2.883  0.000    19.825     6.340
 406   6 C     -0.082  1.386  2.695  0.000    33.399     9.337
 407   8 O     -0.529  1.777  4.752  0.000    24.436     6.628
 408   6 C     -0.023  1.038  2.985  0.000    20.966     6.516
 409   6 C      0.019  1.069  2.912  0.000    20.255     6.409
 410  16 S     -0.299  1.923  4.297  0.079   154.019    20.888
 411   6 C     -0.043  1.050  2.993  0.000    21.423     6.603
 412   1 H      0.135  0.865  0.000  0.000     1.509     1.925
 413   1 H      0.040  0.960  0.000  0.000     2.443     2.444
 414   1 H     -0.055  1.055  0.000  0.000     4.212     3.209
 415   1 H      0.053  0.947  0.000  0.000     2.286     2.365
 416   1 H      0.061  0.939  0.000  0.000     2.183     2.310
 417   1 H     -0.013  1.013  0.000  0.000     3.294     2.838
 418   1 H      0.083  0.917  0.000  0.000     1.947     2.182
 419   1 H      0.035  0.965  0.000  0.000     2.516     2.481
 420   1 H      0.089  0.911  0.000  0.000     1.886     2.148
 421   1 H      0.182  0.818  0.000  0.000     1.204     1.719
 422   1 H      0.034  0.966  0.000  0.000     2.523     2.484

 Mol. C6AA /au·bohr⁶  :    1813485.136613
 Mol. C8AA /au·bohr⁸  :   40818894.612750
 Mol. α(0) /au        :       2014.279537

 
molecular dipole:
                 x           y           z       tot (Debye)
 q only:      754.950   -1626.641    -548.492
   full:      756.998   -1618.523    -546.895    4749.668
molecular quadrupole (traceless):
                xx          xy          yy          xz          yz          zz
 q only:    75737.758  153614.394 -185222.949   51412.249 -111150.113  109485.190
  q+dip:    74433.614  153294.676 -183113.494   51364.079 -110399.358  108679.879
   full:    74430.673  153291.681 -183111.447   51367.631 -110399.133  108680.773
speedup  1.97
cpu  time for grad   36.14 s
wall time for grad   18.38 s

SCC energy    :    -675.6244959
rep           :       7.2605917
ES            :       7.9273308
AES           :      -0.4720001
AXC           :       0.2064416
disp          :      -0.5872600
XB            :       0.0000000
fix           :       0.0000000
Gborn         :       0.0000000
Gsasa         :       0.0000000
Ghb           :       0.0000000
Gshift        :       0.0000000
Gsolv         :      -5.5052876    -3454.62
Etot ala COSMO:    -675.6244959
grad norm     :       0.3410677
total E       :    -668.3168713
atomizationE  :     121.4472041    76209.27
(atE without considering molecular charge,
 total energy contains solvation terms)
H-L gap (eV)  :          0.0333

------------------------------------------------------------------------
 * finished run on 2019/05/10 at 12:44:30.170     
------------------------------------------------------------------------
 total:
 * wall-time:     0 d,  0 h,  0 min, 18.998 sec
 *  cpu-time:     0 d,  0 h,  0 min, 37.266 sec
 * ratio c/w:     1.962 speedup
 SCF:
 * wall-time:     0 d,  0 h,  0 min, 18.803 sec
 *  cpu-time:     0 d,  0 h,  0 min, 36.994 sec
 * ratio c/w:     1.967 speedup

