      -----------------------------------------------------------      
     |                   =====================                   |     
     |                           x T B                           |     
     |                   =====================                   |     
     |                         S. Grimme                         |     
     |          Mulliken Center for Theoretical Chemistry        |     
     |                    University of Bonn                     |     
     |                 Version 6.0.1 (SAW181210)                 |     
      -----------------------------------------------------------      

   This program is distributed in the hope that it will be useful,
   but WITHOUT ANY WARRANTY; without even the implied warranty of
   MERCHANTABILITY or FITNESS FOR A PARTICULAR PURPOSE.
   
   FOR NON-COMMERCIAL, ACADEMIA USE ONLY.
   
   Cite this work as:
   S. Grimme, C. Bannwarth, P. Shushkov, J. Comput. Theory Chem., 2017,
   13, 1989-2009.
   C. Bannwarth, S. Ehlert and S. Grimme., ChemRxiv, 2018, preprint.
   http://doi.org/10.26434/chemrxiv.7246238.v1
   
   for sTDA-xTB:
   S. Grimme and C. Bannwarth, J. Chem. Phys., 2016, 145, 054103.
   
   in the mass-spec context:
   V. Asgeirsson, C. Bauer and S. Grimme, Chem. Sci., 2017, 8, 4879.
   
   if GBSA is used:
   P. Shushkov, F. März and S. Grimme, unpublished.
   
   for ANC optimizer:
   S. Grimme, unpublished.
   Rational Function algorithm used in ANCopt:
   F. Eckert, P. Pulay, H.-J. Werner, J. Comput. Chem., 1997, 18, 1473.
   
   with help from (in alphabetical order)
   C. Bannwarth, F. Bohle, G. Brandenburg, E. Caldeweyher, M. Checinski,
   S. Dohm, S. Ehlert, S. Ehrlich, F. März, H. Neugebauer, J. Pisarek,
   P. Pracht, P. Shushkov, and S. Spicher.
   
 * started run on 2019/03/18 at 01:29:53.112     
========================================================================
 # omp threads = 1
========================================================================
number of atoms            : 258
number of electrons        : 660
charge                     : 0
spin                       : .0
first test random number   : .9098
           ------------------------------------------------- 
          |                 G F N 2 - x T B                 |
          | Geometry, Frequencies, Noncovalent interactions |
          |            JCTC 2018 parametrisation            |
           ------------------------------------------------- 
 
      method parameters     
 k(s)        :  1.8500
 k(p)        :  2.2300
 k(d)        :  2.2300
 k(f)        :  2.0000
 kEN (H0ij)  : -2.0000
 D4 a1       :  0.5200
 D4 a2       :  5.0000
 D4 s6       :  1.0000
 D4 s8       :  2.7000
 D4 s9       :  5.0000
 alphaj      :  2.0000

 Solvent             : h2o
 Using internal parameter file: .param_gbsa2_h2o
 Gsolv ref. state (COSMO-RS): gsolv [1 M gas/solution]
 temperature (mdtemp)       :    298.150000000000     
 dielectric constant        :    80.2000000000000     
 rho                        :    1.00000000000000     
 mass                       :    18.0000000000000     
 surface tension            :    15.5689454083859     
 probe radius               :   0.975313790000000     
 vdW radii scaling          :    1.00000000000000     
 Gshift (Eh)                :   1.857443126794793E-003
 c1                         :    1.55243817000000     
 soset                      :   0.130326360000000     
 HB correction              :  T

            Z     q(EN)     CN     RAES       Cart. coordinates
     1  N   5.0   -0.22    3.23    1.96    50.97766    24.41772    15.20501
     2  C   4.0    0.02    4.39    4.37    49.50324    22.36747    16.27708
     3  C   4.0    0.14    3.44    3.09    51.21363    20.57349    17.77646
     4  O   6.0   -0.32    1.28    1.80    50.56101    19.85128    19.89089
     5  C   4.0   -0.03    4.25    4.10    47.98804    20.97548    14.21814
     6  C   4.0   -0.07    4.12    3.84    46.77720    18.54775    15.22279
     7  C   4.0   -0.08    4.12    3.84    45.95361    22.71988    13.17614
     8  H   1.0    0.08    1.02    1.43    51.09587    24.54072    13.29567
     9  H   1.0    0.04    1.06    1.44    48.18943    23.16292    17.67530
    10  H   1.0    0.04    1.05    1.44    49.33232    20.48098    12.72339
    11  H   1.0    0.04    1.00    1.43    45.80807    17.57309    13.70191
    12  H   1.0    0.06    1.00    1.43    48.17938    17.28106    16.03013
    13  H   1.0    0.04    1.00    1.43    45.41027    18.98402    16.69188
    14  H   1.0    0.04    1.00    1.43    44.78601    21.72876    11.81113
    15  H   1.0    0.04    1.00    1.43    44.74170    23.37882    14.69765
    16  H   1.0    0.04    1.00    1.43    46.79256    24.35738    12.25951
    17  N   5.0   -0.15    3.44    2.04    53.39548    19.93492    16.67933
    18  C   4.0    0.03    4.33    4.25    55.19569    18.31883    18.00319
    19  C   4.0    0.09    3.28    3.05    55.89637    19.43948    20.59160
    20  O   6.0   -0.31    1.16    1.80    55.94182    18.15829    22.53592
    21  C   4.0   -0.05    4.36    4.31    57.60146    18.05860    16.44827
    22  C   4.0   -0.02    4.20    4.00    59.70852    16.62514    17.83109
    23  C   4.0   -0.07    4.10    3.79    58.89077    13.95826    18.59457
    24  C   4.0   -0.08    4.09    3.79    62.06896    16.57649    16.15528
    25  H   1.0    0.07    1.06    1.44    53.74101    20.37730    14.84035
    26  H   1.0    0.07    1.05    1.44    54.31008    16.48294    18.38859
    27  H   1.0    0.04    1.03    1.43    57.14874    17.07692    14.69038
    28  H   1.0    0.04    1.03    1.43    58.27490    19.95973    16.02014
    29  H   1.0    0.05    1.06    1.44    60.18412    17.66065    19.55735
    30  H   1.0    0.05    1.00    1.43    60.43056    12.99175    19.55376
    31  H   1.0    0.06    1.00    1.43    57.30401    14.00314    19.89781
    32  H   1.0    0.04    1.00    1.43    58.35091    12.84792    16.95090
    33  H   1.0    0.04    1.00    1.43    63.54912    15.49892    17.08203
    34  H   1.0    0.04    1.00    1.43    61.64517    15.69735    14.34782
    35  H   1.0    0.04    1.00    1.43    62.72416    18.50331    15.89376
    36  N   5.0   -0.20    3.24    1.96    52.76689    23.59328    23.79068
    37  C   4.0    0.03    4.33    4.26    50.59617    23.59351    25.45030
    38  C   4.0    0.15    3.46    3.10    50.41305    21.05771    26.81661
    39  O   6.0   -0.33    1.30    1.80    50.04181    20.95282    29.10507
    40  C   4.0   -0.05    4.37    4.32    48.12202    24.08026    24.05535
    41  C   4.0   -0.03    4.18    3.96    47.68095    26.87343    23.45234
    42  C   4.0   -0.08    4.11    3.81    45.58818    27.13178    21.48809
    43  C   4.0   -0.08    4.11    3.82    46.99019    28.33746    25.83214
    44  H   1.0    0.09    1.02    1.43    52.52319    24.09012    21.95205
    45  H   1.0    0.04    1.06    1.44    50.88146    25.00135    26.94753
    46  H   1.0    0.05    1.03    1.43    48.15929    22.95268    22.32816
    47  H   1.0    0.04    1.03    1.43    46.57657    23.37483    25.22798
    48  H   1.0    0.04    1.06    1.44    49.42337    27.65531    22.66459
    49  H   1.0    0.04    1.00    1.43    45.24506    29.11319    21.07119
    50  H   1.0    0.03    1.00    1.43    46.11206    26.16463    19.75359
    51  H   1.0    0.04    1.00    1.43    43.84238    26.31097    22.19469
    52  H   1.0    0.04    1.00    1.43    46.45814    30.25870    25.35531
    53  H   1.0    0.04    1.00    1.43    45.40447    27.45465    26.79939
    54  H   1.0    0.04    1.00    1.43    48.57279    28.40319    27.13687
    55  N   5.0   -0.14    3.51    2.09    50.63101    19.02962    25.34073
    56  C   4.0    0.03    4.43    4.42    50.41789    16.50933    26.37841
    57  C   4.0    0.16    3.47    3.10    52.39198    16.11799    28.44619
    58  O   6.0   -0.31    1.28    1.80    51.83146    15.12933    30.46358
    59  C   4.0   -0.03    4.27    4.14    50.65389    14.48408    24.34502
    60  C   4.0   -0.03    4.17    3.94    48.32871    14.34852    22.63457
    61  C   4.0    0.25    3.11    3.03    48.86713    12.97949    20.10455
    62  O   6.0   -0.32    1.30    1.80    51.05571    13.11614    19.24798
    63  O   6.0   -0.33    1.24    1.80    47.05470    11.94000    18.99738
    64  H   1.0    0.11    1.10    1.44    50.89748    19.26144    23.45273
    65  H   1.0    0.05    1.06    1.44    48.58669    16.33724    27.35001
    66  H   1.0    0.07    1.03    1.43    52.30382    14.90278    23.17796
    67  H   1.0    0.06    1.03    1.43    50.96635    12.65423    25.24643
    68  H   1.0    0.05    1.02    1.43    46.73053    13.44676    23.56485
    69  H   1.0    0.05    1.03    1.43    47.78499    16.26206    22.07606
    70  N   5.0   -0.14    3.49    2.07    54.71473    16.97664    27.92420
    71  C   4.0    0.04    4.46    4.47    56.78649    16.58814    29.68353
    72  C   4.0    0.15    3.48    3.11    56.28156    17.97319    32.17995
    73  O   6.0   -0.29    1.24    1.80    56.52658    16.93977    34.26039
    74  C   4.0    0.05    4.24    4.09    59.28093    17.50954    28.50123
    75  O   6.0   -0.25    2.12    1.84    59.87371    16.13359    26.30688
    76  C   4.0   -0.06    4.10    3.81    61.46330    17.17933    30.33837
    77  H   1.0    0.10    1.09    1.44    55.09507    17.64660    26.16629
    78  H   1.0    0.07    1.05    1.44    56.93729    14.56365    30.13125
    79  H   1.0    0.04    1.03    1.43    59.04640    19.52702    28.03024
    80  H   1.0    0.14    1.04    1.43    58.62711    16.46816    25.00568
    81  H   1.0    0.05    1.00    1.43    63.22138    17.67462    29.40584
    82  H   1.0    0.05    1.00    1.43    61.20856    18.37741    31.98422
    83  H   1.0    0.06    1.00    1.43    61.55983    15.21739    30.93968
    84  N   5.0   -0.14    3.49    2.07    55.63511    20.39498    31.98102
    85  C   4.0    0.04    4.52    4.56    55.10802    21.83330    34.25748
    86  C   4.0    0.16    3.49    3.11    52.79120    20.80102    35.63758
    87  O   6.0   -0.28    1.25    1.80    52.79492    20.64360    37.94810
    88  C   4.0   -0.03    4.25    4.11    54.81199    24.67625    33.69723
    89  C   4.0   -0.07    4.13    3.86    53.91629    26.07777    36.06043
    90  C   4.0   -0.08    4.11    3.82    57.31393    25.77265    32.75782
    91  H   1.0    0.08    1.06    1.44    55.36693    21.22647    30.27397
    92  H   1.0    0.06    1.06    1.44    56.69776    21.55431    35.56180
    93  H   1.0    0.04    1.05    1.44    53.39111    24.86532    32.20728
    94  H   1.0    0.04    1.00    1.43    53.73964    28.07871    35.63506
    95  H   1.0    0.05    1.01    1.43    52.09031    25.38745    36.68803
    96  H   1.0    0.05    1.00    1.43    55.26060    25.80722    37.58502
    97  H   1.0    0.04    1.00    1.43    57.10968    27.78867    32.43840
    98  H   1.0    0.04    1.00    1.43    58.79732    25.46219    34.14222
    99  H   1.0    0.04    1.00    1.43    57.87932    24.88902    30.99117
   100  N   5.0   -0.14    3.51    2.08    50.78283    20.19078    34.24121
   101  C   4.0    0.04    4.45    4.46    48.47042    19.37424    35.46885
   102  C   4.0    0.16    3.47    3.10    48.89164    16.88003    36.84246
   103  O   6.0   -0.28    1.24    1.80    47.92742    16.47206    38.90444
   104  C   4.0   -0.04    4.34    4.28    46.29777    19.20712    33.59048
   105  C   4.0   -0.02    4.18    3.96    43.78528    18.30240    34.74893
   106  C   4.0   -0.07    4.11    3.81    43.01387    19.85555    37.05886
   107  C   4.0   -0.07    4.10    3.81    41.72736    18.45993    32.71676
   108  H   1.0    0.12    1.11    1.45    50.77348    20.34774    32.33442
   109  H   1.0    0.06    1.06    1.44    48.00332    20.76046    36.94127
   110  H   1.0    0.05    1.03    1.43    46.04252    21.07744    32.76016
   111  H   1.0    0.06    1.03    1.43    46.84365    17.91729    32.07508
   112  H   1.0    0.06    1.05    1.44    43.98846    16.32506    35.31534
   113  H   1.0    0.05    1.00    1.43    41.10867    19.34484    37.63325
   114  H   1.0    0.06    1.00    1.43    44.26996    19.48969    38.63917
   115  H   1.0    0.04    1.00    1.43    43.05826    21.86110    36.62274
   116  H   1.0    0.05    1.00    1.43    39.90661    17.91453    33.49064
   117  H   1.0    0.04    1.00    1.43    41.58761    20.37272    31.98197
   118  H   1.0    0.04    1.00    1.43    42.17313    17.18850    31.17311
   119  N   5.0   -0.13    3.49    2.07    50.45594    15.24961    35.72719
   120  C   4.0    0.04    4.33    4.25    51.10595    12.87792    36.92764
   121  C   4.0    0.10    3.25    3.04    52.38991    13.33402    39.49144
   122  O   6.0   -0.27    1.11    1.80    51.81782    12.13203    41.38501
   123  C   4.0   -0.03    4.29    4.18    52.82826    11.36660    35.18740
   124  C   4.0   -0.02    4.21    4.02    53.70431     8.91075    36.39198
   125  C   4.0    0.24    3.14    3.03    54.23205     6.84873    34.42830
   126  O   6.0   -0.29    1.18    1.80    54.34680     7.36700    32.15281
   127  O   6.0   -0.31    1.46    1.80    54.45555     4.64160    35.34992
   128  H   1.0    0.12    1.10    1.44    51.07236    15.51257    33.93462
   129  H   1.0    0.06    1.05    1.44    49.37537    11.80012    37.33287
   130  H   1.0    0.07    1.03    1.43    51.82416    10.94224    33.43464
   131  H   1.0    0.07    1.03    1.43    54.46521    12.50472    34.66991
   132  H   1.0    0.06    1.03    1.43    55.43617     9.18435    37.47789
   133  H   1.0    0.06    1.03    1.43    52.28620     8.14815    37.68513
   134  O   6.0   -0.31    1.92    1.82    42.19661    11.23644    21.27771
   135  H   1.0    0.15    1.00    1.43    43.83257    11.49729    20.46773
   136  H   1.0    0.15    1.00    1.43    41.06261    12.44449    20.50993
   137  O   6.0   -0.29    1.92    1.82    50.25738     3.82179    23.18804
   138  H   1.0    0.13    0.97    1.43    51.84057     4.70498    23.22319
   139  H   1.0    0.15    1.02    1.43    48.98965     5.07398    23.62070
   140  O   6.0   -0.31    1.98    1.82    46.89509     7.61939    24.41056
   141  H   1.0    0.15    1.01    1.43    46.07576     8.18665    25.95135
   142  H   1.0    0.14    0.97    1.43    45.77833     8.08049    23.05296
   143  O   6.0   -0.33    2.03    1.83    44.29765    10.29173    28.00380
   144  H   1.0    0.12    0.97    1.43    45.42207    11.71800    27.91801
   145  H   1.0    0.13    0.97    1.43    42.88102    10.67404    26.92408
   146  O   6.0   -0.31    1.93    1.82    44.18712    11.20215    33.13572
   147  H   1.0    0.13    0.97    1.43    45.73363    10.43707    33.68742
   148  H   1.0    0.14    1.01    1.43    43.94836    10.61401    31.41620
   149  N   5.0   -0.22    3.21    1.96    37.84935    11.64653    13.14586
   150  C   4.0    0.03    4.22    4.04    39.51823    12.25532    15.23191
   151  C   4.0    0.07    3.19    3.04    38.54839    14.60414    16.62690
   152  O   6.0   -0.33    1.19    1.80    38.58687    14.67435    18.94694
   153  C   4.0   -0.05    4.26    4.11    42.23381    12.61822    14.28432
   154  C   4.0   -0.05    4.19    3.98    43.38561    10.10009    13.43151
   155  C   4.0   -0.01    4.22    4.04    45.85676    10.41760    12.01303
   156  N   5.0   -0.14    3.41    2.03    47.77773    11.60936    13.54344
   157  C   4.0    0.10    3.35    3.06    49.94625    12.48709    12.64857
   158  N   5.0   -0.19    3.27    1.97    50.39794    12.58836    10.16266
   159  N   5.0   -0.18    3.26    1.97    51.70319    13.33106    14.20935
   160  H   1.0    0.08    1.02    1.43    38.55151    11.67152    11.36516
   161  H   1.0    0.05    1.05    1.44    39.45899    10.70889    16.61498
   162  H   1.0    0.04    1.03    1.43    42.17155    13.95786    12.71631
   163  H   1.0    0.05    1.03    1.43    43.37284    13.42047    15.80157
   164  H   1.0    0.05    1.03    1.43    43.69300     8.92356    15.09587
   165  H   1.0    0.04    1.03    1.43    42.06555     9.12841    12.17984
   166  H   1.0    0.04    1.02    1.43    46.50830     8.55184    11.38667
   167  H   1.0    0.04    1.03    1.43    45.49277    11.58874    10.34272
   168  H   1.0    0.11    1.10    1.44    47.53456    11.57161    15.47117
   169  H   1.0    0.08    1.03    1.43    49.20847    11.82262     8.89763
   170  H   1.0    0.08    1.03    1.43    52.10329    13.16047     9.54389
   171  H   1.0    0.13    1.11    1.45    51.46625    13.21223    16.15294
   172  H   1.0    0.08    1.03    1.43    53.29199    14.12175    13.53521
   173  N   5.0   -0.20    3.24    1.97    32.78144    13.00653    20.55988
   174  C   4.0    0.04    4.33    4.26    33.53805    11.69961    22.82912
   175  C   4.0    0.15    3.45    3.09    34.59121    13.59734    24.73867
   176  O   6.0   -0.31    1.27    1.80    34.07273    13.44323    27.00888
   177  C   4.0   -0.03    4.27    4.15    35.46290     9.63700    22.19249
   178  C   4.0   -0.03    4.23    4.06    36.23426     8.10540    24.52056
   179  C   4.0    0.15    3.22    3.04    34.05772     6.63735    25.68196
   180  O   6.0   -0.29    1.22    1.80    31.97803     6.40969    24.66853
   181  N   5.0   -0.19    3.18    1.95    34.56591     5.56501    27.90524
   182  H   1.0    0.09    1.02    1.43    33.56525    12.46684    18.89035
   183  H   1.0    0.07    1.06    1.44    31.86885    10.84445    23.71630
   184  H   1.0    0.05    1.03    1.43    34.59257     8.38167    20.80933
   185  H   1.0    0.06    1.03    1.43    37.14117    10.50977    21.37900
   186  H   1.0    0.05    1.03    1.43    37.71032     6.76297    24.00732
   187  H   1.0    0.05    1.03    1.43    36.99030     9.34723    25.97877
   188  H   1.0    0.08    1.02    1.43    36.31662     5.57831    28.69253
   189  H   1.0    0.10    1.03    1.43    33.19676     4.57379    28.78210
   190  N   5.0   -0.14    3.47    2.06    36.12085    15.37659    23.79068
   191  C   4.0    0.04    4.35    4.28    37.20641    17.25637    25.45030
   192  C   4.0    0.09    3.27    3.05    35.10190    18.68286    26.81661
   193  O   6.0   -0.29    1.11    1.80    35.19669    19.05680    29.10507
   194  C   4.0   -0.05    4.36    4.30    38.86502    19.15567    24.05535
   195  C   4.0   -0.02    4.18    3.96    41.50451    18.14106    23.45234
   196  C   4.0   -0.08    4.11    3.82    42.77463    19.82428    21.48809
   197  C   4.0   -0.08    4.11    3.83    43.11778    18.00727    25.83214
   198  H   1.0    0.11    1.09    1.44    36.67298    15.33921    21.95205
   199  H   1.0    0.05    1.06    1.44    38.28299    16.30538    26.94753
   200  H   1.0    0.04    1.03    1.43    37.86987    19.68718    22.32816
   201  H   1.0    0.04    1.03    1.43    39.02683    20.84679    25.22798
   202  H   1.0    0.05    1.06    1.44    41.31043    16.24114    22.66459
   203  H   1.0    0.04    1.00    1.43    44.66215    19.13072    21.07119
   204  H   1.0    0.04    1.00    1.43    41.67511    19.85416    19.75359
   205  H   1.0    0.03    1.00    1.43    42.93670    21.74659    22.19469
   206  H   1.0    0.04    1.00    1.43    45.04764    17.50741    25.35531
   207  H   1.0    0.04    1.00    1.43    43.14610    19.82194    26.79939
   208  H   1.0    0.04    1.00    1.43    42.38340    16.60383    27.13687
   209  N   5.0   -0.19    3.20    1.96    31.91693    14.49179    31.98102
   210  C   4.0    0.04    4.30    4.20    33.42610    14.22910    34.25748
   211  C   4.0    0.08    3.23    3.04    33.69052    16.75166    35.63758
   212  O   6.0   -0.29    1.12    1.80    33.55234    16.82715    37.94810
   213  C   4.0   -0.02    4.25    4.10    36.03618    13.06399    33.69723
   214  C   4.0   -0.07    4.13    3.86    37.69778    13.13893    36.06043
   215  C   4.0   -0.07    4.11    3.82    35.73472    10.34905    32.75782
   216  H   1.0    0.12    1.05    1.44    32.77111    14.30829    30.27397
   217  H   1.0    0.05    1.06    1.44    32.38962    12.99183    35.56180
   218  H   1.0    0.05    1.05    1.44    36.91036    14.19997    32.20728
   219  H   1.0    0.05    1.00    1.43    39.51897    12.29144    35.63506
   220  H   1.0    0.05    1.01    1.43    38.01294    15.06544    36.68803
   221  H   1.0    0.05    1.00    1.43    36.79132    12.10999    37.58502
   222  H   1.0    0.04    1.00    1.43    37.58277     9.51792    32.43840
   223  H   1.0    0.04    1.00    1.43    34.72416     9.21963    34.14222
   224  H   1.0    0.06    1.00    1.43    34.68678    10.30122    30.99117
   225  N   5.0   -0.22    3.21    1.96    40.45924     0.41605    31.06176
   226  C   4.0    0.03    4.23    4.07    41.70602    -0.01362    28.68193
   227  C   4.0    0.08    3.19    3.03    40.08423    -1.54961    26.83962
   228  O   6.0   -0.28    1.12    1.80    40.92263    -2.22567    24.79560
   229  C   4.0   -0.04    4.25    4.10    44.31458    -1.20828    29.06782
   230  C   4.0   -0.05    4.21    4.02    46.03172     0.56328    30.56520
   231  C   4.0   -0.05    4.14    3.88    48.79479    -0.27938    30.66748
   232  C   4.0   -0.03    4.14    3.87    50.31608     1.72172    32.09643
   233  N   5.0   -0.11    3.97    2.77    53.06085     1.22638    32.19610
   234  H   1.0    0.08    1.02    1.43    40.49764    -0.99440    32.35112
   235  H   1.0    0.05    1.06    1.44    41.92278     1.84943    27.79023
   236  H   1.0    0.05    1.03    1.43    44.05925    -2.98009    30.08942
   237  H   1.0    0.06    1.03    1.43    45.09047    -1.60906    27.20250
   238  H   1.0    0.05    1.03    1.43    45.94562     2.43102    29.69759
   239  H   1.0    0.04    1.03    1.43    45.27725     0.71323    32.47654
   240  H   1.0    0.04    1.02    1.43    48.92696    -2.10287    31.61508
   241  H   1.0    0.05    1.02    1.43    49.51289    -0.47109    28.74559
   242  H   1.0    0.05    1.03    1.43    50.05329     3.56014    31.20270
   243  H   1.0    0.05    1.02    1.43    49.63369     1.85673    34.03789
   244  H   1.0    0.12    1.18    1.46    53.90811     2.70914    33.54909
   245  H   1.0    0.06    1.02    1.43    53.42576    -0.53975    32.88507
   246  H   1.0    0.07    1.02    1.43    53.86606     1.43521    30.45534
   247  H   1.0    0.09    1.07    1.44    50.32473    25.90720    15.70270
   248  H   1.0    0.05    1.05    1.44    56.33691    21.27112    20.74025
   249  H   1.0    0.09    1.07    1.44    53.93204    24.68321    24.37978
   250  H   1.0    0.08    1.05    1.44    53.73942    14.64708    39.65202
   251  H   1.0    0.09    1.07    1.44    37.24272    10.07024    13.34552
   252  H   1.0    0.05    1.04    1.43    37.88494    16.07791    15.64767
   253  H   1.0    0.10    1.07    1.44    31.10565    12.82586    20.33263
   254  H   1.0    0.06    1.05    1.44    33.61484    19.32992    25.84655
   255  H   1.0    0.10    1.07    1.44    30.69119    13.31278    31.97329
   256  H   1.0    0.07    1.04    1.43    33.97628    18.34062    34.65542
   257  H   1.0    0.09    1.08    1.44    41.16717     1.75208    31.84048
   258  H   1.0    0.06    1.05    1.44    38.31167    -2.01367    27.30194

  Z AO/shell   Hii/eV     exponent
  1     Wed Apr 25 08:07:45 CEST 2018   EN: 2.200 GM2: 0.406  GM3: 0.0800  RAES: 1.40
     1s    -10.707211    1.230000
  6     Wed Apr 25 08:07:45 CEST 2018   EN: 2.550 GM2: 0.538  GM3: 0.1500  RAES: 3.00
     2s    -13.970922    2.096432
     2p    -10.063292    1.800000
  7     Wed Apr 25 08:07:45 CEST 2018   EN: 3.040 GM2: 0.461  GM3:-0.0640  RAES: 1.90
     2s    -16.686243    2.339881
     2p    -12.523956    2.014332
  8     Wed Apr 25 08:07:45 CEST 2018   EN: 3.440 GM2: 0.452  GM3:-0.0517  RAES: 1.80
     2s    -20.229985    2.439742
     2p    -15.503117    2.137023
 no old-style atom pair restraining (fixing) potential

molecular fragmentation (1/2 indicates fragments):
111111111111111111111111111111111112222222222222222222222222222222222222
222222222222222222222222222222222222222222222222222222222222222222222222
222222222222222222222222222222222222222222222222222222222222222222222222
222222222222222222222222222222112222222222
# atoms in fragment 1/2:    37   221
 fragment masses (1/2) :      214.31     1409.72
CMA distance (Bohr)    :  13.969
constraining FC (au)   :  0.0500
           ------------------------------------------------- 
          |        Self-Consistent Charge Iterations        |
           ------------------------------------------------- 

 Ncao       : 594
 Nao        : 594
 Nshell     : 370
 Nel        : 660
 T(el)      :   500.0
 intcut     :    35.0
 scfconv/Eh :  0.100E-06
   qconv/e  :  0.100E-04
 intneglect :  0.100E-08
 broydamp   :      0.400
 iter      E             dE          RMSdq      gap      omega  full diag
   1   -378.1691946 -0.378169E+03  0.451E+00    3.15       0.0  T
   2   -379.0271184 -0.857924E+00  0.211E+00    1.82       1.0  T
   3   -379.0833270 -0.562086E-01  0.119E+00    1.82       1.0  T
   4   -379.1467614 -0.634344E-01  0.249E-01    1.18       1.0  T
   5   -379.1496525 -0.289110E-02  0.113E-01    1.40       1.0  T
   6   -379.1502932 -0.640670E-03  0.404E-02    1.35       1.0  T
   7   -379.1503710 -0.777717E-04  0.183E-02    1.34       1.0  T
   8   -379.1503817 -0.106654E-04  0.667E-03    1.33       1.0  T
   9   -379.1503844 -0.279311E-05  0.280E-03    1.33       2.2  T
  10   -379.1503848 -0.357259E-06  0.112E-03    1.33       5.5  T
  11   -379.1503849 -0.610009E-07  0.521E-04    1.33      12.0  T
  12   -379.1503849 -0.104929E-07  0.183E-04    1.33      33.9  T
  13   -379.1503849 -0.176539E-08  0.972E-05    1.33      64.1  T
  14   -379.1503849 -0.424507E-09  0.379E-05    1.33     164.4  T
speedup  1.00
cpu  time for SCC    1.90 s
wall time for SCC    1.90 s

   *** convergence criteria satisfied after 14 iterations ***

          eigenvalues
 #    :         318        319        320        321        322        323        324        325
 occ. :        2.000      2.000      2.000      2.000      2.000      2.000      2.000      2.000
 eps  :       -10.841    -10.833    -10.809    -10.751    -10.594    -10.370    -10.312    -10.203
 #    :         326        327        328        329        330        331        332        333
 occ. :        2.000      2.000      2.000      2.000      2.000      0.000      0.000      0.000
 eps  :       -10.183    -10.167    -10.014     -9.962     -9.535     -8.207     -8.119     -7.737
 #    :         334        335        336        337        338        339        340        341
 occ. :        0.000      0.000      0.000      0.000      0.000      0.000      0.000      0.000
 eps  :        -7.633     -7.569     -7.405     -6.466     -6.359     -6.276     -6.155     -5.967


   #   Z            q   n(s)   n(p)   n(d)      C6AA      α(0)
   1   7 N     -0.394  1.314  4.080  0.000    30.212     8.163
   2   6 C      0.027  1.063  2.910  0.000    20.131     6.390
   3   6 C      0.266  1.050  2.684  0.000    22.513     7.770
   4   8 O     -0.495  1.749  4.746  0.000    23.670     6.523
   5   6 C     -0.023  1.066  2.957  0.000    20.954     6.511
   6   6 C     -0.116  1.038  3.078  0.000    22.781     6.806
   7   6 C     -0.116  1.039  3.077  0.000    22.765     6.802
   8   1 H      0.168  0.832  0.000  0.000     1.285     1.775
   9   1 H      0.037  0.963  0.000  0.000     2.485     2.465
  10   1 H      0.046  0.954  0.000  0.000     2.364     2.405
  11   1 H      0.055  0.945  0.000  0.000     2.255     2.348
  12   1 H      0.029  0.971  0.000  0.000     2.598     2.521
  13   1 H      0.040  0.960  0.000  0.000     2.444     2.445
  14   1 H      0.054  0.946  0.000  0.000     2.268     2.355
  15   1 H      0.040  0.960  0.000  0.000     2.455     2.450
  16   1 H      0.042  0.958  0.000  0.000     2.418     2.432
  17   7 N     -0.166  1.246  3.920  0.000    24.593     7.365
  18   6 C      0.022  1.060  2.918  0.000    20.207     6.401
  19   6 C      0.212  1.091  2.697  0.000    23.517     7.942
  20   8 O     -0.388  1.750  4.638  0.000    21.449     6.209
  21   6 C     -0.085  1.064  3.021  0.000    22.108     6.692
  22   6 C     -0.011  1.056  2.954  0.000    20.738     6.477
  23   6 C     -0.121  1.040  3.081  0.000    22.880     6.821
  24   6 C     -0.123  1.044  3.079  0.000    22.916     6.825
  25   1 H      0.228  0.772  0.000  0.000     0.973     1.546
  26   1 H      0.098  0.902  0.000  0.000     1.805     2.101
  27   1 H      0.077  0.923  0.000  0.000     2.006     2.215
  28   1 H      0.073  0.927  0.000  0.000     2.057     2.243
  29   1 H      0.026  0.974  0.000  0.000     2.641     2.541
  30   1 H      0.040  0.960  0.000  0.000     2.452     2.449
  31   1 H      0.038  0.962  0.000  0.000     2.476     2.461
  32   1 H      0.052  0.948  0.000  0.000     2.289     2.366
  33   1 H      0.044  0.956  0.000  0.000     2.399     2.422
  34   1 H      0.055  0.945  0.000  0.000     2.260     2.351
  35   1 H      0.046  0.954  0.000  0.000     2.369     2.407
  36   7 N     -0.391  1.311  4.080  0.000    30.132     8.153
  37   6 C      0.035  1.055  2.910  0.000    20.006     6.370
  38   6 C      0.264  1.050  2.686  0.000    22.546     7.776
  39   8 O     -0.516  1.745  4.771  0.000    24.144     6.588
  40   6 C     -0.071  1.058  3.013  0.000    21.843     6.652
  41   6 C     -0.009  1.055  2.954  0.000    20.699     6.471
  42   6 C     -0.112  1.042  3.070  0.000    22.688     6.791
  43   6 C     -0.113  1.039  3.074  0.000    22.716     6.795
  44   1 H      0.160  0.840  0.000  0.000     1.338     1.812
  45   1 H      0.031  0.969  0.000  0.000     2.572     2.508
  46   1 H      0.060  0.940  0.000  0.000     2.195     2.317
  47   1 H      0.035  0.965  0.000  0.000     2.518     2.482
  48   1 H      0.034  0.966  0.000  0.000     2.527     2.486
  49   1 H      0.046  0.954  0.000  0.000     2.375     2.410
  50   1 H      0.037  0.963  0.000  0.000     2.484     2.465
  51   1 H      0.040  0.960  0.000  0.000     2.454     2.450
  52   1 H      0.045  0.955  0.000  0.000     2.386     2.415
  53   1 H      0.035  0.965  0.000  0.000     2.518     2.482
  54   1 H      0.031  0.969  0.000  0.000     2.566     2.505
  55   7 N     -0.181  1.250  3.931  0.000    24.922     7.414
  56   6 C      0.029  1.058  2.913  0.000    20.084     6.381
  57   6 C      0.278  1.043  2.679  0.000    22.301     7.733
  58   8 O     -0.498  1.747  4.750  0.000    23.729     6.531
  59   6 C     -0.061  1.048  3.013  0.000    21.663     6.626
  60   6 C     -0.096  1.062  3.034  0.000    22.336     6.729
  61   6 C      0.368  1.026  2.607  0.000    20.768     7.458
  62   8 O     -0.584  1.754  4.829  0.000    25.728     6.801
  63   8 O     -0.596  1.754  4.841  0.000    26.009     6.838
  64   1 H      0.243  0.757  0.000  0.000     0.912     1.496
  65   1 H      0.058  0.942  0.000  0.000     2.223     2.332
  66   1 H      0.068  0.932  0.000  0.000     2.109     2.271
  67   1 H      0.041  0.959  0.000  0.000     2.430     2.438
  68   1 H      0.041  0.959  0.000  0.000     2.442     2.444
  69   1 H      0.051  0.949  0.000  0.000     2.307     2.375
  70   7 N     -0.196  1.251  3.945  0.000    25.254     7.464
  71   6 C      0.012  1.067  2.921  0.000    20.380     6.428
  72   6 C      0.275  1.042  2.683  0.000    22.350     7.742
  73   8 O     -0.500  1.762  4.738  0.000    23.790     6.539
  74   6 C      0.117  1.046  2.838  0.000    18.766     6.185
  75   8 O     -0.456  1.714  4.742  0.000    21.964     6.327
  76   6 C     -0.127  1.040  3.087  0.000    22.996     6.838
  77   1 H      0.229  0.771  0.000  0.000     0.970     1.543
  78   1 H      0.071  0.929  0.000  0.000     2.078     2.254
  79   1 H      0.029  0.971  0.000  0.000     2.599     2.521
  80   1 H      0.326  0.674  0.000  0.000     0.648     1.265
  81   1 H      0.084  0.916  0.000  0.000     1.938     2.177
  82   1 H      0.046  0.954  0.000  0.000     2.370     2.407
  83   1 H      0.059  0.941  0.000  0.000     2.209     2.324
  84   7 N     -0.173  1.242  3.931  0.000    24.753     7.389
  85   6 C      0.020  1.067  2.913  0.000    20.236     6.404
  86   6 C      0.284  1.039  2.678  0.000    22.197     7.715
  87   8 O     -0.514  1.757  4.758  0.000    24.106     6.583
  88   6 C     -0.018  1.063  2.955  0.000    20.867     6.497
  89   6 C     -0.116  1.039  3.077  0.000    22.767     6.803
  90   6 C     -0.126  1.043  3.083  0.000    22.971     6.834
  91   1 H      0.201  0.799  0.000  0.000     1.101     1.644
  92   1 H      0.073  0.927  0.000  0.000     2.050     2.239
  93   1 H      0.045  0.955  0.000  0.000     2.379     2.412
  94   1 H      0.065  0.935  0.000  0.000     2.139     2.287
  95   1 H      0.031  0.969  0.000  0.000     2.567     2.506
  96   1 H      0.050  0.950  0.000  0.000     2.324     2.384
  97   1 H      0.069  0.931  0.000  0.000     2.099     2.266
  98   1 H      0.053  0.947  0.000  0.000     2.288     2.365
  99   1 H      0.049  0.951  0.000  0.000     2.338     2.391
 100   7 N     -0.200  1.254  3.946  0.000    25.355     7.478
 101   6 C      0.032  1.057  2.911  0.000    20.032     6.372
 102   6 C      0.287  1.039  2.675  0.000    22.144     7.706
 103   8 O     -0.507  1.752  4.755  0.000    23.947     6.561
 104   6 C     -0.071  1.059  3.012  0.000    21.846     6.653
 105   6 C     -0.007  1.056  2.951  0.000    20.662     6.466
 106   6 C     -0.113  1.039  3.074  0.000    22.723     6.797
 107   6 C     -0.112  1.043  3.069  0.000    22.692     6.792
 108   1 H      0.233  0.767  0.000  0.000     0.952     1.528
 109   1 H      0.063  0.937  0.000  0.000     2.159     2.298
 110   1 H      0.063  0.937  0.000  0.000     2.170     2.304
 111   1 H      0.049  0.951  0.000  0.000     2.329     2.386
 112   1 H      0.032  0.968  0.000  0.000     2.561     2.503
 113   1 H      0.039  0.961  0.000  0.000     2.462     2.454
 114   1 H      0.034  0.966  0.000  0.000     2.525     2.485
 115   1 H      0.041  0.959  0.000  0.000     2.430     2.438
 116   1 H      0.043  0.957  0.000  0.000     2.414     2.430
 117   1 H      0.044  0.956  0.000  0.000     2.401     2.423
 118   1 H      0.045  0.955  0.000  0.000     2.384     2.414
 119   7 N     -0.185  1.248  3.937  0.000    25.016     7.428
 120   6 C      0.040  1.058  2.903  0.000    19.912     6.354
 121   6 C      0.216  1.084  2.700  0.000    23.438     7.928
 122   8 O     -0.368  1.750  4.618  0.000    21.046     6.151
 123   6 C     -0.057  1.048  3.009  0.000    21.592     6.615
 124   6 C     -0.094  1.057  3.037  0.000    22.289     6.721
 125   6 C      0.365  1.024  2.611  0.000    20.815     7.466
 126   8 O     -0.576  1.762  4.814  0.000    25.538     6.775
 127   8 O     -0.572  1.754  4.819  0.000    25.404     6.759
 128   1 H      0.225  0.775  0.000  0.000     0.986     1.555
 129   1 H      0.070  0.930  0.000  0.000     2.086     2.259
 130   1 H      0.073  0.927  0.000  0.000     2.051     2.240
 131   1 H      0.054  0.946  0.000  0.000     2.272     2.357
 132   1 H      0.035  0.965  0.000  0.000     2.522     2.483
 133   1 H      0.048  0.952  0.000  0.000     2.341     2.393
 134   8 O     -0.648  1.759  4.889  0.000    26.364     6.930
 135   1 H      0.304  0.696  0.000  0.000     0.710     1.324
 136   1 H      0.299  0.701  0.000  0.000     0.725     1.337
 137   8 O     -0.666  1.769  4.897  0.000    26.830     6.991
 138   1 H      0.318  0.682  0.000  0.000     0.669     1.285
 139   1 H      0.323  0.677  0.000  0.000     0.656     1.272
 140   8 O     -0.645  1.760  4.885  0.000    26.294     6.921
 141   1 H      0.326  0.674  0.000  0.000     0.647     1.263
 142   1 H      0.313  0.687  0.000  0.000     0.683     1.299
 143   8 O     -0.594  1.748  4.846  0.000    25.044     6.754
 144   1 H      0.318  0.682  0.000  0.000     0.669     1.285
 145   1 H      0.333  0.667  0.000  0.000     0.630     1.247
 146   8 O     -0.647  1.769  4.878  0.000    26.335     6.926
 147   1 H      0.295  0.705  0.000  0.000     0.738     1.349
 148   1 H      0.325  0.675  0.000  0.000     0.649     1.266
 149   7 N     -0.391  1.311  4.080  0.000    30.125     8.152
 150   6 C      0.036  1.057  2.908  0.000    19.991     6.369
 151   6 C      0.194  1.100  2.706  0.000    23.856     7.999
 152   8 O     -0.372  1.748  4.625  0.000    21.137     6.164
 153   6 C     -0.075  1.057  3.017  0.000    21.923     6.666
 154   6 C     -0.075  1.050  3.025  0.000    21.931     6.667
 155   6 C     -0.016  1.048  2.968  0.000    20.945     6.530
 156   7 N     -0.154  1.220  3.934  0.000    24.331     7.326
 157   6 C      0.235  1.018  2.747  0.000    23.080     7.866
 158   7 N     -0.269  1.231  4.038  0.000    26.973     7.713
 159   7 N     -0.279  1.254  4.025  0.000    27.204     7.746
 160   1 H      0.177  0.823  0.000  0.000     1.234     1.740
 161   1 H      0.058  0.942  0.000  0.000     2.218     2.329
 162   1 H      0.065  0.935  0.000  0.000     2.141     2.288
 163   1 H      0.059  0.941  0.000  0.000     2.209     2.324
 164   1 H      0.062  0.938  0.000  0.000     2.177     2.308
 165   1 H      0.067  0.933  0.000  0.000     2.122     2.278
 166   1 H      0.073  0.927  0.000  0.000     2.053     2.241
 167   1 H      0.078  0.922  0.000  0.000     1.998     2.211
 168   1 H      0.232  0.768  0.000  0.000     0.956     1.532
 169   1 H      0.238  0.762  0.000  0.000     0.932     1.512
 170   1 H      0.245  0.755  0.000  0.000     0.902     1.488
 171   1 H      0.250  0.750  0.000  0.000     0.885     1.474
 172   1 H      0.223  0.777  0.000  0.000     0.998     1.565
 173   7 N     -0.394  1.310  4.083  0.000    30.199     8.162
 174   6 C      0.036  1.054  2.911  0.000    19.986     6.367
 175   6 C      0.265  1.052  2.682  0.000    22.528     7.773
 176   8 O     -0.515  1.755  4.760  0.000    24.122     6.585
 177   6 C     -0.065  1.054  3.011  0.000    21.739     6.638
 178   6 C     -0.100  1.056  3.043  0.000    22.395     6.737
 179   6 C      0.290  1.039  2.671  0.000    22.087     7.695
 180   8 O     -0.516  1.757  4.759  0.000    24.132     6.586
 181   7 N     -0.281  1.263  4.018  0.000    27.253     7.753
 182   1 H      0.161  0.839  0.000  0.000     1.330     1.807
 183   1 H      0.039  0.961  0.000  0.000     2.467     2.456
 184   1 H      0.057  0.943  0.000  0.000     2.237     2.339
 185   1 H      0.065  0.935  0.000  0.000     2.139     2.287
 186   1 H      0.078  0.922  0.000  0.000     1.999     2.211
 187   1 H      0.060  0.940  0.000  0.000     2.197     2.318
 188   1 H      0.218  0.782  0.000  0.000     1.017     1.580
 189   1 H      0.230  0.770  0.000  0.000     0.966     1.539
 190   7 N     -0.171  1.247  3.924  0.000    24.707     7.382
 191   6 C      0.031  1.055  2.914  0.000    20.054     6.376
 192   6 C      0.204  1.084  2.712  0.000    23.673     7.968
 193   8 O     -0.369  1.761  4.608  0.000    21.067     6.154
 194   6 C     -0.077  1.060  3.017  0.000    21.958     6.670
 195   6 C     -0.013  1.056  2.958  0.000    20.780     6.484
 196   6 C     -0.112  1.040  3.072  0.000    22.699     6.793
 197   6 C     -0.112  1.038  3.074  0.000    22.694     6.792
 198   1 H      0.241  0.759  0.000  0.000     0.918     1.501
 199   1 H      0.075  0.925  0.000  0.000     2.029     2.227
 200   1 H      0.072  0.928  0.000  0.000     2.069     2.249
 201   1 H      0.056  0.944  0.000  0.000     2.250     2.346
 202   1 H      0.056  0.944  0.000  0.000     2.252     2.347
 203   1 H      0.043  0.957  0.000  0.000     2.414     2.430
 204   1 H      0.046  0.954  0.000  0.000     2.376     2.411
 205   1 H      0.043  0.957  0.000  0.000     2.412     2.429
 206   1 H      0.042  0.958  0.000  0.000     2.429     2.437
 207   1 H      0.034  0.966  0.000  0.000     2.535     2.490
 208   1 H      0.032  0.968  0.000  0.000     2.560     2.502
 209   7 N     -0.403  1.315  4.088  0.000    30.462     8.197
 210   6 C      0.040  1.060  2.900  0.000    19.922     6.358
 211   6 C      0.206  1.091  2.703  0.000    23.626     7.960
 212   8 O     -0.391  1.757  4.634  0.000    21.503     6.217
 213   6 C     -0.009  1.063  2.946  0.000    20.694     6.470
 214   6 C     -0.112  1.039  3.073  0.000    22.695     6.793
 215   6 C     -0.117  1.040  3.077  0.000    22.789     6.807
 216   1 H      0.178  0.822  0.000  0.000     1.226     1.734
 217   1 H      0.045  0.955  0.000  0.000     2.379     2.412
 218   1 H      0.039  0.961  0.000  0.000     2.459     2.452
 219   1 H      0.057  0.943  0.000  0.000     2.240     2.340
 220   1 H      0.020  0.980  0.000  0.000     2.733     2.585
 221   1 H      0.042  0.958  0.000  0.000     2.423     2.434
 222   1 H      0.053  0.947  0.000  0.000     2.279     2.361
 223   1 H      0.044  0.956  0.000  0.000     2.396     2.421
 224   1 H      0.048  0.952  0.000  0.000     2.341     2.393
 225   7 N     -0.391  1.311  4.080  0.000    30.133     8.153
 226   6 C      0.032  1.058  2.910  0.000    20.048     6.378
 227   6 C      0.196  1.091  2.713  0.000    23.814     7.992
 228   8 O     -0.385  1.759  4.627  0.000    21.390     6.201
 229   6 C     -0.070  1.054  3.016  0.000    21.839     6.653
 230   6 C     -0.068  1.051  3.017  0.000    21.803     6.647
 231   6 C     -0.083  1.054  3.029  0.000    22.082     6.691
 232   6 C     -0.022  1.048  2.974  0.000    21.056     6.549
 233   7 N     -0.207  1.267  3.939  0.000    25.483     7.498
 234   1 H      0.162  0.838  0.000  0.000     1.321     1.800
 235   1 H      0.080  0.920  0.000  0.000     1.983     2.202
 236   1 H      0.045  0.955  0.000  0.000     2.381     2.413
 237   1 H      0.057  0.943  0.000  0.000     2.232     2.336
 238   1 H      0.048  0.952  0.000  0.000     2.343     2.394
 239   1 H      0.047  0.953  0.000  0.000     2.352     2.399
 240   1 H      0.065  0.935  0.000  0.000     2.141     2.288
 241   1 H      0.067  0.933  0.000  0.000     2.116     2.275
 242   1 H      0.081  0.919  0.000  0.000     1.970     2.195
 243   1 H      0.083  0.917  0.000  0.000     1.948     2.183
 244   1 H      0.307  0.693  0.000  0.000     0.691     1.301
 245   1 H      0.262  0.738  0.000  0.000     0.838     1.434
 246   1 H      0.256  0.744  0.000  0.000     0.860     1.453
 247   1 H      0.177  0.823  0.000  0.000     1.230     1.737
 248   1 H      0.084  0.916  0.000  0.000     1.943     2.179
 249   1 H      0.181  0.819  0.000  0.000     1.209     1.722
 250   1 H      0.061  0.939  0.000  0.000     2.186     2.312
 251   1 H      0.180  0.820  0.000  0.000     1.215     1.726
 252   1 H      0.090  0.910  0.000  0.000     1.877     2.143
 253   1 H      0.181  0.819  0.000  0.000     1.206     1.720
 254   1 H      0.071  0.929  0.000  0.000     2.075     2.252
 255   1 H      0.178  0.822  0.000  0.000     1.224     1.733
 256   1 H      0.066  0.934  0.000  0.000     2.125     2.280
 257   1 H      0.185  0.815  0.000  0.000     1.187     1.707
 258   1 H      0.076  0.924  0.000  0.000     2.022     2.223

 Mol. C6AA /au·bohr⁶  :     539786.734660
 Mol. C8AA /au·bohr⁸  :   11607668.634132
 Mol. α(0) /au        :       1090.352284

 
molecular dipole:
                 x           y           z       tot (Debye)
 q only:        4.252       0.557     -25.313
   full:        4.464       1.489     -26.534      68.497
molecular quadrupole (traceless):
                xx          xy          yy          xz          yz          zz
 q only:      928.576     165.473     574.505   -1689.936    -643.439   -1503.081
  q+dip:      954.105     250.155     640.542   -1758.520    -646.705   -1594.648
   full:      959.452     248.425     639.348   -1757.064    -645.834   -1598.800
speedup  1.00
cpu  time for grad    2.53 s
wall time for grad    2.53 s

SCC energy    :    -379.1619359
rep           :       4.5189435
ES            :       1.1557952
AES           :      -0.0363678
AXC           :       0.1301537
disp          :      -0.2892043
XB            :       0.0000000
fix           :       0.0000000
Gborn         :       0.0000000
Gsasa         :       0.0000000
Ghb           :       0.0000000
Gshift        :       0.0000000
Gsolv         :      -0.2337044     -146.65
Etot ala COSMO:    -379.1619359
grad norm     :       0.5455764
total E       :    -374.6203215
atomizationE  :      67.6390726    42444.16
(atE without considering molecular charge,
 total energy contains solvation terms)
H-L gap (eV)  :          1.3287

------------------------------------------------------------------------
 * finished run on 2019/03/18 at 01:29:55.926     
------------------------------------------------------------------------
 total:
 * wall-time:     0 d,  0 h,  0 min,  2.812 sec
 *  cpu-time:     0 d,  0 h,  0 min,  2.767 sec
 * ratio c/w:     0.984 speedup
 SCF:
 * wall-time:     0 d,  0 h,  0 min,  2.704 sec
 *  cpu-time:     0 d,  0 h,  0 min,  2.702 sec
 * ratio c/w:     0.999 speedup

