      -----------------------------------------------------------      
     |                   =====================                   |     
     |                           x T B                           |     
     |                   =====================                   |     
     |                         S. Grimme                         |     
     |          Mulliken Center for Theoretical Chemistry        |     
     |                    University of Bonn                     |     
     |                 Version 6.0.1 (SAW181210)                 |     
      -----------------------------------------------------------      

   This program is distributed in the hope that it will be useful,
   but WITHOUT ANY WARRANTY; without even the implied warranty of
   MERCHANTABILITY or FITNESS FOR A PARTICULAR PURPOSE.
   
   FOR NON-COMMERCIAL, ACADEMIA USE ONLY.
   
   Cite this work as:
   S. Grimme, C. Bannwarth, P. Shushkov, J. Comput. Theory Chem., 2017,
   13, 1989-2009.
   C. Bannwarth, S. Ehlert and S. Grimme., ChemRxiv, 2018, preprint.
   http://doi.org/10.26434/chemrxiv.7246238.v1
   
   for sTDA-xTB:
   S. Grimme and C. Bannwarth, J. Chem. Phys., 2016, 145, 054103.
   
   in the mass-spec context:
   V. Asgeirsson, C. Bauer and S. Grimme, Chem. Sci., 2017, 8, 4879.
   
   if GBSA is used:
   P. Shushkov, F. März and S. Grimme, unpublished.
   
   for ANC optimizer:
   S. Grimme, unpublished.
   Rational Function algorithm used in ANCopt:
   F. Eckert, P. Pulay, H.-J. Werner, J. Comput. Chem., 1997, 18, 1473.
   
   with help from (in alphabetical order)
   C. Bannwarth, F. Bohle, G. Brandenburg, E. Caldeweyher, M. Checinski,
   S. Dohm, S. Ehlert, S. Ehrlich, F. März, H. Neugebauer, J. Pisarek,
   P. Pracht, P. Shushkov, and S. Spicher.
   
 * started run on 2019/05/05 at 23:27:41.868     
========================================================================
 # omp threads = 2
========================================================================
number of atoms            : 1678
number of electrons        : 4524
charge                     : 7
spin                       : .0
first test random number   : .0975

########################################################################
# WARNING! Please study the warnings concerning your input carefully
#  - Process number higher than OMP_NUM_THREADS, I hope you know what you are doing.
########################################################################

           ------------------------------------------------- 
          |                 G F N 2 - x T B                 |
          | Geometry, Frequencies, Noncovalent interactions |
          |            JCTC 2018 parametrisation            |
           ------------------------------------------------- 
 
      method parameters     
 k(s)        :  1.8500
 k(p)        :  2.2300
 k(d)        :  2.2300
 k(f)        :  2.0000
 kEN (H0ij)  : -2.0000
 D4 a1       :  0.5200
 D4 a2       :  5.0000
 D4 s6       :  1.0000
 D4 s8       :  2.7000
 D4 s9       :  5.0000
 alphaj      :  2.0000

 Solvent             : h2o
 Using internal parameter file: .param_gbsa2_h2o
 Gsolv ref. state (COSMO-RS): gsolv [1 M gas/solution]
 temperature (mdtemp)       :    298.150000000000     
 dielectric constant        :    80.2000000000000     
 rho                        :    1.00000000000000     
 mass                       :    18.0000000000000     
 surface tension            :    15.5689454083859     
 probe radius               :   0.975313790000000     
 vdW radii scaling          :    1.00000000000000     
 Gshift (Eh)                :   1.857443126794793E-003
 c1                         :    1.55243817000000     
 soset                      :   0.130326360000000     
 HB correction              :  T

            Z     q(EN)     CN     RAES       Cart. coordinates
     1  N   5.0   -0.19    3.20    1.96   -18.83490    52.86319    17.80878
     2  C   4.0    0.03    4.40    4.37   -18.92183    55.34440    19.00119
     3  C   4.0    0.15    3.39    3.07   -19.17127    55.00803    21.83767
     4  O   6.0   -0.28    1.21    1.80   -21.06478    53.99892    22.74285
     5  C   4.0   -0.02    4.30    4.20   -20.85313    57.22468    17.84468
     6  C   4.0   -0.05    4.22    4.04   -20.50920    57.42310    14.96096
     7  C   4.0   -0.07    4.11    3.83   -20.58478    59.81172    19.11836
     8  C   4.0   -0.07    4.05    3.71   -22.62380    58.57961    13.60792
     9  H   1.0    0.09    1.02    1.43   -20.54699    52.14321    17.29666
    10  H   1.0    0.04    1.08    1.44   -17.10580    56.24958    18.64782
    11  H   1.0    0.05    1.06    1.44   -22.75608    56.51603    18.18861
    12  H   1.0    0.04    1.04    1.43   -18.83679    58.56261    14.58113
    13  H   1.0    0.04    1.04    1.43   -20.25597    55.52393    14.20318
    14  H   1.0    0.04    1.00    1.43   -21.94917    61.11185    18.28877
    15  H   1.0    0.06    1.00    1.43   -20.94572    59.60574    21.13658
    16  H   1.0    0.05    1.00    1.43   -18.67238    60.51280    18.81600
    17  H   1.0    0.06    1.01    1.43   -22.18727    58.62686    11.59536
    18  H   1.0    0.05    1.01    1.43   -24.32077    57.45901    13.93295
    19  H   1.0    0.05    1.01    1.43   -22.90159    60.49580    14.31089
    20  N   5.0   -0.15    3.44    2.04   -17.21351    55.83006    23.20961
    21  C   4.0    0.03    4.34    4.28   -16.99242    55.67511    25.95917
    22  C   4.0    0.15    3.33    3.06   -18.13570    58.02404    27.29331
    23  O   6.0   -0.28    1.21    1.80   -19.61536    57.73302    29.07532
    24  C   4.0   -0.04    4.23    4.06   -14.22019    55.22346    26.70183
    25  C   4.0   -0.04    4.16    3.93   -12.96163    52.94067    25.37524
    26  C   4.0    0.00    4.20    4.00   -13.56256    50.35364    26.49018
    27  N   5.0   -0.13    3.39    2.02   -12.62904    50.08719    29.08099
    28  C   4.0    0.11    3.35    3.06   -14.02555    50.46135    31.13701
    29  N   5.0   -0.16    3.27    1.97   -16.44251    51.10575    30.92914
    30  N   5.0   -0.16    3.23    1.96   -13.01643    50.19868    33.41413
    31  H   1.0    0.07    1.06    1.44   -15.66394    56.65965    22.41971
    32  H   1.0    0.06    1.06    1.44   -18.05822    54.04994    26.64136
    33  H   1.0    0.05    1.03    1.43   -13.12982    56.90154    26.21617
    34  H   1.0    0.06    1.03    1.43   -14.13137    54.88898    28.73139
    35  H   1.0    0.05    1.03    1.43   -13.57768    52.91422    23.40993
    36  H   1.0    0.06    1.03    1.43   -10.91884    53.18445    25.46973
    37  H   1.0    0.05    1.04    1.43   -15.60536    50.08530    26.51474
    38  H   1.0    0.06    1.02    1.43   -12.67439    48.89666    25.33556
    39  H   1.0    0.10    1.06    1.44   -10.78467    49.58074    29.32477
    40  H   1.0    0.09    1.04    1.43   -17.23808    51.31551    29.18493
    41  H   1.0    0.10    1.02    1.43   -17.50453    51.38921    32.51273
    42  H   1.0    0.11    1.02    1.43   -11.16072    49.70735    33.59555
    43  H   1.0    0.11    1.03    1.43   -14.09547    50.48781    34.98450
    44  N   5.0   -0.13    3.44    2.04   -17.46107    60.31816    26.42782
    45  C   4.0    0.04    4.40    4.38   -18.48530    62.68788    27.39725
    46  C   4.0    0.15    3.41    3.08   -19.70417    64.01069    25.14847
    47  O   6.0   -0.31    1.24    1.80   -18.48530    64.38107    23.19450
    48  C   4.0   -0.03    4.24    4.08   -16.42550    64.32627    28.63880
    49  C   4.0   -0.03    4.22    4.03   -17.44973    66.62796    30.07310
    50  C   4.0    0.16    3.22    3.04   -18.91427    65.94010    32.42770
    51  O   6.0   -0.26    1.20    1.80   -17.86358    65.03492    34.30608
    52  N   5.0   -0.18    3.18    1.95   -21.37469    66.39552    32.38423
    53  H   1.0    0.09    1.06    1.44   -16.17416    60.58083    25.01808
    54  H   1.0    0.06    1.06    1.44   -19.90259    62.34962    28.85234
    55  H   1.0    0.07    1.03    1.43   -15.38048    63.16598    29.98239
    56  H   1.0    0.06    1.03    1.43   -15.15749    65.01791    27.17048
    57  H   1.0    0.06    1.03    1.43   -15.86614    67.81848    30.64002
    58  H   1.0    0.05    1.04    1.43   -18.71207    67.67865    28.82966
    59  H   1.0    0.09    1.03    1.43   -22.18349    67.17031    30.81576
    60  H   1.0    0.10    1.02    1.43   -22.46128    65.97033    33.91869
    61  N   5.0   -0.13    3.35    2.00   -22.13625    64.55871    25.39036
    62  C   4.0    0.01    4.26    4.11   -23.62535    65.73412    23.38914
    63  C   4.0    0.15    3.37    3.07   -24.46250    68.41186    23.95984
    64  O   6.0   -0.28    1.25    1.80   -24.05432    69.32082    26.07066
    65  H   1.0    0.08    1.06    1.44   -23.15859    64.20533    26.98529
    66  H   1.0    0.05    1.04    1.43   -22.50286    65.77758    21.66193
    67  H   1.0    0.04    1.04    1.44   -25.31477    64.60028    23.06222
    68  N   5.0   -0.08    3.63    2.19   -25.64169    69.75356    22.12680
    69  C   4.0    0.04    4.57    4.63   -26.43160    72.37083    22.62947
    70  C   4.0    0.15    3.41    3.08   -28.32132    72.53902    24.79320
    71  O   6.0   -0.29    1.25    1.80   -29.87846    70.84016    25.08422
    72  C   4.0   -0.05    4.37    4.32   -27.55409    73.23255    20.09724
    73  C   4.0   -0.03    4.30    4.19   -28.30432    70.84772    18.78388
    74  C   4.0   -0.01    4.35    4.29   -26.28042    68.99578    19.52087
    75  H   1.0    0.06    1.05    1.44   -24.80265    73.54435    23.08867
    76  H   1.0    0.04    1.03    1.43   -29.19060    74.43819    20.42983
    77  H   1.0    0.04    1.03    1.43   -26.13302    74.25678    19.01253
    78  H   1.0    0.06    1.03    1.43   -30.15625    70.22789    19.43961
    79  H   1.0    0.05    1.03    1.43   -28.34022    71.13873    16.74486
    80  H   1.0    0.04    1.03    1.43   -26.99851    67.06637    19.47363
    81  H   1.0    0.04    1.03    1.43   -24.64203    69.16775    18.28499
    82  N   5.0   -0.14    3.42    2.03   -28.09267    74.49111    26.38813
    83  C   4.0    0.03    4.49    4.52   -29.81043    74.80291    28.52163
    84  C   4.0    0.15    3.38    3.07   -31.63968    76.96098    28.03408
    85  O   6.0   -0.31    1.25    1.80   -30.88757    79.00566    27.22339
    86  C   4.0   -0.02    4.24    4.08   -28.55187    74.94275    31.17103
    87  C   4.0   -0.07    4.10    3.79   -27.69204    72.33493    32.03463
    88  C   4.0   -0.06    4.10    3.81   -26.36924    76.81736    31.25607
    89  H   1.0    0.08    1.05    1.44   -26.74718    75.86305    26.24073
    90  H   1.0    0.06    1.09    1.44   -30.92537    73.07192    28.57455
    91  H   1.0    0.05    1.06    1.44   -29.97672    75.63250    32.49006
    92  H   1.0    0.04    1.00    1.43   -26.81899    72.49745    33.89223
    93  H   1.0    0.05    1.00    1.43   -29.32855    71.08771    32.13479
    94  H   1.0    0.06    1.00    1.43   -26.32766    71.59605    30.67970
    95  H   1.0    0.05    1.00    1.43   -25.56799    76.82870    33.15335
    96  H   1.0    0.05    1.00    1.43   -24.93682    76.24099    29.89169
    97  H   1.0    0.06    1.00    1.43   -27.07788    78.69197    30.78175
    98  N   5.0   -0.13    3.46    2.06   -34.07554    76.43375    28.48384
    99  C   4.0    0.04    4.37    4.33   -36.22227    78.15529    28.16070
   100  C   4.0    0.15    3.41    3.08   -35.79708    80.56469    29.66492
   101  O   6.0   -0.28    1.23    1.80   -34.79552    80.44563    31.77574
   102  C   4.0   -0.03    4.33    4.25   -38.68647    76.90051    29.07154
   103  C   4.0    0.14    3.27    3.05   -38.95292    74.15474    28.38179
   104  O   6.0   -0.32    1.27    1.80   -39.90723    73.50656    26.36168
   105  N   5.0   -0.19    3.26    1.97   -38.08932    72.49367    30.04286
   106  H   1.0    0.08    1.10    1.44   -34.66324    74.71032    29.11690
   107  H   1.0    0.05    1.05    1.44   -36.41313    78.61449    26.16137
   108  H   1.0    0.05    1.04    1.43   -38.76773    77.03279    31.12568
   109  H   1.0    0.06    1.03    1.43   -40.27951    77.90584    28.23817
   110  H   1.0    0.08    1.23    1.47   -38.21971    70.60583    29.67437
   111  H   1.0    0.08    1.03    1.43   -37.29374    73.10216    31.68881
   112  N   5.0   -0.14    3.41    2.02   -36.54541    82.74354    28.58399
   113  C   4.0    0.04    4.29    4.18   -36.28085    85.20018    29.83688
   114  C   4.0    0.08    3.20    3.04   -38.07042    87.22597    28.86367
   115  O   6.0   -0.29    1.13    1.80   -38.77718    87.26376    26.64703
   116  C   4.0   -0.03    4.28    4.17   -33.54642    86.17528    29.82177
   117  C   4.0   -0.03    4.26    4.11   -32.21416    86.09025    27.29520
   118  C   4.0    0.15    3.25    3.04   -29.41358    86.18662    27.70149
   119  O   6.0   -0.27    1.20    1.80   -28.32510    88.20485    28.20038
   120  N   5.0   -0.17    3.18    1.95   -28.20038    83.98887    27.57110
   121  H   1.0    0.09    1.06    1.44   -37.34476    82.85692    26.83411
   122  H   1.0    0.06    1.07    1.44   -36.88556    84.86192    31.77763
   123  H   1.0    0.06    1.03    1.43   -33.55775    88.14060    30.44160
   124  H   1.0    0.07    1.04    1.43   -32.44470    85.03011    31.13324
   125  H   1.0    0.05    1.04    1.44   -32.68470    84.34036    26.31632
   126  H   1.0    0.05    1.03    1.43   -32.77730    87.70974    26.15381
   127  H   1.0    0.11    1.05    1.44   -29.17926    82.36748    27.21205
   128  H   1.0    0.11    1.02    1.43   -26.29176    83.92462    27.82999
   129  N   5.0   -0.17    3.20    1.96   -38.82064    94.23496    27.16103
   130  C   4.0    0.04    4.26    4.13   -37.20681    96.35335    26.45805
   131  C   4.0    0.09    3.19    3.03   -38.77907    98.76842    26.04042
   132  O   6.0   -0.28    1.15    1.80   -40.82942    98.65314    24.96517
   133  C   4.0   -0.02    4.23    4.06   -35.40024    95.71084    24.22251
   134  C   4.0   -0.07    4.10    3.81   -36.82887    94.94550    21.83956
   135  C   4.0   -0.07    4.09    3.78   -33.54075    97.84812    23.67449
   136  H   1.0    0.13    1.06    1.44   -40.00928    93.62458    25.77208
   137  H   1.0    0.05    1.06    1.44   -35.99550    96.78231    28.06810
   138  H   1.0    0.04    1.06    1.44   -34.29664    94.07623    24.81588
   139  H   1.0    0.04    1.00    1.43   -35.47016    94.52031    20.35046
   140  H   1.0    0.06    1.00    1.43   -37.96837    93.27876    22.24774
   141  H   1.0    0.05    1.01    1.43   -38.04585    96.50264    21.25753
   142  H   1.0    0.04    1.00    1.43   -32.32943    97.29632    22.10223
   143  H   1.0    0.05    1.00    1.43   -34.59710    99.54698    23.18505
   144  H   1.0    0.06    1.00    1.43   -32.39746    98.19016    25.35445
   145  N   5.0   -0.19    3.18    1.95   -26.02720   102.31921    23.01308
   146  C   4.0    0.04    4.35    4.29   -24.37180   100.41437    21.84901
   147  C   4.0    0.14    3.40    3.08   -24.72139    97.80655    23.03009
   148  O   6.0   -0.28    1.22    1.80   -24.56266    97.56655    25.34311
   149  C   4.0    0.06    4.21    4.02   -21.59957   101.26663    21.92271
   150  O   6.0   -0.25    2.09    1.84   -21.32367   103.46628    20.38258
   151  C   4.0   -0.07    4.08    3.76   -19.76086    99.20872    21.04588
   152  H   1.0    0.11    1.02    1.43   -25.79854   102.48551    24.91982
   153  H   1.0    0.06    1.07    1.44   -24.93115   100.18949    19.87992
   154  H   1.0    0.06    1.05    1.44   -21.09312   101.68615    23.87480
   155  H   1.0    0.12    1.01    1.43   -19.56244   104.03886    20.40715
   156  H   1.0    0.05    1.00    1.43   -17.82578    99.90792    21.13470
   157  H   1.0    0.05    1.00    1.43   -19.92905    97.55143    22.25719
   158  H   1.0    0.06    1.00    1.43   -20.18605    98.66448    19.10513
   159  N   5.0   -0.14    3.41    2.03   -25.13524    95.85824    21.45028
   160  C   4.0    0.04    4.37    4.34   -25.32800    93.24664    22.31766
   161  C   4.0    0.14    3.37    3.07   -23.35134    91.54588    21.07233
   162  O   6.0   -0.31    1.28    1.80   -22.62569    91.96540    18.87836
   163  C   4.0   -0.03    4.29    4.18   -28.01141    92.16571    22.05877
   164  C   4.0   -0.01    3.51    3.12   -29.06776    91.71785    19.43772
   165  C   4.0   -0.04    3.45    3.10   -30.49073    93.56978    18.22452
   166  C   4.0   -0.04    3.45    3.10   -28.82021    89.38215    18.26798
   167  C   4.0   -0.04    3.36    3.07   -31.59433    93.11436    15.85669
   168  C   4.0   -0.05    3.37    3.07   -29.93137    88.92483    15.90582
   169  C   4.0   -0.04    3.36    3.07   -31.32221    90.79377    14.72285
   170  H   1.0    0.11    1.08    1.44   -25.34500    96.05099    19.54355
   171  H   1.0    0.06    1.08    1.44   -24.89147    93.22018    24.33022
   172  H   1.0    0.05    1.04    1.43   -28.04164    90.34402    23.01875
   173  H   1.0    0.05    1.04    1.43   -29.30020    93.47529    22.99041
   174  H   1.0    0.05    1.03    1.43   -30.74962    95.38581    19.12025
   175  H   1.0    0.05    1.03    1.43   -27.76007    87.90060    19.18828
   176  H   1.0    0.05    1.03    1.43   -32.65635    94.58645    14.92506
   177  H   1.0    0.04    1.03    1.43   -29.70082    87.10692    15.00820
   178  H   1.0    0.06    1.03    1.43   -32.19148    90.43095    12.91250
   179  N   5.0   -0.14    3.42    2.03   -22.44239    89.65238    22.50853
   180  C   4.0    0.04    4.44    4.45   -20.59045    87.80423    21.60146
   181  C   4.0    0.14    3.38    3.07   -21.74697    85.14349    21.81878
   182  O   6.0   -0.29    1.22    1.80   -22.83167    84.51232    23.79354
   183  C   4.0   -0.02    4.25    4.09   -18.02232    87.97808    23.00552
   184  C   4.0   -0.07    4.11    3.82   -16.11180    86.12804    21.89625
   185  C   4.0   -0.07    4.10    3.81   -16.95651    90.65771    22.95828
   186  H   1.0    0.09    1.05    1.44   -22.97151    89.35758    24.33778
   187  H   1.0    0.06    1.07    1.44   -20.21818    88.17839    19.60969
   188  H   1.0    0.06    1.06    1.44   -18.35869    87.47163    24.97273
   189  H   1.0    0.05    1.00    1.43   -14.33546    86.30000    22.92427
   190  H   1.0    0.05    1.00    1.43   -16.84691    84.21375    22.08145
   191  H   1.0    0.05    1.00    1.43   -15.81890    86.57779    19.90826
   192  H   1.0    0.05    1.00    1.43   -15.15938    90.68228    23.96550
   193  H   1.0    0.04    1.01    1.43   -16.67305    91.23219    21.00052
   194  H   1.0    0.05    1.00    1.43   -18.29255    91.92761    23.87669
   195  N   5.0   -0.14    3.43    2.04   -21.51642    83.60148    19.80244
   196  C   4.0    0.03    4.39    4.37   -22.41971    80.99932    19.77787
   197  C   4.0    0.14    3.39    3.08   -20.20117    79.23432    19.25064
   198  O   6.0   -0.31    1.26    1.80   -19.29221    79.10771    17.11903
   199  C   4.0   -0.04    4.36    4.30   -24.54376    80.66106    17.83145
   200  C   4.0   -0.03    4.21    4.02   -27.06088    81.90072    18.48719
   201  C   4.0   -0.08    4.11    3.83   -28.79753    81.98954    16.22141
   202  C   4.0   -0.07    4.12    3.84   -28.32132    80.57602    20.68116
   203  H   1.0    0.11    1.10    1.44   -20.69439    84.13438    18.14326
   204  H   1.0    0.05    1.07    1.44   -23.15103    80.53256    21.64681
   205  H   1.0    0.05    1.03    1.43   -23.91259    81.46798    16.04377
   206  H   1.0    0.04    1.03    1.43   -24.89525    78.64472    17.60847
   207  H   1.0    0.05    1.07    1.44   -26.68671    83.84336    19.05789
   208  H   1.0    0.04    1.00    1.43   -30.57010    82.88527    16.76943
   209  H   1.0    0.04    1.00    1.43   -27.89236    83.07802    14.72474
   210  H   1.0    0.04    1.00    1.43   -29.15469    80.06769    15.57323
   211  H   1.0    0.04    1.01    1.43   -30.10900    81.51333    21.09312
   212  H   1.0    0.04    1.00    1.43   -28.65958    78.60882    20.17282
   213  H   1.0    0.05    1.00    1.43   -27.08355    80.67240    22.32333
   214  N   5.0   -0.13    3.44    2.04   -19.25064    77.97009    21.21973
   215  C   4.0    0.04    4.39    4.37   -17.10013    76.25989    20.97974
   216  C   4.0    0.15    3.38    3.07   -17.89570    73.51412    20.70195
   217  O   6.0   -0.29    1.23    1.80   -20.07456    72.85649    21.16115
   218  C   4.0    0.03    4.14    3.88   -15.19529    76.62839    23.11513
   219  O   6.0   -0.24    2.04    1.83   -16.39715    76.86460    25.49996
   220  H   1.0    0.09    1.06    1.44   -19.94039    78.09859    23.01497
   221  H   1.0    0.06    1.08    1.44   -16.11936    76.72476    19.22985
   222  H   1.0    0.05    1.02    1.43   -13.93673    74.99755    23.16804
   223  H   1.0    0.04    1.02    1.43   -14.11247    78.34237    22.74663
   224  H   1.0    0.13    1.01    1.43   -15.12726    77.09893    26.82844
   225  N   5.0   -0.13    3.47    2.06   -16.11936    71.93242    19.86480
   226  C   4.0    0.05    4.39    4.36   -16.51054    69.27357    19.32245
   227  C   4.0    0.08    3.22    3.04   -14.02366    67.81282    19.26765
   228  O   6.0   -0.28    1.12    1.80   -12.24353    68.56871    17.94673
   229  C   4.0   -0.02    4.21    4.02   -17.91649    68.99200    16.83557
   230  S   6.0   -0.03    2.42    3.10   -19.96118    66.27836    16.74108
   231  H   1.0    0.11    1.08    1.44   -14.30145    72.47666    19.53032
   232  H   1.0    0.07    1.08    1.44   -17.60469    68.44209    20.85691
   233  H   1.0    0.05    1.08    1.44   -19.07489    70.66819    16.53321
   234  H   1.0    0.05    1.08    1.44   -16.54266    68.80114    15.31245
   235  N   5.0   -0.17    3.27    1.97    -8.70786    60.40131     2.75900
   236  C   4.0    0.04    4.38    4.34    -9.06879    62.97890     1.86516
   237  C   4.0    0.14    3.45    3.10   -11.60292    63.80282     2.88939
   238  O   6.0   -0.31    1.33    1.80   -13.39816    62.32694     2.82136
   239  C   4.0    0.06    4.24    4.07    -9.05935    63.06960    -1.03557
   240  O   6.0   -0.22    2.10    1.84    -7.04490    61.54459    -1.98043
   241  C   4.0   -0.06    4.07    3.74    -8.84014    65.75301    -2.05035
   242  H   1.0    0.13    1.06    1.44    -9.46753    59.08984     1.56847
   243  H   1.0    0.05    1.06    1.44    -7.57024    64.24690     2.48877
   244  H   1.0    0.05    1.05    1.44   -10.85837    62.33639    -1.71965
   245  H   1.0    0.14    1.01    1.43    -7.02789    61.59373    -3.83236
   246  H   1.0    0.06    1.00    1.43    -8.84014    65.73034    -4.11015
   247  H   1.0    0.05    1.00    1.43   -10.43129    66.88685    -1.39462
   248  H   1.0    0.06    1.00    1.43    -7.08836    66.61473    -1.39084
   249  N   5.0   -0.14    3.43    2.03   -11.77110    66.11962     3.85504
   250  C   4.0    0.04    4.47    4.49   -14.15783    67.04559     4.86982
   251  C   4.0    0.15    3.39    3.07   -15.37859    68.89941     3.03868
   252  O   6.0   -0.29    1.23    1.80   -14.15216    70.63229     2.09382
   253  C   4.0   -0.02    4.23    4.07   -13.94996    68.09816     7.63638
   254  C   4.0   -0.04    4.14    3.88   -12.45329    66.29159     9.42784
   255  C   4.0   -0.07    4.06    3.73   -16.55589    68.82760     8.77022
   256  C   4.0   -0.07    3.99    3.60   -13.45296    63.59873     9.74343
   257  H   1.0    0.09    1.05    1.44   -10.31034    67.37251     3.95709
   258  H   1.0    0.07    1.10    1.44   -15.42961    65.42987     4.98510
   259  H   1.0    0.05    1.06    1.44   -12.85392    69.83482     7.48143
   260  H   1.0    0.05    1.03    1.43   -10.53144    66.13096     8.70219
   261  H   1.0    0.05    1.03    1.43   -12.42873    67.14007    11.30434
   262  H   1.0    0.04    1.00    1.43   -16.27999    69.54003    10.68262
   263  H   1.0    0.06    1.00    1.43   -17.41382    70.28458     7.59481
   264  H   1.0    0.05    1.01    1.43   -17.76153    67.15708     8.81179
   265  H   1.0    0.05    1.00    1.43   -12.22275    62.57450    11.03789
   266  H   1.0    0.04    1.00    1.43   -15.36536    63.67810    10.50688
   267  H   1.0    0.06    1.00    1.43   -13.46808    62.66898     7.90472
   268  N   5.0   -0.13    3.48    2.06   -17.79366    68.47422     2.50767
   269  C   4.0    0.03    4.42    4.41   -19.33568    70.13718     0.95998
   270  C   4.0    0.14    3.42    3.08   -21.55421    70.98378     2.58703
   271  O   6.0   -0.31    1.32    1.80   -22.38758    69.60428     4.28401
   272  C   4.0   -0.05    4.34    4.27   -20.28999    68.81437    -1.45509
   273  C   4.0   -0.02    4.19    3.97   -18.52687    68.65941    -3.72843
   274  C   4.0   -0.07    4.12    3.84   -16.82801    70.98378    -3.94386
   275  C   4.0   -0.07    4.10    3.81   -17.06045    66.20655    -3.72843
   276  H   1.0    0.11    1.09    1.44   -18.76498    66.93598     3.14828
   277  H   1.0    0.05    1.07    1.44   -18.25664    71.77557     0.33070
   278  H   1.0    0.05    1.04    1.43   -20.76998    66.87551    -0.95242
   279  H   1.0    0.04    1.04    1.43   -21.97562    69.81593    -2.08626
   280  H   1.0    0.04    1.07    1.44   -19.67205    68.65752    -5.44052
   281  H   1.0    0.05    1.00    1.43   -15.61292    70.77591    -5.59359
   282  H   1.0    0.06    1.00    1.43   -18.00720    72.65996    -4.14795
   283  H   1.0    0.06    1.01    1.43   -15.68095    71.13495    -2.23933
   284  H   1.0    0.05    1.00    1.43   -15.82457    66.16308    -5.37627
   285  H   1.0    0.06    1.00    1.43   -15.93795    66.09694    -2.00500
   286  H   1.0    0.05    1.00    1.43   -18.38703    64.63241    -3.80402
   287  N   5.0   -0.14    3.47    2.06   -22.47640    73.26656     2.09004
   288  C   4.0    0.04    4.48    4.50   -24.58156    74.31914     3.47521
   289  C   4.0    0.14    3.44    3.09   -26.83600    74.65362     1.78579
   290  O   6.0   -0.33    1.30    1.80   -26.61490    75.54557    -0.34771
   291  C   4.0   -0.04    4.30    4.20   -23.82755    76.80602     4.73565
   292  C   4.0   -0.02    3.71    3.24   -21.98507    76.40729     6.82569
   293  C   4.0   -0.01    3.60    3.17   -19.42071    76.48666     6.65373
   294  C   4.0    0.00    3.89    3.44   -22.55766    75.63061     9.35036
   295  N   5.0   -0.12    3.50    2.07   -18.35491    75.92730     8.95163
   296  C   4.0    0.03    3.88    3.44   -20.24085    75.36605    10.63916
   297  C   4.0   -0.04    3.40    3.08   -24.80832    75.24889    10.68640
   298  C   4.0   -0.03    3.39    3.08   -20.11235    74.69709    13.19785
   299  C   4.0   -0.05    3.37    3.07   -24.67982    74.62528    13.22619
   300  C   4.0   -0.04    3.37    3.07   -22.35735    74.34560    14.45451
   301  H   1.0    0.09    1.06    1.44   -21.78476    74.43253     0.71999
   302  H   1.0    0.07    1.08    1.44   -25.15981    73.01145     4.95864
   303  H   1.0    0.04    1.03    1.43   -22.95639    78.04001     3.33348
   304  H   1.0    0.04    1.03    1.43   -25.50752    77.70553     5.51800
   305  H   1.0    0.05    1.01    1.43   -18.37570    76.92507     4.95675
   306  H   1.0    0.09    1.06    1.44   -16.46707    75.92919     9.34092
   307  H   1.0    0.06    1.03    1.43   -26.61301    75.43786     9.75288
   308  H   1.0    0.07    1.02    1.43   -18.31900    74.46654    14.14460
   309  H   1.0    0.05    1.03    1.43   -26.40703    74.34938    14.27688
   310  H   1.0    0.06    1.03    1.43   -22.32711    73.84293    16.43306
   311  N   5.0   -0.14    3.52    2.09   -29.01485    73.95631     2.74766
   312  C   4.0    0.04    4.45    4.46   -31.33544    74.18686     1.33415
   313  C   4.0    0.14    3.43    3.09   -33.14012    75.77234     2.87805
   314  O   6.0   -0.32    1.31    1.80   -33.37823    75.34526     5.15706
   315  C   4.0   -0.04    4.33    4.26   -32.43148    71.54880     0.93352
   316  C   4.0   -0.05    4.20    3.99   -34.11333    71.29180    -1.36249
   317  C   4.0   -0.01    4.24    4.08   -35.11111    68.61784    -1.57792
   318  N   5.0   -0.13    3.42    2.03   -36.71738    67.98478     0.58204
   319  C   4.0    0.10    3.35    3.06   -36.79863    65.72467     1.66674
   320  N   5.0   -0.18    3.29    1.98   -35.38701    63.84628     0.79180
   321  N   5.0   -0.17    3.30    1.98   -38.29152    65.32216     3.63772
   322  H   1.0    0.11    1.09    1.44   -29.23406    73.21932     4.51456
   323  H   1.0    0.06    1.07    1.44   -31.04442    75.10149    -0.48944
   324  H   1.0    0.04    1.04    1.43   -30.87434    70.21844     0.71432
   325  H   1.0    0.06    1.04    1.43   -33.55586    71.04992     2.58515
   326  H   1.0    0.05    1.03    1.43   -35.71393    72.57870    -1.19431
   327  H   1.0    0.04    1.03    1.43   -33.03430    71.72833    -3.06136
   328  H   1.0    0.05    1.03    1.43   -36.22983    68.44020    -3.29757
   329  H   1.0    0.04    1.04    1.43   -33.53130    67.29692    -1.62516
   330  H   1.0    0.08    1.06    1.44   -37.84743    69.36995     1.30013
   331  H   1.0    0.08    1.04    1.43   -34.23050    64.13541    -0.72377
   332  H   1.0    0.11    1.07    1.44   -35.45882    62.11340     1.63461
   333  H   1.0    0.09    1.03    1.43   -39.38378    66.75268     4.32747
   334  H   1.0    0.07    1.22    1.47   -38.34821    63.58172     4.46542
   335  N   5.0   -0.14    3.46    2.05   -34.37223    77.62994     1.67997
   336  C   4.0    0.04    4.41    4.40   -36.30164    79.15306     2.92719
   337  C   4.0    0.14    3.47    3.10   -38.72615    78.72598     1.49288
   338  O   6.0   -0.29    1.25    1.80   -38.88111    79.29857    -0.77101
   339  C   4.0   -0.04    4.23    4.05   -35.56086    81.95552     3.12183
   340  C   4.0   -0.04    4.23    4.06   -37.75672    83.85848     3.14450
   341  C   4.0   -0.04    4.17    3.95   -39.22882    84.02477     5.59170
   342  C   4.0   -0.02    4.16    3.92   -40.54785    86.54756     5.73532
   343  N   5.0   -0.10    4.01    2.90   -42.47915    86.92550     3.72465
   344  H   1.0    0.12    1.12    1.45   -34.06420    78.11560    -0.16063
   345  H   1.0    0.07    1.07    1.44   -36.57187    78.54646     4.87738
   346  H   1.0    0.04    1.03    1.43   -34.50829    82.22198     4.87171
   347  H   1.0    0.05    1.03    1.43   -34.37034    82.42040     1.50611
   348  H   1.0    0.05    1.04    1.43   -36.99328    85.73309     2.76467
   349  H   1.0    0.06    1.04    1.43   -39.08898    83.32747     1.66674
   350  H   1.0    0.06    1.03    1.43   -40.64423    82.53000     5.65973
   351  H   1.0    0.05    1.03    1.43   -37.94381    83.85281     7.19230
   352  H   1.0    0.08    1.03    1.43   -41.49838    86.69874     7.55701
   353  H   1.0    0.06    1.03    1.43   -39.14378    88.04233     5.54824
   354  H   1.0    0.09    1.02    1.43   -43.31819    88.69051     3.92307
   355  H   1.0    0.06    1.02    1.43   -41.63633    86.81590     1.95398
   356  H   1.0    0.10    1.04    1.43   -43.86810    85.54033     3.85693
   357  N   5.0   -0.15    3.44    2.04   -40.56675    77.57325     2.79113
   358  C   4.0    0.04    4.39    4.37   -43.03284    76.90807     1.77634
   359  C   4.0    0.16    3.40    3.08   -42.85143    75.50778    -0.75211
   360  O   6.0   -0.28    1.24    1.80   -44.25927    76.04446    -2.51523
   361  C   4.0   -0.01    4.28    4.15   -44.80540    79.20975     1.65162
   362  C   4.0    0.24    3.12    3.03   -45.79940    80.08848     4.19708
   363  O   6.0   -0.30    1.19    1.80   -46.55718    78.45008     5.73910
   364  O   6.0   -0.29    1.20    1.80   -45.97514    82.41473     4.58448
   365  H   1.0    0.10    1.08    1.44   -40.38155    77.05736     4.63928
   366  H   1.0    0.05    1.07    1.44   -43.89266    75.57014     3.08592
   367  H   1.0    0.07    1.03    1.43   -43.77928    80.78389     0.80880
   368  H   1.0    0.07    1.03    1.43   -46.43057    78.72409     0.48377
   369  N   5.0   -0.14    3.39    2.02   -41.10721    73.71065    -0.88061
   370  C   4.0    0.02    4.28    4.15   -40.79351    72.10060    -3.09159
   371  C   4.0    0.15    3.32    3.06   -39.44992    73.27601    -5.30824
   372  O   6.0   -0.31    1.26    1.80   -39.68047    72.38217    -7.44552
   373  H   1.0    0.08    1.06    1.44   -39.86188    73.31381     0.53668
   374  H   1.0    0.05    1.03    1.43   -39.72204    70.43198    -2.53412
   375  H   1.0    0.06    1.04    1.43   -42.65867    71.51479    -3.73977
   376  N   5.0   -0.13    3.51    2.08   -38.04396    75.26023    -4.80179
   377  C   4.0    0.04    4.48    4.51   -36.57943    76.61327    -6.67640
   378  C   4.0    0.14    3.42    3.08   -33.98672    77.21420    -5.54446
   379  O   6.0   -0.31    1.31    1.80   -33.83932    78.21009    -3.42985
   380  C   4.0   -0.01    4.26    4.11   -38.07420    78.92629    -7.65150
   381  C   4.0   -0.06    4.12    3.85   -36.35833    81.14861    -8.30912
   382  C   4.0   -0.06    4.10    3.80   -39.70125    78.17796    -9.90594
   383  H   1.0    0.11    1.09    1.44   -37.87011    76.01234    -3.03490
   384  H   1.0    0.05    1.08    1.44   -36.16558    75.45487    -8.32802
   385  H   1.0    0.07    1.06    1.44   -39.30252    79.57258    -6.13027
   386  H   1.0    0.05    1.00    1.43   -37.51673    82.71330    -8.98187
   387  H   1.0    0.07    1.00    1.43   -35.32087    81.71742    -6.62349
   388  H   1.0    0.05    1.00    1.43   -35.04119    80.56658    -9.78122
   389  H   1.0    0.06    1.00    1.43   -40.73871    79.83147   -10.56357
   390  H   1.0    0.05    1.00    1.43   -38.48238    77.47121   -11.40828
   391  H   1.0    0.08    1.00    1.43   -41.02028    76.70776    -9.32202
   392  N   5.0   -0.14    3.39    2.02   -31.95338    76.50178    -6.92018
   393  C   4.0    0.03    4.39    4.36   -29.33611    76.87594    -6.08870
   394  C   4.0    0.16    3.42    3.08   -28.74462    79.62171    -5.57091
   395  O   6.0   -0.28    1.22    1.80   -29.28130    81.26011    -7.14127
   396  C   4.0   -0.04    4.35    4.29   -27.39536    75.78746    -7.95764
   397  C   4.0   -0.03    4.19    3.98   -26.73584    72.98689    -7.72898
   398  C   4.0   -0.08    4.10    3.80   -25.32989    72.06659   -10.08169
   399  C   4.0   -0.07    4.12    3.84   -25.15981    72.46721    -5.40840
   400  H   1.0    0.07    1.06    1.44   -32.07432    75.64762    -8.64361
   401  H   1.0    0.05    1.07    1.44   -29.14713    75.82903    -4.32558
   402  H   1.0    0.05    1.04    1.43   -28.12857    76.07092    -9.86059
   403  H   1.0    0.05    1.04    1.43   -25.63791    76.83248    -7.71764
   404  H   1.0    0.04    1.06    1.44   -28.50085    71.93998    -7.55323
   405  H   1.0    0.04    1.00    1.43   -24.88769    70.06726    -9.85870
   406  H   1.0    0.04    1.00    1.43   -26.53175    72.34060   -11.73142
   407  H   1.0    0.05    1.00    1.43   -23.59134    73.15129   -10.29145
   408  H   1.0    0.04    1.00    1.43   -24.73651    70.45276    -5.32336
   409  H   1.0    0.05    1.00    1.43   -23.40993    73.54813    -5.52934
   410  H   1.0    0.06    1.01    1.43   -26.22184    73.03413    -3.73599
   411  N   5.0   -0.13    3.47    2.06   -27.66559    80.10170    -3.33915
   412  C   4.0    0.04    4.48    4.51   -26.90592    82.57913    -2.44908
   413  C   4.0    0.15    3.41    3.08   -24.89714    83.64305    -4.23677
   414  O   6.0   -0.29    1.21    1.80   -23.05655    82.33158    -4.85471
   415  C   4.0   -0.02    4.29    4.17   -26.03475    82.40150     0.31936
   416  C   4.0   -0.08    4.14    3.88   -24.73840    84.81090     1.14517
   417  C   4.0   -0.08    4.11    3.82   -28.26463    81.82135     2.05980
   418  H   1.0    0.10    1.10    1.44   -27.27630    78.72976    -2.04279
   419  H   1.0    0.05    1.06    1.44   -28.49896    83.88493    -2.49255
   420  H   1.0    0.05    1.06    1.44   -24.67604    80.85948     0.46676
   421  H   1.0    0.03    1.00    1.43   -24.15070    84.61626     3.10860
   422  H   1.0    0.05    1.01    1.43   -23.09434    85.13215    -0.05291
   423  H   1.0    0.04    1.00    1.43   -26.05932    86.38126     0.95998
   424  H   1.0    0.03    1.00    1.43   -27.58811    81.70797     4.00244
   425  H   1.0    0.04    1.00    1.43   -29.65925    83.32747     1.88784
   426  H   1.0    0.05    1.00    1.43   -29.09989    80.02422     1.50233
   427  N   5.0   -0.13    3.38    2.01   -25.33745    85.98820    -5.15706
   428  C   4.0    0.04    4.36    4.32   -23.72173    87.27888    -7.02222
   429  C   4.0    0.16    3.41    3.08   -20.99863    87.70029    -6.18885
   430  O   6.0   -0.29    1.29    1.80   -20.45817    88.48453    -4.05157
   431  C   4.0    0.04    4.14    3.88   -24.88391    89.77521    -7.90283
   432  O   6.0   -0.23    2.04    1.83   -24.50597    91.74997    -6.13405
   433  H   1.0    0.08    1.06    1.44   -26.84356    87.06723    -4.62794
   434  H   1.0    0.05    1.07    1.44   -23.62157    85.98820    -8.62471
   435  H   1.0    0.05    1.01    1.43   -24.01086    90.31378    -9.68862
   436  H   1.0    0.05    1.02    1.43   -26.90970    89.50309    -8.16362
   437  H   1.0    0.13    1.01    1.43   -25.27319    93.31467    -6.75955
   438  N   5.0   -0.14    3.46    2.06   -19.30922    87.23353    -7.95953
   439  C   4.0    0.05    4.32    4.24   -16.60691    87.55856    -7.59481
   440  C   4.0    0.11    3.18    3.03   -15.83590    90.30622    -8.27511
   441  O   6.0   -0.23    1.11    1.80   -13.61925    91.00542    -7.95764
   442  C   4.0    0.06    4.19    3.97   -15.17828    85.57813    -9.22942
   443  O   6.0   -0.22    2.08    1.84   -15.55622    86.10536   -11.86748
   444  C   4.0   -0.06    4.04    3.69   -15.92094    82.81913    -8.59636
   445  H   1.0    0.09    1.07    1.44   -19.76275    86.60803    -9.72642
   446  H   1.0    0.07    1.05    1.44   -16.03432    87.20329    -5.64839
   447  H   1.0    0.07    1.04    1.43   -13.16950    85.72175    -8.79667
   448  H   1.0    0.14    1.01    1.43   -14.65671    84.85625   -12.89738
   449  H   1.0    0.06    0.99    1.43   -14.86836    81.51333    -9.79256
   450  H   1.0    0.05    1.00    1.43   -15.49575    82.40906    -6.62349
   451  H   1.0    0.06    1.00    1.43   -17.93728    82.54134    -8.91762
   452  N   5.0   -0.20    3.19    1.95   -19.34323   102.42315     1.88028
   453  C   4.0    0.03    4.28    4.15   -19.98007   102.09055     4.55424
   454  C   4.0    0.15    3.35    3.07   -19.95362    99.31644     5.41218
   455  O   6.0   -0.31    1.23    1.80   -19.59079    98.84967     7.65906
   456  C   4.0   -0.04    4.25    4.10   -22.47640   103.42092     5.26478
   457  C   4.0   -0.04    4.21    4.01   -24.84801   102.26441     4.15362
   458  C   4.0   -0.00    4.23    4.07   -27.19505   103.76107     4.79235
   459  N   5.0   -0.14    3.40    2.02   -29.45327   102.43637     3.91173
   460  C   4.0    0.10    3.35    3.06   -30.76852   100.82255     5.31013
   461  N   5.0   -0.18    3.29    1.98   -30.09767   100.35768     7.67985
   462  N   5.0   -0.18    3.26    1.97   -32.77919    99.67171     4.35582
   463  H   1.0    0.09    1.02    1.43   -20.85502   102.21528     0.70298
   464  H   1.0    0.05    1.06    1.44   -18.54577   103.05620     5.67296
   465  H   1.0    0.06    1.03    1.43   -22.67482   103.37557     7.31513
   466  H   1.0    0.05    1.03    1.43   -22.38002   105.37112     4.60904
   467  H   1.0    0.05    1.03    1.43   -24.67037   102.20016     2.10326
   468  H   1.0    0.05    1.03    1.43   -25.08233   100.35957     4.90006
   469  H   1.0    0.06    1.04    1.43   -27.32733   103.99918     6.83325
   470  H   1.0    0.05    1.03    1.43   -27.11190   105.60167     3.87205
   471  H   1.0    0.08    1.06    1.44   -30.05609   102.77275     2.11271
   472  H   1.0    0.10    1.04    1.43   -28.56321   101.24207     8.43763
   473  H   1.0    0.11    1.06    1.44   -31.11623    99.11424     8.74376
   474  H   1.0    0.09    1.02    1.43   -33.32154   100.02508     2.53979
   475  H   1.0    0.13    1.11    1.44   -33.78452    98.43205     5.43674
   476  N   5.0   -0.14    3.42    2.03   -20.32211    97.50041     3.66607
   477  C   4.0    0.03    4.44    4.45   -20.23708    94.78298     4.25944
   478  C   4.0    0.15    3.38    3.07   -17.55177    93.76820     3.68497
   479  O   6.0   -0.27    1.22    1.80   -16.81100    93.64348     1.47777
   480  C   4.0   -0.02    4.31    4.22   -22.25530    93.26742     2.80246
   481  C   4.0   -0.05    4.14    3.88   -24.94060    94.37669     3.12183
   482  C   4.0   -0.07    4.14    3.87   -22.13625    90.53866     3.59804
   483  C   4.0   -0.07    3.95    3.54   -26.91159    93.37136     1.10738
   484  H   1.0    0.09    1.06    1.44   -20.68683    97.86324     1.80847
   485  H   1.0    0.06    1.06    1.44   -20.58290    94.57134     6.27956
   486  H   1.0    0.06    1.06    1.44   -21.83389    93.40726     0.79180
   487  H   1.0    0.04    1.02    1.43   -25.64358    93.87781     4.99266
   488  H   1.0    0.04    1.03    1.43   -24.83667    96.42516     2.93096
   489  H   1.0    0.04    1.00    1.43   -23.56488    89.47474     2.56436
   490  H   1.0    0.06    1.01    1.43   -20.26353    89.79600     3.17096
   491  H   1.0    0.04    1.00    1.43   -22.49530    90.41394     5.62193
   492  H   1.0    0.05    0.99    1.43   -28.74273    94.24441     1.46832
   493  H   1.0    0.05    0.99    1.43   -26.25585    93.87025    -0.78046
   494  H   1.0    0.04    0.99    1.43   -27.06277    91.32479     1.28123
   495  N   5.0   -0.13    3.40    2.02   -16.10991    93.04255     5.65028
   496  C   4.0    0.04    4.37    4.33   -13.51721    92.10335     5.34603
   497  C   4.0    0.14    3.35    3.07   -13.24509    89.38971     6.29657
   498  O   6.0   -0.32    1.26    1.80   -14.03499    88.80011     8.43196
   499  C   4.0   -0.04    4.25    4.10   -11.59158    93.84946     6.66317
   500  C   4.0   -0.04    4.18    3.95   -11.34969    96.47996     5.49910
   501  C   4.0   -0.05    4.19    3.98    -9.52989    98.11646     7.01088
   502  C   4.0   -0.03    4.14    3.88    -9.31635   100.75830     5.96209
   503  N   5.0   -0.11    4.00    2.87    -7.57024   102.34000     7.49276
   504  H   1.0    0.11    1.08    1.44   -16.69951    93.08790     7.48520
   505  H   1.0    0.07    1.07    1.44   -13.09769    92.05800     3.32970
   506  H   1.0    0.05    1.03    1.43   -12.16417    94.09134     8.62660
   507  H   1.0    0.05    1.03    1.43    -9.73587    92.95940     6.57625
   508  H   1.0    0.06    1.03    1.43   -10.63349    96.31555     3.57536
   509  H   1.0    0.06    1.03    1.43   -13.19407    97.39648     5.48776
   510  H   1.0    0.05    1.03    1.43   -10.19885    98.25252     8.95352
   511  H   1.0    0.05    1.03    1.43    -7.65717    97.25853     6.96931
   512  H   1.0    0.06    1.02    1.43    -8.59069   100.66948     4.03645
   513  H   1.0    0.05    1.02    1.43   -11.17395   101.64836     5.97342
   514  H   1.0    0.08    1.01    1.43    -7.45686   104.14847     6.72931
   515  H   1.0    0.06    1.02    1.43    -8.22409   102.46850     9.34092
   516  H   1.0    0.07    1.02    1.43    -5.77500   101.54064     7.50599
   517  N   5.0   -0.14    3.43    2.03   -12.15661    87.74565     4.64873
   518  C   4.0    0.04    4.36    4.30   -11.68229    85.07357     5.17974
   519  C   4.0    0.16    3.35    3.06    -8.92896    84.83925     6.05846
   520  O   6.0   -0.26    1.21    1.80    -7.33025    83.72242     4.74888
   521  C   4.0   -0.03    4.25    4.10   -12.24731    83.42006     2.84215
   522  C   4.0   -0.04    4.20    4.01   -15.04222    83.35014     2.05602
   523  C   4.0    0.15    3.21    3.04   -15.84346    85.35514     0.16063
   524  O   6.0   -0.27    1.22    1.80   -14.43751    87.09180    -0.53857
   525  N   5.0   -0.18    3.20    1.96   -18.15649    85.14727    -0.73321
   526  H   1.0    0.10    1.06    1.44   -11.57457    88.25398     2.88372
   527  H   1.0    0.06    1.06    1.44   -12.94651    84.39516     6.65750
   528  H   1.0    0.08    1.03    1.43   -11.17206    84.15328     1.24533
   529  H   1.0    0.06    1.03    1.43   -11.66906    81.48687     3.25222
   530  H   1.0    0.04    1.03    1.43   -15.43150    81.51522     1.20753
   531  H   1.0    0.04    1.03    1.43   -16.19684    83.60526     3.74166
   532  H   1.0    0.08    1.03    1.43   -19.29032    83.70352    -0.14740
   533  H   1.0    0.13    1.08    1.44   -18.81411    86.43040    -2.01256
   534  N   5.0   -0.13    3.40    2.02    -8.40361    86.02599     8.26755
   535  C   4.0    0.04    4.24    4.09    -6.02067    86.27355     9.65650
   536  C   4.0    0.10    3.23    3.04    -4.14417    84.12682     9.37304
   537  O   6.0   -0.23    1.11    1.80    -2.08059    84.48020     8.33936
   538  C   4.0   -0.05    4.35    4.30    -6.57058    86.57590    12.51754
   539  C   4.0   -0.02    4.18    3.96    -6.42885    89.22530    13.66650
   540  C   4.0   -0.07    4.11    3.82    -8.56424    90.91849    12.71408
   541  C   4.0   -0.07    4.12    3.84    -6.56869    89.07979    16.51809
   542  H   1.0    0.09    1.08    1.44    -9.78311    86.94629     9.25210
   543  H   1.0    0.07    1.06    1.44    -5.11549    87.93084     8.83258
   544  H   1.0    0.05    1.04    1.43    -8.48109    85.88615    12.86147
   545  H   1.0    0.05    1.04    1.44    -5.20808    85.41750    13.53989
   546  H   1.0    0.06    1.06    1.44    -4.63361    90.06056    13.09580
   547  H   1.0    0.06    1.00    1.43    -8.38471    92.77799    13.58335
   548  H   1.0    0.05    1.00    1.43    -8.42629    91.08479    10.66561
   549  H   1.0    0.05    1.00    1.43   -10.37082    90.07379    13.22997
   550  H   1.0    0.06    1.00    1.43    -6.46475    90.98464    17.29288
   551  H   1.0    0.04    1.00    1.43    -8.35070    88.19918    17.05856
   552  H   1.0    0.05    1.00    1.43    -4.98888    87.95351    17.20973
   553  N   5.0   -0.20    3.12    1.94    -9.66406    72.99822    10.78278
   554  C   4.0    0.01    4.16    3.92   -11.19096    72.50689    13.02777
   555  C   4.0    0.15    3.33    3.06   -12.18306    74.81803    14.38081
   556  O   6.0   -0.31    1.30    1.80   -13.70429    74.58748    16.10613
   557  H   1.0    0.10    1.02    1.43   -10.65427    73.85994     9.37115
   558  H   1.0    0.05    1.03    1.43   -12.81423    71.36739    12.47597
   559  H   1.0    0.07    1.03    1.43   -10.04956    71.44298    14.37326
   560  N   5.0   -0.13    3.50    2.08   -11.33080    77.04413    13.67595
   561  C   4.0    0.04    4.52    4.56   -12.21708    79.31369    14.94395
   562  C   4.0    0.14    3.41    3.08   -13.40383    81.05035    13.02210
   563  O   6.0   -0.30    1.24    1.80   -12.27944    81.59837    11.05112
   564  C   4.0   -0.02    4.24    4.08   -10.20263    80.72909    16.57101
   565  C   4.0   -0.08    4.09    3.79   -11.36292    81.68907    19.02009
   566  C   4.0   -0.06    4.11    3.82    -7.85181    79.13038    17.10958
   567  H   1.0    0.09    1.06    1.44   -10.05334    77.33892    12.26432
   568  H   1.0    0.06    1.10    1.44   -13.66650    78.69953    16.27432
   569  H   1.0    0.05    1.07    1.44    -9.56201    82.34103    15.46174
   570  H   1.0    0.05    1.00    1.43    -9.91350    82.66606    20.11046
   571  H   1.0    0.04    1.00    1.43   -12.89927    82.98543    18.57034
   572  H   1.0    0.04    1.00    1.43   -12.08858    80.08659    20.09157
   573  H   1.0    0.05    1.00    1.43    -6.53656    80.23398    18.24719
   574  H   1.0    0.06    1.00    1.43    -8.41495    77.43341    18.13381
   575  H   1.0    0.05    1.00    1.43    -6.96931    78.61260    15.32190
   576  N   5.0   -0.14    3.47    2.06   -15.67717    81.91206    13.59847
   577  C   4.0    0.04    4.38    4.34   -17.06612    83.66951    12.01110
   578  C   4.0    0.14    3.41    3.08   -17.76342    85.93151    13.64949
   579  O   6.0   -0.32    1.30    1.80   -18.93127    85.58947    15.64504
   580  C   4.0   -0.04    4.32    4.24   -19.44906    82.37126    10.90750
   581  C   4.0   -0.03    4.19    3.97   -21.30099    83.98509     9.34469
   582  C   4.0   -0.08    4.12    3.84   -20.20684    84.65405     6.81246
   583  C   4.0   -0.08    4.09    3.79   -23.85212    82.66228     9.03478
   584  H   1.0    0.10    1.08    1.44   -16.63337    81.41317    15.19718
   585  H   1.0    0.06    1.06    1.44   -15.91527    84.33091    10.43696
   586  H   1.0    0.05    1.03    1.43   -18.81411    80.84626     9.67729
   587  H   1.0    0.06    1.03    1.43   -20.52620    81.60215    12.48542
   588  H   1.0    0.04    1.06    1.44   -21.62791    85.74065    10.37082
   589  H   1.0    0.04    1.00    1.43   -21.57122    85.79167     5.77122
   590  H   1.0    0.05    1.00    1.43   -18.47018    85.72364     7.09403
   591  H   1.0    0.04    1.00    1.43   -19.80433    82.91928     5.77689
   592  H   1.0    0.03    1.00    1.43   -25.10123    83.86415     7.92173
   593  H   1.0    0.04    1.00    1.43   -23.56299    80.86515     8.06913
   594  H   1.0    0.04    1.00    1.43   -24.66848    82.33536    10.89805
   595  N   5.0   -0.14    3.40    2.02   -16.99431    88.23130    12.85392
   596  C   4.0    0.03    4.39    4.36   -17.65193    90.52732    14.26365
   597  C   4.0    0.14    3.39    3.07   -19.31489    92.29799    12.70085
   598  O   6.0   -0.31    1.26    1.80   -18.73852    92.81200    10.48987
   599  C   4.0   -0.04    4.25    4.09   -15.30678    91.90682    15.29355
   600  C   4.0   -0.04    4.25    4.09   -15.94173    94.18583    16.95840
   601  C   4.0    0.15    3.23    3.04   -13.67028    95.78265    17.54422
   602  O   6.0   -0.30    1.21    1.80   -12.14905    96.43838    15.89448
   603  N   5.0   -0.18    3.19    1.95   -13.45107    96.52153    19.91204
   604  H   1.0    0.12    1.09    1.44   -15.93795    88.53933    11.27222
   605  H   1.0    0.06    1.08    1.44   -18.78766    89.95096    15.88126
   606  H   1.0    0.04    1.03    1.43   -14.20507    90.58590    16.42739
   607  H   1.0    0.06    1.03    1.43   -14.18239    92.58145    13.70429
   608  H   1.0    0.05    1.03    1.43   -17.31745    95.36880    15.98141
   609  H   1.0    0.04    1.04    1.44   -16.72785    93.51687    18.74041
   610  H   1.0    0.08    1.03    1.43   -14.77766    96.00375    21.21028
   611  H   1.0    0.11    1.02    1.43   -11.95441    97.61190    20.44683
   612  N   5.0   -0.15    3.42    2.03   -21.39170    93.20317    13.86492
   613  C   4.0    0.04    4.48    4.51   -23.10001    94.97763    12.64227
   614  C   4.0    0.15    3.40    3.08   -23.26820    97.40214    14.17672
   615  O   6.0   -0.31    1.26    1.80   -24.33967    97.38892    16.24408
   616  C   4.0   -0.02    4.33    4.26   -25.72295    93.84190    11.96763
   617  C   4.0   -0.05    4.26    4.11   -25.49807    91.72541    10.00610
   618  C   4.0   -0.07    4.13    3.86   -27.49740    95.87714    10.96797
   619  C   4.0   -0.07    4.08    3.77   -25.50752    89.24420    11.01521
   620  H   1.0    0.12    1.10    1.44   -21.91704    92.72507    15.65638
   621  H   1.0    0.06    1.08    1.44   -22.22507    95.51809    10.85837
   622  H   1.0    0.06    1.06    1.44   -26.49207    93.05011    13.70807
   623  H   1.0    0.04    1.05    1.44   -27.08922    91.86903     8.70597
   624  H   1.0    0.05    1.05    1.44   -23.72740    91.96918     8.98376
   625  H   1.0    0.05    1.00    1.43   -29.31343    95.01920    10.51444
   626  H   1.0    0.06    1.00    1.43   -27.74496    97.32089    12.41550
   627  H   1.0    0.05    1.00    1.43   -26.67348    96.71239     9.27477
   628  H   1.0    0.03    1.01    1.43   -25.33934    87.89115     9.47131
   629  H   1.0    0.05    1.01    1.43   -23.91448    89.03822    12.30401
   630  H   1.0    0.04    1.02    1.43   -27.27441    88.93806    12.02811
   631  N   5.0   -0.13    3.44    2.04   -22.15704    99.46006    13.17328
   632  C   4.0    0.04    4.28    4.16   -22.22129   101.97717    14.31656
   633  C   4.0    0.08    3.22    3.04   -24.55888   103.36801    13.34524
   634  O   6.0   -0.30    1.15    1.80   -25.56232   102.68582    11.34780
   635  C   4.0   -0.04    4.29    4.18   -19.86291   103.52675    13.60603
   636  C   4.0   -0.04    4.18    3.97   -17.43650   102.80298    14.93261
   637  C   4.0   -0.01    4.25    4.09   -15.51654   104.89491    14.61136
   638  N   5.0   -0.14    3.39    2.02   -12.92384   103.94438    14.51499
   639  C   4.0    0.10    3.34    3.06   -10.88104   105.40702    14.52254
   640  N   5.0   -0.16    3.26    1.97   -11.10592   107.90524    14.65105
   641  N   5.0   -0.17    3.23    1.96    -8.59258   104.38468    14.42050
   642  H   1.0    0.10    1.07    1.44   -21.17060    99.42793    11.51788
   643  H   1.0    0.06    1.06    1.44   -22.27042   101.80143    16.36881
   644  H   1.0    0.05    1.03    1.43   -19.53788   103.31132    11.58402
   645  H   1.0    0.05    1.04    1.43   -20.23330   105.50340    14.05389
   646  H   1.0    0.05    1.03    1.43   -17.79366   102.53086    16.94328
   647  H   1.0    0.05    1.03    1.43   -16.67872   101.07199    14.11058
   648  H   1.0    0.05    1.03    1.43   -15.89637   105.89457    12.85014
   649  H   1.0    0.05    1.03    1.43   -15.66205   106.19315    16.20440
   650  H   1.0    0.09    1.06    1.44   -12.66494   102.03575    14.43751
   651  H   1.0    0.10    1.03    1.43   -12.85392   108.71215    14.74553
   652  H   1.0    0.11    1.02    1.43    -9.52989   109.01640    14.65671
   653  H   1.0    0.09    1.02    1.43    -8.39605   102.46850    14.33546
   654  H   1.0    0.10    1.03    1.43    -7.03167   105.51474    14.42617
   655  N   5.0   -0.18    3.17    1.95   -30.93859   104.01996    14.76443
   656  C   4.0    0.04    4.23    4.07   -33.02674   102.29276    14.17105
   657  C   4.0    0.16    3.34    3.06   -35.52496   103.56454    13.39060
   658  O   6.0   -0.27    1.21    1.80   -36.53596   105.14057    14.76065
   659  C   4.0   -0.07    4.10    3.81   -33.46327   100.47862    16.35369
   660  H   1.0    0.09    1.03    1.43   -30.42459   103.88768    16.61636
   661  H   1.0    0.05    1.07    1.44   -32.42014   101.25908    12.49676
   662  H   1.0    0.05    1.00    1.43   -35.01662    99.21439    15.87370
   663  H   1.0    0.04    1.00    1.43   -31.74551    99.38825    16.67305
   664  H   1.0    0.06    1.00    1.43   -33.93381   101.56143    18.04121
   665  N   5.0   -0.13    3.44    2.04   -36.49061   102.83889    11.15127
   666  C   4.0    0.03    4.35    4.29   -38.87922   103.72328    10.06090
   667  C   4.0    0.15    3.39    3.08   -41.02973   102.05465    11.05301
   668  O   6.0   -0.31    1.26    1.80   -40.56864    99.99107    12.04322
   669  C   4.0   -0.05    4.26    4.11   -38.82442   103.56454     7.14316
   670  C   4.0   -0.04    4.16    3.92   -36.89879   105.28230     5.84303
   671  C   4.0   -0.05    4.16    3.93   -37.16902   105.28986     2.95364
   672  C   4.0   -0.03    4.12    3.85   -39.17969   107.07187     1.95776
   673  N   5.0   -0.11    4.00    2.87   -38.44836   109.77418     2.23555
   674  H   1.0    0.10    1.08    1.44   -35.60811   101.57277     9.99665
   675  H   1.0    0.06    1.05    1.44   -39.19859   105.69048    10.58436
   676  H   1.0    0.05    1.03    1.43   -38.37844   101.62568     6.60837
   677  H   1.0    0.04    1.03    1.43   -40.68769   104.08044     6.43074
   678  H   1.0    0.05    1.03    1.43   -37.16146   107.21360     6.51200
   679  H   1.0    0.05    1.03    1.43   -34.99961   104.63035     6.30224
   680  H   1.0    0.05    1.03    1.43   -35.37000   105.85678     2.12594
   681  H   1.0    0.05    1.03    1.43   -37.66224   103.38880     2.33381
   682  H   1.0    0.06    1.02    1.43   -39.48393   106.69393    -0.04346
   683  H   1.0    0.05    1.02    1.43   -40.92768   106.77141     3.00655
   684  H   1.0    0.08    1.01    1.43   -39.87322   110.93258     1.53257
   685  H   1.0    0.07    1.02    1.43   -38.15735   110.19937     4.13283
   686  H   1.0    0.07    1.02    1.43   -36.79107   110.12756     1.24155
   687  N   5.0   -0.15    3.47    2.06   -43.38055   102.94471    10.73931
   688  C   4.0    0.03    4.40    4.38   -45.67279   101.61245    11.51410
   689  C   4.0    0.15    3.41    3.08   -46.00160    99.22195     9.93618
   690  O   6.0   -0.31    1.22    1.80   -46.86142    97.29632    10.90561
   691  C   4.0   -0.05    4.39    4.37   -47.95558   103.36045    11.17773
   692  C   4.0   -0.02    4.21    4.02   -50.13632   102.96739    12.97297
   693  C   4.0   -0.05    4.11    3.83   -49.51460   103.97839    15.59969
   694  C   4.0   -0.05    4.12    3.84   -52.49281   104.23350    11.96385
   695  H   1.0    0.08    1.07    1.44   -43.76983   104.64735     9.92295
   696  H   1.0    0.06    1.06    1.44   -45.56129   101.08900    13.50209
   697  H   1.0    0.05    1.04    1.43   -47.31307   105.30309    11.42150
   698  H   1.0    0.05    1.04    1.43   -48.68690   103.09400     9.27100
   699  H   1.0    0.06    1.06    1.44   -50.49159   100.94538    13.14115
   700  H   1.0    0.07    1.00    1.43   -51.12843   103.66281    16.83935
   701  H   1.0    0.06    1.00    1.43   -47.86487   102.98440    16.32723
   702  H   1.0    0.06    1.00    1.43   -49.11587   105.99473    15.46552
   703  H   1.0    0.07    1.00    1.43   -54.03860   103.92548    13.28855
   704  H   1.0    0.06    1.00    1.43   -52.13376   106.25173    11.75976
   705  H   1.0    0.06    1.00    1.43   -52.96335   103.41336    10.13271
   706  N   5.0   -0.14    3.40    2.02   -45.23059    99.37502     7.54379
   707  C   4.0    0.02    4.23    4.06   -45.31563    97.30010     5.73343
   708  C   4.0    0.16    3.30    3.05   -43.34653    95.26297     6.15295
   709  O   6.0   -0.28    1.22    1.80   -43.27850    93.43183     4.72431
   710  H   1.0    0.08    1.06    1.44   -44.50494   100.98507     6.77089
   711  H   1.0    0.07    1.03    1.43   -47.17134    96.41193     5.83358
   712  H   1.0    0.06    1.03    1.43   -45.03784    98.06355     3.83992
   713  N   5.0   -0.13    3.49    2.07   -41.73838    95.53132     8.11070
   714  C   4.0    0.04    4.40    4.37   -39.84298    93.62647     8.76833
   715  C   4.0    0.15    3.39    3.08   -41.03162    91.53077    10.35381
   716  O   6.0   -0.31    1.24    1.80   -39.77684    89.65994    10.94340
   717  C   4.0   -0.03    4.27    4.14   -37.58287    94.80377    10.16673
   718  C   4.0    0.24    3.14    3.03   -35.72338    96.22862     8.49999
   719  O   6.0   -0.30    1.25    1.80   -35.51362    95.58234     6.22476
   720  O   6.0   -0.33    1.26    1.80   -34.40246    97.92182     9.48831
   721  H   1.0    0.10    1.08    1.44   -41.71381    97.06577     9.27666
   722  H   1.0    0.07    1.06    1.44   -39.04930    92.81767     7.04868
   723  H   1.0    0.06    1.04    1.43   -38.30286    96.13603    11.56323
   724  H   1.0    0.05    1.03    1.43   -36.53785    93.29577    11.10403
   725  N   5.0   -0.13    3.48    2.06   -43.44858    91.84824    11.05868
   726  C   4.0    0.04    4.42    4.42   -44.85454    89.99631    12.52699
   727  C   4.0    0.16    3.39    3.08   -45.16823    87.58124    10.94340
   728  O   6.0   -0.28    1.24    1.80   -45.58775    87.73620     8.65872
   729  C   4.0    0.06    4.19    3.97   -47.31496    91.16605    13.61170
   730  O   6.0   -0.24    2.08    1.84   -48.15967    89.72986    15.73197
   731  C   4.0   -0.05    4.05    3.71   -49.43901    91.46652    11.65583
   732  H   1.0    0.10    1.08    1.44   -44.49360    93.40915    10.62404
   733  H   1.0    0.07    1.07    1.44   -43.85109    89.40482    14.22586
   734  H   1.0    0.05    1.05    1.44   -46.87276    93.08601    14.21452
   735  H   1.0    0.14    1.01    1.43   -49.71302    90.46685    16.41794
   736  H   1.0    0.06    1.00    1.43   -51.10197    92.29422    12.54400
   737  H   1.0    0.07    1.00    1.43   -48.81729    92.69484    10.12326
   738  H   1.0    0.07    1.00    1.43   -49.94357    89.62781    10.87537
   739  N   5.0   -0.13    3.35    2.00   -44.81863    85.40994    12.15094
   740  C   4.0    0.03    4.26    4.11   -45.02461    82.95519    10.91884
   741  C   4.0    0.15    3.32    3.06   -43.52417    80.89539    12.20952
   742  O   6.0   -0.30    1.28    1.80   -42.72670    81.17885    14.38459
   743  H   1.0    0.12    1.08    1.44   -44.38021    85.28144    14.02366
   744  H   1.0    0.06    1.03    1.43   -47.00315    82.38071    10.89238
   745  H   1.0    0.07    1.03    1.43   -44.34620    83.11582     8.97998
   746  N   5.0   -0.14    3.45    2.05   -43.15945    78.79968    10.87915
   747  C   4.0    0.04    4.41    4.41   -41.75727    76.66051    11.87126
   748  C   4.0    0.15    3.42    3.09   -39.17402    76.56603    10.62593
   749  O   6.0   -0.31    1.26    1.80   -38.98505    76.78523     8.30724
   750  C   4.0   -0.04    4.29    4.17   -43.21425    74.19253    11.38560
   751  C   4.0   -0.05    4.19    3.98   -42.14089    71.90407    12.74431
   752  C   4.0   -0.01    4.24    4.09   -43.79629    69.62695    12.34558
   753  N   5.0   -0.14    3.39    2.01   -43.08197    68.09438    10.15539
   754  C   4.0    0.09    3.34    3.06   -43.53740    65.62451     9.97019
   755  N   5.0   -0.19    3.26    1.97   -44.69013    64.40186    11.83913
   756  N   5.0   -0.18    3.23    1.96   -42.82119    64.35462     7.93118
   757  H   1.0    0.10    1.06    1.44   -43.82274    78.53134     9.08958
   758  H   1.0    0.06    1.07    1.44   -41.47948    76.87027    13.90082
   759  H   1.0    0.05    1.03    1.43   -45.15878    74.44008    12.02055
   760  H   1.0    0.05    1.03    1.43   -43.17835    73.79380     9.36548
   761  H   1.0    0.06    1.03    1.43   -40.26250    71.48455    12.00732
   762  H   1.0    0.04    1.03    1.43   -42.03506    72.28958    14.76443
   763  H   1.0    0.04    1.04    1.43   -43.68291    68.42509    14.01421
   764  H   1.0    0.04    1.03    1.43   -45.73515    70.26001    12.06212
   765  H   1.0    0.08    1.06    1.44   -42.18435    68.96555     8.68896
   766  H   1.0    0.08    1.04    1.43   -45.23059    65.35428    13.42461
   767  H   1.0    0.08    1.02    1.43   -45.03406    62.51213    11.68607
   768  H   1.0    0.08    1.03    1.43   -41.91790    65.26924     6.49499
   769  H   1.0    0.08    1.03    1.43   -43.17457    62.46489     7.79890
   770  N   5.0   -0.14    3.45    2.05   -37.18792    76.21265    12.15094
   771  C   4.0    0.04    4.44    4.45   -34.64435    75.97265    11.12860
   772  C   4.0    0.15    3.41    3.08   -33.71460    73.30058    11.49898
   773  O   6.0   -0.30    1.25    1.80   -33.77507    72.31225    13.60603
   774  C   4.0   -0.03    4.32    4.24   -32.81320    77.89261    12.26054
   775  C   4.0   -0.02    3.53    3.13   -33.28185    80.57602    11.43095
   776  C   4.0   -0.04    3.47    3.10   -35.03930    82.08592    12.66872
   777  C   4.0   -0.05    3.46    3.10   -31.86267    81.66262     9.51288
   778  C   4.0   -0.04    3.43    3.09   -35.41346    84.59736    11.97708
   779  C   4.0   -0.05    3.42    3.09   -32.21038    84.17784     8.80990
   780  C   4.0    0.06    3.44    3.09   -33.99428    85.63671    10.04578
   781  O   6.0   -0.25    2.10    1.84   -34.35333    88.11036     9.36737
   782  H   1.0    0.11    1.10    1.44   -37.29563    76.08793    14.07090
   783  H   1.0    0.07    1.09    1.44   -34.70482    76.34871     9.10470
   784  H   1.0    0.05    1.03    1.43   -32.98139    77.83403    14.31278
   785  H   1.0    0.04    1.04    1.43   -30.89702    77.38806    11.69551
   786  H   1.0    0.06    1.03    1.43   -36.13723    81.29601    14.19751
   787  H   1.0    0.05    1.03    1.43   -30.46049    80.53823     8.54534
   788  H   1.0    0.06    1.03    1.43   -36.80808    85.72931    12.94651
   789  H   1.0    0.05    1.03    1.43   -31.09166    84.98476     7.30568
   790  H   1.0    0.13    1.04    1.43   -35.67047    88.87192    10.42373
   791  N   5.0   -0.13    3.48    2.07   -32.91525    72.11572     9.42595
   792  C   4.0    0.04    4.51    4.55   -32.03085    69.52113     9.42028
   793  C   4.0    0.14    3.41    3.08   -29.22650    69.41152     8.89305
   794  O   6.0   -0.31    1.26    1.80   -28.30432    70.59071     7.11104
   795  C   4.0    0.06    4.25    4.11   -33.57665    67.94321     7.57402
   796  O   6.0   -0.24    2.15    1.85   -36.17313    68.52335     7.91795
   797  C   4.0   -0.07    4.09    3.79   -33.17603    65.14830     7.93118
   798  H   1.0    0.11    1.10    1.44   -32.86233    72.93775     7.68363
   799  H   1.0    0.07    1.08    1.44   -32.26518    68.68965    11.29111
   800  H   1.0    0.05    1.05    1.44   -32.97761    68.38540     5.65406
   801  H   1.0    0.14    1.08    1.44   -36.68525    68.13029     9.65461
   802  H   1.0    0.05    1.00    1.43   -34.31364    64.09384     6.57625
   803  H   1.0    0.04    1.00    1.43   -31.19182    64.67965     7.64394
   804  H   1.0    0.06    1.00    1.43   -33.72594    64.59650     9.83791
   805  N   5.0   -0.14    3.48    2.07   -27.89802    67.96966    10.47097
   806  C   4.0    0.04    4.48    4.50   -25.20705    67.51424    10.31223
   807  C   4.0    0.15    3.48    3.11   -24.83100    65.01602     8.92896
   808  O   6.0   -0.31    1.26    1.80   -25.56232    63.04504     9.91917
   809  C   4.0   -0.03    4.20    4.01   -24.06566    67.44243    12.95407
   810  S   6.0   -0.03    2.48    3.10   -20.96840    66.02513    13.06368
   811  H   1.0    0.11    1.11    1.44   -28.69738    67.04370    11.96197
   812  H   1.0    0.06    1.06    1.44   -24.27353    69.00523     9.24265
   813  H   1.0    0.04    1.07    1.44   -23.90125    69.37184    13.65894
   814  H   1.0    0.05    1.08    1.44   -25.30343    66.34639    14.18239
   815  N   5.0   -0.14    3.42    2.03   -23.70094    65.08027     6.65561
   816  C   4.0    0.03    4.43    4.43   -23.26631    62.81071     5.10982
   817  C   4.0    0.14    3.37    3.07   -20.46951    61.98868     5.06636
   818  O   6.0   -0.31    1.27    1.80   -18.87458    63.33417     4.01000
   819  C   4.0   -0.02    4.32    4.23   -24.35857    63.17165     2.40562
   820  C   4.0   -0.05    4.23    4.06   -27.20449    63.82738     2.47176
   821  C   4.0   -0.06    4.09    3.79   -23.81622    60.86051     0.73888
   822  C   4.0   -0.08    4.08    3.76   -27.85456    65.95522     0.94108
   823  H   1.0    0.11    1.11    1.44   -23.06033    66.69977     5.82980
   824  H   1.0    0.07    1.08    1.44   -24.20550    61.24980     6.06980
   825  H   1.0    0.05    1.07    1.44   -23.39481    64.78358     1.55902
   826  H   1.0    0.04    1.04    1.43   -28.27597    62.20600     1.78768
   827  H   1.0    0.05    1.05    1.44   -27.74307    64.25824     4.41251
   828  H   1.0    0.05    1.00    1.43   -24.60801    61.18366    -1.13573
   829  H   1.0    0.06    1.00    1.43   -21.77720    60.59406     0.60471
   830  H   1.0    0.06    1.00    1.43   -24.68549    59.19944     1.59115
   831  H   1.0    0.04    1.01    1.43   -29.88035    66.29348     1.08848
   832  H   1.0    0.05    1.01    1.43   -26.81710    67.60495     1.60816
   833  H   1.0    0.04    1.01    1.43   -27.35000    65.55270    -1.01478
   834  N   5.0   -0.14    3.42    2.03   -19.89126    59.76069     6.14917
   835  C   4.0    0.04    4.33    4.25   -17.30233    58.76859     6.16240
   836  C   4.0    0.16    3.39    3.08   -16.98675    56.91099     3.97409
   837  O   6.0   -0.31    1.25    1.80   -18.33979    55.02126     3.88528
   838  C   4.0   -0.07    4.10    3.81   -16.72785    57.49869     8.66817
   839  H   1.0    0.10    1.08    1.44   -21.17438    58.61741     7.02222
   840  H   1.0    0.06    1.07    1.44   -15.96629    60.31249     5.88839
   841  H   1.0    0.05    1.00    1.43   -14.79844    56.78060     8.62849
   842  H   1.0    0.04    1.00    1.43   -16.93194    58.88008    10.18184
   843  H   1.0    0.05    1.00    1.43   -18.05066    55.94534     8.95163
   844  N   5.0   -0.13    3.40    2.02   -15.25009    57.46279     2.18830
   845  C   4.0    0.04    4.28    4.15   -14.92695    55.90565    -0.06614
   846  C   4.0    0.10    3.17    3.03   -12.26810    54.76048    -0.47810
   847  O   6.0   -0.27    1.15    1.80   -10.34247    56.04171    -0.15307
   848  C   4.0    0.04    4.14    3.88   -15.73008    57.38909    -2.39995
   849  O   6.0   -0.22    2.03    1.83   -16.39526    55.74692    -4.40873
   850  H   1.0    0.12    1.09    1.44   -14.05767    58.97457     2.27334
   851  H   1.0    0.06    1.07    1.44   -16.10424    54.24080     0.22299
   852  H   1.0    0.05    1.02    1.43   -17.36091    58.55505    -1.92185
   853  H   1.0    0.06    1.02    1.43   -14.16350    58.58339    -3.00466
   854  H   1.0    0.13    1.02    1.43   -17.80311    54.65843    -3.89661
   855  N   5.0   -0.18    3.17    1.95   -21.51075    47.85164     1.14706
   856  C   4.0    0.03    4.30    4.21   -22.20806    50.41978     1.93886
   857  C   4.0    0.15    3.36    3.07   -23.75008    50.43868     4.38038
   858  O   6.0   -0.27    1.21    1.80   -25.40359    48.83052     4.74510
   859  C   4.0   -0.04    4.25    4.10   -23.60457    51.86542    -0.15685
   860  C   4.0   -0.03    4.20    4.01   -21.83011    53.32807    -1.87272
   861  C   4.0    0.24    3.11    3.03   -23.00741    55.14409    -3.75489
   862  O   6.0   -0.30    1.18    1.80   -25.05777    56.18722    -3.19364
   863  O   6.0   -0.27    1.17    1.80   -21.82822    55.58818    -5.75988
   864  H   1.0    0.11    1.03    1.43   -22.87891    46.57041     1.59871
   865  H   1.0    0.06    1.07    1.44   -20.45439    51.40810     2.37539
   866  H   1.0    0.05    1.03    1.43   -24.64770    50.51993    -1.31714
   867  H   1.0    0.06    1.03    1.43   -24.90470    53.20901     0.70865
   868  H   1.0    0.05    1.04    1.43   -20.57156    54.44111    -0.68030
   869  H   1.0    0.06    1.04    1.43   -20.73974    51.96368    -2.96498
   870  N   5.0   -0.13    3.42    2.03   -23.18883    52.28305     6.04523
   871  C   4.0    0.04    4.32    4.24   -24.45872    52.65532     8.46786
   872  C   4.0    0.14    3.38    3.07   -25.53776    55.32740     8.67573
   873  O   6.0   -0.32    1.27    1.80   -24.46817    57.13019     7.63827
   874  C   4.0   -0.06    4.11    3.81   -22.64837    52.14321    10.62593
   875  H   1.0    0.10    1.07    1.44   -21.80555    53.58885     5.73721
   876  H   1.0    0.06    1.07    1.44   -26.05554    51.36275     8.61526
   877  H   1.0    0.05    1.00    1.43   -23.63480    52.43234    12.41172
   878  H   1.0    0.06    1.00    1.43   -21.98318    50.19868    10.49743
   879  H   1.0    0.05    1.00    1.43   -21.05533    53.43956    10.48609
   880  N   5.0   -0.13    3.42    2.03   -27.68449    55.57306    10.00988
   881  C   4.0    0.04    4.45    4.46   -28.99029    57.98435    10.39160
   882  C   4.0    0.15    3.39    3.08   -29.67248    58.46056    13.13171
   883  O   6.0   -0.28    1.22    1.80   -30.21294    56.70123    14.56034
   884  C   4.0    0.06    4.21    4.03   -31.36000    58.23191     8.71353
   885  O   6.0   -0.24    2.08    1.84   -33.00406    56.11541     9.08013
   886  C   4.0   -0.07    4.06    3.72   -30.73261    58.60418     5.92807
   887  H   1.0    0.09    1.06    1.44   -28.57644    54.09530    10.86592
   888  H   1.0    0.07    1.09    1.44   -27.65992    59.47157     9.87760
   889  H   1.0    0.04    1.05    1.44   -32.36345    59.93833     9.28233
   890  H   1.0    0.11    1.01    1.43   -34.50451    56.28549     8.00866
   891  H   1.0    0.05    1.00    1.43   -32.46738    58.76859     4.83014
   892  H   1.0    0.04    1.00    1.43   -29.61956    60.32005     5.68052
   893  H   1.0    0.06    1.00    1.43   -29.64980    56.99791     5.22887
   894  N   5.0   -0.14    3.49    2.07   -29.68382    60.87185    13.82712
   895  C   4.0    0.04    4.43    4.43   -30.42459    61.78081    16.30267
   896  C   4.0    0.14    3.46    3.10   -31.75495    64.26580    15.87559
   897  O   6.0   -0.32    1.31    1.80   -30.70049    65.90230    14.59435
   898  C   4.0   -0.03    4.30    4.21   -28.11534    62.19277    17.99397
   899  C   4.0   -0.03    3.70    3.24   -28.80509    62.42899    20.72273
   900  C   4.0   -0.00    3.62    3.18   -30.32443    64.21667    21.79421
   901  C   4.0    0.01    3.90    3.46   -28.00385    60.81327    22.72773
   902  N   5.0   -0.11    3.48    2.07   -30.55498    63.78203    24.33589
   903  C   4.0    0.04    3.89    3.45   -29.09233    61.74302    24.97651
   904  C   4.0   -0.03    3.40    3.08   -26.38624    58.71945    22.86379
   905  C   4.0   -0.04    3.39    3.08   -28.65202    60.62619    27.32733
   906  C   4.0   -0.02    3.37    3.07   -25.98751    57.58562    25.18438
   907  C   4.0   -0.02    3.38    3.07   -27.12324    58.52859    27.38213
   908  H   1.0    0.10    1.08    1.44   -29.16225    62.30615    12.65172
   909  H   1.0    0.07    1.06    1.44   -31.67181    60.44099    17.24753
   910  H   1.0    0.05    1.03    1.43   -26.83978    60.58839    17.79366
   911  H   1.0    0.04    1.04    1.43   -27.16292    63.92754    17.42138
   912  H   1.0    0.06    1.02    1.43   -31.21449    65.75112    20.78510
   913  H   1.0    0.09    1.04    1.43   -31.63968    64.81004    25.55476
   914  H   1.0    0.06    1.03    1.43   -25.46784    58.00514    21.18761
   915  H   1.0    0.06    1.02    1.43   -29.47972    61.38208    29.03375
   916  H   1.0    0.08    1.03    1.43   -24.77998    55.94534    25.30532
   917  H   1.0    0.07    1.03    1.43   -26.78876    57.58562    29.16036
   918  N   5.0   -0.13    3.41    2.03   -34.04908    64.58327    16.93194
   919  C   4.0    0.04    4.41    4.40   -35.42291    66.95866    16.60313
   920  C   4.0    0.14    3.36    3.07   -36.02763    68.36840    19.04844
   921  O   6.0   -0.30    1.21    1.80   -36.13534    67.26857    21.09501
   922  C   4.0    0.04    4.15    3.90   -37.79641    66.57505    15.03844
   923  O   6.0   -0.26    2.12    1.84   -37.10855    66.49190    12.45518
   924  H   1.0    0.10    1.07    1.44   -34.96182    63.25669    17.99208
   925  H   1.0    0.08    1.09    1.44   -34.14357    68.23422    15.61481
   926  H   1.0    0.05    1.02    1.43   -38.69403    64.79870    15.57134
   927  H   1.0    0.04    1.02    1.43   -39.09276    68.14352    15.35591
   928  H   1.0    0.12    1.02    1.43   -38.61466    66.24434    11.40639
   929  N   5.0   -0.14    3.46    2.05   -36.28085    70.86661    18.78010
   930  C   4.0    0.04    4.32    4.23   -36.91013    72.69965    20.74352
   931  C   4.0    0.14    3.41    3.08   -38.46159    74.79346    19.51331
   932  O   6.0   -0.32    1.30    1.80   -37.85877    75.60982    17.40060
   933  C   4.0   -0.06    4.10    3.81   -34.51773    73.80514    21.90003
   934  H   1.0    0.11    1.09    1.44   -36.04085    71.74534    17.08123
   935  H   1.0    0.06    1.06    1.44   -38.01940    71.82281    22.24018
   936  H   1.0    0.05    1.00    1.43   -35.04308    75.16385    23.35701
   937  H   1.0    0.07    1.00    1.43   -33.40658    72.28013    22.72962
   938  H   1.0    0.05    1.00    1.43   -33.43114    74.74244    20.42416
   939  N   5.0   -0.14    3.42    2.03   -40.48738    75.60794    20.80021
   940  C   4.0    0.04    4.40    4.38   -42.12388    77.62616    19.88559
   941  C   4.0    0.15    3.40    3.08   -41.30374    80.10737    21.08745
   942  O   6.0   -0.30    1.23    1.80   -41.08075    80.28312    23.40993
   943  C   4.0   -0.03    4.30    4.20   -44.91501    77.07436    20.48841
   944  C   4.0    0.00    3.52    3.13   -46.74804    78.86771    19.21284
   945  C   4.0   -0.02    3.46    3.10   -47.61542    78.40662    16.77132
   946  C   4.0   -0.02    3.45    3.10   -47.67401    80.98421    20.47518
   947  C   4.0   -0.02    3.42    3.08   -49.30673    80.04690    15.58835
   948  C   4.0   -0.03    3.43    3.09   -49.36342    82.63772    19.30733
   949  C   4.0    0.09    3.43    3.09   -50.17789    82.15584    16.86391
   950  O   6.0   -0.22    2.10    1.84   -51.86353    83.74321    15.69417
   951  H   1.0    0.10    1.06    1.44   -41.03729    74.88795    22.50097
   952  H   1.0    0.06    1.07    1.44   -41.95003    77.79057    17.83901
   953  H   1.0    0.05    1.03    1.43   -45.36287    75.16574    19.85913
   954  H   1.0    0.06    1.03    1.43   -45.19658    77.22932    22.52364
   955  H   1.0    0.05    1.03    1.43   -46.96725    76.74744    15.77543
   956  H   1.0    0.06    1.03    1.43   -47.07307    81.35081    22.39136
   957  H   1.0    0.07    1.03    1.43   -49.93412    79.67085    13.68351
   958  H   1.0    0.08    1.04    1.43   -50.03427    84.28745    20.30322
   959  H   1.0    0.14    1.03    1.43   -52.30383    85.14349    16.82423
   960  N   5.0   -0.14    3.44    2.04   -40.82564    82.02167    19.49252
   961  C   4.0    0.04    4.44    4.44   -40.04707    84.53878    20.33345
   962  C   4.0    0.15    3.37    3.07   -42.19380    86.38882    19.76653
   963  O   6.0   -0.29    1.24    1.80   -42.95725    86.63638    17.58012
   964  C   4.0   -0.02    4.25    4.10   -37.44492    85.33435    19.17505
   965  C   4.0   -0.05    4.12    3.84   -35.40024    83.24243    19.45095
   966  C   4.0   -0.07    4.07    3.75   -36.49628    87.87604    20.18605
   967  C   4.0   -0.07    3.95    3.54   -34.93347    82.11048    22.18916
   968  H   1.0    0.11    1.08    1.44   -40.96737    81.87238    17.57634
   969  H   1.0    0.06    1.07    1.44   -39.80141    84.55201    22.37813
   970  H   1.0    0.05    1.06    1.44   -37.79830    85.58002    17.16060
   971  H   1.0    0.05    1.02    1.43   -35.94259    81.66640    18.24152
   972  H   1.0    0.03    1.03    1.43   -33.60500    84.02855    18.81978
   973  H   1.0    0.04    1.00    1.43   -34.68592    88.31445    19.30733
   974  H   1.0    0.05    1.00    1.43   -37.87200    89.33679    19.72496
   975  H   1.0    0.05    1.00    1.43   -36.27140    87.74376    22.22885
   976  H   1.0    0.04    0.99    1.43   -33.45760    80.67807    22.07956
   977  H   1.0    0.04    1.00    1.43   -34.34577    83.62793    23.45150
   978  H   1.0    0.06    1.00    1.43   -36.68336    81.26577    22.87324
   979  N   5.0   -0.13    3.42    2.03   -43.22559    87.58124    21.76019
   980  C   4.0    0.04    4.36    4.31   -45.26839    89.43317    21.58256
   981  C   4.0    0.15    3.38    3.07   -44.19502    92.09957    21.99452
   982  O   6.0   -0.30    1.27    1.80   -42.50183    92.46807    23.55921
   983  C   4.0   -0.04    4.22    4.05   -47.38299    88.79255    23.49496
   984  C   4.0   -0.02    4.18    3.96   -49.73759    90.46118    23.39103
   985  C   4.0    0.25    3.10    3.02   -51.72936    89.91127    21.39737
   986  O   6.0   -0.29    1.19    1.80   -52.22258    87.65494    20.87958
   987  O   6.0   -0.25    1.17    1.80   -52.92933    91.73864    20.48652
   988  H   1.0    0.10    1.06    1.44   -42.65489    87.28266    23.57622
   989  H   1.0    0.06    1.07    1.44   -46.12065    89.41805    19.70795
   990  H   1.0    0.06    1.03    1.43   -47.99526    86.85558    23.15103
   991  H   1.0    0.06    1.03    1.43   -46.60442    88.95885    25.39414
   992  H   1.0    0.07    1.03    1.43   -50.68434    90.31567    25.21461
   993  H   1.0    0.06    1.04    1.43   -49.11398    92.39815    23.07166
   994  N   5.0   -0.14    3.42    2.03   -45.17390    93.93450    20.55833
   995  C   4.0    0.04    4.35    4.29   -44.35754    96.56500    20.71896
   996  C   4.0    0.09    3.19    3.04   -46.65544    98.35646    20.86824
   997  O   6.0   -0.28    1.12    1.80   -48.11053    98.57944    19.05978
   998  C   4.0   -0.01    4.23    4.06   -42.39600    97.27742    18.63837
   999  C   4.0   -0.06    4.11    3.81   -43.04607    96.13792    16.07212
  1000  C   4.0   -0.06    4.10    3.79   -41.93491   100.12335    18.46640
  1001  H   1.0    0.09    1.06    1.44   -46.55718    93.64159    19.24875
  1002  H   1.0    0.08    1.08    1.44   -43.42968    96.83523    22.53876
[...]
1392   6 C      0.007  1.058  2.935  0.000    20.459     6.440
1393   6 C      0.270  1.039  2.691  0.000    22.447     7.759
1394   8 O     -0.502  1.756  4.746  0.000    23.821     6.544
1395   6 C     -0.072  1.051  3.021  0.000    21.863     6.656
1396   6 C     -0.000  1.078  2.922  0.000    28.035     8.685
1397   6 C     -0.042  1.085  2.957  0.000    29.042     8.838
1398   6 C     -0.044  1.085  2.958  0.000    29.081     8.844
1399   6 C     -0.077  1.080  2.997  0.000    29.925     8.971
1400   6 C     -0.063  1.075  2.988  0.000    29.557     8.915
1401   6 C      0.143  1.044  2.812  0.000    24.876     8.174
1402   8 O     -0.438  1.725  4.713  0.000    21.607     6.275
1403   1 H      0.198  0.802  0.000  0.000     1.114     1.654
1404   1 H      0.109  0.891  0.000  0.000     1.708     2.044
1405   1 H      0.053  0.947  0.000  0.000     2.285     2.364
1406   1 H      0.053  0.947  0.000  0.000     2.284     2.363
1407   1 H      0.039  0.961  0.000  0.000     2.461     2.453
1408   1 H      0.047  0.953  0.000  0.000     2.355     2.400
1409   1 H      0.043  0.957  0.000  0.000     2.413     2.429
1410   1 H      0.057  0.943  0.000  0.000     2.237     2.339
1411   1 H      0.341  0.659  0.000  0.000     0.610     1.227
1412   7 N     -0.163  1.240  3.923  0.000    24.521     7.355
1413   6 C      0.003  1.054  2.943  0.000    20.535     6.453
1414   6 C      0.188  1.088  2.723  0.000    23.971     8.018
1415   8 O     -0.347  1.748  4.599  0.000    20.656     6.093
1416   6 C      0.083  1.048  2.869  0.000    19.292     6.270
1417   8 O     -0.430  1.698  4.731  0.000    21.435     6.250
1418   6 C     -0.163  1.050  3.113  0.000    23.733     6.947
1419   1 H      0.245  0.755  0.000  0.000     0.904     1.490
1420   1 H      0.090  0.910  0.000  0.000     1.882     2.145
1421   1 H      0.087  0.913  0.000  0.000     1.904     2.158
1422   1 H      0.329  0.671  0.000  0.000     0.641     1.258
1423   1 H      0.095  0.905  0.000  0.000     1.836     2.119
1424   1 H      0.046  0.954  0.000  0.000     2.375     2.410
1425   1 H      0.070  0.930  0.000  0.000     2.089     2.261
1426   7 N     -0.411  1.343  4.068  0.000    30.680     8.226
1427   6 C      0.035  1.062  2.903  0.000    20.008     6.372
1428   6 C      0.199  1.097  2.704  0.000    23.755     7.982
1429   8 O     -0.380  1.763  4.617  0.000    21.292     6.186
1430   6 C     -0.026  1.072  2.954  0.000    20.998     6.518
1431   6 C     -0.072  1.043  3.028  0.000    21.866     6.657
1432   6 C     -0.100  1.040  3.060  0.000    22.479     6.761
1433   6 C     -0.125  1.034  3.091  0.000    22.943     6.829
1434   1 H      0.199  0.801  0.000  0.000     1.111     1.651
1435   1 H      0.035  0.965  0.000  0.000     2.510     2.478
1436   1 H      0.044  0.956  0.000  0.000     2.402     2.424
1437   1 H      0.061  0.939  0.000  0.000     2.191     2.315
1438   1 H      0.040  0.960  0.000  0.000     2.445     2.445
1439   1 H      0.061  0.939  0.000  0.000     2.192     2.315
1440   1 H     -0.008  1.008  0.000  0.000     3.194     2.795
1441   1 H      0.031  0.969  0.000  0.000     2.576     2.510
1442   1 H      0.075  0.925  0.000  0.000     2.029     2.228
1443   1 H      0.040  0.960  0.000  0.000     2.446     2.446
1444   1 H      0.054  0.946  0.000  0.000     2.274     2.358
1445   7 N     -0.379  1.330  4.049  0.000    29.799     8.107
1446   6 C      0.037  1.059  2.903  0.000    19.967     6.365
1447   6 C      0.192  1.091  2.717  0.000    23.889     8.004
1448   8 O     -0.384  1.760  4.624  0.000    21.358     6.196
1449   6 C     -0.040  1.050  2.990  0.000    21.284     6.568
1450   6 C     -0.081  1.061  3.020  0.000    22.038     6.683
1451   6 C      0.364  1.024  2.612  0.000    20.822     7.468
1452   8 O     -0.608  1.749  4.859  0.000    26.313     6.877
1453   8 O     -0.656  1.776  4.879  0.000    27.529     7.034
1454   1 H      0.147  0.853  0.000  0.000     1.420     1.867
1455   1 H      0.052  0.948  0.000  0.000     2.290     2.366
1456   1 H      0.030  0.970  0.000  0.000     2.584     2.514
1457   1 H      0.047  0.953  0.000  0.000     2.360     2.402
1458   1 H      0.023  0.977  0.000  0.000     2.686     2.563
1459   1 H     -0.000  1.000  0.000  0.000     3.059     2.735
1460   7 N     -0.382  1.331  4.051  0.000    29.872     8.117
1461   6 C      0.028  1.057  2.915  0.000    20.122     6.390
1462   6 C      0.194  1.086  2.720  0.000    23.850     7.998
1463   8 O     -0.378  1.770  4.608  0.000    21.239     6.179
1464   6 C      0.103  1.050  2.847  0.000    18.988     6.222
1465   8 O     -0.488  1.743  4.745  0.000    22.647     6.424
1466   6 C     -0.146  1.049  3.098  0.000    23.391     6.897
1467   1 H      0.156  0.844  0.000  0.000     1.362     1.828
1468   1 H      0.070  0.930  0.000  0.000     2.090     2.261
1469   1 H      0.057  0.943  0.000  0.000     2.238     2.340
1470   1 H      0.326  0.674  0.000  0.000     0.647     1.263
1471   1 H      0.081  0.919  0.000  0.000     1.972     2.196
1472   1 H      0.073  0.927  0.000  0.000     2.053     2.241
1473   1 H      0.037  0.963  0.000  0.000     2.485     2.465
1474   7 N     -0.390  1.328  4.062  0.000    30.090     8.147
1475   6 C      0.028  1.057  2.915  0.000    20.113     6.388
1476   6 C      0.272  1.045  2.683  0.000    22.402     7.751
1477   8 O     -0.519  1.765  4.754  0.000    24.206     6.596
1478   6 C     -0.082  1.059  3.023  0.000    22.065     6.686
1479   6 C     -0.091  1.050  3.040  0.000    22.226     6.712
1480   6 C     -0.038  1.056  2.982  0.000    21.324     6.588
1481   7 N     -0.150  1.213  3.937  0.000    24.248     7.314
1482   6 C      0.215  1.020  2.765  0.000    23.446     7.928
1483   7 N     -0.238  1.227  4.011  0.000    26.222     7.605
1484   7 N     -0.248  1.232  4.016  0.000    26.466     7.641
1485   1 H      0.156  0.844  0.000  0.000     1.364     1.830
1486   1 H      0.046  0.954  0.000  0.000     2.374     2.409
1487   1 H      0.051  0.949  0.000  0.000     2.314     2.379
1488   1 H      0.049  0.951  0.000  0.000     2.327     2.386
1489   1 H      0.068  0.932  0.000  0.000     2.112     2.273
1490   1 H      0.079  0.921  0.000  0.000     1.987     2.204
1491   1 H      0.106  0.894  0.000  0.000     1.736     2.060
1492   1 H      0.093  0.907  0.000  0.000     1.850     2.127
1493   1 H      0.222  0.778  0.000  0.000     1.001     1.567
1494   1 H      0.257  0.743  0.000  0.000     0.857     1.450
1495   1 H      0.253  0.747  0.000  0.000     0.873     1.464
1496   1 H      0.244  0.756  0.000  0.000     0.908     1.492
1497   1 H      0.247  0.753  0.000  0.000     0.895     1.482
1498   7 N     -0.182  1.252  3.930  0.000    24.946     7.418
1499   6 C      0.022  1.053  2.926  0.000    20.206     6.400
1500   6 C      0.264  1.042  2.693  0.000    22.540     7.775
1501   8 O     -0.453  1.721  4.732  0.000    22.768     6.397
1502   6 C     -0.080  1.054  3.026  0.000    22.015     6.679
1503   6 C      0.002  1.078  2.921  0.000    27.984     8.677
1504   6 C     -0.043  1.086  2.957  0.000    29.066     8.841
1505   6 C     -0.044  1.085  2.958  0.000    29.089     8.845
1506   6 C     -0.074  1.079  2.994  0.000    29.836     8.957
1507   6 C     -0.059  1.075  2.985  0.000    29.477     8.903
1508   6 C      0.145  1.045  2.810  0.000    24.843     8.169
1509   8 O     -0.456  1.734  4.722  0.000    21.965     6.327
1510   1 H      0.249  0.751  0.000  0.000     0.886     1.474
1511   1 H      0.058  0.942  0.000  0.000     2.223     2.332
1512   1 H      0.086  0.914  0.000  0.000     1.923     2.168
1513   1 H      0.057  0.943  0.000  0.000     2.230     2.335
1514   1 H      0.057  0.943  0.000  0.000     2.232     2.336
1515   1 H      0.039  0.961  0.000  0.000     2.456     2.451
1516   1 H      0.039  0.961  0.000  0.000     2.465     2.455
1517   1 H      0.035  0.965  0.000  0.000     2.518     2.481
1518   1 H      0.343  0.657  0.000  0.000     0.604     1.221
1519   7 N     -0.152  1.235  3.916  0.000    24.279     7.318
1520   6 C     -0.006  1.062  2.944  0.000    20.679     6.474
1521   6 C      0.268  1.040  2.691  0.000    22.469     7.762
1522   8 O     -0.505  1.761  4.744  0.000    23.901     6.555
1523   6 C      0.112  1.039  2.849  0.000    18.837     6.195
1524   8 O     -0.488  1.718  4.770  0.000    22.641     6.423
1525   6 C     -0.142  1.045  3.097  0.000    23.301     6.883
1526   1 H      0.197  0.803  0.000  0.000     1.119     1.657
1527   1 H      0.109  0.891  0.000  0.000     1.703     2.041
1528   1 H      0.037  0.963  0.000  0.000     2.489     2.467
1529   1 H      0.347  0.653  0.000  0.000     0.596     1.213
1530   1 H      0.077  0.923  0.000  0.000     2.012     2.218
1531   1 H      0.024  0.976  0.000  0.000     2.668     2.554
1532   1 H      0.079  0.921  0.000  0.000     1.986     2.204
1533   7 N     -0.179  1.250  3.928  0.000    24.866     7.406
1534   6 C      0.032  1.048  2.920  0.000    20.026     6.369
1535   6 C      0.202  1.087  2.711  0.000    23.703     7.974
1536   8 O     -0.334  1.746  4.588  0.000    20.414     6.058
1537   6 C      0.005  1.059  2.936  0.000    20.498     6.446
1538  16 S     -0.388  1.906  4.440  0.042   158.165    21.167
1539   1 H      0.251  0.749  0.000  0.000     0.880     1.469
1540   1 H      0.078  0.922  0.000  0.000     1.995     2.209
1541   1 H      0.077  0.923  0.000  0.000     2.008     2.216
1542   1 H      0.085  0.915  0.000  0.000     1.926     2.170
1543   1 H      0.258  0.742  0.000  0.000     0.848     1.440
1544   7 N     -0.380  1.327  4.053  0.000    29.834     8.112
1545   6 C      0.017  1.061  2.923  0.000    20.308     6.418
1546   6 C      0.278  1.039  2.683  0.000    22.295     7.732
1547   8 O     -0.491  1.753  4.738  0.000    23.586     6.511
1548   6 C      0.108  1.049  2.842  0.000    18.899     6.207
1549   8 O     -0.489  1.734  4.756  0.000    22.669     6.427
1550   6 C     -0.131  1.047  3.084  0.000    23.079     6.851
1551   1 H      0.154  0.846  0.000  0.000     1.374     1.836
1552   1 H      0.061  0.939  0.000  0.000     2.186     2.312
1553   1 H      0.024  0.976  0.000  0.000     2.673     2.557
1554   1 H      0.335  0.665  0.000  0.000     0.625     1.242
1555   1 H      0.060  0.940  0.000  0.000     2.199     2.319
1556   1 H      0.042  0.958  0.000  0.000     2.417     2.431
1557   1 H      0.043  0.957  0.000  0.000     2.407     2.426
1558   7 N     -0.173  1.239  3.934  0.000    24.738     7.387
1559   6 C      0.023  1.055  2.923  0.000    20.196     6.399
1560   6 C      0.265  1.046  2.689  0.000    22.534     7.774
1561   8 O     -0.491  1.735  4.755  0.000    23.584     6.511
1562   6 C     -0.063  1.046  3.017  0.000    21.703     6.631
1563   6 C     -0.053  1.067  2.986  0.000    29.270     8.873
1564   6 C     -0.032  1.071  2.961  0.000    28.766     8.797
1565   6 C     -0.020  1.072  2.948  0.000    28.333     8.718
1566   7 N     -0.096  1.224  3.872  0.000    23.111     7.140
1567   6 C      0.027  1.063  2.910  0.000    27.304     8.566
1568   6 C     -0.032  1.079  2.952  0.000    28.786     8.798
1569   6 C     -0.076  1.074  3.002  0.000    29.900     8.966
1570   6 C     -0.037  1.076  2.960  0.000    28.914     8.818
1571   6 C     -0.036  1.079  2.957  0.000    28.907     8.817
1572   1 H      0.202  0.798  0.000  0.000     1.098     1.642
1573   1 H      0.078  0.922  0.000  0.000     1.998     2.210
1574   1 H      0.048  0.952  0.000  0.000     2.341     2.393
1575   1 H      0.043  0.957  0.000  0.000     2.410     2.428
1576   1 H      0.071  0.929  0.000  0.000     2.072     2.251
1577   1 H      0.237  0.763  0.000  0.000     0.935     1.515
1578   1 H      0.002  0.998  0.000  0.000     3.032     2.723
1579   1 H      0.081  0.919  0.000  0.000     1.968     2.194
1580   1 H     -0.007  1.007  0.000  0.000     3.189     2.793
1581   1 H      0.027  0.973  0.000  0.000     2.629     2.535
1582   7 N     -0.153  1.244  3.909  0.000    24.302     7.322
1583   6 C     -0.015  1.060  2.955  0.000    20.838     6.500
1584   6 C      0.246  1.046  2.708  0.000    22.870     7.831
1585   8 O     -0.438  1.720  4.717  0.000    22.449     6.352
1586   6 C      0.049  1.043  2.908  0.000    19.955     6.398
1587   8 O     -0.477  1.731  4.747  0.000    22.409     6.390
1588   1 H      0.237  0.763  0.000  0.000     0.937     1.516
1589   1 H      0.113  0.887  0.000  0.000     1.670     2.021
1590   1 H      0.085  0.915  0.000  0.000     1.931     2.173
1591   1 H      0.065  0.935  0.000  0.000     2.139     2.287
1592   1 H      0.332  0.668  0.000  0.000     0.633     1.250
1593   7 N     -0.157  1.234  3.924  0.000    24.405     7.337
1594   6 C     -0.002  1.064  2.938  0.000    20.624     6.468
1595   6 C      0.260  1.047  2.693  0.000    22.623     7.789
1596   8 O     -0.486  1.746  4.741  0.000    23.487     6.498
1597   6 C     -0.135  1.045  3.091  0.000    23.159     6.862
1598   1 H      0.217  0.783  0.000  0.000     1.021     1.583
1599   1 H      0.116  0.884  0.000  0.000     1.644     2.005
1600   1 H      0.061  0.939  0.000  0.000     2.183     2.311
1601   1 H      0.102  0.898  0.000  0.000     1.766     2.078
1602   1 H      0.052  0.948  0.000  0.000     2.295     2.369
1603   7 N     -0.156  1.242  3.914  0.000    24.370     7.332
1604   6 C      0.015  1.060  2.925  0.000    20.337     6.422
1605   6 C      0.266  1.047  2.687  0.000    22.508     7.769
1606   8 O     -0.469  1.739  4.730  0.000    23.103     6.444
1607   6 C     -0.085  1.059  3.026  0.000    22.124     6.696
1608   6 C      0.007  1.080  2.913  0.000    27.862     8.658
1609   6 C     -0.044  1.087  2.957  0.000    29.101     8.847
1610   6 C     -0.039  1.086  2.953  0.000    28.961     8.825
1611   6 C     -0.059  1.075  2.984  0.000    29.458     8.900
1612   6 C     -0.073  1.077  2.996  0.000    29.824     8.955
1613   6 C      0.143  1.048  2.809  0.000    24.877     8.174
1614   8 O     -0.455  1.731  4.723  0.000    21.943     6.324
1615   1 H      0.251  0.749  0.000  0.000     0.881     1.471
1616   1 H      0.067  0.933  0.000  0.000     2.121     2.278
1617   1 H      0.098  0.902  0.000  0.000     1.803     2.100
1618   1 H      0.081  0.919  0.000  0.000     1.971     2.196
1619   1 H      0.065  0.935  0.000  0.000     2.146     2.291
1620   1 H      0.034  0.966  0.000  0.000     2.532     2.488
1621   1 H      0.042  0.958  0.000  0.000     2.428     2.437
1622   1 H      0.013  0.987  0.000  0.000     2.842     2.636
1623   1 H      0.335  0.665  0.000  0.000     0.626     1.243
1624   7 N     -0.157  1.243  3.915  0.000    24.400     7.336
1625   6 C      0.017  1.062  2.921  0.000    20.305     6.418
1626   6 C      0.200  1.089  2.711  0.000    23.747     7.981
1627   8 O     -0.373  1.765  4.608  0.000    21.150     6.166
1628   6 C     -0.020  1.071  2.949  0.000    20.904     6.504
1629   6 C     -0.075  1.063  3.012  0.000    21.938     6.670
1630   6 C     -0.117  1.042  3.076  0.000    22.810     6.811
1631   6 C     -0.126  1.049  3.077  0.000    22.992     6.841
1632   1 H      0.200  0.800  0.000  0.000     1.108     1.649
1633   1 H      0.097  0.903  0.000  0.000     1.809     2.103
1634   1 H      0.043  0.957  0.000  0.000     2.405     2.425
1635   1 H      0.049  0.951  0.000  0.000     2.333     2.389
1636   1 H      0.054  0.946  0.000  0.000     2.265     2.353
1637   1 H      0.056  0.944  0.000  0.000     2.241     2.341
1638   1 H      0.026  0.974  0.000  0.000     2.640     2.541
1639   1 H      0.059  0.941  0.000  0.000     2.216     2.328
1640   1 H      0.059  0.941  0.000  0.000     2.206     2.322
1641   1 H      0.048  0.952  0.000  0.000     2.344     2.394
1642   1 H      0.048  0.952  0.000  0.000     2.347     2.396
1643   1 H      0.185  0.815  0.000  0.000     1.186     1.706
1644   1 H      0.082  0.918  0.000  0.000     1.955     2.187
1645   1 H      0.187  0.813  0.000  0.000     1.173     1.697
1646   1 H      0.074  0.926  0.000  0.000     2.037     2.232
1647   1 H      0.184  0.816  0.000  0.000     1.192     1.710
1648   1 H      0.077  0.923  0.000  0.000     2.014     2.219
1649   1 H      0.170  0.830  0.000  0.000     1.270     1.765
1650   1 H      0.068  0.932  0.000  0.000     2.104     2.268
1651   1 H      0.197  0.803  0.000  0.000     1.120     1.658
1652   1 H      0.096  0.904  0.000  0.000     1.822     2.111
1653   1 H      0.182  0.818  0.000  0.000     1.203     1.718
1654   1 H      0.093  0.907  0.000  0.000     1.847     2.125
1655   1 H      0.189  0.811  0.000  0.000     1.165     1.691
1656   1 H      0.072  0.928  0.000  0.000     2.068     2.249
1657   1 H      0.174  0.826  0.000  0.000     1.247     1.749
1658   1 H      0.081  0.919  0.000  0.000     1.972     2.196
1659   1 H      0.188  0.812  0.000  0.000     1.171     1.695
1660   1 H      0.090  0.910  0.000  0.000     1.874     2.141
1661   1 H      0.172  0.828  0.000  0.000     1.261     1.759
1662   1 H      0.077  0.923  0.000  0.000     2.010     2.217
1663   1 H      0.160  0.840  0.000  0.000     1.334     1.809
1664   1 H      0.082  0.918  0.000  0.000     1.955     2.186
1665   1 H      0.183  0.817  0.000  0.000     1.197     1.714
1666   1 H      0.054  0.946  0.000  0.000     2.271     2.356
1667   1 H      0.174  0.826  0.000  0.000     1.248     1.750
1668   1 H      0.075  0.925  0.000  0.000     2.030     2.228
1669   1 H      0.187  0.813  0.000  0.000     1.175     1.698
1670   1 H      0.054  0.946  0.000  0.000     2.265     2.353
1671   1 H      0.169  0.831  0.000  0.000     1.277     1.770
1672   1 H      0.082  0.918  0.000  0.000     1.954     2.186
1673   1 H      0.177  0.823  0.000  0.000     1.234     1.740
1674   1 H      0.086  0.914  0.000  0.000     1.919     2.166
1675   1 H      0.173  0.827  0.000  0.000     1.253     1.753
1676   1 H      0.075  0.925  0.000  0.000     2.030     2.228
1677   1 H      0.179  0.821  0.000  0.000     1.221     1.731
1678   1 H      0.073  0.927  0.000  0.000     2.054     2.241

 Mol. C6AA /au·bohr⁶  :   25656993.908024
 Mol. C8AA /au·bohr⁸  :  573275370.978258
 Mol. α(0) /au        :       7594.721175

 
molecular dipole:
                 x           y           z       tot (Debye)
 q only:     -184.553     561.999      83.290
   full:     -184.950     562.571      83.719    1520.205
molecular quadrupole (traceless):
                xx          xy          yy          xz          yz          zz
 q only:   -19697.858  -20313.832   44529.853   -1771.340    7412.209  -24831.995
  q+dip:   -19680.195  -20501.511   44533.657   -1824.678    7592.868  -24853.462
   full:   -19666.279  -20490.375   44540.088   -1825.313    7592.166  -24873.809
speedup  1.84
cpu  time for grad    9 m  8.6 s
wall time for grad    4 m 57.8 s

SCC energy    :   -2596.0765922
rep           :      31.3993774
ES            :       8.6243287
AES           :      -0.3693435
AXC           :       0.8093107
disp          :      -2.3178885
XB            :       0.0000000
fix           :       0.0000000
Gborn         :       0.0000000
Gsasa         :       0.0000000
Ghb           :       0.0000000
Gshift        :       0.0000000
Gsolv         :      -2.7838997    -1746.92
Etot ala COSMO:   -2596.0765922
grad norm     :       1.4608289
total E       :   -2564.3756142
atomizationE  :     466.2823541   292596.59
(atE without considering molecular charge,
 total energy contains solvation terms)
H-L gap (eV)  :          0.9371

------------------------------------------------------------------------
 * finished run on 2019/05/05 at 23:32:51.378     
------------------------------------------------------------------------
 total:
 * wall-time:     0 d,  0 h,  5 min,  9.507 sec
 *  cpu-time:     0 d,  0 h,  9 min, 23.296 sec
 * ratio c/w:     1.820 speedup
 SCF:
 * wall-time:     0 d,  0 h,  5 min,  3.113 sec
 *  cpu-time:     0 d,  0 h,  9 min, 16.675 sec
 * ratio c/w:     1.837 speedup

