      -----------------------------------------------------------      
     |                   =====================                   |     
     |                           x T B                           |     
     |                   =====================                   |     
     |                         S. Grimme                         |     
     |          Mulliken Center for Theoretical Chemistry        |     
     |                    University of Bonn                     |     
     |                 Version 6.0.1 (SAW181210)                 |     
      -----------------------------------------------------------      

   This program is distributed in the hope that it will be useful,
   but WITHOUT ANY WARRANTY; without even the implied warranty of
   MERCHANTABILITY or FITNESS FOR A PARTICULAR PURPOSE.
   
   FOR NON-COMMERCIAL, ACADEMIA USE ONLY.
   
   Cite this work as:
   S. Grimme, C. Bannwarth, P. Shushkov, J. Comput. Theory Chem., 2017,
   13, 1989-2009.
   C. Bannwarth, S. Ehlert and S. Grimme., ChemRxiv, 2018, preprint.
   http://doi.org/10.26434/chemrxiv.7246238.v1
   
   for sTDA-xTB:
   S. Grimme and C. Bannwarth, J. Chem. Phys., 2016, 145, 054103.
   
   in the mass-spec context:
   V. Asgeirsson, C. Bauer and S. Grimme, Chem. Sci., 2017, 8, 4879.
   
   if GBSA is used:
   P. Shushkov, F. März and S. Grimme, unpublished.
   
   for ANC optimizer:
   S. Grimme, unpublished.
   Rational Function algorithm used in ANCopt:
   F. Eckert, P. Pulay, H.-J. Werner, J. Comput. Chem., 1997, 18, 1473.
   
   with help from (in alphabetical order)
   C. Bannwarth, F. Bohle, G. Brandenburg, E. Caldeweyher, M. Checinski,
   S. Dohm, S. Ehlert, S. Ehrlich, F. März, H. Neugebauer, J. Pisarek,
   P. Pracht, P. Shushkov, and S. Spicher.
   
 * started run on 2019/05/04 at 18:59:43.180     
========================================================================
 # omp threads = 2
========================================================================
number of atoms            : 560
number of electrons        : 1526
charge                     : -1
spin                       : .0
first test random number   : .4423

########################################################################
# WARNING! Please study the warnings concerning your input carefully
#  - Process number higher than OMP_NUM_THREADS, I hope you know what you are doing.
########################################################################

           ------------------------------------------------- 
          |                 G F N 2 - x T B                 |
          | Geometry, Frequencies, Noncovalent interactions |
          |            JCTC 2018 parametrisation            |
           ------------------------------------------------- 
 
      method parameters     
 k(s)        :  1.8500
 k(p)        :  2.2300
 k(d)        :  2.2300
 k(f)        :  2.0000
 kEN (H0ij)  : -2.0000
 D4 a1       :  0.5200
 D4 a2       :  5.0000
 D4 s6       :  1.0000
 D4 s8       :  2.7000
 D4 s9       :  5.0000
 alphaj      :  2.0000

 Solvent             : h2o
 Using internal parameter file: .param_gbsa2_h2o
 Gsolv ref. state (COSMO-RS): gsolv [1 M gas/solution]
 temperature (mdtemp)       :    298.150000000000     
 dielectric constant        :    80.2000000000000     
 rho                        :    1.00000000000000     
 mass                       :    18.0000000000000     
 surface tension            :    15.5689454083859     
 probe radius               :   0.975313790000000     
 vdW radii scaling          :    1.00000000000000     
 Gshift (Eh)                :   1.857443126794793E-003
 c1                         :    1.55243817000000     
 soset                      :   0.130326360000000     
 HB correction              :  T

            Z     q(EN)     CN     RAES       Cart. coordinates
     1  N   5.0   -0.21    3.24    1.96   -64.49635   119.97303    36.61533
     2  C   4.0    0.03    4.36    4.30   -66.69221   120.70625    38.05908
     3  C   4.0    0.14    3.49    3.11   -69.10539   120.39444    36.55108
     4  O   6.0   -0.33    1.53    1.80   -70.87795   119.20013    37.44681
     5  C   4.0   -0.04    4.34    4.27   -66.38985   123.39721    39.02095
     6  C   4.0   -0.02    3.51    3.12   -64.89130   123.57296    41.45492
     7  C   4.0   -0.05    3.44    3.09   -65.83616   124.89577    43.52039
     8  C   4.0   -0.05    3.45    3.09   -62.52536   122.40511    41.71381
     9  C   4.0   -0.04    3.49    3.11   -64.47178   125.07151    45.78239
    10  C   4.0   -0.05    3.40    3.08   -61.13452   122.57329    43.98337
    11  C   4.0    0.06    3.41    3.08   -62.12852   123.91500    46.01105
    12  O   6.0   -0.24    2.12    1.84   -60.81894   124.12854    48.26360
    13  H   1.0    0.08    1.03    1.43   -63.63085   121.44135    35.71582
    14  H   1.0    0.04    1.07    1.44   -66.84906   119.49304    39.71637
    15  H   1.0    0.04    1.04    1.43   -65.40719   124.50837    37.59232
    16  H   1.0    0.04    1.04    1.43   -68.25690   124.19279    39.37055
    17  H   1.0    0.04    1.03    1.43   -67.65786   125.80473    43.37677
    18  H   1.0    0.04    1.03    1.43   -61.75246   121.35631    40.14345
    19  H   1.0    0.05    1.11    1.44   -65.24657   126.11275    47.35653
    20  H   1.0    0.05    1.02    1.43   -59.31283   121.66623    44.14400
    21  H   1.0    0.11    1.03    1.43   -59.20889   123.22147    48.14833
    22  N   5.0   -0.15    3.56    2.13   -69.18854   121.43379    34.26451
    23  C   4.0    0.03    4.45    4.47   -71.28046   120.86876    32.56565
    24  C   4.0    0.16    3.52    3.12   -71.61872   118.02283    32.60722
    25  O   6.0   -0.32    1.25    1.80   -73.70687   117.08364    33.02107
    26  C   4.0   -0.06    4.29    4.18   -70.70977   121.77583    29.88602
    27  C   4.0   -0.05    4.17    3.95   -72.89807   121.50749    28.03408
    28  C   4.0   -0.02    4.21    4.01   -71.94565   121.46780    25.30154
    29  N   5.0   -0.14    3.38    2.01   -74.01490   121.43001    23.46095
    30  C   4.0    0.09    3.33    3.06   -73.72766   121.23915    20.96462
    31  N   5.0   -0.19    3.25    1.97   -71.43731   121.05584    19.94228
    32  N   5.0   -0.19    3.23    1.96   -75.75344   121.22781    19.48118
    33  H   1.0    0.07    1.08    1.44   -67.86951   122.64510    33.55019
    34  H   1.0    0.04    1.06    1.44   -72.99633   121.84764    33.14768
    35  H   1.0    0.04    1.04    1.43   -70.20521   123.77138    29.96349
    36  H   1.0    0.04    1.04    1.43   -69.13184   120.67790    29.14524
    37  H   1.0    0.04    1.03    1.43   -73.89584   119.74437    28.40258
    38  H   1.0    0.04    1.03    1.43   -74.18308   123.10242    28.25329
    39  H   1.0    0.04    1.03    1.43   -70.81370   123.15533    24.95761
    40  H   1.0    0.04    1.03    1.43   -70.80047   119.78028    25.01052
    41  H   1.0    0.07    1.06    1.44   -75.81392   121.56040    24.14125
    42  H   1.0    0.08    1.03    1.43   -69.87451   121.05962    21.07044
    43  H   1.0    0.08    1.02    1.43   -71.24456   120.91034    18.02988
    44  H   1.0    0.08    1.02    1.43   -77.51467   121.36387    20.25408
    45  H   1.0    0.08    1.02    1.43   -75.54746   121.08230    17.57067
    46  N   5.0   -0.15    3.51    2.08   -69.50790   116.68680    32.27085
    47  C   4.0    0.03    4.41    4.39   -69.43042   113.92969    32.28786
    48  C   4.0    0.15    3.43    3.09   -70.15041   112.76940    34.81064
    49  O   6.0   -0.32    1.35    1.80   -70.93086   110.57731    34.89757
    50  C   4.0   -0.04    4.29    4.17   -66.82449   112.95648    31.51118
    51  C   4.0   -0.03    4.18    3.97   -66.40875   112.82987    28.66525
    52  C   4.0    0.25    3.12    3.03   -64.36596   110.94203    27.92637
    53  O   6.0   -0.28    1.17    1.80   -62.42143   111.75839    26.86434
    54  O   6.0   -0.28    1.17    1.80   -64.69666   108.64412    28.41014
    55  H   1.0    0.07    1.07    1.44   -67.77691   117.48048    31.97416
    56  H   1.0    0.05    1.06    1.44   -70.80425   113.29663    30.88946
    57  H   1.0    0.05    1.03    1.43   -65.39208   114.21126    32.29542
    58  H   1.0    0.06    1.04    1.43   -66.58260   111.05352    32.26329
    59  H   1.0    0.05    1.03    1.43   -68.16619   112.25728    27.75441
    60  H   1.0    0.05    1.03    1.43   -65.83616   114.68747    27.98684
    61  N   5.0   -0.13    3.50    2.08   -69.85561   114.19425    36.86288
    62  C   4.0    0.04    4.51    4.55   -70.66819   113.23427    39.29874
    63  C   4.0    0.16    3.45    3.09   -73.40451   113.94481    39.88834
    64  O   6.0   -0.30    1.35    1.80   -74.81236   112.38578    40.86154
    65  C   4.0   -0.05    4.31    4.22   -68.86539   114.03929    41.40201
    66  C   4.0   -0.04    4.06    3.73   -69.43987   112.89412    43.98715
    67  S   6.0   -0.02    2.62    3.10   -70.70599   109.71371    43.96447
    68  C   4.0   -0.06    3.88    3.43   -70.70410   108.97861    47.28283
    69  H   1.0    0.10    1.10    1.44   -69.08460   115.96114    36.88745
    70  H   1.0    0.06    1.11    1.45   -70.55292   111.17825    39.25906
    71  H   1.0    0.04    1.03    1.43   -66.95677   113.46859    40.88044
    72  H   1.0    0.05    1.03    1.43   -68.95988   116.08775    41.59665
    73  H   1.0    0.04    1.07    1.44   -67.69187   112.84499    45.07374
    74  H   1.0    0.06    1.10    1.44   -70.82315   114.09220    44.93201
    75  H   1.0    0.06    1.04    1.43   -71.43920   107.07187    47.54739
    76  H   1.0    0.04    1.04    1.43   -68.77469   109.09199    47.99337
    77  H   1.0    0.05    1.04    1.43   -71.89840   110.33543    48.27116
    78  N   5.0   -0.14    3.52    2.09   -74.15852   116.27295    39.30630
    79  C   4.0    0.04    4.48    4.50   -76.79090   117.04963    39.61244
    80  C   4.0    0.16    3.54    3.13   -78.49166   115.20903    38.26506
    81  O   6.0   -0.31    1.36    1.80   -79.99210   113.85032    39.42535
    82  C   4.0   -0.05    4.45    4.46   -77.24822   119.63855    38.45403
    83  C   4.0   -0.03    4.20    4.01   -77.52790   121.92323    40.17935
    84  C   4.0   -0.08    4.16    3.92   -79.92974   123.27060    39.45559
    85  C   4.0   -0.08    4.17    3.93   -77.57325   121.23159    42.95536
    86  H   1.0    0.13    1.22    1.47   -73.00200   117.65434    38.62411
    87  H   1.0    0.05    1.08    1.44   -77.21609   117.11766    41.62688
    88  H   1.0    0.05    1.04    1.43   -75.65896   120.04484    37.20870
    89  H   1.0    0.05    1.07    1.44   -78.98865   119.52328    37.35988
    90  H   1.0    0.04    1.06    1.44   -75.89139   123.15155    39.94314
    91  H   1.0    0.04    1.00    1.43   -80.16784   124.91655    40.67068
    92  H   1.0    0.04    1.00    1.43   -79.79935   123.86398    37.48649
    93  H   1.0    0.05    1.02    1.43   -81.51900   121.98370    39.69747
    94  H   1.0    0.04    1.00    1.43   -77.77734   122.95124    44.07219
    95  H   1.0    0.04    1.01    1.43   -79.16440   119.97303    43.30685
    96  H   1.0    0.04    1.01    1.43   -75.80825   120.28484    43.43913
    97  N   5.0   -0.14    3.54    2.11   -78.21954   115.21848    35.77440
    98  C   4.0    0.03    4.47    4.50   -79.43652   113.40434    34.13223
    99  C   4.0    0.16    3.48    3.11   -79.10393   110.72849    35.19615
   100  O   6.0   -0.31    1.33    1.80   -80.95775   109.36600    35.51929
   101  C   4.0   -0.02    4.32    4.24   -78.40473   113.65568    31.39024
   102  C   4.0   -0.05    4.19    3.98   -79.32125   116.14256    30.20916
   103  C   4.0   -0.07    4.12    3.85   -79.15117   111.39179    29.76129
   104  C   4.0   -0.08    4.01    3.64   -78.31024   116.65656    27.56732
   105  H   1.0    0.10    1.09    1.44   -77.13861   116.49594    34.81631
   106  H   1.0    0.06    1.06    1.44   -81.45664   113.79930    34.06609
   107  H   1.0    0.06    1.06    1.44   -76.34682   113.68591    31.48283
   108  H   1.0    0.04    1.03    1.43   -81.37727   116.09153    30.08822
   109  H   1.0    0.05    1.03    1.43   -78.72409   117.70158    31.41669
   110  H   1.0    0.04    1.00    1.43   -78.38961   111.65068    27.86401
   111  H   1.0    0.05    1.00    1.43   -78.37827   109.67780    30.60222
   112  H   1.0    0.05    1.00    1.43   -81.20530   111.27084    29.68193
   113  H   1.0    0.04    1.00    1.43   -79.06424   118.45369    26.89836
   114  H   1.0    0.04    1.00    1.43   -76.25422   116.74160    27.64102
   115  H   1.0    0.04    1.00    1.43   -78.90551   115.13533    26.31443
   116  N   5.0   -0.13    3.46    2.05   -76.76067   110.02551    35.81409
   117  C   4.0    0.04    4.33    4.26   -76.17107   107.48383    36.77785
   118  C   4.0    0.16    3.43    3.09   -77.39373   106.89991    39.31197
   119  O   6.0   -0.28    1.24    1.80   -77.42774   104.72294    40.13400
   120  C   4.0   -0.05    4.16    3.92   -73.31759   107.05298    36.93658
   121  H   1.0    0.10    1.06    1.44   -75.21676   111.17069    35.67236
   122  H   1.0    0.06    1.06    1.44   -76.91185   106.13457    35.40968
   123  H   1.0    0.06    1.00    1.43   -72.96421   105.15569    37.65657
   124  H   1.0    0.07    1.03    1.43   -72.50312   107.25329    35.05442
   125  H   1.0    0.07    1.01    1.43   -72.49745   108.44948    38.21026
   126  N   5.0   -0.13    3.61    2.17   -78.36127   108.84066    40.56864
   127  C   4.0    0.05    4.50    4.53   -79.81635   108.38901    42.82875
   128  C   4.0    0.16    3.42    3.08   -82.50543   109.27907    42.38277
   129  O   6.0   -0.29    1.25    1.80   -83.87360   109.91402    44.14400
   130  C   4.0   -0.02    4.29    4.18   -78.58614   109.62300    45.12477
   131  C   4.0    0.25    3.13    3.03   -78.15907   107.76351    47.27527
   132  O   6.0   -0.27    1.21    1.80   -79.19841   105.63568    47.17323
   133  O   6.0   -0.31    1.22    1.80   -76.76634   108.42114    49.06862
   134  H   1.0    0.13    1.12    1.45   -78.16473   110.69259    40.06786
   135  H   1.0    0.09    1.10    1.44   -79.87494   106.38023    43.27850
   136  H   1.0    0.07    1.04    1.43   -76.75689   110.39590    44.57486
   137  H   1.0    0.06    1.06    1.44   -79.80880   111.12911    45.81641
   138  N   5.0   -0.13    3.46    2.05   -83.22731   109.28474    39.97148
   139  C   4.0    0.03    4.25    4.10   -85.82001   109.76473    39.14756
   140  C   4.0    0.16    3.35    3.06   -86.76110   112.36122    39.86755
   141  O   6.0   -0.29    1.23    1.80   -88.98908   112.69759    40.44769
   142  H   1.0    0.12    1.16    1.45   -82.02922   108.95404    38.49750
   143  H   1.0    0.05    1.03    1.43   -85.92017   109.58899    37.09721
   144  H   1.0    0.06    1.03    1.43   -87.06912   108.36822    40.00172
   145  N   5.0   -0.13    3.51    2.09   -85.06601   114.20559    39.80897
   146  C   4.0    0.04    4.59    4.66   -85.65939   116.64522    40.88233
   147  C   4.0    0.15    3.50    3.12   -86.16205   118.65967    38.92646
   148  O   6.0   -0.31    1.23    1.80   -84.59547   119.16234    37.27673
   149  C   4.0   -0.02    4.40    4.37   -83.59203   117.51639    42.67757
   150  C   4.0   -0.04    4.24    4.08   -83.60337   115.85154    45.03595
   151  C   4.0   -0.08    4.25    4.11   -84.02288   120.22625    43.39567
   152  C   4.0   -0.07    4.04    3.69   -81.04090   115.37533    46.15089
   153  H   1.0    0.12    1.11    1.45   -83.30290   114.05630    39.04174
   154  H   1.0    0.05    1.10    1.44   -87.45463   116.39011    41.85743
   155  H   1.0    0.05    1.07    1.44   -81.76466   117.35387    41.74216
   156  H   1.0    0.04    1.04    1.43   -84.75043   116.76806    46.48159
   157  H   1.0    0.07    1.05    1.44   -84.41784   114.02417    44.54462
   158  H   1.0    0.03    1.01    1.43   -82.53000   120.82530    44.68068
   159  H   1.0    0.06    1.03    1.43   -83.99076   121.38466    41.69302
   160  H   1.0    0.04    1.03    1.43   -85.85592   120.39066    44.32163
   161  H   1.0    0.05    1.00    1.43   -81.24499   114.17724    47.81385
   162  H   1.0    0.06    1.01    1.43   -79.86360   114.43424    44.74682
   163  H   1.0    0.04    1.00    1.43   -80.19619   117.17624    46.68379
   164  N   5.0   -0.14    3.49    2.07   -88.39760   119.77650    39.14378
   165  C   4.0    0.04    4.46    4.47   -88.99664   122.10275    37.85310
   166  C   4.0    0.16    3.58    3.15   -87.36770   124.16066    39.03985
   167  O   6.0   -0.31    1.31    1.80   -87.46786   124.55940    41.32831
   168  C   4.0   -0.03    4.29    4.17   -91.80100   122.73014    38.18002
   169  C   4.0    0.25    3.12    3.03   -92.63248   125.01671    36.63612
   170  O   6.0   -0.30    1.22    1.80   -91.14904   126.83652    36.32431
   171  O   6.0   -0.28    1.17    1.80   -94.81889   124.99025    35.74984
   172  H   1.0    0.08    1.07    1.44   -89.84513   119.09620    40.21904
   173  H   1.0    0.05    1.07    1.44   -88.62815   121.95724    35.83109
   174  H   1.0    0.05    1.03    1.43   -92.92349   121.11254    37.57342
   175  H   1.0    0.06    1.03    1.43   -92.16760   123.13832    40.16613
   176  N   5.0   -0.09    3.69    2.26   -85.81057   125.43434    37.49783
   177  C   4.0    0.03    4.60    4.66   -84.40650   127.56406    38.50695
   178  C   4.0    0.16    3.45    3.09   -86.16394   129.49347    39.72771
   179  O   6.0   -0.30    1.33    1.80   -86.03166   129.87520    42.01806
   180  C   4.0   -0.05    4.39    4.36   -83.10259   128.68278    36.16746
   181  C   4.0   -0.04    4.31    4.22   -84.24776   127.36186    33.92814
   182  C   4.0   -0.01    4.37    4.33   -85.09247   124.87120    34.86922
   183  H   1.0    0.04    1.06    1.44   -82.97787   126.93289    39.85054
   184  H   1.0    0.04    1.03    1.43   -83.45786   130.71045    36.07865
   185  H   1.0    0.03    1.02    1.43   -81.07680   128.32562    36.26762
   186  H   1.0    0.05    1.03    1.43   -85.84269   128.45412    33.21760
   187  H   1.0    0.04    1.03    1.43   -82.83047   127.14265    32.45037
   188  H   1.0    0.05    1.03    1.43   -86.70819   124.18334    33.79208
   189  H   1.0    0.05    1.02    1.43   -83.56179   123.49548    34.79930
   190  N   5.0   -0.14    3.44    2.04   -87.83635   130.59707    38.19514
   191  C   4.0    0.04    4.41    4.39   -89.39916   132.78726    38.87733
   192  C   4.0    0.17    3.45    3.10   -89.74309   133.23891    41.70247
   193  O   6.0   -0.29    1.26    1.80   -88.28422   134.63730    42.85898
   194  C   4.0   -0.03    4.32    4.23   -91.96351   132.66254    37.53563
   195  C   4.0    0.15    3.20    3.04   -92.74964   135.24391    36.44903
   196  O   6.0   -0.29    1.22    1.80   -91.15282   136.87096    35.98227
   197  N   5.0   -0.18    3.15    1.95   -95.21573   135.62185    36.02385
   198  H   1.0    0.09    1.07    1.44   -88.17083   129.99803    36.39423
   199  H   1.0    0.06    1.08    1.44   -88.35792   134.44077    38.22538
   200  H   1.0    0.07    1.03    1.43   -91.85013   131.31706    35.98038
   201  H   1.0    0.05    1.05    1.44   -93.40348   132.06539    38.88111
   202  H   1.0    0.09    1.02    1.43   -95.82233   137.30371    35.30575
   203  H   1.0    0.08    1.02    1.43   -96.48752   134.22723    36.41880
   204  N   5.0   -0.14    3.48    2.06   -91.67250   132.04082    42.78717
   205  C   4.0    0.03    4.36    4.32   -92.20729   132.21279    45.50460
   206  C   4.0    0.16    3.41    3.08   -89.86403   131.73091    47.16756
   207  O   6.0   -0.30    1.22    1.80   -89.34813   133.16710    48.93823
   208  C   4.0   -0.05    4.24    4.07   -94.38614   130.42133    46.25671
   209  C   4.0   -0.03    4.19    3.98   -94.19906   127.73792    45.15122
   210  C   4.0    0.24    3.11    3.03   -95.21951   125.70457    46.91812
   211  O   6.0   -0.30    1.17    1.80   -94.09512   125.29450    48.97225
   212  O   6.0   -0.28    1.17    1.80   -97.13380   124.49137    46.23026
   213  H   1.0    0.07    1.08    1.44   -92.91971   130.92210    41.83475
   214  H   1.0    0.06    1.06    1.44   -92.81389   134.14787    45.86554
   215  H   1.0    0.06    1.03    1.43   -94.40882   130.24558    48.30895
   216  H   1.0    0.05    1.03    1.43   -96.15870   131.23769    45.60098
   217  H   1.0    0.05    1.03    1.43   -95.28565   127.66044    43.40323
   218  H   1.0    0.05    1.04    1.43   -92.22052   127.30895    44.77139
   219  N   5.0   -0.13    3.50    2.08   -88.43728   129.74669    46.55340
   220  C   4.0    0.04    4.44    4.45   -86.37181   128.86041    48.15967
   221  C   4.0    0.14    3.47    3.10   -84.27044   130.78037    48.49604
   222  O   6.0   -0.30    1.63    1.81   -82.86259   130.72368    50.35364
   223  C   4.0   -0.04    4.36    4.31   -85.33813   126.35464    47.17323
   224  C   4.0   -0.02    4.22    4.04   -86.84991   124.12287    48.21636
   225  C   4.0   -0.06    4.13    3.87   -88.79444   123.13454    46.33608
   226  C   4.0   -0.08    4.12    3.85   -85.08491   122.02338    49.03839
   227  H   1.0    0.10    1.07    1.44   -88.66405   128.70545    44.94713
   228  H   1.0    0.05    1.07    1.44   -87.13715   128.51648    50.03994
   229  H   1.0    0.07    1.04    1.43   -85.46475   126.32629    45.11721
   230  H   1.0    0.04    1.04    1.43   -83.37471   126.14677    47.76093
   231  H   1.0    0.05    1.07    1.44   -87.90438   124.78805    49.85664
   232  H   1.0    0.05    1.02    1.43   -89.80545   121.55473    47.18646
   233  H   1.0    0.06    1.00    1.43   -90.11347   124.64821    45.87877
   234  H   1.0    0.06    1.04    1.43   -87.82123   122.51093    44.63155
   235  H   1.0    0.04    1.00    1.43   -86.20174   120.45680    49.77349
   236  H   1.0    0.03    1.03    1.43   -83.98320   121.39788    47.41322
   237  H   1.0    0.04    1.00    1.43   -83.82824   122.73959    50.50482
   238  N   5.0   -0.13    3.53    2.10   -84.09280   132.50380    46.69513
   239  C   4.0    0.04    4.32    4.24   -82.27867   134.54282    46.85953
   240  C   4.0    0.09    3.22    3.04   -82.84748   136.18688    49.18390
   241  O   6.0   -0.28    1.11    1.80   -81.19774   136.63663    50.76371
   242  C   4.0   -0.05    4.32    4.23   -82.29568   136.06594    44.39155
   243  C   4.0   -0.02    4.21    4.02   -82.55268   134.53904    41.91790
   244  C   4.0   -0.07    4.08    3.76   -82.60937   136.23979    39.58598
   245  C   4.0   -0.07    4.09    3.78   -80.52500   132.48869    41.62121
   246  H   1.0    0.11    1.10    1.44   -85.17751   132.53971    45.10209
   247  H   1.0    0.05    1.06    1.44   -80.37193   133.79638    47.07874
   248  H   1.0    0.05    1.03    1.43   -83.88305   137.37552    44.46147
   249  H   1.0    0.04    1.03    1.43   -80.52500   137.11096    44.27628
   250  H   1.0    0.08    1.10    1.44   -84.36682   133.57150    42.04451
   251  H   1.0    0.04    1.00    1.43   -82.79267   135.06627    37.90412
   252  H   1.0    0.05    1.00    1.43   -84.21753   137.51914    39.72771
   253  H   1.0    0.04    1.00    1.43   -80.85759   137.32072    39.50094
   254  H   1.0    0.04    1.00    1.43   -80.82925   131.49847    39.84109
   255  H   1.0    0.04    1.00    1.43   -78.66740   133.37875    41.62121
   256  H   1.0    0.05    1.00    1.43   -80.67240   131.16777    43.19536
   257  N   5.0   -0.19    3.23    1.96   -86.13560   134.91131    53.97435
   258  C   4.0    0.03    4.31    4.21   -86.30189   133.39198    56.25903
   259  C   4.0    0.16    3.43    3.09   -84.06446   133.90409    57.99002
   260  O   6.0   -0.29    1.22    1.80   -84.37626   134.66376    60.17454
   261  C   4.0    0.03    4.18    3.96   -86.35481   130.59707    55.54660
   262  O   6.0   -0.26    2.17    1.85   -84.03800   129.87897    54.40332
   263  H   1.0    0.11    1.04    1.43   -86.12804   133.85496    52.36242
   264  H   1.0    0.05    1.05    1.44   -88.03855   133.87197    57.25681
   265  H   1.0    0.04    1.01    1.43   -86.64393   129.47268    57.24925
   266  H   1.0    0.04    1.01    1.43   -87.89304   130.27015    54.21624
   267  H   1.0    0.17    1.36    1.52   -83.92462   130.59329    52.69879
   268  N   5.0   -0.13    3.51    2.08   -81.80435   133.49402    56.97902
   269  C   4.0    0.04    4.34    4.28   -79.50455   133.94378    58.39442
   270  C   4.0    0.09    3.22    3.04   -79.06991   136.75947    58.81016
   271  O   6.0   -0.28    1.11    1.80   -77.81514   137.49835    60.63186
   272  C   4.0   -0.04    4.39    4.36   -77.26711   132.75136    57.03760
   273  C   4.0   -0.04    4.06    3.73   -76.83815   130.01126    57.74058
   274  S   6.0   -0.04    2.66    3.10   -75.23944   128.27082    55.29338
   275  C   4.0   -0.07    3.90    3.46   -72.76390   130.40999    54.37875
   276  H   1.0    0.10    1.08    1.44   -81.51144   132.85151    55.18567
   277  H   1.0    0.06    1.07    1.44   -79.63872   133.02537    60.23312
   278  H   1.0    0.05    1.06    1.44   -77.59782   132.83829    55.00614
   279  H   1.0    0.05    1.04    1.43   -75.56069   133.80205    57.51948
   280  H   1.0    0.04    1.07    1.44   -75.68352   129.92622    59.44322
   281  H   1.0    0.04    1.07    1.44   -78.65984   129.10986    58.07884
   282  H   1.0    0.04    1.04    1.43   -71.64896   129.54449    52.87831
   283  H   1.0    0.04    1.04    1.43   -73.60861   132.16365    53.70412
   284  H   1.0    0.05    1.05    1.44   -71.56770   130.78982    56.01148
   285  N   5.0   -0.21    3.19    1.95   -96.23024   106.85460    61.58270
   286  C   4.0    0.03    4.35    4.29   -95.82742   109.51763    62.10049
   287  C   4.0    0.07    3.26    3.05   -93.29497   110.05648    63.38361
   288  O   6.0   -0.31    1.30    1.80   -91.49464   110.78235    62.07781
   289  C   4.0   -0.03    4.29    4.18   -98.05114   110.72294    63.47432
   290  C   4.0   -0.08    4.16    3.91   -97.35690   113.34647    64.40784
   291  C   4.0   -0.08    4.15    3.90  -100.24529   110.88343    61.67908
   292  H   1.0    0.07    1.02    1.43   -97.36449   105.95583    62.85638
   293  H   1.0    0.05    1.08    1.44   -95.67288   110.42780    60.25801
   294  H   1.0    0.03    1.06    1.44   -98.56415   109.58115    65.11082
   295  H   1.0    0.04    1.00    1.43   -98.97832   114.16258    65.38105
   296  H   1.0    0.04    1.01    1.43   -95.76227   113.19827    65.70231
   297  H   1.0    0.04    1.00    1.43   -96.84375   114.51873    62.79402
   298  H   1.0    0.04    1.00    1.43  -101.84447   111.74562    62.65040
   299  H   1.0    0.04    1.00    1.43   -99.70293   112.03447    60.05959
   300  H   1.0    0.04    1.00    1.43  -100.74199   108.98377    61.05547
   301  N   5.0   -0.19    3.30    1.98   -88.40484   107.78523    64.28312
   302  C   4.0    0.03    4.36    4.30   -86.33652   107.10823    62.62583
   303  C   4.0    0.16    3.48    3.11   -85.79731   109.23647    60.80414
   304  O   6.0   -0.31    1.27    1.80   -83.62099   110.02020    60.53958
   305  C   4.0   -0.04    4.32    4.24   -86.90925   104.66113    61.22744
   306  C   4.0   -0.03    4.19    3.98   -84.77993   103.78743    59.51723
   307  C   4.0    0.25    3.12    3.03   -85.15157   104.70463    56.77902
   308  O   6.0   -0.29    1.20    1.80   -87.27945   105.58840    56.15163
   309  O   6.0   -0.28    1.16    1.80   -83.32597   104.52563    55.26535
   310  H   1.0    0.08    1.03    1.43   -89.75682   106.41863    64.42296
   311  H   1.0    0.04    1.09    1.44   -84.64853   106.76647    63.75589
   312  H   1.0    0.03    1.03    1.43   -87.25763   103.17334    62.60883
   313  H   1.0    0.06    1.05    1.44   -88.58228   104.94188    60.05770
   314  H   1.0    0.05    1.04    1.43   -82.99564   104.54221    60.21454
   315  H   1.0    0.04    1.03    1.43   -84.71807   101.72895    59.50590
   316  N   5.0   -0.12    3.56    2.12   -87.77816   110.18591    59.58148
   317  C   4.0    0.04    4.45    4.47   -87.49102   112.34621    57.92797
   318  C   4.0    0.16    3.54    3.13   -86.06252   114.42362    59.29614
   319  O   6.0   -0.32    1.33    1.80   -83.92327   115.04109    58.61583
   320  C   4.0   -0.05    4.33    4.26   -90.03482   113.31082    57.00579
   321  C   4.0   -0.05    4.23    4.07   -89.87204   115.81131    55.62818
   322  C   4.0   -0.01    4.25    4.11   -91.94491   116.04580    53.70822
   323  N   5.0   -0.14    3.40    2.02   -91.31191   114.81405    51.32149
   324  C   4.0    0.09    3.34    3.06   -91.44168   115.93855    49.07839
   325  N   5.0   -0.18    3.28    1.98   -92.19399   118.32803    48.90075
   326  N   5.0   -0.18    3.23    1.96   -90.82757   114.67407    47.00347
   327  H   1.0    0.11    1.12    1.45   -89.57596   109.50222    59.70432
   328  H   1.0    0.06    1.06    1.44   -86.42517   111.78103    56.25746
   329  H   1.0    0.05    1.04    1.43   -90.84003   111.92750    55.70944
   330  H   1.0    0.06    1.04    1.43   -91.27856   113.56411    58.62906
   331  H   1.0    0.04    1.03    1.43   -90.05714   117.35398    56.98122
   332  H   1.0    0.05    1.04    1.43   -88.06170   115.94225    54.65308
   333  H   1.0    0.04    1.03    1.43   -93.65382   115.16458    54.44899
   334  H   1.0    0.04    1.05    1.44   -92.28833   118.03991    53.32649
   335  H   1.0    0.08    1.06    1.44   -90.73387   112.97688    51.37818
   336  H   1.0    0.09    1.04    1.43   -92.67529   119.30853    50.49001
   337  H   1.0    0.09    1.03    1.43   -92.29004   119.18212    47.17543
   338  H   1.0    0.09    1.03    1.43   -90.25538   112.83809    47.12819
   339  H   1.0    0.09    1.03    1.43   -90.92733   115.53685    45.28382
   340  N   5.0   -0.14    3.53    2.10   -87.19898   115.44852    61.27657
   341  C   4.0    0.04    4.54    4.59   -86.08485   117.62015    62.53324
   342  C   4.0    0.15    3.46    3.10   -83.48347   117.16345    63.67085
   343  O   6.0   -0.31    1.26    1.80   -82.06236   118.94836    64.06769
   344  C   4.0    0.05    4.28    4.15   -87.83619   118.68365    64.49666
   345  O   6.0   -0.26    2.16    1.85   -89.52970   116.73307    65.29224
   346  C   4.0   -0.08    4.11    3.82   -89.34652   120.81469    63.35716
   347  H   1.0    0.10    1.08    1.44   -88.85725   114.83265    62.04191
   348  H   1.0    0.04    1.08    1.44   -85.82653   119.04646    61.07059
   349  H   1.0    0.05    1.05    1.44   -86.77497   119.39547    66.11238
   350  H   1.0    0.11    1.01    1.43   -90.69009   117.38774    66.57914
   351  H   1.0    0.04    1.00    1.43   -90.62584   121.60350    64.76500
   352  H   1.0    0.04    1.00    1.43   -88.08144   122.29910    62.69764
   353  H   1.0    0.04    1.00    1.43   -90.45149   120.12159    61.76412
   354  N   5.0   -0.13    3.51    2.08   -82.82999   114.79175    64.16029
   355  C   4.0    0.04    4.46    4.48   -80.26101   114.21847    64.95209
   356  C   4.0    0.16    3.52    3.12   -78.42008   114.90127    62.86772
   357  O   6.0   -0.30    1.26    1.80   -76.37716   115.88858    63.37038
   358  C   4.0   -0.05    4.30    4.20   -79.93723   111.44579    65.62294
   359  C   4.0   -0.04    4.22    4.04   -77.21158   110.78860    66.28812
   360  C   4.0   -0.01    4.22    4.05   -76.90101   108.04973    67.02323
   361  N   5.0   -0.14    3.40    2.02   -76.93032   106.36246    64.83681
   362  C   4.0    0.09    3.34    3.06   -78.93482   105.05620    64.06202
   363  N   5.0   -0.19    3.28    1.98   -81.12381   105.21807    65.28279
   364  N   5.0   -0.19    3.24    1.96   -78.74265   103.57491    62.05136
   365  H   1.0    0.09    1.06    1.44   -84.00266   113.26709    64.02990
   366  H   1.0    0.06    1.06    1.44   -79.86448   115.30969    66.65284
   367  H   1.0    0.04    1.03    1.43   -81.11937   111.00453    67.25188
   368  H   1.0    0.06    1.03    1.43   -80.49999   110.29344    64.01100
   369  H   1.0    0.05    1.04    1.43   -76.01127   111.15172    64.65351
   370  H   1.0    0.04    1.03    1.43   -76.60683   111.94944    67.87738
   371  H   1.0    0.04    1.03    1.43   -75.09841   107.81200    67.99076
   372  H   1.0    0.04    1.04    1.43   -78.44738   107.50673    68.27044
   373  H   1.0    0.07    1.06    1.44   -75.29674   106.17212    63.83148
   374  H   1.0    0.07    1.04    1.43   -81.28165   106.35441    66.83236
   375  H   1.0    0.07    1.03    1.43   -82.64577   104.20711    64.67052
   376  H   1.0    0.08    1.03    1.43   -77.06662   103.44299    61.10838
   377  H   1.0    0.08    1.03    1.43   -80.27116   102.56773    61.44664
   378  N   5.0   -0.14    3.55    2.12   -79.15200   114.34409    60.53202
   379  C   4.0    0.04    4.47    4.49   -77.64203   115.02813    58.34749
   380  C   4.0    0.16    3.49    3.11   -76.92232   117.79405    58.47033
   381  O   6.0   -0.32    1.34    1.80   -74.74156   118.46830    58.03569
   382  C   4.0   -0.05    4.33    4.25   -79.08314   114.48981    55.90786
   383  C   4.0   -0.04    4.24    4.09   -78.40225   112.01064    54.69087
   384  C   4.0   -0.04    4.22    4.05   -78.84213   109.81633    56.46344
   385  C   4.0   -0.03    4.15    3.90   -76.55764   108.10024    56.51446
   386  N   5.0   -0.11    4.05    2.99   -75.73221   107.33783    53.92364
   387  H   1.0    0.11    1.09    1.44   -80.78399   113.41847    60.09360
   388  H   1.0    0.05    1.06    1.44   -75.93302   113.87996    58.32671
   389  H   1.0    0.07    1.07    1.44   -81.09957   114.45168    56.32549
   390  H   1.0    0.04    1.04    1.43   -78.67238   115.98740    54.55481
   391  H   1.0    0.05    1.03    1.43   -79.56702   111.73174    53.01469
   392  H   1.0    0.04    1.04    1.44   -76.40887   112.03153    54.16931
   393  H   1.0    0.06    1.06    1.44   -79.17557   110.52381    58.36828
   394  H   1.0    0.07    1.03    1.43   -80.46876   108.72614    55.82282
   395  H   1.0    0.05    1.02    1.43   -74.99312   109.08663    57.42153
   396  H   1.0    0.05    1.02    1.43   -77.01996   106.39239    57.56893
   397  H   1.0    0.06    1.01    1.43   -74.84252   105.58693    53.98979
   398  H   1.0    0.09    1.04    1.43   -77.28959   107.21796    52.72934
   399  H   1.0    0.07    1.02    1.43   -74.47487   108.66523    53.20177
   400  N   5.0   -0.13    3.48    2.07   -78.76277   119.37597    59.11472
   401  C   4.0    0.04    4.37    4.33   -78.33185   122.08388    59.32448
   402  C   4.0    0.10    3.26    3.05   -76.19827   122.69154    61.12539
   403  O   6.0   -0.33    1.35    1.80   -74.39556   123.95065    60.39218
   404  C   4.0   -0.05    4.38    4.35   -80.73331   123.43109    60.14840
   405  C   4.0   -0.02    4.19    3.98   -82.38373   124.52579    58.05081
   406  C   4.0   -0.07    4.12    3.83   -82.12108   123.13255    55.51857
   407  C   4.0   -0.08    4.12    3.85   -85.09367   124.49965    58.97299
   408  H   1.0    0.09    1.07    1.44   -80.57279   118.84117    59.50401
   409  H   1.0    0.05    1.07    1.44   -77.80796   122.77207    57.45554
   410  H   1.0    0.06    1.06    1.44   -81.89440   122.08521    61.18964
   411  H   1.0    0.04    1.04    1.43   -80.19661   124.99562    61.37483
   412  H   1.0    0.05    1.06    1.44   -81.77042   126.44978    57.64452
   413  H   1.0    0.04    1.00    1.43   -83.35259   124.02686    54.13151
   414  H   1.0    0.04    1.00    1.43   -80.16129   123.24267    54.89307
   415  H   1.0    0.04    1.00    1.43   -82.66685   121.16303    55.77747
   416  H   1.0    0.04    1.00    1.43   -86.30954   125.27364    57.50279
   417  H   1.0    0.04    1.00    1.43   -85.64283   122.55827    59.38684
   418  H   1.0    0.04    1.00    1.43   -85.23388   125.64763    60.67753
   419  N   5.0   -0.19    3.22    1.96   -71.50086   119.40997    62.87339
   420  C   4.0    0.03    4.32    4.24   -69.15398   118.64852    61.62995
   421  C   4.0    0.15    3.42    3.08   -68.38132   120.40632    59.47566
   422  O   6.0   -0.33    1.52    1.80   -66.15135   121.02597    59.15441
   423  C   4.0   -0.03    4.34    4.28   -69.42372   115.97411    60.60572
   424  C   4.0   -0.04    4.24    4.08   -69.34322   113.94414    62.59371
   425  C   4.0    0.15    3.23    3.04   -68.68205   111.40435    61.46743
   426  O   6.0   -0.30    1.21    1.80   -69.00666   110.98951    59.18086
   427  N   5.0   -0.19    3.16    1.95   -67.73291   109.68459    63.06236
   428  H   1.0    0.11    1.04    1.43   -72.89575   118.08998    62.71087
   429  H   1.0    0.05    1.06    1.44   -67.66574   118.71666    63.05291
   430  H   1.0    0.06    1.04    1.43   -71.23274   115.82278    59.63251
   431  H   1.0    0.06    1.04    1.43   -67.88230   115.61660    59.28669
   432  H   1.0    0.04    1.03    1.43   -67.91504   114.42227    63.99966
   433  H   1.0    0.05    1.03    1.43   -71.19115   113.79345    63.49133
   434  H   1.0    0.08    1.02    1.43   -67.49398   110.12489    64.92374
   435  H   1.0    0.09    1.02    1.43   -67.24871   107.93433    62.41607
   436  N   5.0   -0.13    3.54    2.10   -70.24256   121.16232    57.97333
   437  C   4.0    0.04    4.43    4.43   -69.80201   122.87401    55.87384
   438  C   4.0    0.16    3.49    3.11   -69.08274   125.43508    56.96232
   439  O   6.0   -0.31    1.38    1.80   -67.11522   126.49211    56.28580
   440  C   4.0   -0.04    4.37    4.33   -72.19660   123.08039    54.26380
   441  C   4.0   -0.02    3.49    3.11   -72.60201   120.99492    52.31927
   442  C   4.0   -0.05    3.44    3.09   -73.01985   121.59402    49.78515
   443  C   4.0   -0.03    3.45    3.10   -72.61341   118.43539    53.00713
   444  C   4.0   -0.04    3.41    3.08   -73.41663   119.70868    47.97668
   445  C   4.0   -0.05    3.41    3.08   -73.00114   116.53173    51.20433
   446  C   4.0    0.06    3.42    3.09   -73.39855   117.18886    48.69288
   447  O   6.0   -0.25    2.12    1.84   -73.77946   115.34236    46.89386
   448  H   1.0    0.12    1.11    1.45   -72.08262   120.62086    58.16230
   449  H   1.0    0.05    1.06    1.44   -68.30124   122.17774    54.64741
   450  H   1.0    0.06    1.05    1.44   -73.82433   123.05787    55.52613
   451  H   1.0    0.04    1.07    1.44   -72.12678   124.86429    53.23578
   452  H   1.0    0.05    1.03    1.43   -73.03691   123.55245    49.20878
   453  H   1.0    0.07    1.05    1.44   -72.31919   117.92076    54.95921
   454  H   1.0    0.05    1.03    1.43   -73.73761   120.21476    46.02648
   455  H   1.0    0.05    1.03    1.43   -72.99113   114.56863    51.76369
   456  H   1.0    0.12    1.03    1.43   -73.71239   113.66708    47.68188
   457  N   5.0   -0.14    3.61    2.16   -70.68769   126.37043    58.68197
   458  C   4.0    0.03    4.39    4.37   -70.19874   128.63460    60.20509
   459  C   4.0    0.16    3.51    3.12   -67.41397   128.56736    60.87406
   460  O   6.0   -0.28    1.21    1.80   -66.03597   130.40989    60.46777
   461  C   4.0   -0.05    4.28    4.15   -71.85499   128.63073    62.60316
   462  C   4.0   -0.05    4.15    3.90   -72.28189   131.19456    63.86171
   463  C   4.0   -0.01    4.20    4.00   -74.27235   131.03887    65.95931
   464  N   5.0   -0.14    3.38    2.01   -73.26128   130.06890    68.34792
   465  C   4.0    0.09    3.33    3.06   -74.48342   130.11771    70.55512
   466  N   5.0   -0.18    3.23    1.96   -73.38193   129.18718    72.60926
   467  N   5.0   -0.18    3.25    1.97   -76.79939   131.08388    70.72898
   468  H   1.0    0.12    1.22    1.47   -72.39808   125.57735    59.07693
   469  H   1.0    0.04    1.06    1.44   -70.68773   130.36145    59.19598
   470  H   1.0    0.05    1.04    1.43   -73.70814   127.88517    62.10238
   471  H   1.0    0.05    1.03    1.43   -70.95964   127.41117    63.99966
   472  H   1.0    0.05    1.03    1.43   -70.51564   131.84628    64.69508
   473  H   1.0    0.04    1.03    1.43   -72.93569   132.54523    62.45009
   474  H   1.0    0.05    1.03    1.43   -75.02363   132.92370    66.30891
   475  H   1.0    0.04    1.03    1.43   -75.78559   129.77848    65.35271
   476  H   1.0    0.08    1.06    1.44   -71.49479   129.29996    68.32336
   477  H   1.0    0.08    1.02    1.43   -71.60996   128.43908    72.49776
   478  H   1.0    0.08    1.02    1.43   -74.30951   129.22085    74.29867
   479  H   1.0    0.08    1.03    1.43   -77.66486   131.79959    69.16239
   480  H   1.0    0.08    1.02    1.43   -77.70897   131.10715    72.42784
   481  N   5.0   -0.13    3.51    2.09   -66.59725   126.37636    61.80002
   482  C   4.0    0.04    4.40    4.39   -63.96313   125.95748    62.41229
   483  C   4.0    0.17    3.40    3.08   -62.29873   125.84319    60.03880
   484  O   6.0   -0.27    1.26    1.80   -60.78044   127.55454    59.64385
   485  C   4.0   -0.04    4.26    4.12   -63.64707   123.66277    64.15840
   486  C   4.0   -0.03    4.18    3.96   -64.85878   124.05468    66.76622
   487  C   4.0    0.25    3.11    3.03   -63.85784   122.28101    68.80524
   488  O   6.0   -0.28    1.17    1.80   -64.32046   122.82523    71.06346
   489  O   6.0   -0.28    1.18    1.80   -62.63070   120.35493    68.18163
   490  H   1.0    0.08    1.07    1.44   -67.72912   124.85432    62.14395
   491  H   1.0    0.06    1.07    1.44   -63.26166   127.57309    63.47999
   492  H   1.0    0.06    1.03    1.43   -64.53942   122.02645    63.28157
   493  H   1.0    0.06    1.03    1.43   -61.63826   123.30598    64.43619
   494  H   1.0    0.05    1.03    1.43   -64.49226   125.98586    67.38227
   495  H   1.0    0.05    1.03    1.43   -66.88839   123.74049    66.60560
   496  N   5.0   -0.14    3.48    2.06   -62.63163   123.93624    58.41741
   497  C   4.0    0.04    4.41    4.40   -60.88749   123.57078    56.27257
   498  C   4.0    0.17    3.43    3.09   -60.62850   125.88263    54.53592
   499  O   6.0   -0.28    1.27    1.80   -58.72739   126.18591    53.23012
   500  C   4.0   -0.04    4.24    4.07   -61.49711   121.15807    54.77591
   501  C   4.0   -0.03    4.01    3.64   -59.56062   120.45681    52.66131
   502  S   6.0   -0.02    2.48    3.10   -56.16918   120.87722    53.21500
   503  C   4.0   -0.07    3.87    3.42   -54.77774   119.05048    50.69977
   504  H   1.0    0.14    1.29    1.49   -64.05151   122.63722    58.52324
   505  H   1.0    0.06    1.08    1.44   -59.02523   123.25497    57.09461
   506  H   1.0    0.05    1.03    1.43   -61.56579   119.57645    56.09494
   507  H   1.0    0.05    1.03    1.43   -63.33156   121.40110    53.87262
   508  H   1.0    0.04    1.07    1.44   -59.82523   118.46025    52.22856
   509  H   1.0    0.06    1.10    1.44   -60.01586   121.60339    51.01158
   510  H   1.0    0.04    1.04    1.43   -52.72629   119.16440    50.84339
   511  H   1.0    0.04    1.04    1.43   -55.38558   117.09061    50.87930
   512  H   1.0    0.04    1.04    1.43   -55.39805   119.81667    48.89130
   513  N   5.0   -0.13    3.51    2.09   -62.52496   127.51871    54.55292
   514  C   4.0    0.04    4.41    4.39   -62.28761   129.92160    53.26035
   515  C   4.0    0.10    3.24    3.04   -60.48141   131.64783    54.64930
   516  O   6.0   -0.27    1.12    1.80   -58.67647   132.61980    53.55137
   517  C   4.0   -0.04    4.38    4.35   -64.84068   131.22541    52.97689
   518  C   4.0   -0.03    4.21    4.02   -66.33030   130.58418    50.58639
   519  C   4.0   -0.08    4.12    3.84   -67.65779   132.92606    49.57161
   520  C   4.0   -0.07    4.32    4.24   -64.59645   129.53950    48.60974
   521  H   1.0    0.13    1.15    1.45   -64.21806   127.23935    55.42976
   522  H   1.0    0.06    1.10    1.44   -61.56361   129.54287    51.36874
   523  H   1.0    0.06    1.04    1.43   -66.01359   130.69809    54.58694
   524  H   1.0    0.05    1.05    1.44   -64.52550   133.26042    52.97122
   525  H   1.0    0.04    1.06    1.44   -67.75469   129.16775    51.04181
   526  H   1.0    0.04    1.00    1.43   -68.70333   132.41903    47.87085
   527  H   1.0    0.04    1.00    1.43   -68.95269   133.63876    51.00591
   528  H   1.0    0.04    1.00    1.43   -66.24598   134.35848    49.12752
   529  H   1.0    0.04    1.03    1.43   -65.69328   129.09482    46.92410
   530  H   1.0    0.05    1.01    1.43   -63.16155   130.94768    48.16376
   531  H   1.0    0.05    1.04    1.43   -63.70327   127.83242    49.33728
   532  N   5.0   -0.22    3.20    1.95   -71.49433   136.24740    32.22581
   533  C   4.0    0.03    4.24    4.07   -72.55785   133.86108    31.40378
   534  C   4.0    0.07    3.19    3.04   -75.37778   134.03373    30.81041
   535  O   6.0   -0.30    1.12    1.80   -76.51580   132.18356    29.96570
   536  C   4.0   -0.04    4.42    4.42   -72.04654   131.82895    33.37099
   537  C   4.0   -0.05    4.07    3.75   -69.68026   130.31876    32.83430
   538  S   6.0   -0.06    2.62    3.10   -69.74482   127.29677    34.37821
   539  C   4.0   -0.07    3.96    3.55   -73.06446   126.57743    34.20813
   540  H   1.0    0.08    1.03    1.43   -71.76901   136.62201    34.09664
   541  H   1.0    0.04    1.07    1.44   -71.60111   133.26943    29.67846
   542  H   1.0    0.04    1.04    1.43   -71.82434   132.72405    35.21347
   543  H   1.0    0.05    1.10    1.44   -73.63874   130.52250    33.41067
   544  H   1.0    0.04    1.07    1.44   -69.51876   130.00513    30.80474
   545  H   1.0    0.04    1.07    1.44   -68.03886   131.35896    33.51838
   546  H   1.0    0.04    1.04    1.43   -73.40029   124.74854    35.09442
   547  H   1.0    0.04    1.05    1.44   -74.11951   128.04194    35.19835
   548  H   1.0    0.04    1.04    1.43   -73.63713   126.51529    32.22959
   549  H   1.0    0.09    1.08    1.44   -63.34606   119.26731    37.65039
   550  H   1.0    0.06    1.04    1.44   -84.57649   136.90848    49.43058
   551  H   1.0    0.10    1.07    1.44   -87.46952   135.96332    53.89381
   552  H   1.0    0.07    1.04    1.44   -79.80254   138.01675    57.60452
   553  H   1.0    0.09    1.07    1.44   -96.96193   106.67710    60.05768
   554  H   1.0    0.05    1.04    1.43   -93.11229   109.82124    65.24972
   555  H   1.0    0.09    1.07    1.44   -87.80700   108.07144    65.84940
   556  H   1.0    0.06    1.05    1.44   -76.25975   122.06735    62.90799
   557  H   1.0    0.10    1.07    1.44   -71.21097   119.65655    64.53101
   558  H   1.0    0.07    1.05    1.44   -60.74593   132.01261    56.48452
   559  H   1.0    0.09    1.07    1.44   -69.81527   136.24395    31.95503
   560  H   1.0    0.05    1.04    1.44   -76.30835   135.65154    31.10666

  Z AO/shell   Hii/eV     exponent
  1     Wed Apr 25 08:07:45 CEST 2018   EN: 2.200 GM2: 0.406  GM3: 0.0800  RAES: 1.40
     1s    -10.707211    1.230000
  6     Wed Apr 25 08:07:45 CEST 2018   EN: 2.550 GM2: 0.538  GM3: 0.1500  RAES: 3.00
     2s    -13.970922    2.096432
     2p    -10.063292    1.800000
  7     Wed Apr 25 08:07:45 CEST 2018   EN: 3.040 GM2: 0.461  GM3:-0.0640  RAES: 1.90
     2s    -16.686243    2.339881
     2p    -12.523956    2.014332
  8     Wed Apr 25 08:07:45 CEST 2018   EN: 3.440 GM2: 0.452  GM3:-0.0517  RAES: 1.80
     2s    -20.229985    2.439742
     2p    -15.503117    2.137023
 16     Tue Apr 24 11:44:34 CEST 2018   EN: 2.580 GM2: 0.340  GM3:-0.0502  RAES: 3.10
     3s    -20.029654    1.981333
     3p    -11.377694    2.025643
     3d     -0.420282    1.702555
 no old-style atom pair restraining (fixing) potential

molecular fragmentation (1/2 indicates fragments):
111111111111111111111111111111111111111111111111111111111111111111111111
111111111111111111111111111111111111111111111111111111111111111111111111
111111111111111111111111111111111111111111111111111111111111111111111111
111111111111111111111111111111111111111122222222222222222222222222222222
222222222222222222222222222222222222222222222222222222222222222222222222
222222222222222222222222222222222222222222222222222222222222222222222222
222222222222222222222222222222222222222222222222222222222222222222222222
22222222222222222222222222222222222222222222112222222222
# atoms in fragment 1/2:   258   302
 fragment masses (1/2) :     1843.10     2065.58
CMA distance (Bohr)    :  18.232
constraining FC (au)   :  0.0500
           ------------------------------------------------- 
          |        Self-Consistent Charge Iterations        |
           ------------------------------------------------- 

 Ncao       : 1394
 Nao        : 1390
 Nshell     : 834
 Nel        : 1526
 T(el)      :   500.0
 intcut     :    35.0
 scfconv/Eh :  0.100E-06
   qconv/e  :  0.100E-04
 intneglect :  0.100E-08
 broydamp   :      0.400
 iter      E             dE          RMSdq      gap      omega  full diag
   1   -872.1313045 -0.872131E+03  0.470E+00    2.69       0.0  T
   2   -874.2467902 -0.211549E+01  0.220E+00    1.49       1.0  T
   3   -874.3719413 -0.125151E+00  0.123E+00    1.62       1.0  T
   4   -874.5160592 -0.144118E+00  0.266E-01    1.17       1.0  T
   5   -874.5241951 -0.813586E-02  0.137E-01    1.37       1.0  T
   6   -874.5255342 -0.133913E-02  0.570E-02    1.42       1.0  T
   7   -874.5260345 -0.500253E-03  0.242E-02    1.44       1.0  T
   8   -874.5260800 -0.454938E-04  0.127E-02    1.45       1.0  T
   9   -874.5261009 -0.209860E-04  0.572E-03    1.46       1.0  T
  10   -874.5261041 -0.315249E-05  0.281E-03    1.46       1.5  T
  11   -874.5261049 -0.788098E-06  0.126E-03    1.47       3.4  T
  12   -874.5261050 -0.145183E-06  0.628E-04    1.47       6.7  T
  13   -874.5261051 -0.407827E-07  0.297E-04    1.47      14.2  T
  14   -874.5261051 -0.828800E-08  0.134E-04    1.47      31.5  T
  15   -874.5261051 -0.230386E-08  0.595E-05    1.47      71.1  T
  16   -874.5261051 -0.394380E-09  0.282E-05    1.47     149.7  T
speedup  0.79
cpu  time for SCC   23.78 s
wall time for SCC   30.28 s

   *** convergence criteria satisfied after 16 iterations ***

          eigenvalues
 #    :         751        752        753        754        755        756        757        758
 occ. :        2.000      2.000      2.000      2.000      2.000      2.000      2.000      2.000
 eps  :        -9.892     -9.880     -9.870     -9.791     -9.786     -9.777     -9.679     -9.668
 #    :         759        760        761        762        763        764        765        766
 occ. :        2.000      2.000      2.000      2.000      2.000      0.000      0.000      0.000
 eps  :        -9.660     -9.602     -9.378     -9.351     -9.336     -7.868     -7.853     -7.807
 #    :         767        768        769        770        771        772        773        774
 occ. :        0.000      0.000      0.000      0.000      0.000      0.000      0.000      0.000
 eps  :        -7.799     -7.710     -7.512     -6.747     -6.576     -6.562     -6.457     -6.408


   #   Z            q   n(s)   n(p)   n(d)      C6AA      α(0)
   1   7 N     -0.394  1.323  4.071  0.000    30.198     8.161
   2   6 C      0.027  1.052  2.921  0.000    20.138     6.391
   3   6 C      0.266  1.047  2.687  0.000    22.512     7.770
   4   8 O     -0.487  1.732  4.754  0.000    23.481     6.497
   5   6 C     -0.083  1.059  3.024  0.000    22.078     6.688
   6   6 C     -0.001  1.083  2.918  0.000    28.053     8.687
   7   6 C     -0.046  1.090  2.956  0.000    29.131     8.851
   8   6 C     -0.051  1.088  2.963  0.000    29.257     8.870
   9   6 C     -0.086  1.093  2.994  0.000    30.165     9.006
  10   6 C     -0.074  1.083  2.991  0.000    29.843     8.958
  11   6 C      0.141  1.049  2.810  0.000    24.917     8.180
  12   8 O     -0.437  1.734  4.703  0.000    21.577     6.271
  13   1 H      0.173  0.827  0.000  0.000     1.257     1.756
  14   1 H      0.049  0.951  0.000  0.000     2.338     2.391
  15   1 H      0.072  0.928  0.000  0.000     2.062     2.245
  16   1 H      0.060  0.940  0.000  0.000     2.196     2.317
  17   1 H      0.052  0.948  0.000  0.000     2.300     2.372
  18   1 H      0.044  0.956  0.000  0.000     2.391     2.418
  19   1 H      0.091  0.909  0.000  0.000     1.868     2.138
  20   1 H      0.029  0.971  0.000  0.000     2.593     2.518
  21   1 H      0.311  0.689  0.000  0.000     0.688     1.303
  22   7 N     -0.160  1.243  3.917  0.000    24.463     7.346
  23   6 C      0.002  1.064  2.935  0.000    20.552     6.454
  24   6 C      0.281  1.036  2.683  0.000    22.242     7.723
  25   8 O     -0.485  1.745  4.740  0.000    23.454     6.493
  26   6 C     -0.094  1.058  3.037  0.000    22.294     6.721
  27   6 C     -0.085  1.051  3.034  0.000    22.117     6.696
  28   6 C     -0.030  1.056  2.974  0.000    21.196     6.569
  29   7 N     -0.142  1.209  3.932  0.000    24.069     7.286
  30   6 C      0.230  1.018  2.752  0.000    23.163     7.880
  31   7 N     -0.247  1.232  4.016  0.000    26.446     7.638
  32   7 N     -0.256  1.238  4.018  0.000    26.654     7.668
  33   1 H      0.236  0.764  0.000  0.000     0.939     1.518
  34   1 H      0.098  0.902  0.000  0.000     1.800     2.098
  35   1 H      0.095  0.905  0.000  0.000     1.833     2.117
  36   1 H      0.068  0.932  0.000  0.000     2.109     2.271
  37   1 H      0.064  0.936  0.000  0.000     2.154     2.295
  38   1 H      0.082  0.918  0.000  0.000     1.959     2.189
  39   1 H      0.095  0.905  0.000  0.000     1.828     2.114
  40   1 H      0.079  0.921  0.000  0.000     1.987     2.204
  41   1 H      0.224  0.776  0.000  0.000     0.991     1.559
  42   1 H      0.245  0.755  0.000  0.000     0.903     1.488
  43   1 H      0.254  0.746  0.000  0.000     0.867     1.459
  44   1 H      0.250  0.750  0.000  0.000     0.884     1.473
  45   1 H      0.257  0.743  0.000  0.000     0.858     1.451
  46   7 N     -0.181  1.245  3.936  0.000    24.932     7.416
  47   6 C      0.021  1.062  2.917  0.000    20.235     6.406
  48   6 C      0.274  1.040  2.686  0.000    22.376     7.747
  49   8 O     -0.503  1.761  4.741  0.000    23.846     6.547
  50   6 C     -0.054  1.050  3.004  0.000    21.537     6.606
  51   6 C     -0.095  1.067  3.028  0.000    22.310     6.725
  52   6 C      0.370  1.023  2.607  0.000    20.724     7.450
  53   8 O     -0.652  1.773  4.880  0.000    27.434     7.022
  54   8 O     -0.669  1.785  4.884  0.000    27.889     7.080
  55   1 H      0.216  0.784  0.000  0.000     1.027     1.587
  56   1 H      0.079  0.921  0.000  0.000     1.987     2.204
  57   1 H      0.052  0.948  0.000  0.000     2.293     2.368
  58   1 H      0.042  0.958  0.000  0.000     2.429     2.437
  59   1 H      0.036  0.964  0.000  0.000     2.500     2.473
  60   1 H      0.044  0.956  0.000  0.000     2.395     2.420
  61   7 N     -0.184  1.247  3.937  0.000    24.981     7.423
  62   6 C      0.027  1.056  2.917  0.000    20.112     6.385
  63   6 C      0.277  1.038  2.685  0.000    22.311     7.735
  64   8 O     -0.506  1.758  4.748  0.000    23.928     6.558
  65   6 C     -0.071  1.054  3.017  0.000    21.846     6.652
  66   6 C     -0.019  1.062  2.957  0.000    20.924     6.514
  67  16 S     -0.260  1.928  4.263  0.069   152.252    20.768
  68   6 C     -0.051  1.051  3.000  0.000    21.556     6.623
  69   1 H      0.217  0.783  0.000  0.000     1.025     1.586
  70   1 H      0.074  0.926  0.000  0.000     2.039     2.233
  71   1 H      0.063  0.937  0.000  0.000     2.170     2.303
  72   1 H      0.063  0.937  0.000  0.000     2.163     2.300
  73   1 H      0.062  0.938  0.000  0.000     2.181     2.309
  74   1 H      0.072  0.928  0.000  0.000     2.066     2.248
  75   1 H      0.060  0.940  0.000  0.000     2.200     2.320
  76   1 H      0.070  0.930  0.000  0.000     2.084     2.258
  77   1 H      0.050  0.950  0.000  0.000     2.318     2.381
  78   7 N     -0.221  1.271  3.951  0.000    25.826     7.548
  79   6 C      0.025  1.053  2.922  0.000    20.151     6.391
  80   6 C      0.285  1.038  2.677  0.000    22.180     7.713
  81   8 O     -0.505  1.755  4.751  0.000    23.901     6.555
  82   6 C     -0.094  1.061  3.033  0.000    22.263     6.714
  83   6 C     -0.015  1.051  2.964  0.000    20.807     6.488
  84   6 C     -0.120  1.048  3.072  0.000    22.846     6.813
  85   6 C     -0.126  1.046  3.081  0.000    22.973     6.834
  86   1 H      0.272  0.728  0.000  0.000     0.803     1.403
  87   1 H      0.081  0.919  0.000  0.000     1.973     2.196
  88   1 H      0.069  0.931  0.000  0.000     2.097     2.265
  89   1 H      0.059  0.941  0.000  0.000     2.215     2.327
  90   1 H      0.050  0.950  0.000  0.000     2.316     2.380
  91   1 H      0.046  0.954  0.000  0.000     2.376     2.411
  92   1 H      0.047  0.953  0.000  0.000     2.358     2.401
  93   1 H      0.041  0.959  0.000  0.000     2.436     2.441
  94   1 H      0.055  0.945  0.000  0.000     2.256     2.349
  95   1 H      0.041  0.959  0.000  0.000     2.433     2.439
  96   1 H      0.047  0.953  0.000  0.000     2.362     2.403
  97   7 N     -0.189  1.251  3.938  0.000    25.096     7.440
  98   6 C      0.019  1.064  2.917  0.000    20.264     6.410
  99   6 C      0.283  1.042  2.676  0.000    22.212     7.717
 100   8 O     -0.501  1.745  4.756  0.000    23.803     6.541
 101   6 C     -0.031  1.069  2.962  0.000    21.085     6.531
 102   6 C     -0.070  1.052  3.019  0.000    21.846     6.654
 103   6 C     -0.116  1.041  3.075  0.000    22.787     6.807
 104   6 C     -0.123  1.044  3.080  0.000    22.927     6.829
 105   1 H      0.244  0.756  0.000  0.000     0.908     1.493
 106   1 H      0.063  0.937  0.000  0.000     2.164     2.300
 107   1 H      0.055  0.945  0.000  0.000     2.256     2.349
 108   1 H      0.040  0.960  0.000  0.000     2.444     2.445
 109   1 H      0.050  0.950  0.000  0.000     2.314     2.379
 110   1 H      0.075  0.925  0.000  0.000     2.027     2.226
 111   1 H      0.021  0.979  0.000  0.000     2.714     2.576
 112   1 H      0.046  0.954  0.000  0.000     2.373     2.409
 113   1 H      0.065  0.935  0.000  0.000     2.138     2.286
 114   1 H      0.053  0.947  0.000  0.000     2.287     2.365
 115   1 H      0.053  0.947  0.000  0.000     2.281     2.362
 116   7 N     -0.177  1.250  3.927  0.000    24.832     7.401
 117   6 C      0.032  1.059  2.909  0.000    20.043     6.375
 118   6 C      0.283  1.037  2.681  0.000    22.213     7.718
 119   8 O     -0.533  1.757  4.776  0.000    24.519     6.639
 120   6 C     -0.122  1.048  3.074  0.000    22.888     6.822
 121   1 H      0.203  0.797  0.000  0.000     1.092     1.637
 122   1 H      0.062  0.938  0.000  0.000     2.172     2.305
 123   1 H      0.054  0.946  0.000  0.000     2.271     2.356
 124   1 H      0.097  0.903  0.000  0.000     1.817     2.108
 125   1 H      0.061  0.939  0.000  0.000     2.185     2.311
 126   7 N     -0.182  1.253  3.929  0.000    24.937     7.417
 127   6 C      0.039  1.049  2.913  0.000    19.913     6.352
 128   6 C      0.279  1.042  2.679  0.000    22.286     7.731
 129   8 O     -0.505  1.740  4.765  0.000    23.904     6.555
 130   6 C     -0.100  1.062  3.038  0.000    22.407     6.739
 131   6 C      0.364  1.027  2.609  0.000    20.827     7.469
 132   8 O     -0.661  1.787  4.873  0.000    27.658     7.051
 133   8 O     -0.619  1.734  4.885  0.000    26.583     6.913
 134   1 H      0.229  0.771  0.000  0.000     0.971     1.544
 135   1 H      0.073  0.927  0.000  0.000     2.058     2.243
 136   1 H      0.049  0.951  0.000  0.000     2.337     2.390
 137   1 H      0.064  0.936  0.000  0.000     2.153     2.294
 138   7 N     -0.204  1.255  3.949  0.000    25.442     7.491
 139   6 C     -0.024  1.049  2.975  0.000    21.080     6.549
 140   6 C      0.282  1.036  2.682  0.000    22.217     7.719
 141   8 O     -0.513  1.741  4.772  0.000    24.072     6.578
 142   1 H      0.224  0.776  0.000  0.000     0.990     1.559
 143   1 H      0.085  0.915  0.000  0.000     1.932     2.174
 144   1 H      0.078  0.922  0.000  0.000     1.999     2.211
 145   7 N     -0.179  1.247  3.932  0.000    24.884     7.409
 146   6 C      0.025  1.057  2.918  0.000    20.131     6.385
 147   6 C      0.275  1.040  2.685  0.000    22.349     7.742
 148   8 O     -0.488  1.738  4.750  0.000    23.521     6.502
 149   6 C     -0.015  1.055  2.960  0.000    20.808     6.487
 150   6 C     -0.074  1.050  3.024  0.000    21.897     6.661
 151   6 C     -0.128  1.050  3.079  0.000    23.012     6.838
 152   6 C     -0.102  1.037  3.065  0.000    22.513     6.766
 153   1 H      0.223  0.777  0.000  0.000     0.995     1.562
 154   1 H      0.051  0.949  0.000  0.000     2.307     2.375
 155   1 H      0.049  0.951  0.000  0.000     2.337     2.391
 156   1 H      0.051  0.949  0.000  0.000     2.303     2.373
 157   1 H      0.041  0.959  0.000  0.000     2.438     2.442
 158   1 H      0.073  0.927  0.000  0.000     2.054     2.241
 159   1 H      0.037  0.963  0.000  0.000     2.486     2.466
 160   1 H      0.065  0.935  0.000  0.000     2.146     2.291
 161   1 H      0.036  0.964  0.000  0.000     2.501     2.473
 162   1 H      0.035  0.965  0.000  0.000     2.511     2.478
 163   1 H      0.052  0.948  0.000  0.000     2.299     2.371
 164   7 N     -0.182  1.250  3.932  0.000    24.944     7.418
 165   6 C      0.044  1.050  2.906  0.000    19.841     6.342
 166   6 C      0.271  1.044  2.685  0.000    22.427     7.756
 167   8 O     -0.498  1.746  4.753  0.000    23.748     6.534
 168   6 C     -0.088  1.064  3.024  0.000    22.167     6.702
 169   6 C      0.365  1.022  2.613  0.000    20.809     7.465
 170   8 O     -0.628  1.755  4.873  0.000    26.808     6.942
 171   8 O     -0.645  1.775  4.870  0.000    27.256     7.000
 172   1 H      0.197  0.803  0.000  0.000     1.122     1.660
 173   1 H      0.045  0.955  0.000  0.000     2.384     2.414
 174   1 H      0.031  0.969  0.000  0.000     2.573     2.509
 175   1 H      0.027  0.973  0.000  0.000     2.627     2.535
 176   7 N     -0.085  1.239  3.846  0.000    22.903     7.108
 177   6 C      0.016  1.065  2.919  0.000    20.286     6.409
 178   6 C      0.285  1.038  2.678  0.000    22.177     7.711
 179   8 O     -0.484  1.743  4.741  0.000    23.433     6.490
 180   6 C     -0.080  1.057  3.023  0.000    22.000     6.673
 181   6 C     -0.073  1.044  3.029  0.000    21.864     6.652
 182   6 C     -0.006  1.050  2.956  0.000    20.718     6.486
 183   1 H      0.083  0.917  0.000  0.000     1.952     2.185
 184   1 H      0.060  0.940  0.000  0.000     2.200     2.319
 185   1 H      0.081  0.919  0.000  0.000     1.967     2.193
 186   1 H      0.051  0.949  0.000  0.000     2.305     2.374
 187   1 H      0.093  0.907  0.000  0.000     1.849     2.126
 188   1 H      0.053  0.947  0.000  0.000     2.280     2.361
 189   1 H      0.084  0.916  0.000  0.000     1.942     2.179
 190   7 N     -0.173  1.249  3.924  0.000    24.735     7.386
 191   6 C      0.027  1.056  2.917  0.000    20.136     6.390
 192   6 C      0.286  1.037  2.678  0.000    22.160     7.708
 193   8 O     -0.474  1.742  4.732  0.000    23.217     6.460
 194   6 C     -0.107  1.064  3.043  0.000    22.546     6.760
 195   6 C      0.283  1.041  2.676  0.000    22.203     7.715
 196   8 O     -0.491  1.750  4.741  0.000    23.581     6.511
 197   7 N     -0.283  1.270  4.013  0.000    27.310     7.761
 198   1 H      0.223  0.777  0.000  0.000     0.996     1.563
 199   1 H      0.096  0.904  0.000  0.000     1.824     2.112
 200   1 H      0.098  0.902  0.000  0.000     1.804     2.100
 201   1 H      0.050  0.950  0.000  0.000     2.314     2.379
 202   1 H      0.254  0.746  0.000  0.000     0.868     1.459
 203   1 H      0.224  0.776  0.000  0.000     0.992     1.560
 204   7 N     -0.187  1.248  3.939  0.000    25.058     7.435
 205   6 C      0.022  1.068  2.910  0.000    20.211     6.403
 206   6 C      0.280  1.042  2.678  0.000    22.254     7.725
 207   8 O     -0.503  1.746  4.757  0.000    23.849     6.548
 208   6 C     -0.058  1.054  3.005  0.000    21.626     6.621
 209   6 C     -0.082  1.061  3.021  0.000    22.059     6.687
 210   6 C      0.365  1.024  2.611  0.000    20.810     7.465
 211   8 O     -0.629  1.764  4.865  0.000    26.850     6.947
 212   8 O     -0.653  1.778  4.875  0.000    27.468     7.027
 213   1 H      0.192  0.808  0.000  0.000     1.147     1.678
 214   1 H      0.073  0.927  0.000  0.000     2.053     2.240
 215   1 H      0.051  0.949  0.000  0.000     2.312     2.378
 216   1 H      0.049  0.951  0.000  0.000     2.335     2.390
 217   1 H      0.002  0.998  0.000  0.000     3.021     2.718
 218   1 H      0.025  0.975  0.000  0.000     2.655     2.548
 219   7 N     -0.167  1.248  3.919  0.000    24.615     7.369
 220   6 C      0.032  1.058  2.909  0.000    20.029     6.372
 221   6 C      0.271  1.037  2.691  0.000    22.419     7.754
 222   8 O     -0.467  1.733  4.735  0.000    22.984     6.432
 223   6 C     -0.083  1.060  3.023  0.000    22.079     6.688
 224   6 C     -0.012  1.056  2.956  0.000    20.749     6.479
 225   6 C     -0.123  1.046  3.077  0.000    22.921     6.827
 226   6 C     -0.145  1.050  3.095  0.000    23.344     6.888
 227   1 H      0.207  0.793  0.000  0.000     1.071     1.621
 228   1 H      0.068  0.932  0.000  0.000     2.109     2.271
 229   1 H      0.074  0.926  0.000  0.000     2.044     2.236
 230   1 H      0.073  0.927  0.000  0.000     2.054     2.241
 231   1 H      0.029  0.971  0.000  0.000     2.608     2.525
 232   1 H      0.034  0.966  0.000  0.000     2.529     2.487
 233   1 H      0.011  0.989  0.000  0.000     2.878     2.653
 234   1 H      0.068  0.932  0.000  0.000     2.107     2.270
 235   1 H      0.047  0.953  0.000  0.000     2.358     2.402
 236   1 H      0.064  0.936  0.000  0.000     2.148     2.292
 237   1 H      0.058  0.942  0.000  0.000     2.217     2.328
 238   7 N     -0.156  1.244  3.912  0.000    24.374     7.332
 239   6 C      0.024  1.059  2.917  0.000    20.176     6.396
 240   6 C      0.202  1.088  2.710  0.000    23.697     7.972
 241   8 O     -0.342  1.748  4.593  0.000    20.552     6.078
 242   6 C     -0.080  1.059  3.021  0.000    22.031     6.682
 243   6 C     -0.023  1.060  2.964  0.000    20.957     6.512
 244   6 C     -0.115  1.044  3.070  0.000    22.753     6.802
 245   6 C     -0.124  1.045  3.079  0.000    22.937     6.830
 246   1 H      0.231  0.769  0.000  0.000     0.963     1.537
 247   1 H      0.097  0.903  0.000  0.000     1.816     2.107
 248   1 H      0.053  0.947  0.000  0.000     2.288     2.365
 249   1 H      0.070  0.930  0.000  0.000     2.082     2.257
 250   1 H      0.047  0.953  0.000  0.000     2.353     2.399
 251   1 H      0.040  0.960  0.000  0.000     2.444     2.445
 252   1 H      0.036  0.964  0.000  0.000     2.504     2.474
 253   1 H      0.057  0.943  0.000  0.000     2.240     2.340
 254   1 H      0.042  0.958  0.000  0.000     2.421     2.433
 255   1 H      0.058  0.942  0.000  0.000     2.218     2.329
 256   1 H      0.037  0.963  0.000  0.000     2.490     2.467
 257   7 N     -0.386  1.318  4.069  0.000    30.000     8.135
 258   6 C      0.025  1.057  2.919  0.000    20.173     6.397
 259   6 C      0.275  1.043  2.683  0.000    22.352     7.742
 260   8 O     -0.514  1.751  4.763  0.000    24.100     6.582
 261   6 C      0.078  1.039  2.883  0.000    19.478     6.320
 262   8 O     -0.513  1.718  4.795  0.000    23.179     6.499
 263   1 H      0.145  0.855  0.000  0.000     1.439     1.879
 264   1 H      0.027  0.973  0.000  0.000     2.636     2.539
 265   1 H      0.048  0.952  0.000  0.000     2.349     2.397
 266   1 H      0.003  0.997  0.000  0.000     3.011     2.713
 267   1 H      0.345  0.655  0.000  0.000     0.589     1.199
 268   7 N     -0.155  1.241  3.915  0.000    24.362     7.331
 269   6 C      0.021  1.057  2.922  0.000    20.227     6.404
 270   6 C      0.205  1.087  2.708  0.000    23.652     7.965
 271   8 O     -0.362  1.751  4.611  0.000    20.933     6.134
 272   6 C     -0.070  1.052  3.018  0.000    21.808     6.643
 273   6 C     -0.029  1.064  2.965  0.000    21.091     6.539
 274  16 S     -0.198  1.909  4.233  0.056   149.481    20.578
 275   6 C     -0.062  1.053  3.009  0.000    21.765     6.655
 276   1 H      0.227  0.773  0.000  0.000     0.977     1.548
 277   1 H      0.109  0.891  0.000  0.000     1.701     2.040
 278   1 H      0.072  0.928  0.000  0.000     2.069     2.249
 279   1 H      0.067  0.933  0.000  0.000     2.117     2.275
 280   1 H      0.068  0.932  0.000  0.000     2.110     2.271
 281   1 H      0.078  0.922  0.000  0.000     2.000     2.212
 282   1 H      0.054  0.946  0.000  0.000     2.274     2.358
 283   1 H      0.057  0.943  0.000  0.000     2.239     2.340
 284   1 H      0.046  0.954  0.000  0.000     2.372     2.408
 285   7 N     -0.388  1.324  4.064  0.000    30.034     8.139
 286   6 C      0.029  1.056  2.915  0.000    20.099     6.384
 287   6 C      0.188  1.094  2.718  0.000    23.972     8.018
 288   8 O     -0.348  1.754  4.593  0.000    20.665     6.095
 289   6 C     -0.025  1.058  2.967  0.000    20.976     6.514
 290   6 C     -0.125  1.045  3.080  0.000    22.954     6.830
 291   6 C     -0.114  1.041  3.073  0.000    22.718     6.794
 292   1 H      0.160  0.840  0.000  0.000     1.334     1.809
 293   1 H      0.054  0.946  0.000  0.000     2.269     2.356
 294   1 H      0.039  0.961  0.000  0.000     2.464     2.455
 295   1 H      0.053  0.947  0.000  0.000     2.288     2.366
 296   1 H      0.047  0.953  0.000  0.000     2.359     2.402
 297   1 H      0.047  0.953  0.000  0.000     2.358     2.401
 298   1 H      0.046  0.954  0.000  0.000     2.373     2.409
 299   1 H      0.043  0.957  0.000  0.000     2.411     2.428
 300   1 H      0.037  0.963  0.000  0.000     2.491     2.468
 301   7 N     -0.388  1.327  4.062  0.000    30.054     8.142
 302   6 C      0.020  1.056  2.924  0.000    20.249     6.408
 303   6 C      0.269  1.044  2.687  0.000    22.456     7.761
 304   8 O     -0.511  1.737  4.774  0.000    24.033     6.573
 305   6 C     -0.066  1.052  3.014  0.000    21.757     6.640
 306   6 C     -0.104  1.066  3.037  0.000    22.480     6.750
 307   6 C      0.361  1.030  2.608  0.000    20.872     7.477
 308   8 O     -0.656  1.782  4.874  0.000    27.543     7.036
 309   8 O     -0.662  1.784  4.878  0.000    27.698     7.056
 310   1 H      0.152  0.848  0.000  0.000     1.391     1.847
 311   1 H      0.045  0.955  0.000  0.000     2.382     2.414
 312   1 H      0.037  0.963  0.000  0.000     2.495     2.470
 313   1 H      0.048  0.952  0.000  0.000     2.350     2.397
 314   1 H      0.047  0.953  0.000  0.000     2.361     2.403
 315   1 H      0.027  0.973  0.000  0.000     2.631     2.537
 316   7 N     -0.159  1.246  3.914  0.000    24.450     7.344
 317   6 C      0.024  1.052  2.924  0.000    20.173     6.394
 318   6 C      0.275  1.041  2.684  0.000    22.344     7.741
 319   8 O     -0.485  1.739  4.747  0.000    23.464     6.494
 320   6 C     -0.095  1.057  3.038  0.000    22.302     6.722
 321   6 C     -0.084  1.047  3.037  0.000    22.104     6.693
 322   6 C     -0.029  1.054  2.975  0.000    21.165     6.563
 323   7 N     -0.140  1.209  3.931  0.000    24.035     7.281
 324   6 C      0.233  1.016  2.751  0.000    23.109     7.871
 325   7 N     -0.237  1.226  4.010  0.000    26.190     7.601
 326   7 N     -0.238  1.228  4.009  0.000    26.213     7.604
 327   1 H      0.237  0.763  0.000  0.000     0.936     1.515
 328   1 H      0.060  0.940  0.000  0.000     2.195     2.317
 329   1 H      0.063  0.937  0.000  0.000     2.163     2.300
 330   1 H      0.083  0.917  0.000  0.000     1.950     2.184
 331   1 H      0.078  0.922  0.000  0.000     1.999     2.211
 332   1 H      0.069  0.931  0.000  0.000     2.094     2.263
 333   1 H      0.100  0.900  0.000  0.000     1.781     2.087
 334   1 H      0.088  0.912  0.000  0.000     1.897     2.154
 335   1 H      0.231  0.769  0.000  0.000     0.960     1.535
 336   1 H      0.245  0.755  0.000  0.000     0.904     1.490
 337   1 H      0.217  0.783  0.000  0.000     1.025     1.586
 338   1 H      0.245  0.755  0.000  0.000     0.901     1.487
 339   1 H      0.222  0.778  0.000  0.000     0.999     1.566
 340   7 N     -0.168  1.237  3.931  0.000    24.633     7.371
 341   6 C      0.013  1.057  2.930  0.000    20.351     6.421
 342   6 C      0.271  1.038  2.691  0.000    22.423     7.755
 343   8 O     -0.481  1.743  4.738  0.000    23.371     6.482
 344   6 C      0.112  1.040  2.848  0.000    18.822     6.192
 345   8 O     -0.480  1.724  4.756  0.000    22.476     6.400
 346   6 C     -0.144  1.048  3.096  0.000    23.323     6.885
 347   1 H      0.241  0.759  0.000  0.000     0.920     1.503
 348   1 H      0.079  0.921  0.000  0.000     1.989     2.206
 349   1 H      0.044  0.956  0.000  0.000     2.402     2.424
 350   1 H      0.343  0.657  0.000  0.000     0.605     1.222
 351   1 H      0.063  0.937  0.000  0.000     2.165     2.301
 352   1 H      0.061  0.939  0.000  0.000     2.192     2.315
 353   1 H      0.061  0.939  0.000  0.000     2.188     2.313
 354   7 N     -0.169  1.239  3.930  0.000    24.651     7.374
 355   6 C      0.013  1.059  2.928  0.000    20.358     6.423
 356   6 C      0.276  1.037  2.687  0.000    22.334     7.739
 357   8 O     -0.494  1.746  4.748  0.000    23.646     6.520
 358   6 C     -0.096  1.057  3.039  0.000    22.331     6.726
 359   6 C     -0.086  1.050  3.036  0.000    22.136     6.698
 360   6 C     -0.036  1.058  2.978  0.000    21.288     6.583
 361   7 N     -0.141  1.213  3.929  0.000    24.055     7.284
 362   6 C      0.228  1.018  2.754  0.000    23.204     7.887
 363   7 N     -0.245  1.228  4.017  0.000    26.394     7.630
 364   7 N     -0.249  1.234  4.015  0.000    26.485     7.643
 365   1 H      0.206  0.794  0.000  0.000     1.076     1.625
 366   1 H      0.092  0.908  0.000  0.000     1.861     2.134
 367   1 H      0.074  0.926  0.000  0.000     2.041     2.234
 368   1 H      0.073  0.927  0.000  0.000     2.055     2.242
 369   1 H      0.064  0.936  0.000  0.000     2.151     2.294
 370   1 H      0.081  0.919  0.000  0.000     1.966     2.193
 371   1 H      0.108  0.892  0.000  0.000     1.710     2.045
 372   1 H      0.094  0.906  0.000  0.000     1.841     2.122
 373   1 H      0.238  0.762  0.000  0.000     0.930     1.511
 374   1 H      0.248  0.752  0.000  0.000     0.892     1.479
 375   1 H      0.233  0.767  0.000  0.000     0.952     1.528
 376   1 H      0.246  0.754  0.000  0.000     0.899     1.485
 377   1 H      0.235  0.765  0.000  0.000     0.946     1.524
 378   7 N     -0.181  1.248  3.932  0.000    24.913     7.413
 379   6 C      0.014  1.060  2.926  0.000    20.333     6.420
 380   6 C      0.277  1.037  2.685  0.000    22.307     7.735
 381   8 O     -0.475  1.734  4.741  0.000    23.227     6.462
 382   6 C     -0.094  1.054  3.040  0.000    22.278     6.718
 383   6 C     -0.072  1.047  3.026  0.000    21.875     6.658
 384   6 C     -0.091  1.048  3.042  0.000    22.222     6.711
 385   6 C     -0.044  1.056  2.987  0.000    21.448     6.610
 386   7 N     -0.140  1.236  3.904  0.000    24.028     7.280
 387   1 H      0.235  0.765  0.000  0.000     0.944     1.522
 388   1 H      0.082  0.918  0.000  0.000     1.958     2.188
 389   1 H      0.102  0.898  0.000  0.000     1.771     2.081
 390   1 H      0.054  0.946  0.000  0.000     2.267     2.354
 391   1 H      0.039  0.961  0.000  0.000     2.458     2.452
 392   1 H      0.050  0.950  0.000  0.000     2.318     2.381
 393   1 H      0.098  0.902  0.000  0.000     1.801     2.098
 394   1 H      0.059  0.941  0.000  0.000     2.206     2.323
 395   1 H      0.119  0.881  0.000  0.000     1.624     1.993
 396   1 H      0.109  0.891  0.000  0.000     1.709     2.044
 397   1 H      0.295  0.705  0.000  0.000     0.729     1.337
 398   1 H      0.282  0.718  0.000  0.000     0.769     1.373
 399   1 H      0.277  0.723  0.000  0.000     0.785     1.388
 400   7 N     -0.156  1.240  3.916  0.000    24.376     7.333
 401   6 C      0.017  1.055  2.928  0.000    20.292     6.414
 402   6 C      0.204  1.090  2.705  0.000    23.659     7.966
 403   8 O     -0.342  1.727  4.616  0.000    20.558     6.079
 404   6 C     -0.092  1.064  3.028  0.000    22.232     6.711
 405   6 C     -0.020  1.056  2.964  0.000    20.900     6.502
 406   6 C     -0.126  1.047  3.079  0.000    22.987     6.837
 407   6 C     -0.117  1.046  3.071  0.000    22.785     6.805
 408   1 H      0.211  0.789  0.000  0.000     1.050     1.605
 409   1 H      0.093  0.907  0.000  0.000     1.854     2.129
 410   1 H      0.090  0.910  0.000  0.000     1.883     2.146
 411   1 H      0.070  0.930  0.000  0.000     2.083     2.257
 412   1 H      0.049  0.951  0.000  0.000     2.336     2.390
 413   1 H      0.049  0.951  0.000  0.000     2.334     2.389
 414   1 H      0.046  0.954  0.000  0.000     2.375     2.410
 415   1 H      0.045  0.955  0.000  0.000     2.383     2.414
 416   1 H      0.044  0.956  0.000  0.000     2.397     2.421
 417   1 H      0.045  0.955  0.000  0.000     2.389     2.417
 418   1 H      0.044  0.956  0.000  0.000     2.397     2.421
 419   7 N     -0.394  1.321  4.073  0.000    30.212     8.163
 420   6 C      0.032  1.055  2.913  0.000    20.052     6.378
 421   6 C      0.265  1.049  2.686  0.000    22.521     7.771
 422   8 O     -0.512  1.739  4.773  0.000    24.019     6.572
 423   6 C     -0.060  1.046  3.014  0.000    21.651     6.623
 424   6 C     -0.095  1.053  3.042  0.000    22.310     6.724
 425   6 C      0.281  1.041  2.678  0.000    22.244     7.722
 426   8 O     -0.512  1.760  4.753  0.000    24.057     6.576
 427   7 N     -0.288  1.271  4.017  0.000    27.434     7.779
 428   1 H      0.183  0.817  0.000  0.000     1.197     1.714
 429   1 H      0.023  0.977  0.000  0.000     2.683     2.562
 430   1 H      0.075  0.925  0.000  0.000     2.035     2.231
 431   1 H      0.037  0.963  0.000  0.000     2.487     2.466
 432   1 H      0.051  0.949  0.000  0.000     2.306     2.375
 433   1 H      0.087  0.913  0.000  0.000     1.911     2.162
 434   1 H      0.229  0.771  0.000  0.000     0.970     1.543
 435   1 H      0.240  0.760  0.000  0.000     0.921     1.504
 436   7 N     -0.170  1.255  3.915  0.000    24.670     7.377
 437   6 C      0.022  1.059  2.919  0.000    20.207     6.400
 438   6 C      0.279  1.043  2.679  0.000    22.285     7.730
 439   8 O     -0.505  1.746  4.759  0.000    23.891     6.553
 440   6 C     -0.092  1.062  3.030  0.000    22.242     6.713
 441   6 C      0.002  1.083  2.915  0.000    27.991     8.678
 442   6 C     -0.044  1.090  2.955  0.000    29.104     8.847
 443   6 C     -0.050  1.093  2.956  0.000    29.230     8.866
 444   6 C     -0.064  1.077  2.987  0.000    29.591     8.920
 445   6 C     -0.073  1.080  2.992  0.000    29.811     8.953
 446   6 C      0.139  1.049  2.812  0.000    24.953     8.186
 447   8 O     -0.426  1.724  4.702  0.000    21.366     6.240
 448   1 H      0.262  0.738  0.000  0.000     0.840     1.436
 449   1 H      0.067  0.933  0.000  0.000     2.121     2.278
 450   1 H      0.090  0.910  0.000  0.000     1.881     2.145
 451   1 H      0.072  0.928  0.000  0.000     2.066     2.248
 452   1 H      0.055  0.945  0.000  0.000     2.259     2.350
 453   1 H      0.076  0.924  0.000  0.000     2.020     2.222
 454   1 H      0.055  0.945  0.000  0.000     2.264     2.353
 455   1 H      0.038  0.962  0.000  0.000     2.482     2.463
 456   1 H      0.305  0.695  0.000  0.000     0.707     1.321
 457   7 N     -0.213  1.264  3.950  0.000    25.649     7.522
 458   6 C      0.016  1.064  2.920  0.000    20.323     6.420
 459   6 C      0.290  1.034  2.676  0.000    22.084     7.696
 460   8 O     -0.506  1.762  4.744  0.000    23.909     6.556
 461   6 C     -0.096  1.062  3.033  0.000    22.321     6.726
 462   6 C     -0.080  1.051  3.028  0.000    22.025     6.682
 463   6 C     -0.032  1.057  2.975  0.000    21.237     6.576
 464   7 N     -0.143  1.211  3.933  0.000    24.102     7.291
 465   6 C      0.230  1.018  2.751  0.000    23.163     7.880
 466   7 N     -0.255  1.237  4.018  0.000    26.638     7.665
 467   7 N     -0.246  1.232  4.014  0.000    26.415     7.633
 468   1 H      0.281  0.719  0.000  0.000     0.772     1.376
 469   1 H      0.076  0.924  0.000  0.000     2.017     2.221
 470   1 H      0.091  0.909  0.000  0.000     1.867     2.137
 471   1 H      0.058  0.942  0.000  0.000     2.217     2.328
 472   1 H      0.064  0.936  0.000  0.000     2.148     2.292
 473   1 H      0.075  0.925  0.000  0.000     2.036     2.232
 474   1 H      0.100  0.900  0.000  0.000     1.789     2.092
 475   1 H      0.094  0.906  0.000  0.000     1.842     2.122
 476   1 H      0.213  0.787  0.000  0.000     1.040     1.598
 477   1 H      0.239  0.761  0.000  0.000     0.925     1.507
 478   1 H      0.261  0.739  0.000  0.000     0.841     1.436
 479   1 H      0.250  0.750  0.000  0.000     0.883     1.472
 480   1 H      0.260  0.740  0.000  0.000     0.845     1.440
 481   7 N     -0.172  1.239  3.934  0.000    24.728     7.386
 482   6 C      0.030  1.060  2.910  0.000    20.076     6.380
 483   6 C      0.282  1.043  2.675  0.000    22.229     7.720
 484   8 O     -0.532  1.759  4.773  0.000    24.496     6.636
 485   6 C     -0.055  1.051  3.005  0.000    21.570     6.612
 486   6 C     -0.090  1.066  3.025  0.000    22.224     6.712
 487   6 C      0.369  1.024  2.607  0.000    20.742     7.453
 488   8 O     -0.654  1.770  4.884  0.000    27.473     7.027
 489   8 O     -0.658  1.779  4.879  0.000    27.588     7.042
 490   1 H      0.199  0.801  0.000  0.000     1.113     1.653
 491   1 H      0.055  0.945  0.000  0.000     2.262     2.352
 492   1 H      0.048  0.952  0.000  0.000     2.342     2.393
 493   1 H      0.026  0.974  0.000  0.000     2.638     2.540
 494   1 H      0.030  0.970  0.000  0.000     2.593     2.518
 495   1 H      0.039  0.961  0.000  0.000     2.460     2.453
 496   7 N     -0.239  1.283  3.956  0.000    26.253     7.610
 497   6 C      0.039  1.058  2.903  0.000    19.926     6.357
 498   6 C      0.285  1.038  2.676  0.000    22.165     7.710
 499   8 O     -0.512  1.752  4.760  0.000    24.060     6.576
 500   6 C     -0.062  1.058  3.004  0.000    21.683     6.630
 501   6 C     -0.016  1.070  2.947  0.000    20.882     6.508
 502  16 S     -0.256  1.928  4.262  0.066   152.065    20.755
 503   6 C     -0.057  1.054  3.003  0.000    21.680     6.642
 504   1 H      0.272  0.728  0.000  0.000     0.798     1.397
 505   1 H      0.045  0.955  0.000  0.000     2.389     2.417
 506   1 H      0.057  0.943  0.000  0.000     2.231     2.336
 507   1 H      0.055  0.945  0.000  0.000     2.260     2.351
 508   1 H      0.056  0.944  0.000  0.000     2.241     2.341
 509   1 H      0.066  0.934  0.000  0.000     2.129     2.282
 510   1 H      0.079  0.921  0.000  0.000     1.990     2.206
 511   1 H      0.066  0.934  0.000  0.000     2.130     2.282
 512   1 H      0.053  0.947  0.000  0.000     2.288     2.365
 513   7 N     -0.193  1.257  3.936  0.000    25.193     7.455
 514   6 C      0.029  1.053  2.918  0.000    20.094     6.382
 515   6 C      0.213  1.085  2.703  0.000    23.502     7.940
 516   8 O     -0.381  1.754  4.627  0.000    21.303     6.188
 517   6 C     -0.076  1.057  3.019  0.000    21.943     6.667
 518   6 C     -0.009  1.050  2.959  0.000    20.702     6.471
 519   6 C     -0.124  1.048  3.076  0.000    22.929     6.827
 520   6 C     -0.132  1.051  3.081  0.000    23.087     6.849
 521   1 H      0.245  0.755  0.000  0.000     0.904     1.490
 522   1 H      0.099  0.901  0.000  0.000     1.796     2.096
 523   1 H      0.061  0.939  0.000  0.000     2.185     2.311
 524   1 H      0.054  0.946  0.000  0.000     2.268     2.355
 525   1 H      0.034  0.966  0.000  0.000     2.530     2.488
 526   1 H      0.059  0.941  0.000  0.000     2.211     2.326
 527   1 H      0.044  0.956  0.000  0.000     2.395     2.420
 528   1 H      0.046  0.954  0.000  0.000     2.377     2.411
 529   1 H      0.072  0.928  0.000  0.000     2.062     2.246
 530   1 H      0.046  0.954  0.000  0.000     2.374     2.409
 531   1 H      0.058  0.942  0.000  0.000     2.228     2.334
 532   7 N     -0.395  1.327  4.068  0.000    30.244     8.168
 533   6 C      0.033  1.055  2.912  0.000    20.041     6.376
 534   6 C      0.196  1.093  2.711  0.000    23.828     7.994
 535   8 O     -0.377  1.757  4.620  0.000    21.235     6.178
 536   6 C     -0.074  1.052  3.022  0.000    21.877     6.653
 537   6 C     -0.013  1.062  2.951  0.000    20.803     6.494
 538  16 S     -0.225  1.910  4.259  0.056   150.670    20.659
 539   6 C     -0.068  1.057  3.011  0.000    21.868     6.671
 540   1 H      0.162  0.838  0.000  0.000     1.325     1.803
 541   1 H      0.084  0.916  0.000  0.000     1.935     2.176
 542   1 H      0.046  0.954  0.000  0.000     2.369     2.407
 543   1 H      0.069  0.931  0.000  0.000     2.098     2.265
 544   1 H      0.056  0.944  0.000  0.000     2.244     2.343
 545   1 H      0.055  0.945  0.000  0.000     2.260     2.351
 546   1 H      0.061  0.939  0.000  0.000     2.185     2.312
 547   1 H      0.061  0.939  0.000  0.000     2.187     2.312
 548   1 H      0.071  0.929  0.000  0.000     2.077     2.253
 549   1 H      0.179  0.821  0.000  0.000     1.217     1.728
 550   1 H      0.070  0.930  0.000  0.000     2.082     2.256
 551   1 H      0.176  0.824  0.000  0.000     1.235     1.741
 552   1 H      0.073  0.927  0.000  0.000     2.056     2.242
 553   1 H      0.181  0.819  0.000  0.000     1.206     1.720
 554   1 H      0.083  0.917  0.000  0.000     1.945     2.181
 555   1 H      0.196  0.804  0.000  0.000     1.128     1.664
 556   1 H      0.102  0.898  0.000  0.000     1.765     2.077
 557   1 H      0.177  0.823  0.000  0.000     1.233     1.739
 558   1 H      0.061  0.939  0.000  0.000     2.191     2.315
 559   1 H      0.187  0.813  0.000  0.000     1.173     1.697
 560   1 H      0.077  0.923  0.000  0.000     2.014     2.219

 Mol. C6AA /au·bohr⁶  :    2959825.127750
 Mol. C8AA /au·bohr⁸  :   67269470.671811
 Mol. α(0) /au        :       2577.174068

 
molecular dipole:
                 x           y           z       tot (Debye)
 q only:       70.379    -114.478     -35.549
   full:       67.314    -116.537     -36.695     354.566
molecular quadrupole (traceless):
                xx          xy          yy          xz          yz          zz
 q only:     1162.718   12239.713  -10317.150    2936.391   -6765.892    9154.432
  q+dip:     2003.740   11921.028  -11024.732    2854.054   -7161.890    9020.992
   full:     2000.538   11920.104  -11020.544    2851.495   -7159.864    9020.006
speedup  0.79
cpu  time for grad   27.98 s
wall time for grad   35.58 s

SCC energy    :    -874.5482905
rep           :      10.2067007
ES            :       3.1126826
AES           :      -0.1130650
AXC           :       0.2886972
disp          :      -0.7728349
XB            :       0.0000000
fix           :       0.0000000
Gborn         :       0.0000000
Gsasa         :       0.0000000
Ghb           :       0.0000000
Gshift        :       0.0000000
Gsolv         :      -0.8763731     -549.93
Etot ala COSMO:    -874.5482905
grad norm     :       0.6207752
total E       :    -864.2655485
atomizationE  :     156.0789146    97941.00
(atE without considering molecular charge,
 total energy contains solvation terms)
H-L gap (eV)  :          1.4685

------------------------------------------------------------------------
 * finished run on 2019/05/04 at 19:00:20.971     
------------------------------------------------------------------------
 total:
 * wall-time:     0 d,  0 h,  0 min, 37.789 sec
 *  cpu-time:     0 d,  0 h,  0 min, 29.343 sec
 * ratio c/w:     0.776 speedup
 SCF:
 * wall-time:     0 d,  0 h,  0 min, 37.079 sec
 *  cpu-time:     0 d,  0 h,  0 min, 28.945 sec
 * ratio c/w:     0.781 speedup

