      -----------------------------------------------------------      
     |                   =====================                   |     
     |                           x T B                           |     
     |                   =====================                   |     
     |                         S. Grimme                         |     
     |          Mulliken Center for Theoretical Chemistry        |     
     |                    University of Bonn                     |     
     |                 Version 6.0.1 (SAW181210)                 |     
      -----------------------------------------------------------      

   This program is distributed in the hope that it will be useful,
   but WITHOUT ANY WARRANTY; without even the implied warranty of
   MERCHANTABILITY or FITNESS FOR A PARTICULAR PURPOSE.
   
   FOR NON-COMMERCIAL, ACADEMIA USE ONLY.
   
   Cite this work as:
   S. Grimme, C. Bannwarth, P. Shushkov, J. Comput. Theory Chem., 2017,
   13, 1989-2009.
   C. Bannwarth, S. Ehlert and S. Grimme., ChemRxiv, 2018, preprint.
   http://doi.org/10.26434/chemrxiv.7246238.v1
   
   for sTDA-xTB:
   S. Grimme and C. Bannwarth, J. Chem. Phys., 2016, 145, 054103.
   
   in the mass-spec context:
   V. Asgeirsson, C. Bauer and S. Grimme, Chem. Sci., 2017, 8, 4879.
   
   if GBSA is used:
   P. Shushkov, F. März and S. Grimme, unpublished.
   
   for ANC optimizer:
   S. Grimme, unpublished.
   Rational Function algorithm used in ANCopt:
   F. Eckert, P. Pulay, H.-J. Werner, J. Comput. Chem., 1997, 18, 1473.
   
   with help from (in alphabetical order)
   C. Bannwarth, F. Bohle, G. Brandenburg, E. Caldeweyher, M. Checinski,
   S. Dohm, S. Ehlert, S. Ehrlich, F. März, H. Neugebauer, J. Pisarek,
   P. Pracht, P. Shushkov, and S. Spicher.
   
 * started run on 2019/05/11 at 08:36:44.774     
========================================================================
 # omp threads = 2
========================================================================
number of atoms            : 78
number of electrons        : 214
charge                     : -1
spin                       : .0
first test random number   : .1817

########################################################################
# WARNING! Please study the warnings concerning your input carefully
#  - Process number higher than OMP_NUM_THREADS, I hope you know what you are doing.
########################################################################

           ------------------------------------------------- 
          |                 G F N 2 - x T B                 |
          | Geometry, Frequencies, Noncovalent interactions |
          |            JCTC 2018 parametrisation            |
           ------------------------------------------------- 
 
      method parameters     
 k(s)        :  1.8500
 k(p)        :  2.2300
 k(d)        :  2.2300
 k(f)        :  2.0000
 kEN (H0ij)  : -2.0000
 D4 a1       :  0.5200
 D4 a2       :  5.0000
 D4 s6       :  1.0000
 D4 s8       :  2.7000
 D4 s9       :  5.0000
 alphaj      :  2.0000

 Solvent             : h2o
 Using internal parameter file: .param_gbsa2_h2o
 Gsolv ref. state (COSMO-RS): gsolv [1 M gas/solution]
 temperature (mdtemp)       :    298.150000000000     
 dielectric constant        :    80.2000000000000     
 rho                        :    1.00000000000000     
 mass                       :    18.0000000000000     
 surface tension            :    15.5689454083859     
 probe radius               :   0.975313790000000     
 vdW radii scaling          :    1.00000000000000     
 Gshift (Eh)                :   1.857443126794793E-003
 c1                         :    1.55243817000000     
 soset                      :   0.130326360000000     
 HB correction              :  T

            Z     q(EN)     CN     RAES       Cart. coordinates
     1  N   5.0   -0.20    3.23    1.96    79.43240    52.73885    -8.85905
     2  C   4.0    0.02    4.31    4.21    79.70956    54.01335   -11.27209
     3  C   4.0    0.14    3.39    3.07    79.54654    52.05721   -13.42004
     4  O   6.0   -0.30    1.23    1.80    80.22025    49.86772   -13.12254
     5  C   4.0   -0.05    4.26    4.11    82.23615    55.42181   -11.38649
     6  C   4.0   -0.06    4.19    3.98    82.19188    57.80153    -9.74919
     7  C   4.0   -0.06    4.16    3.92    84.67601    59.27231    -9.90732
     8  C   4.0   -0.05    4.13    3.86    84.43808    61.75224    -8.45586
     9  N   5.0   -0.13    4.01    2.89    86.84123    63.21497    -8.54322
    10  H   1.0    0.08    1.02    1.43    80.99858    52.01983    -8.03025
    11  H   1.0    0.03    1.05    1.44    78.11262    55.31861   -11.44973
    12  H   1.0    0.04    1.03    1.43    83.72027    54.13516   -10.75678
    13  H   1.0    0.04    1.03    1.43    82.62501    55.93150   -13.34694
    14  H   1.0    0.03    1.03    1.43    80.64234    59.00354   -10.38504
    15  H   1.0    0.03    1.03    1.43    81.81171    57.26852    -7.79488
    16  H   1.0    0.03    1.03    1.43    86.18749    58.11611    -9.11803
    17  H   1.0    0.03    1.03    1.43    85.09971    59.64615   -11.88967
    18  H   1.0    0.03    1.02    1.43    82.93488    62.89674    -9.27978
    19  H   1.0    0.03    1.02    1.43    83.96141    61.36722    -6.48841
    20  H   1.0    0.04    1.02    1.43    86.65167    64.88357    -7.55830
    21  H   1.0    0.04    1.02    1.43    88.29123    62.18023    -7.75366
    22  H   1.0    0.04    1.02    1.43    87.31160    63.62624   -10.38876
    23  N   5.0   -0.15    3.46    2.05    78.63582    52.94448   -15.62312
    24  C   4.0    0.03    4.41    4.39    78.77405    51.50017   -17.95040
    25  C   4.0    0.14    3.41    3.08    80.42895    53.02722   -19.77944
    26  O   6.0   -0.31    1.23    1.80    79.98975    55.29240   -20.11419
    27  C   4.0   -0.05    4.24    4.09    76.11630    51.06600   -19.03520
    28  C   4.0   -0.05    4.16    3.93    75.95439    48.81986   -20.83890
    29  C   4.0   -0.05    4.18    3.95    76.20980    46.28686   -19.46788
    30  C   4.0   -0.04    4.12    3.84    75.52374    44.08181   -21.20281
    31  N   5.0   -0.12    4.03    2.94    75.58861    41.68416   -19.76259
    32  H   1.0    0.08    1.07    1.44    78.26255    54.80065   -15.85310
    33  H   1.0    0.05    1.07    1.44    79.68075    49.70707   -17.47255
    34  H   1.0    0.04    1.03    1.43    74.83468    50.75591   -17.44724
    35  H   1.0    0.05    1.03    1.43    75.54029    52.78750   -20.01587
    36  H   1.0    0.03    1.03    1.43    74.11432    48.89559   -21.76767
    37  H   1.0    0.05    1.02    1.43    77.40110    48.99719   -22.30099
    38  H   1.0    0.04    1.03    1.43    78.14134    46.04751   -18.80183
    39  H   1.0    0.05    1.03    1.43    74.96894    46.25573   -17.82180
    40  H   1.0    0.03    1.02    1.43    73.62826    44.37160   -21.96979
    41  H   1.0    0.04    1.02    1.43    76.86031    43.99119   -22.76872
    42  H   1.0    0.05    1.02    1.43    75.16150    40.16423   -20.87956
    43  H   1.0    0.06    1.03    1.43    77.35245    41.43891   -19.00776
    44  H   1.0    0.10    1.11    1.44    74.33229    41.76420   -18.16082
    45  N   5.0   -0.14    3.44    2.04    82.40976    51.82331   -20.75867
    46  C   4.0    0.04    4.35    4.30    84.12271    52.95711   -22.55721
    47  C   4.0    0.25    3.18    3.03    83.55447    52.05263   -25.33389
    48  O   6.0   -0.30    1.17    1.80    84.79799    53.10016   -27.02495
    49  C   4.0   -0.04    4.25    4.10    86.88855    52.40307   -21.91269
    50  C   4.0   -0.03    4.18    3.96    87.60878    49.61977   -22.16141
    51  C   4.0    0.24    3.10    3.02    90.31000    49.16242   -21.07033
    52  O   6.0   -0.30    1.17    1.80    90.53791    49.29920   -18.73825
    53  O   6.0   -0.30    1.16    1.80    92.03497    48.68611   -22.62255
    54  O   6.0   -0.30    1.18    1.80    81.88159    50.40422   -25.58493
    55  H   1.0    0.08    1.07    1.44    82.55036    49.92610   -20.61135
    56  H   1.0    0.06    1.06    1.44    83.79187    54.99889   -22.48798
    57  H   1.0    0.05    1.03    1.43    88.04928    53.50552   -23.21754
    58  H   1.0    0.05    1.03    1.43    87.29897    53.01934   -19.98189
    59  H   1.0    0.05    1.03    1.43    86.31541    48.43561   -21.07758
    60  H   1.0    0.06    1.02    1.43    87.57158    49.03586   -24.14101
    61  N   5.0   -0.21    3.23    1.96    67.67946    39.73084   -21.42868
    62  C   4.0    0.03    4.24    4.07    67.31488    40.22567   -18.75777
    63  C   4.0    0.07    3.23    3.04    64.49932    39.87374   -18.21790
    64  O   6.0   -0.31    1.14    1.80    62.90870    40.84994   -19.58428
    65  C   4.0   -0.05    4.26    4.11    68.11766    42.93472   -18.07542
    66  C   4.0   -0.04    4.17    3.94    68.60170    43.21149   -15.24676
    67  C   4.0    0.24    3.11    3.03    70.91187    41.63331   -14.35252
    68  O   6.0   -0.33    1.32    1.80    72.95648    42.00791   -15.49866
    69  O   6.0   -0.31    1.16    1.80    70.59952    40.14194   -12.57560
    70  H   1.0    0.09    1.04    1.43    66.27005    40.39264   -22.53750
    71  H   1.0    0.04    1.05    1.44    68.45956    38.86879   -17.69493
    72  H   1.0    0.04    1.03    1.43    69.85539    43.37336   -19.09304
    73  H   1.0    0.04    1.03    1.43    66.63893    44.24911   -18.66545
    74  H   1.0    0.04    1.02    1.43    68.98960    45.18836   -14.79806
    75  H   1.0    0.04    1.02    1.43    66.95829    42.64022   -14.14061
    76  H   1.0    0.08    1.07    1.44    78.79020    53.82168    -7.71554
    77  H   1.0    0.08    1.08    1.44    69.11980    40.46893   -21.95137
    78  H   1.0    0.04    1.04    1.43    63.94318    38.83870   -16.73788

  Z AO/shell   Hii/eV     exponent
  1     Wed Apr 25 08:07:45 CEST 2018   EN: 2.200 GM2: 0.406  GM3: 0.0800  RAES: 1.40
     1s    -10.707211    1.230000
  6     Wed Apr 25 08:07:45 CEST 2018   EN: 2.550 GM2: 0.538  GM3: 0.1500  RAES: 3.00
     2s    -13.970922    2.096432
     2p    -10.063292    1.800000
  7     Wed Apr 25 08:07:45 CEST 2018   EN: 3.040 GM2: 0.461  GM3:-0.0640  RAES: 1.90
     2s    -16.686243    2.339881
     2p    -12.523956    2.014332
  8     Wed Apr 25 08:07:45 CEST 2018   EN: 3.440 GM2: 0.452  GM3:-0.0517  RAES: 1.80
     2s    -20.229985    2.439742
     2p    -15.503117    2.137023
 no old-style atom pair restraining (fixing) potential

molecular fragmentation (1/2 indicates fragments):
111111111111111111111111111111111111111111111111111111111111222222222222
222122
# atoms in fragment 1/2:    61    17
 fragment masses (1/2) :      403.48      130.12
CMA distance (Bohr)    :  17.800
constraining FC (au)   :  0.0500
           ------------------------------------------------- 
          |        Self-Consistent Charge Iterations        |
           ------------------------------------------------- 

 Ncao       : 189
 Nao        : 189
 Nshell     : 115
 Nel        : 214
 T(el)      :   500.0
 intcut     :    35.0
 scfconv/Eh :  0.100E-06
   qconv/e  :  0.100E-04
 intneglect :  0.100E-08
 broydamp   :      0.400
 iter      E             dE          RMSdq      gap      omega  full diag
   1   -123.4734521 -0.123473E+03  0.484E+00    4.02       0.0  T
   2   -123.8196621 -0.346210E+00  0.228E+00    2.23       1.0  T
   3   -123.8403635 -0.207014E-01  0.128E+00    2.38       1.0  T
   4   -123.8576112 -0.172477E-01  0.290E-01    1.62       1.0  T
   5   -123.8589401 -0.132899E-02  0.149E-01    1.77       1.0  T
   6   -123.8590938 -0.153681E-03  0.555E-02    1.75       1.0  T
   7   -123.8591421 -0.482880E-04  0.170E-02    1.78       1.0  T
   8   -123.8591462 -0.410272E-05  0.738E-03    1.78       1.5  T
   9   -123.8591470 -0.834236E-06  0.287E-03    1.78       3.9  T
  10   -123.8591471 -0.633007E-07  0.804E-04    1.78      14.1  T
  11   -123.8591471 -0.152070E-07  0.349E-04    1.78      32.4  T
  12   -123.8591471 -0.187806E-08  0.123E-04    1.78      92.2  T
  13   -123.8591471 -0.121531E-09  0.538E-05    1.78     210.3  T
  14   -123.8591471 -0.456453E-10  0.182E-05    1.78     622.6  T
speedup  1.99
cpu  time for SCC    0.31 s
wall time for SCC    0.16 s

   *** convergence criteria satisfied after 14 iterations ***

          eigenvalues
 #    :          95         96         97         98         99        100        101        102
 occ. :        2.000      2.000      2.000      2.000      2.000      2.000      2.000      2.000
 eps  :       -10.949    -10.927    -10.825    -10.718    -10.663    -10.487    -10.422    -10.200
 #    :         103        104        105        106        107        108        109        110
 occ. :        2.000      2.000      2.000      2.000      2.000      0.000      0.000      0.000
 eps  :       -10.160     -9.900     -9.793     -9.712     -9.627     -7.844     -6.136     -5.731
 #    :         111        112        113        114        115        116        117        118
 occ. :        0.000      0.000      0.000      0.000      0.000      0.000      0.000      0.000
 eps  :        -4.873     -4.710     -4.541     -2.085     -1.489     -0.521      0.243      0.612


   #   Z            q   n(s)   n(p)   n(d)      C6AA      α(0)
   1   7 N     -0.392  1.321  4.071  0.000    30.145     8.154
   2   6 C      0.028  1.063  2.909  0.000    20.126     6.390
   3   6 C      0.271  1.050  2.679  0.000    22.428     7.755
   4   8 O     -0.488  1.754  4.735  0.000    23.531     6.504
   5   6 C     -0.067  1.054  3.013  0.000    21.784     6.644
   6   6 C     -0.071  1.052  3.019  0.000    21.853     6.655
   7   6 C     -0.088  1.053  3.035  0.000    22.182     6.705
   8   6 C     -0.050  1.059  2.990  0.000    21.555     6.627
   9   7 N     -0.147  1.230  3.917  0.000    24.166     7.301
  10   1 H      0.160  0.840  0.000  0.000     1.335     1.810
  11   1 H      0.049  0.951  0.000  0.000     2.331     2.388
  12   1 H      0.042  0.958  0.000  0.000     2.427     2.436
  13   1 H      0.023  0.977  0.000  0.000     2.683     2.561
  14   1 H      0.056  0.944  0.000  0.000     2.247     2.344
  15   1 H      0.060  0.940  0.000  0.000     2.201     2.320
  16   1 H      0.072  0.928  0.000  0.000     2.062     2.245
  17   1 H      0.065  0.935  0.000  0.000     2.141     2.288
  18   1 H      0.119  0.881  0.000  0.000     1.619     1.990
  19   1 H      0.123  0.877  0.000  0.000     1.586     1.970
  20   1 H      0.309  0.691  0.000  0.000     0.687     1.298
  21   1 H      0.298  0.702  0.000  0.000     0.719     1.328
  22   1 H      0.295  0.705  0.000  0.000     0.728     1.337
  23   7 N     -0.187  1.252  3.936  0.000    25.063     7.435
  24   6 C      0.021  1.063  2.916  0.000    20.221     6.404
  25   6 C      0.272  1.044  2.684  0.000    22.401     7.751
  26   8 O     -0.509  1.746  4.763  0.000    23.987     6.567
  27   6 C     -0.072  1.056  3.016  0.000    21.878     6.659
  28   6 C     -0.069  1.049  3.020  0.000    21.819     6.650
  29   6 C     -0.082  1.052  3.030  0.000    22.054     6.686
  30   6 C     -0.032  1.054  2.979  0.000    21.241     6.579
  31   7 N     -0.168  1.241  3.927  0.000    24.613     7.368
  32   1 H      0.206  0.794  0.000  0.000     1.074     1.623
  33   1 H      0.062  0.938  0.000  0.000     2.178     2.308
  34   1 H      0.072  0.928  0.000  0.000     2.067     2.248
  35   1 H      0.055  0.945  0.000  0.000     2.264     2.353
  36   1 H      0.066  0.934  0.000  0.000     2.132     2.283
  37   1 H      0.038  0.962  0.000  0.000     2.479     2.462
  38   1 H      0.050  0.950  0.000  0.000     2.325     2.385
  39   1 H      0.078  0.922  0.000  0.000     2.004     2.214
  40   1 H      0.101  0.899  0.000  0.000     1.775     2.083
  41   1 H      0.100  0.900  0.000  0.000     1.788     2.091
  42   1 H      0.284  0.716  0.000  0.000     0.764     1.370
  43   1 H      0.276  0.724  0.000  0.000     0.790     1.392
  44   1 H      0.306  0.694  0.000  0.000     0.695     1.306
  45   7 N     -0.169  1.253  3.916  0.000    24.664     7.376
  46   6 C      0.015  1.073  2.912  0.000    20.345     6.424
  47   6 C      0.370  1.025  2.605  0.000    20.730     7.451
  48   8 O     -0.635  1.772  4.863  0.000    27.006     6.967
  49   6 C     -0.038  1.049  2.989  0.000    21.243     6.562
  50   6 C     -0.077  1.062  3.015  0.000    21.974     6.675
  51   6 C      0.371  1.027  2.603  0.000    20.718     7.449
  52   8 O     -0.633  1.762  4.871  0.000    26.944     6.959
  53   8 O     -0.657  1.777  4.880  0.000    27.565     7.039
  54   8 O     -0.630  1.763  4.867  0.000    26.878     6.951
  55   1 H      0.186  0.814  0.000  0.000     1.181     1.702
  56   1 H      0.040  0.960  0.000  0.000     2.452     2.449
  57   1 H      0.022  0.978  0.000  0.000     2.701     2.570
  58   1 H      0.031  0.969  0.000  0.000     2.571     2.508
  59   1 H      0.010  0.990  0.000  0.000     2.897     2.662
  60   1 H     -0.007  1.007  0.000  0.000     3.180     2.789
  61   7 N     -0.389  1.327  4.062  0.000    30.062     8.143
  62   6 C      0.040  1.054  2.905  0.000    19.915     6.357
  63   6 C      0.208  1.085  2.707  0.000    23.585     7.954
  64   8 O     -0.368  1.752  4.617  0.000    21.056     6.152
  65   6 C     -0.058  1.058  3.000  0.000    21.620     6.620
  66   6 C     -0.098  1.065  3.033  0.000    22.368     6.734
  67   6 C      0.370  1.025  2.605  0.000    20.729     7.451
  68   8 O     -0.611  1.740  4.872  0.000    26.400     6.889
  69   8 O     -0.625  1.779  4.846  0.000    26.741     6.933
  70   1 H      0.170  0.830  0.000  0.000     1.270     1.766
  71   1 H      0.043  0.957  0.000  0.000     2.412     2.429
  72   1 H      0.060  0.940  0.000  0.000     2.204     2.322
  73   1 H      0.043  0.957  0.000  0.000     2.415     2.430
  74   1 H      0.034  0.966  0.000  0.000     2.531     2.488
  75   1 H      0.012  0.988  0.000  0.000     2.862     2.646
  76   1 H      0.192  0.808  0.000  0.000     1.147     1.678
  77   1 H      0.189  0.811  0.000  0.000     1.165     1.691
  78   1 H      0.059  0.941  0.000  0.000     2.211     2.325

 Mol. C6AA /au·bohr⁶  :      54382.621012
 Mol. C8AA /au·bohr⁸  :    1183659.716318
 Mol. α(0) /au        :        344.807780

 
molecular dipole:
                 x           y           z       tot (Debye)
 q only:      -83.506     -36.405      32.950
   full:      -83.279     -35.949      33.060     245.395
molecular quadrupole (traceless):
                xx          xy          yy          xz          yz          zz
 q only:    -6198.561   -4561.056    3000.385    4278.003    2392.685    3198.175
  q+dip:    -6179.315   -4491.538    3026.948    4282.653    2386.734    3152.366
   full:    -6180.245   -4490.263    3028.353    4282.763    2388.458    3151.893
speedup  2.00
cpu  time for grad    0.42 s
wall time for grad    0.21 s

SCC energy    :    -123.8593114
rep           :       1.3662196
ES            :       0.8371081
AES           :      -0.0279257
AXC           :       0.0361588
disp          :      -0.0695328
XB            :       0.0000000
fix           :       0.0000000
Gborn         :       0.0000000
Gsasa         :       0.0000000
Ghb           :       0.0000000
Gshift        :       0.0000000
Gsolv         :      -0.3622159     -227.29
Etot ala COSMO:    -123.8593114
grad norm     :       0.2888801
total E       :    -122.4920064
atomizationE  :      21.5796711    13541.45
(atE without considering molecular charge,
 total energy contains solvation terms)
H-L gap (eV)  :          1.7829

------------------------------------------------------------------------
 * finished run on 2019/05/11 at 08:36:45.133     
------------------------------------------------------------------------
 total:
 * wall-time:     0 d,  0 h,  0 min,  0.357 sec
 *  cpu-time:     0 d,  0 h,  0 min,  0.569 sec
 * ratio c/w:     1.593 speedup
 SCF:
 * wall-time:     0 d,  0 h,  0 min,  0.233 sec
 *  cpu-time:     0 d,  0 h,  0 min,  0.465 sec
 * ratio c/w:     1.996 speedup

