      -----------------------------------------------------------      
     |                   =====================                   |     
     |                           x T B                           |     
     |                   =====================                   |     
     |                         S. Grimme                         |     
     |          Mulliken Center for Theoretical Chemistry        |     
     |                    University of Bonn                     |     
     |                 Version 6.0.1 (SAW181210)                 |     
      -----------------------------------------------------------      

   This program is distributed in the hope that it will be useful,
   but WITHOUT ANY WARRANTY; without even the implied warranty of
   MERCHANTABILITY or FITNESS FOR A PARTICULAR PURPOSE.
   
   FOR NON-COMMERCIAL, ACADEMIA USE ONLY.
   
   Cite this work as:
   S. Grimme, C. Bannwarth, P. Shushkov, J. Comput. Theory Chem., 2017,
   13, 1989-2009.
   C. Bannwarth, S. Ehlert and S. Grimme., ChemRxiv, 2018, preprint.
   http://doi.org/10.26434/chemrxiv.7246238.v1
   
   for sTDA-xTB:
   S. Grimme and C. Bannwarth, J. Chem. Phys., 2016, 145, 054103.
   
   in the mass-spec context:
   V. Asgeirsson, C. Bauer and S. Grimme, Chem. Sci., 2017, 8, 4879.
   
   if GBSA is used:
   P. Shushkov, F. März and S. Grimme, unpublished.
   
   for ANC optimizer:
   S. Grimme, unpublished.
   Rational Function algorithm used in ANCopt:
   F. Eckert, P. Pulay, H.-J. Werner, J. Comput. Chem., 1997, 18, 1473.
   
   with help from (in alphabetical order)
   C. Bannwarth, F. Bohle, G. Brandenburg, E. Caldeweyher, M. Checinski,
   S. Dohm, S. Ehlert, S. Ehrlich, F. März, H. Neugebauer, J. Pisarek,
   P. Pracht, P. Shushkov, and S. Spicher.
   
 * started run on 2019/05/03 at 23:04:34.206     
========================================================================
 # omp threads = 2
========================================================================
number of atoms            : 212
number of electrons        : 552
charge                     : -1
spin                       : .0
first test random number   : .1454

########################################################################
# WARNING! Please study the warnings concerning your input carefully
#  - Process number higher than OMP_NUM_THREADS, I hope you know what you are doing.
########################################################################

           ------------------------------------------------- 
          |                 G F N 2 - x T B                 |
          | Geometry, Frequencies, Noncovalent interactions |
          |            JCTC 2018 parametrisation            |
           ------------------------------------------------- 
 
      method parameters     
 k(s)        :  1.8500
 k(p)        :  2.2300
 k(d)        :  2.2300
 k(f)        :  2.0000
 kEN (H0ij)  : -2.0000
 D4 a1       :  0.5200
 D4 a2       :  5.0000
 D4 s6       :  1.0000
 D4 s8       :  2.7000
 D4 s9       :  5.0000
 alphaj      :  2.0000

 Solvent             : h2o
 Using internal parameter file: .param_gbsa2_h2o
 Gsolv ref. state (COSMO-RS): gsolv [1 M gas/solution]
 temperature (mdtemp)       :    298.150000000000     
 dielectric constant        :    80.2000000000000     
 rho                        :    1.00000000000000     
 mass                       :    18.0000000000000     
 surface tension            :    15.5689454083859     
 probe radius               :   0.975313790000000     
 vdW radii scaling          :    1.00000000000000     
 Gshift (Eh)                :   1.857443126794793E-003
 c1                         :    1.55243817000000     
 soset                      :   0.130326360000000     
 HB correction              :  T

            Z     q(EN)     CN     RAES       Cart. coordinates
     1  N   5.0   -0.17    3.39    2.02    32.04692    83.75592    58.68812
     2  C   4.0    0.03    4.36    4.31    34.01633    82.96836    56.93126
     3  C   4.0    0.06    3.21    3.04    34.50119    80.21655    57.12572
     4  O   6.0   -0.30    1.12    1.80    34.72763    78.94712    54.88015
     5  C   4.0   -0.04    4.31    4.22    36.39624    84.47221    57.68723
     6  C   4.0   -0.05    4.23    4.05    35.33186    86.73291    59.22641
     7  C   4.0   -0.02    4.23    4.07    33.09954    85.57232    60.61339
     8  H   1.0    0.05    1.05    1.44    33.41517    83.46803    55.01508
     9  H   1.0    0.04    1.02    1.43    37.62038    83.31784    58.89086
    10  H   1.0    0.04    1.02    1.43    37.49090    85.05423    56.06491
    11  H   1.0    0.03    1.02    1.43    36.73513    87.54500    60.47417
    12  H   1.0    0.04    1.02    1.43    34.69600    88.18651    57.90899
    13  H   1.0    0.03    1.02    1.43    33.70121    84.50568    62.26317
    14  H   1.0    0.03    1.02    1.43    31.72998    87.00027    61.13657
    15  N   5.0   -0.21    3.21    1.96    29.21687    76.32926    54.23433
    16  C   4.0    0.03    4.32    4.24    29.11831    76.80379    51.61266
    17  C   4.0    0.17    3.40    3.08    31.05427    75.20137    50.06846
    18  O   6.0   -0.34    1.36    1.80    30.47846    74.10446    48.45437
    19  C   4.0   -0.04    4.26    4.12    29.47133    79.62171    50.92842
    20  C   4.0   -0.04    4.16    3.91    26.95141    81.00206    50.79115
    21  C   4.0    0.23    3.11    3.03    27.34480    83.72350    49.81750
    22  O   6.0   -0.31    1.22    1.80    27.90663    84.00545    47.38285
    23  O   6.0   -0.30    1.16    1.80    27.12247    85.47478    51.30324
    24  H   1.0    0.09    1.03    1.43    29.48928    77.77212    55.45991
    25  H   1.0    0.04    1.05    1.44    27.29801    76.12428    50.82145
    26  H   1.0    0.06    1.04    1.43    30.72873    80.42093    52.30324
    27  H   1.0    0.05    1.03    1.43    30.43211    79.70440    49.07727
    28  H   1.0    0.04    1.02    1.43    25.71594    80.01397    49.43898
    29  H   1.0    0.04    1.03    1.43    26.03091    81.05090    52.62001
    30  N   5.0   -0.15    3.43    2.03    33.54152    75.43183    50.95532
    31  C   4.0    0.03    4.35    4.28    35.40702    73.94143    49.58026
    32  C   4.0    0.14    3.19    3.03    34.69952    71.03888    49.37034
    33  O   6.0   -0.34    1.25    1.80    34.80012    69.90431    48.04109
    34  C   4.0   -0.04    4.22    4.04    38.05581    74.23251    50.71790
    35  C   4.0   -0.03    4.17    3.94    39.04414    76.91040    50.32219
    36  C   4.0    0.25    3.07    3.02    40.91467    77.91139    52.40814
    37  O   6.0   -0.29    1.16    1.80    41.16086    76.74617    54.44507
    38  O   6.0   -0.30    1.16    1.80    41.94862    79.97361    51.84184
    39  H   1.0    0.11    1.09    1.44    34.00554    76.36727    52.52672
    40  H   1.0    0.05    1.06    1.44    35.46805    74.49988    47.60354
    41  H   1.0    0.06    1.02    1.43    37.96141    73.84576    52.77321
    42  H   1.0    0.05    1.03    1.43    39.30491    72.83108    49.92361
    43  H   1.0    0.05    1.03    1.43    39.97475    77.09281    48.51733
    44  H   1.0    0.06    1.04    1.43    37.51382    78.27605    50.42474
    45  N   5.0   -0.19    3.28    1.98    29.43367    70.01235    44.75849
    46  C   4.0    0.04    4.28    4.15    30.35324    70.41474    42.34865
    47  C   4.0    0.03    3.21    3.04    31.73642    68.14957    41.77338
    48  O   6.0   -0.29    0.84    1.80    31.04792    66.95151    39.01911
    49  C   4.0   -0.02    4.34    4.27    32.35341    72.67710    42.18763
    50  C   4.0   -0.05    4.17    3.94    30.90469    75.18336    42.57952
    51  C   4.0   -0.07    4.13    3.86    33.73786    72.55391    39.65918
    52  C   4.0   -0.07    4.03    3.67    32.62549    77.44120    42.50501
    53  H   1.0    0.11    1.01    1.43    30.07328    71.33534    46.23307
    54  H   1.0    0.04    1.04    1.43    28.80760    70.84782    40.98633
    55  H   1.0    0.06    1.07    1.44    33.62930    72.38286    43.72509
    56  H   1.0    0.03    1.01    1.43    29.47189    75.36719    41.04506
    57  H   1.0    0.06    1.04    1.43    29.87169    75.08828    44.32126
    58  H   1.0    0.04    1.00    1.43    35.03012    74.15144    39.51626
    59  H   1.0    0.05    1.01    1.43    34.83251    70.83623    39.53270
    60  H   1.0    0.04    1.00    1.43    32.42901    72.62635    38.08593
    61  H   1.0    0.05    1.00    1.43    31.55067    79.09748    43.11398
    62  H   1.0    0.05    1.00    1.43    34.18093    77.20282    43.84645
    63  H   1.0    0.05    1.00    1.43    33.40258    77.80872    40.66065
    64  N   5.0   -0.20    3.25    1.97    22.86696    90.11409    38.12942
    65  C   4.0    0.03    4.33    4.25    22.31621    87.87836    36.64382
    66  C   4.0    0.14    3.45    3.10    24.69750    86.65802    35.75690
    67  O   6.0   -0.30    1.24    1.80    26.43602    87.93010    34.72527
    68  C   4.0   -0.04    4.34    4.27    20.82392    88.63728    34.27574
    69  C   4.0   -0.04    4.21    4.02    18.10326    89.43708    34.93488
    70  C   4.0    0.13    3.23    3.04    16.74357    89.93697    32.47859
    71  O   6.0   -0.31    1.19    1.80    16.97209    88.38803    30.62926
    72  N   5.0   -0.20    3.15    1.95    15.38873    92.07250    32.30238
    73  H   1.0    0.09    1.04    1.43    23.36623    91.66950    37.33089
    74  H   1.0    0.04    1.04    1.43    21.23207    86.55953    37.85458
    75  H   1.0    0.05    1.03    1.43    21.83284    90.23791    33.46556
    76  H   1.0    0.05    1.04    1.43    20.81113    87.09512    32.94552
    77  H   1.0    0.04    1.03    1.43    17.14922    87.94246    35.95948
    78  H   1.0    0.03    1.03    1.43    18.04601    91.13120    36.11065
    79  H   1.0    0.07    1.03    1.43    14.81459    92.98730    33.88112
    80  H   1.0    0.08    1.02    1.43    14.39076    92.45484    30.71004
    81  N   5.0   -0.14    3.49    2.07    24.84223    84.14781    35.95750
    82  C   4.0    0.03    4.40    4.38    27.02737    82.75000    34.91066
    83  C   4.0    0.15    3.40    3.08    25.76275    80.77596    33.28038
    84  O   6.0   -0.32    1.25    1.80    24.41981    79.06013    34.10205
    85  C   4.0   -0.04    4.17    3.93    28.78281    81.76101    37.05498
    86  C   4.0   -0.04    4.19    3.99    29.64801    84.06126    38.69955
    87  C   4.0   -0.00    4.16    3.92    32.21978    83.77008    40.04112
    88  N   5.0   -0.14    3.43    2.03    31.87137    83.91230    42.64157
    89  C   4.0    0.09    3.32    3.06    33.77821    83.64917    44.55192
    90  N   5.0   -0.18    3.25    1.97    36.07243    83.59676    43.84703
    91  N   5.0   -0.18    3.27    1.97    32.96443    83.34593    46.79957
    92  H   1.0    0.10    1.08    1.44    23.70604    83.22992    37.17008
    93  H   1.0    0.06    1.07    1.44    28.02993    84.13813    33.76089
    94  H   1.0    0.05    1.03    1.43    27.80753    80.41600    38.22235
    95  H   1.0    0.05    1.02    1.43    30.40956    80.86165    36.16504
    96  H   1.0    0.06    1.03    1.43    29.75376    85.68243    37.40560
    97  H   1.0    0.06    1.04    1.43    28.19520    84.50353    40.05467
    98  H   1.0    0.05    1.02    1.43    33.11488    81.98301    39.42374
    99  H   1.0    0.05    1.03    1.43    33.47140    85.27912    39.40087
   100  H   1.0    0.09    1.07    1.44    30.10634    83.94467    43.39734
   101  H   1.0    0.08    1.03    1.43    36.67084    83.71308    42.01658
   102  H   1.0    0.09    1.03    1.43    37.56026    83.36767    45.12565
   103  H   1.0    0.12    1.11    1.45    31.13009    83.64372    47.24699
   104  H   1.0    0.08    1.02    1.43    34.28196    83.38167    48.28239
   105  N   5.0   -0.14    3.45    2.05    25.95190    81.25360    30.74181
   106  C   4.0    0.03    4.43    4.43    24.66308    79.50210    28.89150
   107  C   4.0    0.15    3.44    3.09    26.56761    77.39558    28.35578
   108  O   6.0   -0.31    1.26    1.80    28.81510    77.84433    28.27121
   109  C   4.0   -0.04    4.35    4.30    23.96000    80.87084    26.56276
   110  C   4.0   -0.03    4.15    3.91    21.22965    81.79860    26.50964
   111  C   4.0   -0.08    4.09    3.78    20.79991    83.21889    23.94537
   112  C   4.0   -0.08    4.09    3.77    19.29617    79.58535    26.63267
   113  H   1.0    0.10    1.09    1.44    27.26529    82.43251    30.08305
   114  H   1.0    0.05    1.07    1.44    23.08370    78.68112    29.95060
   115  H   1.0    0.05    1.03    1.43    25.22655    82.45185    26.19151
   116  H   1.0    0.04    1.04    1.43    24.20706    79.54719    24.98342
   117  H   1.0    0.04    1.05    1.44    20.86207    83.13839    28.02900
   118  H   1.0    0.04    1.00    1.43    18.85990    83.92287    23.91712
   119  H   1.0    0.04    1.00    1.43    22.08226    84.81163    23.83591
   120  H   1.0    0.04    1.01    1.43    21.05521    81.95985    22.40689
   121  H   1.0    0.04    1.00    1.43    17.41469    80.33787    26.43609
   122  H   1.0    0.04    1.00    1.43    19.60324    78.25103    25.12729
   123  H   1.0    0.04    1.00    1.43    19.42435    78.59340    28.42650
   124  N   5.0   -0.14    3.48    2.06    25.60328    75.15040    28.07339
   125  C   4.0    0.03    4.39    4.36    27.13700    72.81528    27.85008
   126  C   4.0    0.06    3.24    3.04    26.07092    71.14668    25.76767
   127  O   6.0   -0.30    1.12    1.80    23.72609    70.86781    25.51717
   128  C   4.0   -0.02    4.35    4.29    27.01408    71.38560    30.36843
   129  C   4.0   -0.04    4.21    4.02    28.38529    72.89309    32.36531
   130  C   4.0   -0.08    4.12    3.84    28.14118    68.69872    30.16378
   131  C   4.0   -0.08    4.01    3.63    27.74012    71.99913    35.06929
   132  H   1.0    0.08    1.07    1.44    23.73367    74.87195    28.39848
   133  H   1.0    0.05    1.05    1.44    29.07900    73.35035    27.38348
   134  H   1.0    0.05    1.06    1.44    25.01815    71.21193    30.89499
   135  H   1.0    0.04    1.03    1.43    30.42575    72.72661    32.06720
   136  H   1.0    0.06    1.04    1.43    27.86405    74.88727    32.23704
   137  H   1.0    0.04    1.01    1.43    28.13315    67.76334    31.93768
   138  H   1.0    0.04    0.99    1.43    27.04228    67.55938    28.80699
   139  H   1.0    0.04    1.00    1.43    30.03795    68.83929    29.38772
   140  H   1.0    0.04    0.99    1.43    28.48416    73.36476    36.43391
   141  H   1.0    0.04    1.01    1.43    25.72881    71.84492    35.28224
   142  H   1.0    0.05    1.00    1.43    28.60351    70.18223    35.46608
   143  N   5.0   -0.20    3.24    1.97    36.13300    73.61787    27.99173
   144  C   4.0    0.03    4.24    4.09    34.84989    76.02390    28.38007
   145  C   4.0    0.08    3.27    3.05    35.30104    77.59404    26.07359
   146  O   6.0   -0.30    1.15    1.80    37.39880    77.71907    25.10190
   147  C   4.0   -0.04    4.31    4.21    35.93780    77.48887    30.62413
   148  C   4.0   -0.04    4.20    4.01    35.42964    76.13376    33.13082
   149  C   4.0    0.14    3.22    3.04    36.31403    77.92114    35.26114
   150  O   6.0   -0.31    1.18    1.80    35.16977    79.93047    35.66838
   151  N   5.0   -0.20    3.16    1.95    38.35839    77.11315    36.54132
   152  H   1.0    0.09    1.02    1.43    38.04729    73.68851    27.98666
   153  H   1.0    0.05    1.05    1.44    32.82791    75.62816    28.61449
   154  H   1.0    0.05    1.03    1.43    37.94651    77.74338    30.32362
   155  H   1.0    0.06    1.04    1.43    35.08428    79.34356    30.63414
   156  H   1.0    0.04    1.03    1.43    33.40524    75.82108    33.35082
   157  H   1.0    0.03    1.02    1.43    36.37298    74.31318    33.26617
   158  H   1.0    0.08    1.04    1.43    39.26424    75.56512    36.02569
   159  H   1.0    0.09    1.02    1.43    39.15916    78.31733    37.81413
   160  N   5.0   -0.20    3.22    1.96    17.96197    73.80817    33.12763
   161  C   4.0    0.03    4.28    4.16    18.57579    76.29028    34.10776
   162  C   4.0    0.14    3.43    3.09    18.82747    76.05002    37.06401
   163  O   6.0   -0.31    1.23    1.80    17.15935    74.88818    38.33331
   164  C   4.0   -0.05    4.35    4.28    16.41489    78.11523    33.54946
   165  C   4.0   -0.02    4.19    3.98    16.62992    80.68943    34.98058
   166  C   4.0   -0.07    4.11    3.83    18.49708    82.40667    33.64491
   167  C   4.0   -0.08    4.11    3.83    14.08223    81.93498    35.14352
   168  H   1.0    0.09    1.02    1.43    16.55396    72.78095    33.94871
   169  H   1.0    0.05    1.06    1.44    20.35942    76.88965    33.34014
   170  H   1.0    0.03    1.04    1.43    16.29230    78.41843    31.55825
   171  H   1.0    0.04    1.02    1.43    14.62859    77.20868    34.13935
   172  H   1.0    0.05    1.07    1.44    17.25662    80.26530    36.91523
   173  H   1.0    0.04    1.01    1.43    18.86964    84.01300    34.85737
   174  H   1.0    0.05    1.00    1.43    20.28823    81.44044    33.29575
   175  H   1.0    0.05    1.00    1.43    17.76781    83.07950    31.86385
   176  H   1.0    0.04    1.00    1.43    14.25770    83.83772    35.94270
   177  H   1.0    0.04    1.00    1.43    13.25136    82.11655    33.26763
   178  H   1.0    0.04    1.00    1.43    12.75607    80.86689    36.29377
   179  N   5.0   -0.14    3.45    2.05    20.76970    77.11426    38.07403
   180  C   4.0    0.03    4.43    4.43    21.00945    77.23913    40.93909
   181  C   4.0    0.07    3.25    3.04    21.09236    80.00820    41.59298
   182  O   6.0   -0.30    1.16    1.80    22.42856    81.49841    40.41666
   183  C   4.0   -0.02    4.26    4.12    23.31250    75.85574    41.79930
   184  C   4.0   -0.08    4.13    3.86    23.44310    76.00004    44.73539
   185  C   4.0   -0.07    4.12    3.85    23.13446    73.05045    41.07982
   186  H   1.0    0.11    1.07    1.44    22.14006    77.96291    37.01717
   187  H   1.0    0.05    1.07    1.44    19.26902    76.33971    41.60523
   188  H   1.0    0.05    1.06    1.44    25.01153    76.68190    41.01435
   189  H   1.0    0.04    1.00    1.43    25.06223    74.93769    45.41411
   190  H   1.0    0.05    1.00    1.43    23.64600    77.98651    45.29847
   191  H   1.0    0.04    1.01    1.43    21.73806    75.28758    45.54631
   192  H   1.0    0.04    1.00    1.43    24.71851    71.97255    41.83029
   193  H   1.0    0.04    1.00    1.43    21.41666    72.21812    41.78431
   194  H   1.0    0.05    0.99    1.43    23.13467    72.83519    39.00907
   195  O   6.0   -0.31    1.96    1.82    30.00096    84.52043    28.91831
   196  H   1.0    0.13    0.97    1.43    31.16196    84.14335    30.25951
   197  H   1.0    0.13    0.97    1.43    30.87089    84.27932    27.35781
   198  O   6.0   -0.35    1.79    1.81    41.36372    84.04941    46.68284
   199  H   1.0    0.12    0.79    1.41    42.51235    82.50147    47.58152
   200  H   1.0    0.17    1.01    1.43    40.57011    84.53853    47.78815
   201  H   1.0    0.09    1.11    1.45    30.75132    84.43572    57.82103
   202  H   1.0    0.05    1.03    1.43    34.64316    79.39983    58.82392
   203  H   1.0    0.09    1.08    1.44    27.74994    75.63351    54.74089
   204  H   1.0    0.06    1.14    1.45    34.00311    70.12520    50.87076
   205  H   1.0    0.09    1.09    1.44    27.73645    70.12107    44.74401
   206  H   1.0    0.06    1.03    1.43    32.98020    67.46020    43.01791
   207  H   1.0    0.09    1.08    1.44    21.48953    90.55438    39.02462
   208  H   1.0    0.04    1.04    1.43    27.23945    70.25669    24.57875
   209  H   1.0    0.08    1.07    1.44    35.69978    72.53688    29.23123
   210  H   1.0    0.06    1.05    1.44    33.87726    78.56492    25.29816
   211  H   1.0    0.09    1.08    1.44    17.48452    73.94233    31.50079
   212  H   1.0    0.05    1.05    1.44    20.04274    80.67487    43.01597

  Z AO/shell   Hii/eV     exponent
  1     Wed Apr 25 08:07:45 CEST 2018   EN: 2.200 GM2: 0.406  GM3: 0.0800  RAES: 1.40
     1s    -10.707211    1.230000
  6     Wed Apr 25 08:07:45 CEST 2018   EN: 2.550 GM2: 0.538  GM3: 0.1500  RAES: 3.00
     2s    -13.970922    2.096432
     2p    -10.063292    1.800000
  7     Wed Apr 25 08:07:45 CEST 2018   EN: 3.040 GM2: 0.461  GM3:-0.0640  RAES: 1.90
     2s    -16.686243    2.339881
     2p    -12.523956    2.014332
  8     Wed Apr 25 08:07:45 CEST 2018   EN: 3.440 GM2: 0.452  GM3:-0.0517  RAES: 1.80
     2s    -20.229985    2.439742
     2p    -15.503117    2.137023
 no old-style atom pair restraining (fixing) potential

molecular fragmentation (1/2 indicates fragments):
111111111111112222222222222222222222222222222222222222222222222222222222
222222222222222222222222222222222222222222222222222222222222222222222222
22222222222222222222222222222222222222222222222222222222112222222222
# atoms in fragment 1/2:    16   196
 fragment masses (1/2) :       99.13     1267.55
CMA distance (Bohr)    :  21.047
constraining FC (au)   :  0.0500
           ------------------------------------------------- 
          |        Self-Consistent Charge Iterations        |
           ------------------------------------------------- 

 Ncao       : 497
 Nao        : 497
 Nshell     : 307
 Nel        : 552
 T(el)      :   500.0
 intcut     :    35.0
 scfconv/Eh :  0.100E-06
   qconv/e  :  0.100E-04
 intneglect :  0.100E-08
 broydamp   :      0.400
 iter      E             dE          RMSdq      gap      omega  full diag
   1   -314.9880448 -0.314988E+03  0.468E+00    0.52       0.0  T
   2   -315.1542622 -0.166217E+00  0.256E+00    0.49       1.0  T
   3   -314.9736215  0.180641E+00  0.235E+00    0.16       1.0  T
   4   -315.8347414 -0.861120E+00  0.152E+00    1.18       1.0  T
   5   -316.0930695 -0.258328E+00  0.705E-01    1.39       1.0  T
   6   -316.0932243 -0.154758E-03  0.526E-01    1.32       1.0  T
   7   -316.1041431 -0.109188E-01  0.325E-01    0.82       1.0  T
   8   -316.1144858 -0.103427E-01  0.138E-01    0.73       1.0  T
   9   -316.1159464 -0.146066E-02  0.541E-02    0.60       1.0  T
  10   -316.1160613 -0.114881E-03  0.263E-02    0.52       1.0  T
  11   -316.1160946 -0.332931E-04  0.133E-02    0.53       1.0  T
  12   -316.1161031 -0.852679E-05  0.493E-03    0.53       1.4  T
  13   -316.1161049 -0.178392E-05  0.210E-03    0.52       3.3  T
  14   -316.1161052 -0.222609E-06  0.922E-04    0.53       7.5  T
  15   -316.1161052 -0.252231E-07  0.419E-04    0.53      16.4  T
  16   -316.1161052 -0.995510E-08  0.184E-04    0.53      37.3  T
  17   -316.1161052 -0.118865E-08  0.721E-05    0.53      95.3  T
  18   -316.1161052 -0.318551E-09  0.333E-05    0.53     206.0  T
speedup  1.76
cpu  time for SCC    1.87 s
wall time for SCC    1.06 s

   *** convergence criteria satisfied after 18 iterations ***

          eigenvalues
 #    :         264        265        266        267        268        269        270        271
 occ. :        2.000      2.000      2.000      2.000      2.000      2.000      2.000      2.000
 eps  :       -10.545    -10.458    -10.440    -10.126    -10.121    -10.109    -10.062     -9.949
 #    :         272        273        274        275        276        277        278        279
 occ. :        2.000      2.000      2.000      2.000      1.996      0.004      0.000      0.000
 eps  :        -9.903     -9.888     -9.846     -9.630     -9.471     -8.945     -8.748     -8.234
 #    :         280        281        282        283        284        285        286        287
 occ. :        0.000      0.000      0.000      0.000      0.000      0.000      0.000      0.000
 eps  :        -8.136     -7.562     -6.439     -6.275     -5.970     -5.868     -5.774     -5.736


   #   Z            q   n(s)   n(p)   n(d)      C6AA      α(0)
   1   7 N     -0.293  1.309  3.985  0.000    27.553     7.796
   2   6 C      0.056  1.048  2.896  0.000    19.635     6.309
   3   6 C      0.173  1.119  2.708  0.000    24.270     8.068
   4   8 O     -0.435  1.821  4.614  0.000    22.405     6.346
   5   6 C     -0.056  1.060  2.996  0.000    21.566     6.609
   6   6 C     -0.067  1.055  3.011  0.000    21.761     6.639
   7   6 C     -0.005  1.057  2.948  0.000    20.721     6.491
   8   1 H      0.041  0.959  0.000  0.000     2.440     2.443
   9   1 H      0.043  0.957  0.000  0.000     2.406     2.425
  10   1 H      0.048  0.952  0.000  0.000     2.341     2.393
  11   1 H      0.062  0.938  0.000  0.000     2.174     2.306
  12   1 H      0.050  0.950  0.000  0.000     2.323     2.383
  13   1 H      0.060  0.940  0.000  0.000     2.197     2.318
  14   1 H      0.059  0.941  0.000  0.000     2.206     2.322
  15   7 N     -0.385  1.300  4.084  0.000    29.953     8.128
  16   6 C      0.022  1.064  2.913  0.000    20.218     6.405
  17   6 C      0.294  1.034  2.671  0.000    22.008     7.682
  18   8 O     -0.369  1.650  4.719  0.000    21.065     6.154
  19   6 C     -0.052  1.052  3.000  0.000    21.499     6.601
  20   6 C     -0.084  1.063  3.021  0.000    22.107     6.694
  21   6 C      0.355  1.040  2.605  0.000    20.972     7.495
  22   8 O     -0.677  1.794  4.883  0.000    28.088     7.106
  23   8 O     -0.587  1.764  4.823  0.000    25.807     6.811
  24   1 H      0.145  0.855  0.000  0.000     1.434     1.876
  25   1 H      0.018  0.982  0.000  0.000     2.761     2.599
  26   1 H      0.032  0.968  0.000  0.000     2.565     2.504
  27   1 H      0.031  0.969  0.000  0.000     2.573     2.508
  28   1 H      0.028  0.972  0.000  0.000     2.615     2.529
  29   1 H      0.022  0.978  0.000  0.000     2.696     2.568
  30   7 N     -0.242  1.264  3.978  0.000    26.313     7.618
  31   6 C     -0.016  1.074  2.941  0.000    20.866     6.505
  32   6 C      0.284  1.020  2.696  0.000    22.190     7.714
  33   8 O     -0.189  1.566  4.623  0.000    17.885     5.670
  34   6 C     -0.049  1.047  3.002  0.000    21.453     6.594
  35   6 C     -0.096  1.064  3.032  0.000    22.339     6.730
  36   6 C      0.366  1.032  2.602  0.000    20.800     7.463
  37   8 O     -0.648  1.780  4.867  0.000    27.322     7.008
  38   8 O     -0.659  1.769  4.891  0.000    27.625     7.047
  39   1 H      0.205  0.795  0.000  0.000     1.080     1.628
  40   1 H      0.046  0.954  0.000  0.000     2.374     2.409
  41   1 H      0.032  0.968  0.000  0.000     2.559     2.502
  42   1 H      0.030  0.970  0.000  0.000     2.587     2.515
  43   1 H      0.032  0.968  0.000  0.000     2.556     2.500
  44   1 H      0.036  0.964  0.000  0.000     2.509     2.477
  45   7 N     -0.356  1.311  4.045  0.000    29.158     8.020
  46   6 C      0.069  1.040  2.891  0.000    19.446     6.283
  47   6 C      0.131  1.179  2.689  0.000    25.106     8.204
  48   8 O     -0.550  1.918  4.632  0.000    24.979     6.698
  49   6 C     -0.028  1.084  2.944  0.000    21.034     6.523
  50   6 C     -0.060  1.049  3.010  0.000    21.650     6.625
  51   6 C     -0.121  1.038  3.083  0.000    22.877     6.820
  52   6 C     -0.111  1.035  3.077  0.000    22.690     6.793
  53   1 H      0.184  0.816  0.000  0.000     1.192     1.711
  54   1 H      0.065  0.935  0.000  0.000     2.141     2.288
  55   1 H      0.053  0.947  0.000  0.000     2.289     2.366
  56   1 H      0.035  0.965  0.000  0.000     2.513     2.479
  57   1 H      0.049  0.951  0.000  0.000     2.329     2.386
  58   1 H      0.062  0.938  0.000  0.000     2.178     2.308
  59   1 H      0.045  0.955  0.000  0.000     2.386     2.416
  60   1 H      0.057  0.943  0.000  0.000     2.237     2.339
  61   1 H      0.042  0.958  0.000  0.000     2.420     2.433
  62   1 H      0.032  0.968  0.000  0.000     2.555     2.500
  63   1 H      0.057  0.943  0.000  0.000     2.236     2.338
  64   7 N     -0.399  1.299  4.100  0.000    30.331     8.179
  65   6 C      0.040  1.055  2.904  0.000    19.907     6.355
  66   6 C      0.266  1.050  2.684  0.000    22.505     7.769
  67   8 O     -0.511  1.764  4.747  0.000    24.035     6.573
  68   6 C     -0.058  1.053  3.005  0.000    21.600     6.614
  69   6 C     -0.087  1.055  3.032  0.000    22.152     6.700
  70   6 C      0.277  1.051  2.672  0.000    22.305     7.733
  71   8 O     -0.530  1.784  4.746  0.000    24.465     6.631
  72   7 N     -0.279  1.276  4.003  0.000    27.211     7.747
  73   1 H      0.174  0.826  0.000  0.000     1.247     1.749
  74   1 H      0.032  0.968  0.000  0.000     2.560     2.502
  75   1 H      0.053  0.947  0.000  0.000     2.288     2.366
  76   1 H      0.055  0.945  0.000  0.000     2.252     2.347
  77   1 H      0.066  0.934  0.000  0.000     2.129     2.282
  78   1 H      0.060  0.940  0.000  0.000     2.202     2.321
  79   1 H      0.234  0.766  0.000  0.000     0.949     1.526
  80   1 H      0.236  0.764  0.000  0.000     0.942     1.520
  81   7 N     -0.176  1.255  3.921  0.000    24.816     7.399
  82   6 C      0.013  1.074  2.913  0.000    20.370     6.427
  83   6 C      0.271  1.050  2.679  0.000    22.421     7.754
  84   8 O     -0.487  1.739  4.748  0.000    23.508     6.501
  85   6 C     -0.073  1.059  3.014  0.000    21.903     6.664
  86   6 C     -0.076  1.058  3.018  0.000    21.943     6.669
  87   6 C     -0.009  1.041  2.968  0.000    20.828     6.514
  88   7 N     -0.179  1.219  3.960  0.000    24.880     7.408
  89   6 C      0.239  1.014  2.748  0.000    23.005     7.853
  90   7 N     -0.218  1.220  3.998  0.000    25.753     7.537
  91   7 N     -0.246  1.253  3.993  0.000    26.415     7.633
  92   1 H      0.211  0.789  0.000  0.000     1.051     1.606
  93   1 H      0.088  0.912  0.000  0.000     1.895     2.153
  94   1 H      0.059  0.941  0.000  0.000     2.206     2.322
  95   1 H      0.076  0.924  0.000  0.000     2.017     2.221
  96   1 H      0.064  0.936  0.000  0.000     2.153     2.295
  97   1 H      0.052  0.948  0.000  0.000     2.299     2.371
  98   1 H      0.078  0.922  0.000  0.000     2.005     2.214
  99   1 H      0.067  0.933  0.000  0.000     2.119     2.276
 100   1 H      0.200  0.800  0.000  0.000     1.104     1.646
 101   1 H      0.260  0.740  0.000  0.000     0.845     1.440
 102   1 H      0.243  0.757  0.000  0.000     0.911     1.496
 103   1 H      0.248  0.752  0.000  0.000     0.892     1.479
 104   1 H      0.213  0.787  0.000  0.000     1.043     1.600
 105   7 N     -0.200  1.280  3.919  0.000    25.334     7.475
 106   6 C      0.021  1.068  2.910  0.000    20.222     6.404
 107   6 C      0.276  1.034  2.690  0.000    22.332     7.739
 108   8 O     -0.482  1.732  4.750  0.000    23.398     6.485
 109   6 C     -0.072  1.049  3.022  0.000    21.860     6.655
 110   6 C     -0.016  1.065  2.951  0.000    20.831     6.492
 111   6 C     -0.122  1.045  3.078  0.000    22.906     6.825
 112   6 C     -0.117  1.040  3.076  0.000    22.791     6.808
 113   1 H      0.228  0.772  0.000  0.000     0.974     1.546
 114   1 H      0.068  0.932  0.000  0.000     2.109     2.271
 115   1 H      0.070  0.930  0.000  0.000     2.090     2.261
 116   1 H      0.053  0.947  0.000  0.000     2.281     2.362
 117   1 H      0.036  0.964  0.000  0.000     2.498     2.472
 118   1 H      0.041  0.959  0.000  0.000     2.432     2.439
 119   1 H      0.041  0.959  0.000  0.000     2.434     2.440
 120   1 H      0.052  0.948  0.000  0.000     2.298     2.371
 121   1 H      0.045  0.955  0.000  0.000     2.383     2.414
 122   1 H      0.047  0.953  0.000  0.000     2.363     2.404
 123   1 H      0.030  0.970  0.000  0.000     2.589     2.516
 124   7 N     -0.160  1.241  3.919  0.000    24.472     7.347
 125   6 C      0.022  1.067  2.911  0.000    20.212     6.402
 126   6 C      0.195  1.091  2.714  0.000    23.841     7.997
 127   8 O     -0.374  1.772  4.602  0.000    21.164     6.168
 128   6 C     -0.016  1.066  2.950  0.000    20.821     6.490
 129   6 C     -0.058  1.049  3.009  0.000    21.608     6.617
 130   6 C     -0.123  1.041  3.081  0.000    22.909     6.825
 131   6 C     -0.108  1.038  3.070  0.000    22.621     6.783
 132   1 H      0.205  0.795  0.000  0.000     1.081     1.629
 133   1 H      0.093  0.907  0.000  0.000     1.854     2.130
 134   1 H      0.056  0.944  0.000  0.000     2.242     2.342
 135   1 H      0.044  0.956  0.000  0.000     2.397     2.421
 136   1 H      0.034  0.966  0.000  0.000     2.526     2.486
 137   1 H      0.070  0.930  0.000  0.000     2.089     2.260
 138   1 H      0.036  0.964  0.000  0.000     2.503     2.474
 139   1 H      0.055  0.945  0.000  0.000     2.259     2.350
 140   1 H      0.036  0.964  0.000  0.000     2.501     2.473
 141   1 H      0.039  0.961  0.000  0.000     2.461     2.453
 142   1 H      0.049  0.951  0.000  0.000     2.333     2.389
 143   7 N     -0.385  1.323  4.062  0.000    29.967     8.130
 144   6 C      0.036  1.054  2.911  0.000    19.988     6.368
 145   6 C      0.207  1.082  2.712  0.000    23.618     7.960
 146   8 O     -0.376  1.755  4.621  0.000    21.208     6.174
 147   6 C     -0.056  1.049  3.007  0.000    21.564     6.609
 148   6 C     -0.095  1.060  3.035  0.000    22.308     6.724
 149   6 C      0.278  1.047  2.675  0.000    22.303     7.733
 150   8 O     -0.498  1.759  4.739  0.000    23.730     6.531
 151   7 N     -0.282  1.266  4.016  0.000    27.283     7.758
 152   1 H      0.165  0.835  0.000  0.000     1.305     1.790
 153   1 H      0.069  0.931  0.000  0.000     2.094     2.263
 154   1 H      0.052  0.948  0.000  0.000     2.300     2.371
 155   1 H      0.051  0.949  0.000  0.000     2.311     2.377
 156   1 H      0.070  0.930  0.000  0.000     2.090     2.261
 157   1 H      0.059  0.941  0.000  0.000     2.208     2.324
 158   1 H      0.232  0.768  0.000  0.000     0.958     1.533
 159   1 H      0.230  0.770  0.000  0.000     0.967     1.540
 160   7 N     -0.390  1.312  4.078  0.000    30.098     8.148
 161   6 C      0.034  1.061  2.904  0.000    20.017     6.373
 162   6 C      0.268  1.054  2.678  0.000    22.468     7.762
 163   8 O     -0.541  1.770  4.770  0.000    24.701     6.663
 164   6 C     -0.074  1.062  3.012  0.000    21.902     6.662
 165   6 C     -0.006  1.055  2.951  0.000    20.653     6.464
 166   6 C     -0.110  1.037  3.073  0.000    22.662     6.787
 167   6 C     -0.106  1.040  3.067  0.000    22.578     6.774
 168   1 H      0.157  0.843  0.000  0.000     1.357     1.825
 169   1 H      0.048  0.952  0.000  0.000     2.349     2.397
 170   1 H      0.048  0.952  0.000  0.000     2.347     2.396
 171   1 H      0.035  0.965  0.000  0.000     2.520     2.482
 172   1 H      0.005  0.995  0.000  0.000     2.969     2.695
 173   1 H      0.034  0.966  0.000  0.000     2.531     2.488
 174   1 H      0.031  0.969  0.000  0.000     2.574     2.509
 175   1 H      0.054  0.946  0.000  0.000     2.274     2.358
 176   1 H      0.033  0.967  0.000  0.000     2.538     2.492
 177   1 H      0.043  0.957  0.000  0.000     2.405     2.425
 178   1 H      0.034  0.966  0.000  0.000     2.533     2.489
 179   7 N     -0.162  1.257  3.905  0.000    24.497     7.351
 180   6 C      0.023  1.069  2.908  0.000    20.191     6.398
 181   6 C      0.204  1.083  2.713  0.000    23.662     7.967
 182   8 O     -0.360  1.746  4.614  0.000    20.898     6.129
 183   6 C     -0.009  1.056  2.953  0.000    20.697     6.470
 184   6 C     -0.118  1.042  3.075  0.000    22.805     6.809
 185   6 C     -0.113  1.041  3.072  0.000    22.712     6.795
 186   1 H      0.226  0.774  0.000  0.000     0.981     1.551
 187   1 H      0.097  0.903  0.000  0.000     1.813     2.106
 188   1 H      0.059  0.941  0.000  0.000     2.214     2.327
 189   1 H      0.059  0.941  0.000  0.000     2.210     2.325
 190   1 H      0.026  0.974  0.000  0.000     2.650     2.546
 191   1 H      0.057  0.943  0.000  0.000     2.235     2.338
 192   1 H      0.050  0.950  0.000  0.000     2.314     2.379
 193   1 H      0.053  0.947  0.000  0.000     2.282     2.362
 194   1 H      0.044  0.956  0.000  0.000     2.392     2.419
 195   8 O     -0.625  1.754  4.871  0.000    25.795     6.855
 196   1 H      0.317  0.683  0.000  0.000     0.673     1.288
 197   1 H      0.333  0.667  0.000  0.000     0.630     1.246
 198   8 O     -0.629  1.715  4.914  0.000    25.976     6.874
 199   1 H      0.322  0.678  0.000  0.000     0.684     1.312
 200   1 H      0.316  0.684  0.000  0.000     0.675     1.290
 201   1 H      0.175  0.825  0.000  0.000     1.240     1.744
 202   1 H      0.102  0.898  0.000  0.000     1.768     2.079
 203   1 H      0.187  0.813  0.000  0.000     1.173     1.696
 204   1 H     -0.036  1.036  0.000  0.000     3.771     3.036
 205   1 H      0.189  0.811  0.000  0.000     1.161     1.688
 206   1 H      0.122  0.878  0.000  0.000     1.596     1.975
 207   1 H      0.182  0.818  0.000  0.000     1.200     1.716
 208   1 H      0.093  0.907  0.000  0.000     1.854     2.129
 209   1 H      0.181  0.819  0.000  0.000     1.207     1.721
 210   1 H      0.065  0.935  0.000  0.000     2.139     2.287
 211   1 H      0.182  0.818  0.000  0.000     1.201     1.717
 212   1 H      0.074  0.926  0.000  0.000     2.044     2.236

 Mol. C6AA /au·bohr⁶  :     382008.236178
 Mol. C8AA /au·bohr⁸  :    8269988.833903
 Mol. α(0) /au        :        919.014991

 
molecular dipole:
                 x           y           z       tot (Debye)
 q only:      -33.610     -76.555     -50.847
   full:      -34.524     -75.604     -49.472     245.850
molecular quadrupole (traceless):
                xx          xy          yy          xz          yz          zz
 q only:     3047.159   -3900.029   -3963.666   -2643.460   -5874.303     916.507
  q+dip:     2885.799   -3979.298   -3860.447   -2633.757   -5653.608     974.648
   full:     2886.259   -3979.399   -3860.707   -2633.822   -5653.082     974.448
speedup  1.79
cpu  time for grad    2.36 s
wall time for grad    1.31 s

SCC energy    :    -316.1248988
rep           :       4.2172598
ES            :       1.0374331
AES           :      -0.0040930
AXC           :       0.1143704
disp          :      -0.2329648
XB            :       0.0000000
fix           :       0.0000000
Gborn         :       0.0000000
Gsasa         :       0.0000000
Ghb           :       0.0000000
Gshift        :       0.0000000
Gsolv         :      -0.2380522     -149.38
Etot ala COSMO:    -316.1248988
grad norm     :       2.0060901
total E       :    -311.8895422
atomizationE  :      56.4384050    35415.63
(atE without considering molecular charge,
 total energy contains solvation terms)
H-L gap (eV)  :          0.5260

------------------------------------------------------------------------
 * finished run on 2019/05/03 at 23:04:35.959     
------------------------------------------------------------------------
 total:
 * wall-time:     0 d,  0 h,  0 min,  1.751 sec
 *  cpu-time:     0 d,  0 h,  0 min,  2.769 sec
 * ratio c/w:     1.581 speedup
 SCF:
 * wall-time:     0 d,  0 h,  0 min,  1.417 sec
 *  cpu-time:     0 d,  0 h,  0 min,  2.537 sec
 * ratio c/w:     1.790 speedup

