      -----------------------------------------------------------      
     |                   =====================                   |     
     |                           x T B                           |     
     |                   =====================                   |     
     |                         S. Grimme                         |     
     |          Mulliken Center for Theoretical Chemistry        |     
     |                    University of Bonn                     |     
     |                 Version 6.0.1 (SAW181210)                 |     
      -----------------------------------------------------------      

   This program is distributed in the hope that it will be useful,
   but WITHOUT ANY WARRANTY; without even the implied warranty of
   MERCHANTABILITY or FITNESS FOR A PARTICULAR PURPOSE.
   
   FOR NON-COMMERCIAL, ACADEMIA USE ONLY.
   
   Cite this work as:
   S. Grimme, C. Bannwarth, P. Shushkov, J. Comput. Theory Chem., 2017,
   13, 1989-2009.
   C. Bannwarth, S. Ehlert and S. Grimme., ChemRxiv, 2018, preprint.
   http://doi.org/10.26434/chemrxiv.7246238.v1
   
   for sTDA-xTB:
   S. Grimme and C. Bannwarth, J. Chem. Phys., 2016, 145, 054103.
   
   in the mass-spec context:
   V. Asgeirsson, C. Bauer and S. Grimme, Chem. Sci., 2017, 8, 4879.
   
   if GBSA is used:
   P. Shushkov, F. März and S. Grimme, unpublished.
   
   for ANC optimizer:
   S. Grimme, unpublished.
   Rational Function algorithm used in ANCopt:
   F. Eckert, P. Pulay, H.-J. Werner, J. Comput. Chem., 1997, 18, 1473.
   
   with help from (in alphabetical order)
   C. Bannwarth, F. Bohle, G. Brandenburg, E. Caldeweyher, M. Checinski,
   S. Dohm, S. Ehlert, S. Ehrlich, F. März, H. Neugebauer, J. Pisarek,
   P. Pracht, P. Shushkov, and S. Spicher.
   
 * started run on 2019/05/04 at 17:40:50.354     
========================================================================
 # omp threads = 2
========================================================================
number of atoms            : 577
number of electrons        : 1526
charge                     : 6
spin                       : .0
first test random number   : .6986

########################################################################
# WARNING! Please study the warnings concerning your input carefully
#  - Process number higher than OMP_NUM_THREADS, I hope you know what you are doing.
########################################################################

           ------------------------------------------------- 
          |                 G F N 2 - x T B                 |
          | Geometry, Frequencies, Noncovalent interactions |
          |            JCTC 2018 parametrisation            |
           ------------------------------------------------- 
 
      method parameters     
 k(s)        :  1.8500
 k(p)        :  2.2300
 k(d)        :  2.2300
 k(f)        :  2.0000
 kEN (H0ij)  : -2.0000
 D4 a1       :  0.5200
 D4 a2       :  5.0000
 D4 s6       :  1.0000
 D4 s8       :  2.7000
 D4 s9       :  5.0000
 alphaj      :  2.0000

 Solvent             : h2o
 Using internal parameter file: .param_gbsa2_h2o
 Gsolv ref. state (COSMO-RS): gsolv [1 M gas/solution]
 temperature (mdtemp)       :    298.150000000000     
 dielectric constant        :    80.2000000000000     
 rho                        :    1.00000000000000     
 mass                       :    18.0000000000000     
 surface tension            :    15.5689454083859     
 probe radius               :   0.975313790000000     
 vdW radii scaling          :    1.00000000000000     
 Gshift (Eh)                :   1.857443126794793E-003
 c1                         :    1.55243817000000     
 soset                      :   0.130326360000000     
 HB correction              :  T

            Z     q(EN)     CN     RAES       Cart. coordinates
     1  N   5.0   -0.20    3.26    1.97    26.24640    99.54320   208.51047
     2  C   4.0    0.03    4.33    4.25    28.12479    97.74985   207.62986
     3  C   4.0    0.16    3.44    3.09    26.63191    95.55399   206.52059
     4  O   6.0   -0.31    1.29    1.80    26.94749    94.82645   204.33607
     5  C   4.0   -0.04    4.31    4.21    29.76507    96.72184   209.79549
     6  C   4.0   -0.04    4.19    3.98    31.34110    98.62291   211.25624
     7  C   4.0   -0.04    4.20    4.00    32.99839   100.14792   209.51014
     8  C   4.0   -0.02    4.13    3.86    33.29319   102.86534   210.45878
     9  N   5.0   -0.10    3.99    2.84    33.92058   104.64924   208.36307
    10  H   1.0    0.09    1.02    1.43    26.26341    99.93438   210.39831
    11  H   1.0    0.04    1.05    1.44    29.40414    98.66259   206.29760
    12  H   1.0    0.05    1.04    1.43    28.51785    95.80722   211.15609
    13  H   1.0    0.05    1.03    1.43    31.07465    95.34423   209.00180
    14  H   1.0    0.06    1.04    1.43    30.09389    99.91737   212.26347
    15  H   1.0    0.06    1.03    1.43    32.55053    97.62702   212.59417
    16  H   1.0    0.06    1.03    1.43    34.86733    99.28620   209.41376
    17  H   1.0    0.04    1.05    1.44    32.14991   100.20272   207.63364
    18  H   1.0    0.06    1.03    1.43    31.52630   103.47950   211.32049
    19  H   1.0    0.07    1.02    1.43    34.81442   102.93904   211.84584
    20  H   1.0    0.10    1.01    1.43    34.10766   106.47472   209.06794
    21  H   1.0    0.08    1.01    1.43    35.61000   104.11823   207.51081
    22  H   1.0    0.07    1.01    1.43    32.49195   104.63035   207.01381
    23  N   5.0   -0.14    3.50    2.08    24.97651    94.51086   208.08717
    24  C   4.0    0.03    4.43    4.43    23.60646    92.20918   207.47868
    25  C   4.0    0.16    3.54    3.13    21.97562    92.44161   205.11463
    26  O   6.0   -0.30    1.36    1.80    22.13814    90.84480   203.43278
    27  C   4.0   -0.03    4.37    4.32    22.01342    91.39849   209.72557
    28  C   4.0   -0.00    3.62    3.18    19.81189    89.76387   209.03771
    29  C   4.0   -0.03    3.49    3.11    19.97818    87.16928   209.17377
    30  C   4.0   -0.03    3.54    3.13    17.55366    90.82212   208.27426
    31  C   4.0   -0.03    3.45    3.10    17.94484    85.66128   208.56716
    32  C   4.0   -0.03    3.46    3.10    15.51087    89.34057   207.65443
    33  C   4.0    0.08    3.47    3.10    15.70929    86.75921   207.80938
    34  O   6.0   -0.22    2.10    1.84    13.66461    85.27955   207.19900
    35  H   1.0    0.08    1.07    1.44    24.53431    95.22518   209.82194
    36  H   1.0    0.06    1.06    1.44    25.00674    90.75031   207.08373
    37  H   1.0    0.05    1.04    1.43    23.20206    90.33457   211.02948
    38  H   1.0    0.05    1.04    1.43    21.27831    93.08223   210.65720
    39  H   1.0    0.06    1.03    1.43    21.72996    86.30378   209.76525
    40  H   1.0    0.05    1.04    1.43    17.38737    92.85357   208.16087
    41  H   1.0    0.06    1.04    1.43    18.10168    83.62982   208.68433
    42  H   1.0    0.06    1.03    1.43    13.76287    90.20229   207.04971
    43  H   1.0    0.13    1.03    1.43    12.23409    86.34725   206.70389
    44  N   5.0   -0.14    3.50    2.08    20.38258    94.38803   204.98802
    45  C   4.0    0.03    4.43    4.43    19.02387    94.90204   202.64476
    46  C   4.0    0.16    3.52    3.12    21.02509    95.00786   200.58307
    47  O   6.0   -0.29    1.40    1.80    21.55799    93.12381   199.34341
    48  C   4.0   -0.05    4.30    4.20    17.53099    97.37758   202.79027
    49  C   4.0   -0.05    4.18    3.97    15.62614    97.47962   204.96913
    50  C   4.0   -0.04    4.18    3.97    14.17483    99.97406   204.99369
    51  C   4.0   -0.02    4.13    3.87    12.35314   100.10634   207.21034
    52  N   5.0   -0.10    4.01    2.89    10.64861   102.31354   206.90609
    53  H   1.0    0.08    1.06    1.44    20.00653    95.60502   206.43366
    54  H   1.0    0.05    1.05    1.44    17.61603    93.45262   202.24603
    55  H   1.0    0.05    1.04    1.43    18.85569    98.93282   203.04349
    56  H   1.0    0.04    1.03    1.43    16.48597    97.62135   201.03283
    57  H   1.0    0.04    1.03    1.43    14.26932    95.94328   204.76126
    58  H   1.0    0.05    1.03    1.43    16.62770    97.29632   206.75870
    59  H   1.0    0.06    1.03    1.43    15.50709   101.53686   205.15432
    60  H   1.0    0.05    1.03    1.43    13.09013   100.14981   203.25136
    61  H   1.0    0.05    1.02    1.43    11.21363    98.39236   207.27837
    62  H   1.0    0.06    1.02    1.43    13.40761   100.31988   208.96590
    63  H   1.0    0.09    1.01    1.43     9.39761   102.41181   208.41976
    64  H   1.0    0.09    1.02    1.43    11.70118   103.97272   206.83995
    65  H   1.0    0.08    1.02    1.43     9.62059   102.14536   205.23936
    66  N   5.0   -0.14    3.46    2.05    22.19105    97.19994   200.28827
    67  C   4.0    0.04    4.41    4.39    24.29054    97.53065   198.53461
    68  C   4.0    0.17    3.50    3.11    25.60012    95.10424   197.57841
    69  O   6.0   -0.31    1.29    1.80    25.63980    94.60724   195.33152
    70  C   4.0   -0.03    4.30    4.20    26.20672    99.33155   199.70057
    71  C   4.0    0.05    3.71    3.25    28.27786   100.07989   197.94501
    72  N   5.0   -0.13    2.58    1.90    28.11156   102.15858   196.37843
    73  C   4.0    0.00    3.61    3.17    30.57577    99.04054   197.51605
    74  C   4.0    0.09    3.56    3.14    30.20916   102.35890   195.05373
    75  N   5.0   -0.10    3.47    2.06    31.74551   100.48996   195.70002
    76  H   1.0    0.08    1.07    1.44    21.72618    98.80621   201.24448
    77  H   1.0    0.06    1.07    1.44    23.47418    98.31677   196.81496
    78  H   1.0    0.06    1.04    1.43    25.22973   101.04743   200.28827
    79  H   1.0    0.06    1.04    1.43    27.06654    98.41693   201.33329
    80  H   1.0    0.05    1.01    1.43    31.34677    97.38514   198.42689
    81  H   1.0    0.08    1.01    1.43    30.60978   103.80454   193.67045
    82  H   1.0    0.09    1.04    1.43    33.50295   100.17815   194.97247
    83  N   5.0   -0.13    3.50    2.07    26.67159    93.56789   199.22625
    84  C   4.0    0.04    4.44    4.44    28.07755    91.38904   198.27194
    85  C   4.0    0.17    3.48    3.11    26.43916    89.12137   197.47069
    86  O   6.0   -0.31    1.30    1.80    27.18560    87.61903   195.83986
    87  C   4.0    0.03    4.18    3.96    29.95216    90.47630   200.22591
    88  O   6.0   -0.24    2.12    1.84    28.89580    88.38815   201.47313
    89  H   1.0    0.12    1.10    1.44    26.61301    93.75686   201.14432
    90  H   1.0    0.05    1.07    1.44    29.06587    92.05800   196.59197
    91  H   1.0    0.04    1.01    1.43    31.70393    89.91505   199.29806
    92  H   1.0    0.05    1.02    1.43    30.32443    91.97863   201.58463
    93  H   1.0    0.12    1.01    1.43    30.07310    87.75320   202.75437
    94  N   5.0   -0.12    3.52    2.09    24.26219    88.82657   198.68957
    95  C   4.0    0.03    4.51    4.55    22.40837    86.88960   197.99226
    96  C   4.0    0.16    3.58    3.16    21.99452    86.98786   195.16901
    97  O   6.0   -0.31    1.24    1.80    22.07389    85.07546   193.83864
    98  C   4.0   -0.02    4.32    4.23    19.84401    87.42250   199.28861
    99  C   4.0   -0.07    4.16    3.92    17.62547    86.49654   197.68801
   100  C   4.0   -0.07    4.11    3.83    19.77787    86.27544   201.92478
   101  H   1.0    0.13    1.11    1.44    23.71039    89.90560   200.18812
   102  H   1.0    0.05    1.05    1.44    23.13025    85.05468   198.58374
   103  H   1.0    0.07    1.07    1.44    19.63614    89.46341   199.47947
   104  H   1.0    0.04    1.00    1.43    15.86614    86.91228   198.67634
   105  H   1.0    0.05    1.02    1.43    17.65760    87.46786   195.87198
   106  H   1.0    0.05    1.00    1.43    17.80689    84.46508   197.40077
   107  H   1.0    0.05    1.00    1.43    17.95240    86.68173   202.78649
   108  H   1.0    0.04    1.00    1.43    20.04810    84.23831   201.77738
   109  H   1.0    0.07    1.02    1.43    21.28776    87.10314   203.05483
   110  N   5.0   -0.14    3.59    2.15    21.49752    89.28955   194.32052
   111  C   4.0    0.03    4.59    4.66    21.39548    89.95473   191.69002
   112  C   4.0    0.16    3.64    3.19    23.74441    89.11003   190.32186
   113  O   6.0   -0.31    1.31    1.80    23.65937    87.41872   188.71559
   114  C   4.0   -0.02    4.47    4.49    21.41815    92.76854   191.46703
   115  C   4.0   -0.06    4.24    4.08    22.07956    93.51687   188.80630
   116  C   4.0   -0.07    4.14    3.87    18.90104    93.84190   192.30985
   117  H   1.0    0.09    1.08    1.44    21.14414    90.78999   195.47703
   118  H   1.0    0.05    1.06    1.44    19.72874    89.04578   190.89067
   119  H   1.0    0.07    1.09    1.44    22.85624    93.57167   192.70291
   120  H   1.0    0.06    1.00    1.43    22.09090    95.57289   188.67024
   121  H   1.0    0.06    1.05    1.44    23.94472    92.77232   188.34332
   122  H   1.0    0.05    1.00    1.43    20.67360    92.73452   187.52129
   123  H   1.0    0.06    1.00    1.43    18.95395    95.89414   192.13411
   124  H   1.0    0.05    1.00    1.43    17.41005    93.07278   191.11554
   125  H   1.0    0.05    1.00    1.43    18.57034    93.31278   194.27328
   126  N   5.0   -0.14    3.57    2.13    25.84956    90.32323   190.97381
   127  C   4.0    0.04    4.41    4.39    28.27975    89.79978   189.79652
   128  C   4.0    0.16    3.49    3.11    28.78053    86.98031   189.40156
   129  O   6.0   -0.30    1.25    1.80    29.86523    86.26221   187.49105
   130  C   4.0   -0.04    4.31    4.22    30.37545    91.03755   191.30830
   131  C   4.0   -0.04    4.19    3.99    33.01918    90.01710   190.85287
   132  C   4.0   -0.05    4.18    3.97    34.85222    91.43250   192.60843
   133  C   4.0   -0.03    4.10    3.80    37.11044    89.86781   193.48148
   134  N   5.0   -0.11    3.99    2.83    38.18947    90.96952   195.87765
   135  H   1.0    0.10    1.08    1.44    25.92893    91.69328   192.32686
   136  H   1.0    0.06    1.06    1.44    28.26085    90.61236   187.90301
   137  H   1.0    0.05    1.03    1.43    30.40758    93.04444   190.84342
   138  H   1.0    0.05    1.04    1.43    29.96160    90.78621   193.30952
   139  H   1.0    0.05    1.03    1.43    33.08721    88.00454   191.28562
   140  H   1.0    0.06    1.02    1.43    33.57476    90.33646   188.89512
   141  H   1.0    0.06    1.03    1.43    35.58543    93.07656   191.60876
   142  H   1.0    0.04    1.04    1.43    33.82420    92.03154   194.29028
   143  H   1.0    0.04    1.02    1.43    36.51140    87.93273   193.85376
   144  H   1.0    0.06    1.02    1.43    38.57120    89.88670   192.02828
   145  H   1.0    0.08    1.01    1.43    39.72960    89.90371   196.47292
   146  H   1.0    0.07    1.01    1.43    38.77718    92.81767   195.56207
   147  H   1.0    0.06    1.01    1.43    36.82509    90.96574   197.29306
   148  N   5.0   -0.13    3.48    2.06    27.95661    85.36837   191.14578
   149  C   4.0    0.04    4.46    4.48    28.18904    82.64905   190.68847
   150  C   4.0    0.16    3.46    3.10    26.32388    81.66073   188.72504
   151  O   6.0   -0.30    1.29    1.80    27.09111    80.57036   186.81642
   152  C   4.0   -0.05    4.29    4.18    27.95850    81.12782   193.12432
   153  C   4.0   -0.05    4.19    3.98    30.46427    80.67051   194.41690
   154  C   4.0   -0.05    4.18    3.97    32.31998    79.28156   192.68024
   155  C   4.0   -0.04    4.12    3.84    35.00150    79.42707   193.75171
   156  N   5.0   -0.12    3.99    2.82    36.86288    77.82458   192.36276
   157  H   1.0    0.12    1.09    1.44    27.15158    85.85781   192.82764
   158  H   1.0    0.06    1.09    1.44    30.08822    82.37315   189.94013
   159  H   1.0    0.05    1.03    1.43    26.74718    82.15395   194.43768
   160  H   1.0    0.04    1.04    1.43    27.12891    79.29479   192.68780
   161  H   1.0    0.05    1.03    1.43    31.29953    82.47898   194.94224
   162  H   1.0    0.04    1.03    1.43    30.16381    79.51778   196.09686
   163  H   1.0    0.05    1.03    1.43    31.77763    77.29924   192.53284
   164  H   1.0    0.05    1.04    1.43    32.30864    80.15651   190.81508
   165  H   1.0    0.04    1.02    1.43    35.65346    81.37916   193.64967
   166  H   1.0    0.04    1.02    1.43    34.96938    78.79590   195.71325
   167  H   1.0    0.06    1.01    1.43    38.64301    78.00222   193.17724
   168  H   1.0    0.06    1.01    1.43    36.31297    75.93864   192.43646
   169  H   1.0    0.07    1.01    1.43    36.96304    78.38583   190.48249
   170  N   5.0   -0.14    3.55    2.11    23.88614    82.03867   189.20692
   171  C   4.0    0.04    4.57    4.63    21.92460    81.11271   187.52506
   172  C   4.0    0.16    3.52    3.12    22.40459    81.92340   184.82276
   173  O   6.0   -0.32    1.29    1.80    21.63736    80.68941   183.01429
   174  C   4.0   -0.03    4.19    3.98    19.37914    82.06513   188.40190
   175  S   6.0   -0.03    2.53    3.10    18.16783    80.14517   190.82453
   176  H   1.0    0.11    1.08    1.44    23.21150    82.97976   190.74894
   177  H   1.0    0.05    1.09    1.44    21.89625    79.05480   187.58176
   178  H   1.0    0.06    1.08    1.44    19.57756    83.98320   189.12377
   179  H   1.0    0.05    1.09    1.44    18.05633    82.03867   186.82209
   180  N   5.0   -0.13    3.60    2.16    23.72173    84.00777   184.53741
   181  C   4.0    0.05    4.65    4.71    24.35290    84.81279   182.03541
   182  C   4.0    0.16    3.58    3.15    26.36168    83.07613   180.94504
   183  O   6.0   -0.30    1.33    1.80    25.99885    81.98387   178.92870
   184  C   4.0   -0.03    4.21    4.01    25.30343    87.49242   182.11100
   185  S   6.0    0.02    2.65    3.10    26.15570    88.43162   179.11578
   186  H   1.0    0.11    1.11    1.44    24.35479    85.13971   185.96415
   187  H   1.0    0.06    1.08    1.44    22.68238    84.75610   180.83355
   188  H   1.0    0.05    1.09    1.44    23.81622    88.73964   182.80264
   189  H   1.0    0.06    1.09    1.44    26.95127    87.61147   183.34121
   190  N   5.0   -0.13    3.48    2.07    28.46116    82.80401   182.29997
   191  C   4.0    0.04    4.40    4.38    30.58144    81.29790   181.38912
   192  C   4.0    0.17    3.53    3.13    29.68948    78.72598   180.38568
   193  O   6.0   -0.31    1.35    1.80    30.12034    78.07781   178.20116
   194  C   4.0   -0.03    4.29    4.18    32.61289    80.98799   183.44893
   195  C   4.0   -0.01    3.51    3.12    34.98450    79.60282   182.56075
   196  C   4.0   -0.03    3.47    3.10    35.06764    76.96854   182.44926
   197  C   4.0   -0.03    3.44    3.09    37.14256    80.91995   181.84266
   198  C   4.0   -0.03    3.54    3.13    37.22571    75.68730   181.62912
   199  C   4.0   -0.02    3.42    3.08    39.31764    79.65384   181.00929
   200  C   4.0    0.08    3.43    3.09    39.34031    77.03657   180.90724
   201  O   6.0   -0.19    2.09    1.84    41.47759    75.76667   180.08710
   202  H   1.0    0.11    1.07    1.44    28.75218    83.59959   184.03096
   203  H   1.0    0.06    1.06    1.44    31.46583    82.31646   179.83199
   204  H   1.0    0.06    1.03    1.43    33.18548    82.85692   184.09899
   205  H   1.0    0.06    1.03    1.43    31.80976    79.91462   185.01173
   206  H   1.0    0.07    1.03    1.43    33.42547    75.89517   183.01051
   207  H   1.0    0.07    1.03    1.43    37.14445    82.95897   181.92770
   208  H   1.0    0.07    1.05    1.44    37.24083    73.64829   181.55920
   209  H   1.0    0.08    1.03    1.43    40.96926    80.71397   180.44993
   210  H   1.0    0.15    1.02    1.43    42.80418    76.97988   179.64491
   211  N   5.0   -0.13    3.59    2.15    28.43849    77.25011   181.96549
   212  C   4.0    0.05    4.53    4.58    27.62212    74.77835   181.12834
   213  C   4.0    0.16    3.55    3.14    26.04231    75.12983   178.79075
   214  O   6.0   -0.26    1.25    1.80    26.28231    73.74656   176.95394
   215  C   4.0   -0.03    4.34    4.27    26.05554    73.51979   183.15980
   216  C   4.0    0.25    3.17    3.03    27.41047    73.42152   185.66180
   217  O   6.0   -0.29    1.23    1.80    29.68004    74.09615   185.78463
   218  O   6.0   -0.32    1.28    1.80    26.18782    72.66185   187.52129
   219  H   1.0    0.11    1.08    1.44    27.97550    77.69797   183.78152
   220  H   1.0    0.06    1.06    1.44    29.24351    73.56514   180.75040
   221  H   1.0    0.05    1.03    1.43    24.30754    74.57992   183.41869
   222  H   1.0    0.06    1.03    1.43    25.63035    71.58849   182.58532
   223  N   5.0   -0.13    3.48    2.07    24.41904    77.02145   178.88146
   224  C   4.0    0.04    4.31    4.21    22.76553    77.59215   176.78386
   225  C   4.0    0.18    3.38    3.07    24.17337    77.95497   174.34045
   226  O   6.0   -0.23    1.25    1.80    23.27009    77.20286   172.36757
   227  H   1.0    0.11    1.07    1.44    24.20172    78.20253   180.38946
   228  H   1.0    0.07    1.06    1.44    21.42760    76.04635   176.53442
   229  H   1.0    0.07    1.03    1.43    21.72429    79.32125   177.19204
   230  N   5.0   -0.12    3.51    2.09    26.39191    79.10204   174.45383
   231  C   4.0    0.05    4.36    4.31    27.88291    79.46676   172.16915
   232  C   4.0    0.18    3.40    3.08    29.29264    77.04413   171.41515
   233  O   6.0   -0.21    1.24    1.80    29.22650    76.27879   169.21551
   234  C   4.0   -0.05    4.11    3.82    29.71972    81.64561   172.51686
   235  H   1.0    0.12    1.10    1.44    27.19883    79.78990   176.06388
   236  H   1.0    0.09    1.06    1.44    26.60734    79.95808   170.62714
   237  H   1.0    0.08    1.00    1.43    30.81387    81.88372   170.78776
   238  H   1.0    0.06    1.00    1.43    28.65580    83.36337   172.91559
   239  H   1.0    0.07    1.00    1.43    30.97828    81.21664   174.09100
   240  N   5.0   -0.12    3.44    2.04    30.53986    75.84982   173.25574
   241  C   4.0    0.05    4.39    4.35    32.07054    73.59160   172.81733
   242  C   4.0    0.13    3.25    3.04    30.93859    71.76612   170.88414
   243  O   6.0   -0.19    1.12    1.80    28.80320    70.89496   171.20728
   244  C   4.0   -0.01    4.10    3.81    32.58454    72.21966   175.31177
   245  S   6.0    0.02    2.41    3.10    35.57409    72.98878   176.67048
   246  H   1.0    0.11    1.10    1.44    30.52474    76.41296   175.10012
   247  H   1.0    0.07    1.08    1.44    33.86389    74.23221   172.03498
   248  H   1.0    0.07    1.08    1.44    31.12190    72.73555   176.66859
   249  H   1.0    0.08    1.08    1.44    32.54675    70.18820   174.97351
   250  H   1.0    0.06    1.05    1.44    35.20937    74.28324   178.72650
   251  N   5.0   -0.15    3.21    1.96     7.17718    67.58605   184.41269
   252  C   4.0    0.03    4.30    4.19     7.74599    69.10728   186.65012
   253  C   4.0    0.10    3.23    3.04     5.56146    69.18854   188.55497
   254  O   6.0   -0.20    1.12    1.80     3.35426    69.33216   187.82364
   255  C   4.0   -0.02    4.36    4.30     8.38660    71.81714   185.81864
   256  C   4.0   -0.05    4.21    4.03    10.83380    71.78691   184.28041
   257  C   4.0   -0.07    4.14    3.89     8.49432    73.63506   188.07498
   258  C   4.0   -0.07    4.03    3.68    11.65394    74.34371   183.36011
   259  H   1.0    0.11    1.03    1.43     7.10726    68.61595   182.78374
   260  H   1.0    0.04    1.06    1.44     9.33714    68.20399   187.59498
   261  H   1.0    0.07    1.06    1.44     6.87860    72.52768   184.60922
   262  H   1.0    0.04    1.03    1.43    12.34558    71.03102   185.45959
   263  H   1.0    0.06    1.03    1.43    10.55979    70.58504   182.62878
   264  H   1.0    0.05    1.00    1.43     8.95163    75.52479   187.39278
   265  H   1.0    0.06    1.02    1.43     6.65939    73.65207   189.01039
   266  H   1.0    0.03    1.00    1.43     9.94563    72.99066   189.38644
   267  H   1.0    0.05    1.00    1.43    13.40194    74.14151   182.29052
   268  H   1.0    0.06    1.00    1.43    10.17806    75.12794   182.15446
   269  H   1.0    0.04    1.00    1.43    11.96197    75.57392   184.98338
   270  N   5.0   -0.18    3.23    1.96     6.35704    73.34593   193.91990
   271  C   4.0    0.04    4.24    4.08     7.59292    75.08070   195.64333
   272  C   4.0    0.10    3.20    3.04     6.44208    77.70931   195.55073
   273  O   6.0   -0.27    1.12    1.80     7.49465    79.54234   196.54095
   274  C   4.0   -0.04    4.39    4.36    10.42751    75.21676   195.12554
   275  C   4.0   -0.03    4.20    4.00    11.98086    72.79413   195.06129
   276  C   4.0   -0.08    4.12    3.85    14.59435    73.34782   196.10064
   277  C   4.0   -0.06    4.16    3.92    10.70530    70.67575   196.52016
   278  H   1.0    0.08    1.04    1.43     6.46664    73.81270   192.05285
   279  H   1.0    0.06    1.06    1.44     7.36426    74.35505   197.55762
   280  H   1.0    0.04    1.04    1.43    10.67128    76.10682   193.28306
   281  H   1.0    0.05    1.05    1.44    11.26088    76.39784   196.59386
   282  H   1.0    0.03    1.06    1.44    12.14905    72.12895   193.11865
   283  H   1.0    0.04    1.01    1.43    15.71307    71.61872   196.05718
   284  H   1.0    0.04    1.00    1.43    15.48819    74.79157   194.93468
   285  H   1.0    0.05    1.00    1.43    14.41672    74.02057   198.03950
   286  H   1.0    0.05    1.01    1.43    11.88260    68.98823   196.42000
   287  H   1.0    0.06    1.00    1.43    10.47475    71.25779   198.48359
   288  H   1.0    0.05    1.03    1.43     8.86281    70.29781   195.67923
   289  N   5.0   -0.18    3.23    1.96     6.53278    88.66972   192.34387
   290  C   4.0    0.03    4.32    4.23     9.04612    89.75253   192.30796
   291  C   4.0    0.16    3.41    3.08    10.84136    88.07068   190.80185
   292  O   6.0   -0.30    1.24    1.80    11.94874    88.89460   188.94992
   293  C   4.0   -0.04    4.29    4.17     9.98909    90.07946   195.02161
   294  C   4.0   -0.04    4.15    3.89    10.85648    92.75342   195.70569
   295  C   4.0   -0.01    4.20    4.00    12.20385    92.82901   198.28327
   296  N   5.0   -0.14    3.37    2.01    10.47853    92.95751   200.44890
   297  C   4.0    0.10    3.34    3.06     9.45808    95.08912   201.32195
   298  N   5.0   -0.17    3.26    1.97     9.96830    97.27931   200.19001
   299  N   5.0   -0.16    3.22    1.96     7.91606    95.04188   203.31561
   300  H   1.0    0.10    1.03    1.43     5.54635    89.11003   193.94068
   301  H   1.0    0.06    1.06    1.44     9.00832    91.60258   191.40278
   302  H   1.0    0.06    1.04    1.43     8.45841    89.58057   196.30662
   303  H   1.0    0.04    1.04    1.43    11.59158    88.81901   195.31074
   304  H   1.0    0.05    1.03    1.43    12.17172    93.42805   194.27139
   305  H   1.0    0.06    1.03    1.43     9.21619    93.99686   195.80017
   306  H   1.0    0.04    1.03    1.43    13.33958    91.12259   198.48737
   307  H   1.0    0.04    1.03    1.43    13.41516    94.49386   198.34942
   308  H   1.0    0.08    1.06    1.44    10.03067    91.30967   201.34463
   309  H   1.0    0.09    1.03    1.43    11.13804    97.32278   198.65933
   310  H   1.0    0.10    1.02    1.43     9.18974    98.91204   200.85519
   311  H   1.0    0.10    1.02    1.43     7.51166    93.36758   204.18111
   312  H   1.0    0.10    1.02    1.43     7.14127    96.68027   203.97324
   313  N   5.0   -0.14    3.46    2.06    11.07568    85.69718   191.58987
   314  C   4.0    0.04    4.42    4.41    12.73675    83.89060   190.35965
   315  C   4.0    0.10    3.32    3.06    11.78811    83.20463   187.74616
   316  O   6.0   -0.31    1.24    1.80    13.21296    83.23298   185.89423
   317  C   4.0   -0.04    4.24    4.08    12.89171    81.49632   191.93002
   318  S   6.0   -0.04    2.40    3.10    14.55656    78.91874   190.42957
   319  H   1.0    0.09    1.06    1.44    10.12704    84.96019   193.09598
   320  H   1.0    0.05    1.06    1.44    14.60380    84.74665   190.19903
   321  H   1.0    0.04    1.08    1.44    13.87248    81.92907   193.68935
   322  H   1.0    0.05    1.07    1.44    10.97742    80.85004   192.33064
   323  N   5.0   -0.17    3.23    1.96    12.80478    88.84736   182.94815
   324  C   4.0    0.04    4.29    4.19    15.55622    88.90972   182.84988
   325  C   4.0    0.16    3.48    3.10    16.48030    86.87448   181.10189
   326  O   6.0   -0.28    1.26    1.80    17.57256    87.39605   179.13279
   327  C   4.0   -0.06    4.17    3.95    16.61825    88.47508   185.45015
   328  H   1.0    0.12    1.04    1.43    12.09803    89.38782   184.65835
   329  H   1.0    0.06    1.06    1.44    16.19873    90.74464   182.16769
   330  H   1.0    0.05    1.00    1.43    18.67427    88.52610   185.35188
   331  H   1.0    0.06    1.00    1.43    15.93795    89.95662   186.70870
   332  H   1.0    0.06    1.01    1.43    15.99464    86.63449   186.13045
   333  N   5.0   -0.14    3.53    2.10    16.02677    84.53500   181.86912
   334  C   4.0    0.04    4.37    4.32    16.89037    82.36182   180.45371
   335  C   4.0    0.11    3.33    3.06    16.23275    82.66228   177.68715
   336  O   6.0   -0.26    1.12    1.80    17.87492    82.57724   176.05254
   337  C   4.0   -0.03    4.37    4.32    15.66205    79.96564   181.45904
   338  C   4.0   -0.01    3.59    3.16    16.46140    77.63561   180.07577
   339  C   4.0   -0.04    3.48    3.11    18.35869    76.10115   181.02819
   340  C   4.0   -0.02    3.49    3.11    15.33702    76.99310   177.79865
   341  C   4.0   -0.04    3.40    3.08    19.11080    73.96009   179.74506
   342  C   4.0   -0.01    3.38    3.07    16.07590    74.85771   176.50418
   343  C   4.0   -0.02    3.40    3.08    17.97507    73.34215   177.47361
   344  H   1.0    0.12    1.15    1.45    15.05923    84.08525   183.47349
   345  H   1.0    0.08    1.08    1.44    18.93127    82.19930   180.67859
   346  H   1.0    0.05    1.04    1.43    16.17794    79.73321   183.43948
   347  H   1.0    0.06    1.04    1.43    13.61737    80.13950   181.27763
   348  H   1.0    0.06    1.03    1.43    19.25820    76.58681   182.79508
   349  H   1.0    0.07    1.03    1.43    13.86492    78.17985   177.02953
   350  H   1.0    0.06    1.03    1.43    20.58101    72.77146   180.51229
   351  H   1.0    0.09    1.03    1.43    15.17639    74.36828   174.73918
   352  H   1.0    0.08    1.03    1.43    18.57034    71.67542   176.45505
   353  N   5.0   -0.16    3.26    1.97    19.31111    88.36359   172.97229
   354  C   4.0    0.05    4.34    4.27    21.86980    87.82690   172.15592
   355  C   4.0    0.11    3.21    3.04    22.03798    85.64616   170.29076
   356  O   6.0   -0.21    1.12    1.80    23.33623    85.80490   168.39159
   357  C   4.0   -0.03    4.26    4.11    23.48551    87.22597   174.44816
   358  S   6.0    0.04    2.43    3.10    23.68205    89.81867   176.54954
   359  H   1.0    0.12    1.04    1.43    18.94639    87.90249   174.80721
   360  H   1.0    0.08    1.07    1.44    22.57089    89.51065   171.19783
   361  H   1.0    0.07    1.08    1.44    22.65781    85.63482   175.46105
   362  H   1.0    0.06    1.08    1.44    25.39225    86.75165   173.82833
   363  N   5.0   -0.12    4.13    3.23    24.37746    64.71333   192.15489
   364  C   4.0   -0.00    4.38    4.34    23.48362    67.30225   192.55363
   365  C   4.0    0.12    3.69    3.23    21.47485    67.61028   194.62477
   366  O   6.0   -0.34    1.56    1.80    21.79043    69.13717   196.34820
   367  C   4.0   -0.04    4.33    4.26    22.50664    68.50412   190.09509
   368  C   4.0   -0.01    4.24    4.08    21.54666    71.20264   190.59776
   369  C   4.0   -0.06    4.18    3.96    23.53843    72.69931   192.04529
   370  C   4.0   -0.07    4.10    3.80    20.73596    72.66907   188.26017
   371  H   1.0    0.07    1.03    1.43    23.99952    64.16719   190.30485
   372  H   1.0    0.06    1.02    1.43    26.31443    64.63207   192.47993
   373  H   1.0    0.05    1.09    1.44    23.45339    63.50201   193.39644
   374  H   1.0    0.04    1.07    1.44    25.14469    68.33215   193.20369
   375  H   1.0    0.06    1.03    1.43    24.03542    68.59293   188.71748
   376  H   1.0    0.05    1.03    1.43    20.95139    67.37784   189.34865
   377  H   1.0    0.04    1.07    1.44    19.83078    70.99099   191.71837
   378  H   1.0    0.04    1.01    1.43    22.83167    74.60415   192.38544
   379  H   1.0    0.05    1.02    1.43    23.91259    71.75822   193.83864
   380  H   1.0    0.08    1.04    1.43    25.26375    72.78057   190.92279
   381  H   1.0    0.04    1.00    1.43    20.09346    74.53990   188.83276
   382  H   1.0    0.06    1.02    1.43    22.34412    72.83726   186.98271
   383  H   1.0    0.04    1.00    1.43    19.20340    71.65429   187.33042
   384  N   5.0   -0.15    3.52    2.09    19.39993    66.20054   194.43768
   385  C   4.0    0.03    4.43    4.43    17.28721    66.50290   196.20458
   386  C   4.0    0.15    3.47    3.10    18.20940    66.08527   198.85775
   387  O   6.0   -0.27    1.24    1.80    16.71841    65.83204   200.61331
   388  C   4.0   -0.03    4.28    4.16    15.14993    64.59805   195.68868
   389  C   4.0   -0.03    4.18    3.96    13.30934    65.32938   193.55707
   390  C   4.0    0.16    3.19    3.04    14.31278    64.72844   190.90201
   391  O   6.0   -0.27    1.21    1.80    15.91716    63.05793   190.59020
   392  N   5.0   -0.18    3.15    1.95    13.37170    66.09660   188.98582
   393  H   1.0    0.09    1.06    1.44    19.12025    64.84372   193.09787
   394  H   1.0    0.04    1.06    1.44    16.52565    68.40207   195.97025
   395  H   1.0    0.07    1.03    1.43    16.00031    62.79336   195.17279
   396  H   1.0    0.08    1.04    1.43    14.04066    64.38640   197.41211
   397  H   1.0    0.07    1.03    1.43    11.54812    64.29192   193.81407
   398  H   1.0    0.03    1.04    1.43    12.95407    67.35516   193.65156
   399  H   1.0    0.07    1.03    1.43    12.05267    67.45910   189.33164
   400  H   1.0    0.11    1.02    1.43    13.97452    65.77346   187.18302
   401  N   5.0   -0.13    3.84    2.50    20.70006    66.03424   199.09586
   402  C   4.0    0.04    4.42    4.42    22.02854    65.14040   201.30117
   403  C   4.0    0.15    3.49    3.11    23.99385    67.10950   201.92856
   404  O   6.0   -0.31    1.32    1.80    24.02598    68.11294   204.01481
   405  C   4.0   -0.03    4.27    4.14    23.33245    62.63652   200.65299
   406  C   4.0   -0.05    4.21    4.02    23.99007    62.33416   197.80517
   407  C   4.0   -0.04    4.16    3.93    23.00363    59.82649   196.70346
   408  C   4.0   -0.03    4.19    3.97    23.30788    59.65831   193.84053
   409  N   5.0   -0.10    4.00    2.87    23.30032    56.96545   193.02606
   410  H   1.0    0.11    1.42    1.55    21.90381    66.63329   197.71447
   411  H   1.0    0.08    1.05    1.44    20.77187    64.82671   202.90365
   412  H   1.0    0.06    1.03    1.43    25.08989    62.51179   201.71880
   413  H   1.0    0.07    1.03    1.43    22.08145    61.08505   201.17456
   414  H   1.0    0.04    1.08    1.44    23.13403    63.87996   196.74693
   415  H   1.0    0.05    1.02    1.43    26.03664    62.37195   197.57652
   416  H   1.0    0.06    1.03    1.43    24.05243    58.26558   197.54628
   417  H   1.0    0.06    1.03    1.43    20.99863    59.64508   197.13999
   418  H   1.0    0.05    1.03    1.43    21.74508    60.63152   192.91834
   419  H   1.0    0.05    1.04    1.43    25.09745    60.51246   193.28117
   420  H   1.0    0.09    1.01    1.43    23.50630    56.85207   191.07397
   421  H   1.0    0.09    1.02    1.43    24.78376    55.99980   193.88210
   422  H   1.0    0.09    1.02    1.43    21.60524    56.11318   193.53817
   423  N   5.0   -0.14    3.52    2.09    25.61335    67.68020   200.08229
   424  C   4.0    0.04    4.39    4.36    27.58811    69.58693   200.38843
   425  C   4.0    0.16    3.45    3.09    26.45427    72.11538   201.14621
   426  O   6.0   -0.32    1.27    1.80    27.72984    73.65173   202.28193
   427  C   4.0   -0.05    4.21    4.02    29.22461    69.87984   197.99415
   428  C   4.0   -0.04    4.10    3.80    32.09322    69.28835   198.36264
   429  C   4.0   -0.05    4.07    3.74    33.86578    71.04391   196.78850
   430  C   4.0   -0.03    4.04    3.70    36.56809    71.32548   197.98092
   431  N   5.0   -0.12    3.94    2.71    38.17246    73.57047   197.11731
   432  H   1.0    0.07    1.07    1.44    25.60768    66.85061   198.34186
   433  H   1.0    0.06    1.06    1.44    28.88068    68.95009   201.86053
   434  H   1.0    0.04    1.03    1.43    28.50841    68.59293   196.55418
   435  H   1.0    0.04    1.04    1.43    29.07532    71.82625   197.33652
   436  H   1.0    0.05    1.03    1.43    32.57321    69.52835   200.35063
   437  H   1.0    0.05    1.02    1.43    32.45226    67.34571   197.78061
   438  H   1.0    0.05    1.02    1.43    34.08499    70.25400   194.89878
   439  H   1.0    0.04    1.02    1.43    33.02296    72.92041   196.67512
   440  H   1.0    0.05    1.02    1.43    36.34510    71.50311   200.02182
   441  H   1.0    0.05    1.02    1.43    37.63767    69.62283   197.53494
   442  H   1.0    0.07    1.01    1.43    39.90912    73.54968   198.03761
   443  H   1.0    0.06    1.01    1.43    38.47671    73.47221   195.17845
   444  H   1.0    0.06    1.01    1.43    37.25028    75.25611   197.53494
   445  N   5.0   -0.14    3.56    2.12    24.06188    72.55947   200.54528
   446  C   4.0    0.03    4.60    4.67    22.81466    74.86871   201.40888
   447  C   4.0    0.15    3.52    3.12    22.02098    74.66651   204.14520
   448  O   6.0   -0.33    1.36    1.80    21.91704    76.52600   205.53415
   449  C   4.0   -0.02    4.42    4.41    20.41849    75.42051   199.91789
   450  C   4.0   -0.05    4.26    4.12    20.99108    75.47531   197.10409
   451  C   4.0   -0.07    4.18    3.96    19.33568    77.93196   200.74559
   452  C   4.0   -0.08    4.09    3.78    23.03009    77.30268   196.43323
   453  H   1.0    0.10    1.08    1.44    22.95261    71.39162   199.48703
   454  H   1.0    0.05    1.08    1.44    24.19983    76.36915   201.13298
   455  H   1.0    0.04    1.06    1.44    19.04466    73.92952   200.28072
   456  H   1.0    0.05    1.04    1.43    21.59768    73.59882   196.50882
   457  H   1.0    0.04    1.03    1.43    19.28654    76.02145   196.08552
   458  H   1.0    0.04    1.00    1.43    17.62169    78.31179   199.66844
   459  H   1.0    0.06    1.02    1.43    18.89726    77.84314   202.75626
   460  H   1.0    0.04    1.00    1.43    20.72651    79.40972   200.39599
   461  H   1.0    0.04    1.01    1.43    23.34001    77.24410   194.39800
   462  H   1.0    0.04    1.00    1.43    22.44805    79.19619   197.00015
   463  H   1.0    0.04    1.01    1.43    24.75730    76.77356   197.42345
   464  N   5.0   -0.14    3.58    2.14    21.41437    72.37049   204.89543
   465  C   4.0    0.04    4.48    4.50    20.64337    71.88861   207.46167
   466  C   4.0    0.16    3.49    3.11    22.74474    72.38939   209.36274
   467  O   6.0   -0.27    1.27    1.80    22.31766    73.55346   211.30538
   468  C   4.0   -0.03    4.37    4.33    19.67961    69.21276   207.64687
   469  C   4.0   -0.02    4.25    4.10    17.31178    68.82915   206.11997
   470  C   4.0    0.27    3.14    3.03    16.09102    66.32715   206.70011
   471  O   6.0   -0.22    1.21    1.80    17.43083    64.68309   207.75647
   472  O   6.0   -0.21    1.17    1.80    13.81579    66.00779   206.11430
   473  H   1.0    0.10    1.11    1.44    21.43894    70.80580   203.76915
   474  H   1.0    0.06    1.07    1.44    19.11458    73.17741   207.95678
   475  H   1.0    0.08    1.05    1.44    21.12147    67.92397   206.93822
   476  H   1.0    0.08    1.04    1.43    19.25442    68.78002   209.61596
   477  H   1.0    0.06    1.03    1.43    15.96629    70.32392   206.56216
   478  H   1.0    0.06    1.03    1.43    17.78043    68.87261   204.11497
   479  N   5.0   -0.14    3.54    2.10    25.02942    71.55224   208.80716
   480  C   4.0    0.04    4.45    4.47    27.13080    72.23443   210.43421
   481  C   4.0    0.17    3.48    3.11    27.43882    75.09170   210.48524
   482  O   6.0   -0.32    1.35    1.80    28.54242    76.12349   212.22000
   483  C   4.0   -0.04    4.29    4.18    29.58555    71.00044   209.54226
   484  C   4.0   -0.02    4.21    4.02    29.45138    68.13940   209.30605
   485  C   4.0    0.26    3.13    3.03    31.95905    67.00745   208.53693
   486  O   6.0   -0.25    1.17    1.80    32.09322    65.81315   206.50358
   487  O   6.0   -0.24    1.18    1.80    33.80531    67.35138   209.96178
   488  H   1.0    0.10    1.07    1.44    25.47540    70.43731   207.29916
   489  H   1.0    0.07    1.06    1.44    26.78120    71.52957   212.33717
   490  H   1.0    0.06    1.03    1.43    30.06743    71.75822   207.68844
   491  H   1.0    0.07    1.03    1.43    31.07465    71.44642   210.89342
   492  H   1.0    0.07    1.03    1.43    28.91281    67.33438   211.12396
   493  H   1.0    0.07    1.03    1.43    28.05487    67.64240   207.87552
   494  N   5.0   -0.13    3.59    2.14    26.47695    76.38049   208.57283
   495  C   4.0    0.04    4.57    4.63    26.71695    79.10548   208.50291
   496  C   4.0    0.16    3.54    3.13    24.87824    80.16561   210.38508
   497  O   6.0   -0.31    1.30    1.80    25.58500    81.58669   212.08772
   498  C   4.0   -0.03    4.41    4.41    26.05176    80.16561   205.88186
   499  C   4.0   -0.04    4.24    4.08    28.00385    79.32091   203.94867
   500  C   4.0   -0.07    4.15    3.91    25.91192    83.04556   205.90643
   501  C   4.0   -0.07    4.05    3.72    27.36323    80.08436   201.30873
   502  H   1.0    0.10    1.09    1.44    25.54154    75.60760   207.07617
   503  H   1.0    0.05    1.06    1.44    28.66525    79.61381   208.93944
   504  H   1.0    0.06    1.09    1.44    24.19794    79.42673   205.37164
   505  H   1.0    0.04    1.03    1.43    29.82177    80.16183   204.42677
   506  H   1.0    0.07    1.05    1.44    28.14369    77.26677   203.99781
   507  H   1.0    0.04    1.00    1.43    25.43760    83.71074   204.01481
   508  H   1.0    0.05    1.01    1.43    24.45872    83.63515   207.24247
   509  H   1.0    0.05    1.00    1.43    27.74118    83.80145   206.47902
   510  H   1.0    0.04    1.00    1.43    28.84289    79.41728   200.04072
   511  H   1.0    0.04    1.01    1.43    25.55665    79.24343   200.78716
   512  H   1.0    0.04    1.01    1.43    27.23473    82.13849   201.21802
   513  N   5.0   -0.14    3.51    2.09    22.49719    79.44374   210.04682
   514  C   4.0    0.04    4.27    4.15    20.47329    80.36026   211.63986
   515  C   4.0    0.11    3.25    3.04    21.04210    79.85570   214.43476
   516  O   6.0   -0.23    1.11    1.80    20.78888    81.52433   216.03158
   517  C   4.0   -0.05    4.13    3.85    18.01098    79.17918   210.86129
   518  H   1.0    0.11    1.10    1.44    21.91515    78.21920   208.67677
   519  H   1.0    0.06    1.07    1.44    20.29188    82.39738   211.39230
   520  H   1.0    0.07    1.00    1.43    16.51054    79.88971   212.08016
   521  H   1.0    0.05    1.00    1.43    17.61792    79.67807   208.90164
   522  H   1.0    0.07    1.00    1.43    18.15838    77.13260   211.05026
   523  N   5.0   -0.16    3.25    1.97    26.24640    79.56090   216.90463
   524  C   4.0    0.05    4.22    4.05    28.12479    81.35425   217.78525
   525  C   4.0    0.12    3.24    3.04    26.63191    83.55011   218.89452
   526  O   6.0   -0.20    1.11    1.80    26.94749    84.27766   221.07904
   527  C   4.0   -0.03    4.30    4.19    29.76507    82.38226   215.61962
   528  C   4.0   -0.04    4.20    4.01    31.34110    80.48120   214.15886
   529  C   4.0   -0.03    4.20    4.00    32.99839    78.95619   215.90497
   530  C   4.0   -0.02    4.14    3.88    33.29319    76.23876   214.95633
   531  N   5.0   -0.10    3.99    2.84    33.92058    74.45486   217.05203
   532  H   1.0    0.12    1.05    1.44    26.26341    79.16973   215.01680
   533  H   1.0    0.07    1.05    1.44    29.40414    80.44151   219.11750
   534  H   1.0    0.07    1.05    1.44    28.51785    83.29689   214.25902
   535  H   1.0    0.06    1.03    1.43    31.07465    83.75987   216.41331
   536  H   1.0    0.08    1.07    1.44    30.09389    79.18674   213.15164
   537  H   1.0    0.05    1.03    1.43    32.55053    81.47708   212.82094
   538  H   1.0    0.06    1.03    1.43    34.86733    79.81790   216.00135
   539  H   1.0    0.06    1.05    1.44    32.14991    78.90139   217.78147
   540  H   1.0    0.08    1.06    1.44    31.52630    75.62460   214.09461
   541  H   1.0    0.06    1.02    1.43    34.81442    76.16506   213.56927
   542  H   1.0    0.09    1.01    1.43    34.10766    72.62939   216.34717
   543  H   1.0    0.09    1.01    1.43    35.61000    74.98588   217.90430
   544  H   1.0    0.08    1.01    1.43    32.49195    74.47376   218.40130
   545  N   5.0   -0.15    3.21    1.96    45.44075    63.65114   195.73403
   546  C   4.0    0.04    4.30    4.20    44.60770    62.12715   197.89399
   547  C   4.0    0.11    3.24    3.04    43.34875    59.65901   197.17401
   548  O   6.0   -0.21    1.13    1.80    42.10292    59.45469   195.22003
   549  C   4.0   -0.02    4.29    4.18    42.67061    63.50942   199.58719
   550  C   4.0   -0.05    4.11    3.81    42.63624    62.33308   202.22524
   551  C   4.0   -0.06    4.15    3.90    43.20729    66.31774   199.73080
   552  H   1.0    0.09    1.05    1.44    44.97913    65.51650   195.89466
   553  H   1.0    0.07    1.06    1.44    46.38262    61.74010   198.86531
   554  H   1.0    0.06    1.06    1.44    40.80228    63.29484   198.74626
   555  H   1.0    0.07    1.00    1.43    41.26222    63.33345   203.38742
   556  H   1.0    0.07    1.00    1.43    42.11113    60.34754   202.06651
   557  H   1.0    0.07    1.00    1.43    44.51347    62.49825   203.05861
   558  H   1.0    0.06    1.00    1.43    41.79837    67.20850   200.94023
   559  H   1.0    0.07    1.00    1.43    45.08845    66.60083   200.51882
   560  H   1.0    0.05    1.01    1.43    43.11279    67.11637   197.83541
   561  H   1.0    0.13    1.07    1.44    47.13243    63.55288   195.58865
   562  H   1.0    0.09    1.05    1.44    43.52008    58.14832   198.29630
   563  H   1.0    0.10    1.07    1.44    26.46963   101.03289   207.72080
   564  H   1.0    0.10    1.04    1.43    31.93163    71.27632   169.35278
   565  H   1.0    0.11    1.07    1.44     8.37764    66.39780   184.21387
   566  H   1.0    0.06    1.04    1.43     5.92162    69.12492   190.40896
   567  H   1.0    0.09    1.10    1.44     7.05561    71.80254   194.06993
   568  H   1.0    0.08    1.05    1.44     4.79232    77.98807   194.67228
   569  H   1.0    0.12    1.07    1.44     5.64610    89.24872   191.01303
   570  H   1.0    0.07    1.05    1.44     9.97960    82.71746   187.49516
   571  H   1.0    0.12    1.07    1.44    12.17070    89.90021   181.77256
   572  H   1.0    0.08    1.05    1.44    14.43657    82.93502   177.16714
   573  H   1.0    0.13    1.07    1.44    19.00040    90.02773   172.80910
   574  H   1.0    0.09    1.05    1.44    21.07586    84.05174   170.61202
   575  H   1.0    0.08    1.05    1.44    21.62991    78.14633   214.98575
   576  H   1.0    0.12    1.07    1.44    26.46963    78.07122   217.69430
   577  H   1.0    0.08    1.05    1.44    25.34780    84.44869   217.83872

  Z AO/shell   Hii/eV     exponent
  1     Wed Apr 25 08:07:45 CEST 2018   EN: 2.200 GM2: 0.406  GM3: 0.0800  RAES: 1.40
     1s    -10.707211    1.230000
  6     Wed Apr 25 08:07:45 CEST 2018   EN: 2.550 GM2: 0.538  GM3: 0.1500  RAES: 3.00
     2s    -13.970922    2.096432
     2p    -10.063292    1.800000
  7     Wed Apr 25 08:07:45 CEST 2018   EN: 3.040 GM2: 0.461  GM3:-0.0640  RAES: 1.90
     2s    -16.686243    2.339881
     2p    -12.523956    2.014332
  8     Wed Apr 25 08:07:45 CEST 2018   EN: 3.440 GM2: 0.452  GM3:-0.0517  RAES: 1.80
     2s    -20.229985    2.439742
     2p    -15.503117    2.137023
 16     Tue Apr 24 11:44:34 CEST 2018   EN: 2.580 GM2: 0.340  GM3:-0.0502  RAES: 3.10
     3s    -20.029654    1.981333
     3p    -11.377694    2.025643
     3d     -0.420282    1.702555
 no old-style atom pair restraining (fixing) potential

molecular fragmentation (1/2 indicates fragments):
111111111111111111111111111111111111111111111111111111111111111111111111
111111111111111111111111111111111111111111111111111111111111111111111111
111111111111111111111111111111111111111111111111111111111111111111111111
111111111111111111111111111111111122222222222222222222222222222222222222
111111111111111111111111111111111122222222222222222222222222222211111111
112222222222222222222222222222222222222222222222222222222222222222222222
222222222222222222222222222222222222222222222222222222222222222222222222
222222222222222222222222222222222222222222222222222222222211222211221122
2
# atoms in fragment 1/2:   300   277
 fragment masses (1/2) :     2182.67     1739.25
CMA distance (Bohr)    :  16.046
constraining FC (au)   :  0.0500
           ------------------------------------------------- 
          |        Self-Consistent Charge Iterations        |
           ------------------------------------------------- 

 Ncao       : 1417
 Nao        : 1412
 Nshell     : 852
 Nel        : 1526
 T(el)      :   500.0
 intcut     :    35.0
 scfconv/Eh :  0.100E-06
   qconv/e  :  0.100E-04
 intneglect :  0.100E-08
 broydamp   :      0.400
 iter      E             dE          RMSdq      gap      omega  full diag
   1   -868.4182388 -0.868418E+03  0.457E+00    2.12       0.0  T
   2   -870.2602287 -0.184199E+01  0.221E+00    1.81       1.0  T
   3   -870.3713036 -0.111075E+00  0.119E+00    1.55       1.0  T
   4   -870.5156023 -0.144299E+00  0.300E-01    0.79       1.0  T
   5   -870.5239715 -0.836928E-02  0.148E-01    1.00       1.0  T
   6   -870.5261331 -0.216152E-02  0.716E-02    0.93       1.0  T
   7   -870.5266897 -0.556658E-03  0.375E-02    0.90       1.0  T
   8   -870.5268113 -0.121617E-03  0.200E-02    0.88       1.0  T
   9   -870.5268551 -0.437166E-04  0.112E-02    0.87       1.0  T
  10   -870.5268659 -0.108960E-04  0.641E-03    0.87       1.0  T
  11   -870.5268693 -0.334053E-05  0.349E-03    0.87       1.2  T
  12   -870.5268703 -0.101514E-05  0.187E-03    0.87       2.2  T
  13   -870.5268706 -0.304059E-06  0.101E-03    0.87       4.1  T
  14   -870.5268707 -0.114290E-06  0.409E-04    0.87      10.2  T
  15   -870.5268707 -0.193660E-07  0.218E-04    0.87      19.1  T
  16   -870.5268707 -0.417276E-08  0.108E-04    0.87      38.4  T
  17   -870.5268707 -0.104058E-08  0.533E-05    0.87      78.1  T
  18   -870.5268707 -0.233058E-09  0.297E-05    0.87     140.3  T
speedup  1.20
cpu  time for SCC   26.75 s
wall time for SCC   22.24 s

   *** convergence criteria satisfied after 18 iterations ***

          eigenvalues
 #    :         751        752        753        754        755        756        757        758
 occ. :        2.000      2.000      2.000      2.000      2.000      2.000      2.000      2.000
 eps  :       -10.190    -10.111    -10.082    -10.075    -10.014    -10.013    -10.012     -9.877
 #    :         759        760        761        762        763        764        765        766
 occ. :        2.000      2.000      2.000      2.000      2.000      0.000      0.000      0.000
 eps  :        -9.753     -9.734     -9.717     -9.705     -9.536     -8.665     -8.215     -8.001
 #    :         767        768        769        770        771        772        773        774
 occ. :        0.000      0.000      0.000      0.000      0.000      0.000      0.000      0.000
 eps  :        -7.995     -7.879     -7.850     -7.835     -7.579     -7.516     -7.336     -7.310


   #   Z            q   n(s)   n(p)   n(d)      C6AA      α(0)
   1   7 N     -0.395  1.320  4.075  0.000    30.221     8.165
   2   6 C      0.017  1.061  2.922  0.000    20.302     6.417
   3   6 C      0.272  1.044  2.684  0.000    22.406     7.752
   4   8 O     -0.490  1.733  4.757  0.000    23.565     6.508
   5   6 C     -0.085  1.056  3.029  0.000    22.109     6.693
   6   6 C     -0.071  1.047  3.024  0.000    21.854     6.655
   7   6 C     -0.096  1.053  3.043  0.000    22.319     6.725
   8   6 C     -0.051  1.063  2.987  0.000    21.582     6.631
   9   7 N     -0.150  1.237  3.913  0.000    24.234     7.311
  10   1 H      0.162  0.838  0.000  0.000     1.324     1.803
  11   1 H      0.060  0.940  0.000  0.000     2.204     2.322
  12   1 H      0.047  0.953  0.000  0.000     2.362     2.403
  13   1 H      0.056  0.944  0.000  0.000     2.251     2.346
  14   1 H      0.050  0.950  0.000  0.000     2.320     2.382
  15   1 H      0.052  0.948  0.000  0.000     2.294     2.369
  16   1 H      0.076  0.924  0.000  0.000     2.021     2.223
  17   1 H      0.084  0.916  0.000  0.000     1.935     2.175
  18   1 H      0.111  0.889  0.000  0.000     1.691     2.033
  19   1 H      0.107  0.893  0.000  0.000     1.723     2.053
  20   1 H      0.295  0.705  0.000  0.000     0.729     1.338
  21   1 H      0.299  0.701  0.000  0.000     0.716     1.325
  22   1 H      0.300  0.700  0.000  0.000     0.714     1.324
  23   7 N     -0.166  1.243  3.923  0.000    24.589     7.365
  24   6 C      0.014  1.060  2.927  0.000    20.352     6.423
  25   6 C      0.273  1.039  2.688  0.000    22.386     7.748
  26   8 O     -0.457  1.745  4.712  0.000    22.848     6.409
  27   6 C     -0.088  1.055  3.033  0.000    22.162     6.700
  28   6 C     -0.003  1.071  2.932  0.000    28.086     8.693
  29   6 C     -0.036  1.080  2.956  0.000    28.906     8.818
  30   6 C     -0.054  1.083  2.971  0.000    29.341     8.884
  31   6 C     -0.061  1.073  2.988  0.000    29.529     8.911
  32   6 C     -0.080  1.076  3.004  0.000    29.995     8.981
  33   6 C      0.146  1.044  2.810  0.000    24.825     8.167
  34   8 O     -0.464  1.744  4.719  0.000    22.125     6.350
  35   1 H      0.214  0.786  0.000  0.000     1.035     1.594
  36   1 H      0.082  0.918  0.000  0.000     1.958     2.188
  37   1 H      0.062  0.938  0.000  0.000     2.177     2.307
  38   1 H      0.072  0.928  0.000  0.000     2.064     2.246
  39   1 H      0.029  0.971  0.000  0.000     2.602     2.523
  40   1 H      0.075  0.925  0.000  0.000     2.030     2.228
  41   1 H      0.036  0.964  0.000  0.000     2.506     2.475
  42   1 H      0.068  0.932  0.000  0.000     2.103     2.268
  43   1 H      0.352  0.648  0.000  0.000     0.584     1.200
  44   7 N     -0.168  1.237  3.931  0.000    24.640     7.372
  45   6 C     -0.001  1.064  2.938  0.000    20.603     6.463
  46   6 C      0.273  1.034  2.692  0.000    22.377     7.747
  47   8 O     -0.476  1.748  4.728  0.000    23.260     6.466
  48   6 C     -0.107  1.063  3.044  0.000    22.537     6.758
  49   6 C     -0.088  1.054  3.034  0.000    22.179     6.705
  50   6 C     -0.108  1.057  3.051  0.000    22.556     6.761
  51   6 C     -0.061  1.060  3.002  0.000    21.768     6.659
  52   7 N     -0.145  1.233  3.912  0.000    24.123     7.295
  53   1 H      0.222  0.778  0.000  0.000     0.999     1.566
  54   1 H      0.095  0.905  0.000  0.000     1.831     2.116
  55   1 H      0.069  0.931  0.000  0.000     2.091     2.261
  56   1 H      0.084  0.916  0.000  0.000     1.943     2.180
  57   1 H      0.077  0.923  0.000  0.000     2.009     2.217
  58   1 H      0.065  0.935  0.000  0.000     2.139     2.287
  59   1 H      0.086  0.914  0.000  0.000     1.919     2.166
  60   1 H      0.088  0.912  0.000  0.000     1.899     2.155
  61   1 H      0.125  0.875  0.000  0.000     1.574     1.962
  62   1 H      0.120  0.880  0.000  0.000     1.614     1.987
  63   1 H      0.295  0.705  0.000  0.000     0.730     1.338
  64   1 H      0.295  0.705  0.000  0.000     0.728     1.336
  65   1 H      0.290  0.710  0.000  0.000     0.743     1.350
  66   7 N     -0.175  1.248  3.927  0.000    24.784     7.394
  67   6 C      0.014  1.062  2.924  0.000    20.355     6.424
  68   6 C      0.288  1.036  2.676  0.000    22.123     7.703
  69   8 O     -0.512  1.739  4.773  0.000    24.056     6.576
  70   6 C     -0.089  1.052  3.037  0.000    22.186     6.705
  71   6 C      0.054  1.063  2.883  0.000    26.683     8.467
  72   7 N     -0.327  1.488  3.839  0.000    29.291     8.026
  73   6 C     -0.036  1.063  2.973  0.000    28.845     8.808
  74   6 C      0.091  1.058  2.852  0.000    25.952     8.356
  75   7 N     -0.091  1.242  3.848  0.000    23.006     7.124
  76   1 H      0.226  0.774  0.000  0.000     0.985     1.554
  77   1 H      0.071  0.929  0.000  0.000     2.077     2.254
  78   1 H      0.082  0.918  0.000  0.000     1.959     2.189
  79   1 H      0.080  0.920  0.000  0.000     1.979     2.200
  80   1 H      0.063  0.937  0.000  0.000     2.165     2.301
  81   1 H      0.024  0.976  0.000  0.000     2.666     2.553
  82   1 H      0.207  0.793  0.000  0.000     1.072     1.622
  83   7 N     -0.180  1.250  3.930  0.000    24.909     7.412
  84   6 C      0.012  1.062  2.926  0.000    20.381     6.427
  85   6 C      0.278  1.042  2.679  0.000    22.291     7.731
  86   8 O     -0.498  1.736  4.762  0.000    23.741     6.533
  87   6 C      0.065  1.038  2.897  0.000    19.681     6.351
  88   8 O     -0.479  1.730  4.749  0.000    22.450     6.396
  89   1 H      0.242  0.758  0.000  0.000     0.913     1.497
  90   1 H      0.078  0.922  0.000  0.000     1.998     2.211
  91   1 H      0.065  0.935  0.000  0.000     2.140     2.288
  92   1 H      0.059  0.941  0.000  0.000     2.211     2.325
  93   1 H      0.343  0.657  0.000  0.000     0.604     1.221
  94   7 N     -0.165  1.250  3.914  0.000    24.560     7.360
  95   6 C      0.009  1.067  2.923  0.000    20.419     6.433
  96   6 C      0.288  1.036  2.676  0.000    22.122     7.703
  97   8 O     -0.497  1.745  4.753  0.000    23.726     6.531
  98   6 C     -0.037  1.067  2.970  0.000    21.198     6.548
  99   6 C     -0.127  1.045  3.082  0.000    22.994     6.838
 100   6 C     -0.127  1.046  3.081  0.000    22.994     6.838
 101   1 H      0.252  0.748  0.000  0.000     0.877     1.467
 102   1 H      0.078  0.922  0.000  0.000     1.996     2.209
 103   1 H      0.084  0.916  0.000  0.000     1.936     2.176
 104   1 H      0.059  0.941  0.000  0.000     2.206     2.323
 105   1 H      0.030  0.970  0.000  0.000     2.580     2.512
 106   1 H      0.044  0.956  0.000  0.000     2.400     2.423
 107   1 H      0.048  0.952  0.000  0.000     2.348     2.397
 108   1 H      0.036  0.964  0.000  0.000     2.501     2.473
 109   1 H      0.077  0.923  0.000  0.000     2.014     2.219
 110   7 N     -0.186  1.240  3.946  0.000    25.036     7.431
 111   6 C      0.025  1.050  2.925  0.000    20.140     6.387
 112   6 C      0.285  1.039  2.677  0.000    22.179     7.714
 113   8 O     -0.522  1.751  4.771  0.000    24.279     6.606
 114   6 C     -0.040  1.058  2.983  0.000    21.245     6.553
 115   6 C     -0.125  1.041  3.084  0.000    22.941     6.828
 116   6 C     -0.128  1.044  3.084  0.000    23.007     6.838
 117   1 H      0.225  0.775  0.000  0.000     0.986     1.555
 118   1 H      0.051  0.949  0.000  0.000     2.306     2.375
 119   1 H      0.083  0.917  0.000  0.000     1.946     2.182
 120   1 H      0.058  0.942  0.000  0.000     2.225     2.333
 121   1 H      0.038  0.962  0.000  0.000     2.473     2.459
 122   1 H      0.027  0.973  0.000  0.000     2.627     2.535
 123   1 H      0.063  0.937  0.000  0.000     2.167     2.302
 124   1 H      0.041  0.959  0.000  0.000     2.435     2.440
 125   1 H      0.063  0.937  0.000  0.000     2.164     2.300
 126   7 N     -0.183  1.251  3.933  0.000    24.972     7.422
 127   6 C      0.018  1.057  2.925  0.000    20.278     6.412
 128   6 C      0.277  1.039  2.685  0.000    22.322     7.737
 129   8 O     -0.514  1.747  4.767  0.000    24.086     6.580
 130   6 C     -0.087  1.056  3.031  0.000    22.145     6.698
 131   6 C     -0.077  1.051  3.026  0.000    21.971     6.674
 132   6 C     -0.101  1.059  3.043  0.000    22.427     6.742
 133   6 C     -0.059  1.068  2.991  0.000    21.745     6.657
 134   7 N     -0.151  1.239  3.912  0.000    24.253     7.314
 135   1 H      0.233  0.767  0.000  0.000     0.952     1.529
 136   1 H      0.050  0.950  0.000  0.000     2.316     2.380
 137   1 H      0.063  0.937  0.000  0.000     2.163     2.300
 138   1 H      0.081  0.919  0.000  0.000     1.970     2.195
 139   1 H      0.071  0.929  0.000  0.000     2.074     2.252
 140   1 H      0.055  0.945  0.000  0.000     2.261     2.351
 141   1 H      0.075  0.925  0.000  0.000     2.034     2.230
 142   1 H      0.081  0.919  0.000  0.000     1.972     2.196
 143   1 H      0.136  0.864  0.000  0.000     1.493     1.911
 144   1 H      0.122  0.878  0.000  0.000     1.601     1.979
 145   1 H      0.310  0.690  0.000  0.000     0.684     1.296
 146   1 H      0.294  0.706  0.000  0.000     0.733     1.341
 147   1 H      0.296  0.704  0.000  0.000     0.726     1.335
 148   7 N     -0.175  1.250  3.925  0.000    24.793     7.395
 149   6 C      0.002  1.064  2.933  0.000    20.538     6.452
 150   6 C      0.274  1.043  2.683  0.000    22.370     7.745
 151   8 O     -0.511  1.758  4.753  0.000    24.021     6.571
 152   6 C     -0.092  1.054  3.038  0.000    22.246     6.714
 153   6 C     -0.092  1.056  3.036  0.000    22.252     6.715
 154   6 C     -0.108  1.059  3.050  0.000    22.569     6.764
 155   6 C     -0.073  1.068  3.005  0.000    21.989     6.694
 156   7 N     -0.147  1.233  3.914  0.000    24.176     7.303
 157   1 H      0.240  0.760  0.000  0.000     0.925     1.507
 158   1 H      0.107  0.893  0.000  0.000     1.720     2.051
 159   1 H      0.080  0.920  0.000  0.000     1.977     2.199
 160   1 H      0.063  0.937  0.000  0.000     2.159     2.298
 161   1 H      0.087  0.913  0.000  0.000     1.904     2.158
 162   1 H      0.087  0.913  0.000  0.000     1.912     2.163
 163   1 H      0.086  0.914  0.000  0.000     1.916     2.164
 164   1 H      0.063  0.937  0.000  0.000     2.163     2.300
 165   1 H      0.137  0.863  0.000  0.000     1.485     1.906
 166   1 H      0.137  0.863  0.000  0.000     1.485     1.905
 167   1 H      0.311  0.689  0.000  0.000     0.682     1.294
 168   1 H      0.286  0.714  0.000  0.000     0.755     1.361
 169   1 H      0.293  0.707  0.000  0.000     0.736     1.344
 170   7 N     -0.184  1.248  3.937  0.000    24.989     7.424
 171   6 C      0.032  1.051  2.917  0.000    19.993     6.358
 172   6 C      0.283  1.032  2.685  0.000    22.207     7.718
 173   8 O     -0.514  1.755  4.759  0.000    24.096     6.581
 174   6 C     -0.025  1.059  2.965  0.000    21.008     6.525
 175  16 S     -0.071  1.905  4.076  0.091   144.017    20.198
 176   1 H      0.245  0.755  0.000  0.000     0.903     1.489
 177   1 H      0.076  0.924  0.000  0.000     2.020     2.223
 178   1 H      0.075  0.925  0.000  0.000     2.030     2.228
 179   1 H      0.045  0.955  0.000  0.000     2.383     2.414
 180   7 N     -0.186  1.245  3.941  0.000    25.032     7.431
 181   6 C      0.047  1.043  2.909  0.000    19.719     6.311
 182   6 C      0.279  1.036  2.686  0.000    22.286     7.731
 183   8 O     -0.510  1.759  4.751  0.000    24.011     6.570
 184   6 C     -0.028  1.058  2.970  0.000    21.062     6.532
 185  16 S     -0.113  1.895  4.109  0.109   145.788    20.322
 186   1 H      0.241  0.759  0.000  0.000     0.919     1.502
 187   1 H      0.040  0.960  0.000  0.000     2.443     2.444
 188   1 H      0.079  0.921  0.000  0.000     1.992     2.207
 189   1 H      0.119  0.881  0.000  0.000     1.622     1.992
 190   7 N     -0.166  1.247  3.919  0.000    24.587     7.364
 191   6 C      0.020  1.062  2.918  0.000    20.245     6.407
 192   6 C      0.290  1.038  2.673  0.000    22.091     7.697
 193   8 O     -0.521  1.748  4.773  0.000    24.250     6.602
 194   6 C     -0.096  1.061  3.035  0.000    22.327     6.727
 195   6 C     -0.000  1.078  2.922  0.000    28.029     8.684
 196   6 C     -0.047  1.087  2.960  0.000    29.165     8.856
 197   6 C     -0.043  1.088  2.956  0.000    29.080     8.843
 198   6 C     -0.065  1.077  2.988  0.000    29.628     8.926
 199   6 C     -0.071  1.081  2.990  0.000    29.780     8.949
 200   6 C      0.150  1.047  2.803  0.000    24.738     8.151
 201   8 O     -0.447  1.738  4.709  0.000    21.788     6.301
 202   1 H      0.243  0.757  0.000  0.000     0.913     1.497
 203   1 H      0.068  0.932  0.000  0.000     2.105     2.269
 204   1 H      0.101  0.899  0.000  0.000     1.773     2.082
 205   1 H      0.094  0.906  0.000  0.000     1.837     2.120
 206   1 H      0.051  0.949  0.000  0.000     2.303     2.373
 207   1 H      0.065  0.935  0.000  0.000     2.143     2.289
 208   1 H      0.070  0.930  0.000  0.000     2.085     2.258
 209   1 H      0.051  0.949  0.000  0.000     2.303     2.373
 210   1 H      0.343  0.657  0.000  0.000     0.606     1.222
 211   7 N     -0.163  1.241  3.922  0.000    24.533     7.356
 212   6 C      0.046  1.047  2.908  0.000    19.799     6.333
 213   6 C      0.287  1.032  2.682  0.000    22.140     7.706
 214   8 O     -0.524  1.762  4.762  0.000    24.324     6.612
 215   6 C     -0.092  1.058  3.034  0.000    22.245     6.713
 216   6 C      0.357  1.018  2.625  0.000    20.938     7.489
 217   8 O     -0.615  1.761  4.854  0.000    26.489     6.900
 218   8 O     -0.572  1.738  4.835  0.000    25.446     6.763
 219   1 H      0.233  0.767  0.000  0.000     0.951     1.528
 220   1 H      0.056  0.944  0.000  0.000     2.250     2.346
 221   1 H      0.027  0.973  0.000  0.000     2.628     2.535
 222   1 H      0.037  0.963  0.000  0.000     2.485     2.465
 223   7 N     -0.166  1.233  3.933  0.000    24.597     7.366
 224   6 C     -0.011  1.042  2.969  0.000    20.823     6.507
 225   6 C      0.296  1.028  2.675  0.000    21.972     7.676
 226   8 O     -0.530  1.754  4.776  0.000    24.469     6.632
 227   1 H      0.209  0.791  0.000  0.000     1.060     1.613
 228   1 H      0.068  0.932  0.000  0.000     2.105     2.269
 229   1 H      0.071  0.929  0.000  0.000     2.077     2.254
 230   7 N     -0.188  1.249  3.939  0.000    25.079     7.438
 231   6 C      0.035  1.054  2.911  0.000    19.991     6.366
 232   6 C      0.282  1.044  2.674  0.000    22.222     7.719
 233   8 O     -0.515  1.763  4.752  0.000    24.111     6.583
 234   6 C     -0.126  1.045  3.081  0.000    22.964     6.833
 235   1 H      0.236  0.764  0.000  0.000     0.939     1.518
 236   1 H      0.052  0.948  0.000  0.000     2.289     2.366
 237   1 H      0.068  0.932  0.000  0.000     2.112     2.273
 238   1 H      0.058  0.942  0.000  0.000     2.220     2.330
 239   1 H      0.080  0.920  0.000  0.000     1.979     2.200
 240   7 N     -0.175  1.253  3.923  0.000    24.795     7.395
 241   6 C      0.039  1.054  2.907  0.000    19.906     6.350
 242   6 C      0.207  1.083  2.710  0.000    23.615     7.958
 243   8 O     -0.375  1.765  4.610  0.000    21.194     6.172
 244   6 C      0.006  1.057  2.938  0.000    20.486     6.444
 245  16 S     -0.323  1.914  4.365  0.044   155.091    20.960
 246   1 H      0.244  0.756  0.000  0.000     0.907     1.492
 247   1 H      0.069  0.931  0.000  0.000     2.096     2.264
 248   1 H      0.074  0.926  0.000  0.000     2.039     2.233
 249   1 H      0.059  0.941  0.000  0.000     2.207     2.323
 250   1 H      0.230  0.770  0.000  0.000     0.958     1.531
 251   7 N     -0.389  1.330  4.059  0.000    30.067     8.144
 252   6 C      0.033  1.061  2.906  0.000    20.033     6.375
 253   6 C      0.195  1.089  2.716  0.000    23.841     7.996
 254   8 O     -0.378  1.774  4.604  0.000    21.243     6.179
 255   6 C     -0.024  1.067  2.957  0.000    20.972     6.513
 256   6 C     -0.065  1.049  3.016  0.000    21.738     6.637
 257   6 C     -0.125  1.046  3.079  0.000    22.952     6.832
 258   6 C     -0.114  1.037  3.077  0.000    22.747     6.801
 259   1 H      0.158  0.842  0.000  0.000     1.349     1.819
 260   1 H      0.048  0.952  0.000  0.000     2.350     2.397
 261   1 H      0.043  0.957  0.000  0.000     2.415     2.430
 262   1 H      0.053  0.947  0.000  0.000     2.288     2.365
 263   1 H      0.034  0.966  0.000  0.000     2.530     2.488
 264   1 H      0.065  0.935  0.000  0.000     2.142     2.289
 265   1 H      0.040  0.960  0.000  0.000     2.453     2.449
 266   1 H      0.060  0.940  0.000  0.000     2.200     2.320
 267   1 H      0.040  0.960  0.000  0.000     2.447     2.446
 268   1 H      0.029  0.971  0.000  0.000     2.607     2.525
 269   1 H      0.055  0.945  0.000  0.000     2.255     2.348
 270   7 N     -0.409  1.330  4.079  0.000    30.617     8.218
 271   6 C      0.035  1.053  2.913  0.000    20.011     6.372
 272   6 C      0.191  1.092  2.717  0.000    23.923     8.010
 273   8 O     -0.374  1.748  4.626  0.000    21.166     6.168
 274   6 C     -0.085  1.057  3.027  0.000    22.105     6.692
 275   6 C     -0.016  1.054  2.962  0.000    20.830     6.491
 276   6 C     -0.120  1.048  3.072  0.000    22.841     6.814
 277   6 C     -0.122  1.042  3.080  0.000    22.894     6.822
 278   1 H      0.156  0.844  0.000  0.000     1.363     1.829
 279   1 H      0.080  0.920  0.000  0.000     1.984     2.203
 280   1 H      0.048  0.952  0.000  0.000     2.342     2.393
 281   1 H      0.071  0.929  0.000  0.000     2.071     2.251
 282   1 H      0.031  0.969  0.000  0.000     2.566     2.505
 283   1 H      0.038  0.962  0.000  0.000     2.478     2.462
 284   1 H      0.069  0.931  0.000  0.000     2.099     2.266
 285   1 H      0.043  0.957  0.000  0.000     2.411     2.428
 286   1 H      0.042  0.958  0.000  0.000     2.426     2.436
 287   1 H      0.033  0.967  0.000  0.000     2.543     2.494
 288   1 H      0.038  0.962  0.000  0.000     2.476     2.461
 289   7 N     -0.402  1.332  4.070  0.000    30.425     8.192
 290   6 C      0.027  1.055  2.918  0.000    20.142     6.392
 291   6 C      0.273  1.045  2.682  0.000    22.377     7.746
 292   8 O     -0.495  1.753  4.742  0.000    23.684     6.525
 293   6 C     -0.094  1.063  3.031  0.000    22.296     6.722
 294   6 C     -0.090  1.057  3.033  0.000    22.222     6.712
 295   6 C     -0.037  1.061  2.976  0.000    21.322     6.589
 296   7 N     -0.139  1.210  3.929  0.000    24.017     7.278
 297   6 C      0.220  1.021  2.759  0.000    23.358     7.913
 298   7 N     -0.236  1.225  4.010  0.000    26.171     7.598
 299   7 N     -0.249  1.235  4.014  0.000    26.478     7.642
 300   1 H      0.180  0.820  0.000  0.000     1.213     1.725
 301   1 H      0.037  0.963  0.000  0.000     2.488     2.467
 302   1 H      0.077  0.923  0.000  0.000     2.014     2.219
 303   1 H      0.061  0.939  0.000  0.000     2.190     2.314
 304   1 H      0.065  0.935  0.000  0.000     2.143     2.289
 305   1 H      0.074  0.926  0.000  0.000     2.044     2.236
 306   1 H      0.096  0.904  0.000  0.000     1.819     2.109
 307   1 H      0.098  0.902  0.000  0.000     1.799     2.098
 308   1 H      0.228  0.772  0.000  0.000     0.974     1.546
 309   1 H      0.246  0.754  0.000  0.000     0.901     1.487
 310   1 H      0.251  0.749  0.000  0.000     0.880     1.470
 311   1 H      0.245  0.755  0.000  0.000     0.904     1.489
 312   1 H      0.258  0.742  0.000  0.000     0.854     1.447
 313   7 N     -0.170  1.241  3.929  0.000    24.686     7.379
 314   6 C      0.029  1.050  2.921  0.000    20.075     6.377
 315   6 C      0.206  1.089  2.706  0.000    23.634     7.962
 316   8 O     -0.362  1.749  4.613  0.000    20.928     6.134
 317   6 C     -0.053  1.075  2.978  0.000    21.515     6.603
 318  16 S     -0.075  1.931  4.061  0.083   144.151    20.208
 319   1 H      0.232  0.768  0.000  0.000     0.955     1.531
 320   1 H      0.089  0.911  0.000  0.000     1.892     2.151
 321   1 H      0.116  0.884  0.000  0.000     1.648     2.007
 322   1 H      0.090  0.910  0.000  0.000     1.878     2.143
 323   7 N     -0.405  1.332  4.073  0.000    30.523     8.205
 324   6 C      0.042  1.046  2.912  0.000    19.872     6.348
 325   6 C      0.278  1.040  2.682  0.000    22.289     7.732
 326   8 O     -0.534  1.760  4.774  0.000    24.547     6.643
 327   6 C     -0.120  1.044  3.076  0.000    22.852     6.814
 328   1 H      0.186  0.814  0.000  0.000     1.181     1.703
 329   1 H      0.017  0.983  0.000  0.000     2.774     2.604
 330   1 H      0.035  0.965  0.000  0.000     2.514     2.480
 331   1 H      0.079  0.921  0.000  0.000     1.986     2.204
 332   1 H      0.064  0.936  0.000  0.000     2.157     2.297
 333   7 N     -0.199  1.257  3.942  0.000    25.314     7.472
 334   6 C      0.039  1.050  2.911  0.000    19.924     6.355
 335   6 C      0.216  1.080  2.705  0.000    23.441     7.929
 336   8 O     -0.397  1.767  4.629  0.000    21.619     6.234
 337   6 C     -0.077  1.055  3.022  0.000    21.947     6.667
 338   6 C      0.012  1.076  2.912  0.000    27.753     8.641
 339   6 C     -0.038  1.080  2.958  0.000    28.933     8.821
 340   6 C     -0.041  1.079  2.961  0.000    29.007     8.833
 341   6 C     -0.032  1.078  2.953  0.000    28.794     8.799
 342   6 C     -0.031  1.079  2.951  0.000    28.762     8.795
 343   6 C     -0.033  1.079  2.954  0.000    28.832     8.806
 344   1 H      0.259  0.741  0.000  0.000     0.848     1.442
 345   1 H      0.077  0.923  0.000  0.000     2.008     2.216
 346   1 H      0.081  0.919  0.000  0.000     1.973     2.196
 347   1 H      0.072  0.928  0.000  0.000     2.067     2.249
 348   1 H      0.062  0.938  0.000  0.000     2.173     2.305
 349   1 H      0.025  0.975  0.000  0.000     2.653     2.547
 350   1 H      0.042  0.958  0.000  0.000     2.422     2.434
 351   1 H      0.026  0.974  0.000  0.000     2.643     2.542
 352   1 H      0.027  0.973  0.000  0.000     2.624     2.533
 353   7 N     -0.390  1.320  4.070  0.000    30.106     8.149
 354   6 C      0.049  1.047  2.904  0.000    19.734     6.320
 355   6 C      0.204  1.087  2.710  0.000    23.670     7.968
 356   8 O     -0.364  1.754  4.610  0.000    20.970     6.140
 357   6 C      0.007  1.057  2.935  0.000    20.442     6.435
 358  16 S     -0.097  1.924  4.076  0.098   145.107    20.274
 359   1 H      0.170  0.830  0.000  0.000     1.273     1.767
 360   1 H      0.058  0.942  0.000  0.000     2.222     2.331
 361   1 H      0.039  0.961  0.000  0.000     2.456     2.451
 362   1 H      0.034  0.966  0.000  0.000     2.524     2.484
 363   7 N     -0.157  1.237  3.920  0.000    24.379     7.333
 364   6 C     -0.049  1.073  2.975  0.000    21.462     6.599
 365   6 C      0.245  1.039  2.716  0.000    22.897     7.837
 366   8 O     -0.454  1.748  4.706  0.000    22.776     6.399
 367   6 C     -0.103  1.068  3.035  0.000    22.469     6.748
 368   6 C     -0.013  1.056  2.957  0.000    20.770     6.482
 369   6 C     -0.163  1.055  3.108  0.000    23.713     6.943
 370   6 C     -0.120  1.043  3.077  0.000    22.848     6.816
 371   1 H      0.320  0.680  0.000  0.000     0.656     1.269
 372   1 H      0.325  0.675  0.000  0.000     0.645     1.258
 373   1 H      0.246  0.754  0.000  0.000     0.899     1.485
 374   1 H      0.158  0.842  0.000  0.000     1.338     1.809
 375   1 H      0.111  0.889  0.000  0.000     1.689     2.032
 376   1 H      0.074  0.926  0.000  0.000     2.044     2.236
 377   1 H      0.030  0.970  0.000  0.000     2.584     2.514
 378   1 H      0.052  0.948  0.000  0.000     2.290     2.367
 379   1 H      0.052  0.948  0.000  0.000     2.291     2.367
 380   1 H      0.106  0.894  0.000  0.000     1.731     2.058
 381   1 H      0.032  0.968  0.000  0.000     2.552     2.498
 382   1 H      0.055  0.945  0.000  0.000     2.259     2.351
 383   1 H      0.022  0.978  0.000  0.000     2.705     2.572
 384   7 N     -0.174  1.251  3.922  0.000    24.759     7.390
 385   6 C      0.010  1.067  2.923  0.000    20.405     6.431
 386   6 C      0.290  1.025  2.685  0.000    22.084     7.696
 387   8 O     -0.518  1.789  4.728  0.000    24.183     6.593
 388   6 C     -0.074  1.052  3.021  0.000    21.901     6.662
 389   6 C     -0.109  1.063  3.046  0.000    22.585     6.766
 390   6 C      0.275  1.047  2.678  0.000    22.343     7.739
 391   8 O     -0.488  1.739  4.749  0.000    23.515     6.502
 392   7 N     -0.269  1.264  4.005  0.000    26.971     7.713
 393   1 H      0.247  0.753  0.000  0.000     0.894     1.482
 394   1 H      0.095  0.905  0.000  0.000     1.830     2.116
 395   1 H      0.085  0.915  0.000  0.000     1.925     2.170
 396   1 H      0.065  0.935  0.000  0.000     2.137     2.286
 397   1 H      0.077  0.923  0.000  0.000     2.009     2.216
 398   1 H      0.075  0.925  0.000  0.000     2.036     2.231
 399   1 H      0.202  0.798  0.000  0.000     1.095     1.639
 400   1 H      0.233  0.767  0.000  0.000     0.954     1.530
 401   7 N     -0.218  1.248  3.971  0.000    25.761     7.538
 402   6 C      0.023  1.053  2.924  0.000    20.188     6.398
 403   6 C      0.270  1.040  2.689  0.000    22.431     7.756
 404   8 O     -0.510  1.760  4.750  0.000    24.004     6.569
 405   6 C     -0.091  1.060  3.031  0.000    22.234     6.713
 406   6 C     -0.101  1.062  3.039  0.000    22.437     6.745
 407   6 C     -0.111  1.060  3.052  0.000    22.626     6.772
 408   6 C     -0.084  1.063  3.021  0.000    22.211     6.728
 409   7 N     -0.145  1.231  3.915  0.000    24.134     7.296
 410   1 H      0.240  0.760  0.000  0.000     0.920     1.501
 411   1 H      0.048  0.952  0.000  0.000     2.348     2.396
 412   1 H      0.066  0.934  0.000  0.000     2.129     2.282
 413   1 H      0.066  0.934  0.000  0.000     2.128     2.281
 414   1 H      0.029  0.971  0.000  0.000     2.594     2.519
 415   1 H      0.107  0.893  0.000  0.000     1.726     2.054
 416   1 H      0.105  0.895  0.000  0.000     1.737     2.061
 417   1 H      0.082  0.918  0.000  0.000     1.954     2.186
 418   1 H      0.125  0.875  0.000  0.000     1.571     1.960
 419   1 H      0.137  0.863  0.000  0.000     1.482     1.904
 420   1 H      0.317  0.683  0.000  0.000     0.664     1.277
 421   1 H      0.307  0.693  0.000  0.000     0.692     1.303
 422   1 H      0.300  0.700  0.000  0.000     0.713     1.323
 423   7 N     -0.181  1.250  3.930  0.000    24.913     7.413
 424   6 C      0.005  1.066  2.929  0.000    20.502     6.448
 425   6 C      0.276  1.035  2.689  0.000    22.334     7.739
 426   8 O     -0.463  1.729  4.734  0.000    22.980     6.427
 427   6 C     -0.094  1.068  3.026  0.000    22.294     6.723
 428   6 C     -0.083  1.062  3.021  0.000    22.094     6.694
 429   6 C     -0.106  1.068  3.038  0.000    22.532     6.760
 430   6 C     -0.062  1.073  2.988  0.000    21.808     6.670
 431   7 N     -0.145  1.238  3.907  0.000    24.132     7.296
 432   1 H      0.217  0.783  0.000  0.000     1.023     1.584
 433   1 H      0.084  0.916  0.000  0.000     1.943     2.180
 434   1 H      0.074  0.926  0.000  0.000     2.045     2.236
 435   1 H      0.102  0.898  0.000  0.000     1.769     2.080
 436   1 H      0.053  0.947  0.000  0.000     2.288     2.366
 437   1 H      0.065  0.935  0.000  0.000     2.138     2.287
 438   1 H      0.097  0.903  0.000  0.000     1.808     2.103
 439   1 H      0.104  0.896  0.000  0.000     1.753     2.070
 440   1 H      0.112  0.888  0.000  0.000     1.678     2.026
 441   1 H      0.110  0.890  0.000  0.000     1.693     2.035
 442   1 H      0.306  0.694  0.000  0.000     0.697     1.308
 443   1 H      0.294  0.706  0.000  0.000     0.732     1.340
 444   1 H      0.303  0.697  0.000  0.000     0.705     1.315
 445   7 N     -0.187  1.243  3.945  0.000    25.065     7.436
 446   6 C      0.004  1.065  2.931  0.000    20.505     6.445
 447   6 C      0.275  1.038  2.688  0.000    22.360     7.744
 448   8 O     -0.483  1.731  4.752  0.000    23.410     6.487
 449   6 C     -0.023  1.057  2.965  0.000    20.934     6.506
 450   6 C     -0.086  1.051  3.035  0.000    22.130     6.696
 451   6 C     -0.122  1.041  3.081  0.000    22.887     6.820
 452   6 C     -0.135  1.043  3.092  0.000    23.150     6.861
 453   1 H      0.202  0.798  0.000  0.000     1.093     1.638
 454   1 H      0.124  0.876  0.000  0.000     1.578     1.964
 455   1 H      0.014  0.986  0.000  0.000     2.827     2.630
 456   1 H      0.062  0.938  0.000  0.000     2.180     2.309
 457   1 H      0.055  0.945  0.000  0.000     2.257     2.349
 458   1 H      0.057  0.943  0.000  0.000     2.236     2.339
 459   1 H      0.036  0.964  0.000  0.000     2.509     2.477
 460   1 H      0.071  0.929  0.000  0.000     2.077     2.254
 461   1 H      0.059  0.941  0.000  0.000     2.213     2.326
 462   1 H      0.057  0.943  0.000  0.000     2.239     2.340
 463   1 H      0.060  0.940  0.000  0.000     2.205     2.322
 464   7 N     -0.180  1.244  3.935  0.000    24.897     7.411
 465   6 C      0.033  1.053  2.914  0.000    20.017     6.369
 466   6 C      0.278  1.037  2.685  0.000    22.293     7.733
 467   8 O     -0.500  1.744  4.756  0.000    23.784     6.539
 468   6 C     -0.046  1.042  3.004  0.000    21.393     6.583
 469   6 C     -0.076  1.056  3.020  0.000    21.948     6.669
 470   6 C      0.375  1.020  2.605  0.000    20.648     7.437
 471   8 O     -0.669  1.778  4.891  0.000    27.879     7.079
 472   8 O     -0.664  1.780  4.884  0.000    27.752     7.063
 473   1 H      0.204  0.796  0.000  0.000     1.086     1.633
 474   1 H      0.056  0.944  0.000  0.000     2.252     2.347
 475   1 H      0.057  0.943  0.000  0.000     2.240     2.341
 476   1 H      0.014  0.986  0.000  0.000     2.826     2.629
 477   1 H      0.019  0.981  0.000  0.000     2.754     2.595
 478   1 H      0.037  0.963  0.000  0.000     2.494     2.470
 479   7 N     -0.184  1.244  3.940  0.000    24.984     7.424
 480   6 C      0.024  1.058  2.918  0.000    20.167     6.393
 481   6 C      0.274  1.038  2.688  0.000    22.360     7.744
 482   8 O     -0.469  1.717  4.752  0.000    23.107     6.445
 483   6 C     -0.058  1.051  3.007  0.000    21.602     6.616
 484   6 C     -0.084  1.058  3.026  0.000    22.103     6.693
 485   6 C      0.371  1.019  2.610  0.000    20.717     7.449
 486   8 O     -0.647  1.766  4.881  0.000    27.306     7.006
 487   8 O     -0.648  1.769  4.879  0.000    27.326     7.009
 488   1 H      0.208  0.792  0.000  0.000     1.067     1.618
 489   1 H      0.058  0.942  0.000  0.000     2.225     2.333
 490   1 H      0.058  0.942  0.000  0.000     2.223     2.332
 491   1 H      0.070  0.930  0.000  0.000     2.086     2.258
 492   1 H      0.008  0.992  0.000  0.000     2.927     2.676
 493   1 H      0.014  0.986  0.000  0.000     2.831     2.631
 494   7 N     -0.167  1.240  3.927  0.000    24.615     7.369
 495   6 C      0.014  1.062  2.924  0.000    20.328     6.417
 496   6 C      0.279  1.036  2.686  0.000    22.285     7.731
 497   8 O     -0.478  1.745  4.733  0.000    23.301     6.472
 498   6 C     -0.048  1.068  2.981  0.000    21.399     6.579
 499   6 C     -0.085  1.049  3.036  0.000    22.104     6.692
 500   6 C     -0.125  1.044  3.081  0.000    22.950     6.831
 501   6 C     -0.128  1.043  3.084  0.000    23.007     6.840
 502   1 H      0.196  0.804  0.000  0.000     1.129     1.664
 503   1 H      0.092  0.908  0.000  0.000     1.858     2.132
 504   1 H      0.067  0.933  0.000  0.000     2.115     2.274
 505   1 H      0.057  0.943  0.000  0.000     2.229     2.335
 506   1 H      0.052  0.948  0.000  0.000     2.293     2.368
 507   1 H      0.080  0.920  0.000  0.000     1.981     2.201
 508   1 H      0.028  0.972  0.000  0.000     2.621     2.532
 509   1 H      0.059  0.941  0.000  0.000     2.216     2.328
 510   1 H      0.070  0.930  0.000  0.000     2.086     2.259
 511   1 H      0.035  0.965  0.000  0.000     2.516     2.480
 512   1 H      0.063  0.937  0.000  0.000     2.165     2.301
 513   7 N     -0.183  1.247  3.936  0.000    24.960     7.420
 514   6 C      0.035  1.050  2.916  0.000    19.996     6.368
 515   6 C      0.209  1.085  2.706  0.000    23.570     7.951
 516   8 O     -0.364  1.756  4.608  0.000    20.981     6.141
 517   6 C     -0.121  1.040  3.080  0.000    22.863     6.817
 518   1 H      0.226  0.774  0.000  0.000     0.982     1.552
 519   1 H      0.094  0.906  0.000  0.000     1.843     2.123
 520   1 H      0.064  0.936  0.000  0.000     2.151     2.294
 521   1 H      0.084  0.916  0.000  0.000     1.942     2.179
 522   1 H      0.043  0.957  0.000  0.000     2.409     2.427
 523   7 N     -0.387  1.320  4.067  0.000    30.020     8.137
 524   6 C      0.043  1.054  2.903  0.000    19.874     6.351
 525   6 C      0.208  1.094  2.699  0.000    23.597     7.956
 526   8 O     -0.409  1.764  4.644  0.000    21.856     6.268
 527   6 C     -0.083  1.056  3.027  0.000    22.070     6.687
 528   6 C     -0.087  1.051  3.036  0.000    22.160     6.702
 529   6 C     -0.089  1.053  3.035  0.000    22.191     6.706
 530   6 C     -0.062  1.067  2.995  0.000    21.788     6.663
 531   7 N     -0.148  1.238  3.910  0.000    24.193     7.305
 532   1 H      0.173  0.827  0.000  0.000     1.253     1.754
 533   1 H      0.042  0.958  0.000  0.000     2.421     2.433
 534   1 H      0.082  0.918  0.000  0.000     1.961     2.190
 535   1 H      0.042  0.958  0.000  0.000     2.428     2.437
 536   1 H      0.089  0.911  0.000  0.000     1.889     2.149
 537   1 H      0.065  0.935  0.000  0.000     2.141     2.288
 538   1 H      0.072  0.928  0.000  0.000     2.062     2.246
 539   1 H      0.057  0.943  0.000  0.000     2.234     2.338
 540   1 H      0.126  0.874  0.000  0.000     1.567     1.957
 541   1 H      0.115  0.885  0.000  0.000     1.657     2.013
 542   1 H      0.286  0.714  0.000  0.000     0.757     1.363
 543   1 H      0.298  0.702  0.000  0.000     0.719     1.328
 544   1 H      0.283  0.717  0.000  0.000     0.767     1.372
 545   7 N     -0.400  1.327  4.073  0.000    30.375     8.185
 546   6 C      0.039  1.054  2.906  0.000    19.927     6.358
 547   6 C      0.199  1.086  2.715  0.000    23.759     7.983
 548   8 O     -0.378  1.758  4.620  0.000    21.240     6.179
 549   6 C     -0.017  1.062  2.955  0.000    20.842     6.493
 550   6 C     -0.121  1.044  3.076  0.000    22.866     6.818
 551   6 C     -0.130  1.045  3.085  0.000    23.060     6.847
 552   1 H      0.191  0.809  0.000  0.000     1.153     1.682
 553   1 H      0.024  0.976  0.000  0.000     2.669     2.555
 554   1 H      0.053  0.947  0.000  0.000     2.285     2.364
 555   1 H      0.058  0.942  0.000  0.000     2.223     2.332
 556   1 H      0.023  0.977  0.000  0.000     2.695     2.567
 557   1 H      0.041  0.959  0.000  0.000     2.433     2.439
 558   1 H      0.077  0.923  0.000  0.000     2.011     2.218
 559   1 H      0.049  0.951  0.000  0.000     2.337     2.391
 560   1 H      0.075  0.925  0.000  0.000     2.027     2.226
 561   1 H      0.168  0.832  0.000  0.000     1.283     1.774
 562   1 H      0.048  0.952  0.000  0.000     2.342     2.393
 563   1 H      0.189  0.811  0.000  0.000     1.162     1.688
 564   1 H      0.078  0.922  0.000  0.000     1.996     2.209
 565   1 H      0.186  0.814  0.000  0.000     1.179     1.701
 566   1 H      0.075  0.925  0.000  0.000     2.028     2.227
 567   1 H      0.178  0.822  0.000  0.000     1.223     1.732
 568   1 H      0.070  0.930  0.000  0.000     2.086     2.259
 569   1 H      0.165  0.835  0.000  0.000     1.302     1.787
 570   1 H      0.089  0.911  0.000  0.000     1.888     2.149
 571   1 H      0.169  0.831  0.000  0.000     1.280     1.772
 572   1 H      0.065  0.935  0.000  0.000     2.145     2.290
 573   1 H      0.195  0.805  0.000  0.000     1.133     1.667
 574   1 H      0.066  0.934  0.000  0.000     2.131     2.283
 575   1 H      0.059  0.941  0.000  0.000     2.214     2.327
 576   1 H      0.168  0.832  0.000  0.000     1.287     1.777
 577   1 H      0.074  0.926  0.000  0.000     2.040     2.234

 Mol. C6AA /au·bohr⁶  :    3043474.693109
 Mol. C8AA /au·bohr⁸  :   69744495.762617
 Mol. α(0) /au        :       2624.470053

 
molecular dipole:
                 x           y           z       tot (Debye)
 q only:      171.913     544.676    1220.372
   full:      168.914     544.463    1220.224    3423.343
molecular quadrupole (traceless):
                xx          xy          yy          xz          yz          zz
 q only:  -143212.881   22551.423  -75925.558   52244.998  166912.875  219138.439
  q+dip:  -143343.989   22180.160  -75811.929   51414.629  166788.327  219155.918
   full:  -143345.902   22181.548  -75812.121   51414.254  166783.899  219158.022
speedup  1.21
cpu  time for grad   31.06 s
wall time for grad   25.73 s

SCC energy    :    -870.5540883
rep           :      10.6465142
ES            :       4.1075384
AES           :      -0.2313756
AXC           :       0.3419332
disp          :      -0.7688197
XB            :       0.0000000
fix           :       0.0000000
Gborn         :       0.0000000
Gsasa         :       0.0000000
Ghb           :       0.0000000
Gshift        :       0.0000000
Gsolv         :      -2.1318281    -1337.74
Etot ala COSMO:    -870.5540883
grad norm     :       0.7193320
total E       :    -859.8267951
atomizationE  :     156.2866710    98071.37
(atE without considering molecular charge,
 total energy contains solvation terms)
H-L gap (eV)  :          0.8711

------------------------------------------------------------------------
 * finished run on 2019/05/04 at 17:41:17.591     
------------------------------------------------------------------------
 total:
 * wall-time:     0 d,  0 h,  0 min, 27.235 sec
 *  cpu-time:     0 d,  0 h,  0 min, 32.618 sec
 * ratio c/w:     1.198 speedup
 SCF:
 * wall-time:     0 d,  0 h,  0 min, 26.438 sec
 *  cpu-time:     0 d,  0 h,  0 min, 32.074 sec
 * ratio c/w:     1.213 speedup

