      -----------------------------------------------------------      
     |                   =====================                   |     
     |                           x T B                           |     
     |                   =====================                   |     
     |                         S. Grimme                         |     
     |          Mulliken Center for Theoretical Chemistry        |     
     |                    University of Bonn                     |     
     |                 Version 6.0.1 (SAW181210)                 |     
      -----------------------------------------------------------      

   This program is distributed in the hope that it will be useful,
   but WITHOUT ANY WARRANTY; without even the implied warranty of
   MERCHANTABILITY or FITNESS FOR A PARTICULAR PURPOSE.
   
   FOR NON-COMMERCIAL, ACADEMIA USE ONLY.
   
   Cite this work as:
   S. Grimme, C. Bannwarth, P. Shushkov, J. Comput. Theory Chem., 2017,
   13, 1989-2009.
   C. Bannwarth, S. Ehlert and S. Grimme., ChemRxiv, 2018, preprint.
   http://doi.org/10.26434/chemrxiv.7246238.v1
   
   for sTDA-xTB:
   S. Grimme and C. Bannwarth, J. Chem. Phys., 2016, 145, 054103.
   
   in the mass-spec context:
   V. Asgeirsson, C. Bauer and S. Grimme, Chem. Sci., 2017, 8, 4879.
   
   if GBSA is used:
   P. Shushkov, F. März and S. Grimme, unpublished.
   
   for ANC optimizer:
   S. Grimme, unpublished.
   Rational Function algorithm used in ANCopt:
   F. Eckert, P. Pulay, H.-J. Werner, J. Comput. Chem., 1997, 18, 1473.
   
   with help from (in alphabetical order)
   C. Bannwarth, F. Bohle, G. Brandenburg, E. Caldeweyher, M. Checinski,
   S. Dohm, S. Ehlert, S. Ehrlich, F. März, H. Neugebauer, J. Pisarek,
   P. Pracht, P. Shushkov, and S. Spicher.
   
 * started run on 2019/05/04 at 19:01:56.226     
========================================================================
 # omp threads = 2
========================================================================
number of atoms            : 1549
number of electrons        : 4252
charge                     : -2
spin                       : .0
first test random number   : .2782

########################################################################
# WARNING! Please study the warnings concerning your input carefully
#  - Process number higher than OMP_NUM_THREADS, I hope you know what you are doing.
########################################################################

           ------------------------------------------------- 
          |                 G F N 2 - x T B                 |
          | Geometry, Frequencies, Noncovalent interactions |
          |            JCTC 2018 parametrisation            |
           ------------------------------------------------- 
 
      method parameters     
 k(s)        :  1.8500
 k(p)        :  2.2300
 k(d)        :  2.2300
 k(f)        :  2.0000
 kEN (H0ij)  : -2.0000
 D4 a1       :  0.5200
 D4 a2       :  5.0000
 D4 s6       :  1.0000
 D4 s8       :  2.7000
 D4 s9       :  5.0000
 alphaj      :  2.0000

 Solvent             : h2o
 Using internal parameter file: .param_gbsa2_h2o
 Gsolv ref. state (COSMO-RS): gsolv [1 M gas/solution]
 temperature (mdtemp)       :    298.150000000000     
 dielectric constant        :    80.2000000000000     
 rho                        :    1.00000000000000     
 mass                       :    18.0000000000000     
 surface tension            :    15.5689454083859     
 probe radius               :   0.975313790000000     
 vdW radii scaling          :    1.00000000000000     
 Gshift (Eh)                :   1.857443126794793E-003
 c1                         :    1.55243817000000     
 soset                      :   0.130326360000000     
 HB correction              :  T

            Z     q(EN)     CN     RAES       Cart. coordinates
     1  N   5.0   -0.07    4.36    3.93     8.90628    65.81727   -34.92214
     2  C   4.0   -0.00    4.51    4.56     9.37871    66.27458   -32.23872
     3  C   4.0    0.14    3.42    3.08    11.84102    65.08405   -31.36945
     4  O   6.0   -0.30    1.27    1.80    12.88793    63.48534   -32.69037
     5  C   4.0   -0.04    4.38    4.34     7.15828    64.93665   -30.94048
     6  C   4.0   -0.05    4.29    4.17     5.06069    65.15775   -32.77919
     7  C   4.0   -0.04    4.28    4.15     6.26255    65.07838   -35.40213
     8  H   1.0    0.05    1.06    1.44     9.29934    67.46133   -35.92558
     9  H   1.0    0.07    1.08    1.44    10.09114    64.37540   -35.53819
    10  H   1.0    0.04    1.05    1.44     9.35225    68.29092   -31.81732
    11  H   1.0    0.05    1.03    1.43     7.63071    62.96378   -30.58332
    12  H   1.0    0.04    1.03    1.43     6.69908    65.88341   -29.16981
    13  H   1.0    0.04    1.03    1.43     3.75678    63.58172   -32.53163
    14  H   1.0    0.04    1.03    1.43     4.07236    66.94165   -32.48817
    15  H   1.0    0.04    1.02    1.43     6.16429    63.17921   -36.19581
    16  H   1.0    0.04    1.02    1.43     5.34603    66.41820   -36.66824
    17  N   5.0   -0.15    3.44    2.04    12.76699    65.88907   -29.18115
    18  C   4.0    0.04    4.51    4.55    14.61325    64.40753   -27.80921
    19  C   4.0    0.14    3.46    3.10    13.56634    63.70455   -25.24485
    20  O   6.0   -0.32    1.28    1.80    13.35658    65.32216   -23.55732
    21  C   4.0   -0.03    4.19    3.98    17.09824    65.82860   -27.48417
    22  S   6.0   -0.03    2.43    3.10    19.74953    63.77258   -26.70561
    23  H   1.0    0.08    1.05    1.44    12.27188    67.54636   -28.32888
    24  H   1.0    0.07    1.09    1.44    14.94962    62.68410   -28.88635
    25  H   1.0    0.05    1.07    1.44    17.54611    66.79992   -29.24540
    26  H   1.0    0.05    1.08    1.44    16.88848    67.19677   -25.95917
    27  N   5.0   -0.14    3.47    2.06    12.91439    61.28948   -24.95383
    28  C   4.0    0.04    4.44    4.45    12.35125    60.29549   -22.44805
    29  C   4.0    0.14    3.39    3.07    13.26021    57.61774   -21.86602
    30  O   6.0   -0.31    1.29    1.80    13.52099    56.02282   -23.54032
    31  C   4.0   -0.03    4.52    4.56     9.56579    60.56005   -21.83956
    32  C   4.0   -0.04    4.12    3.84     7.84614    60.09895   -24.02976
    33  S   6.0   -0.02    2.60    3.10     4.71109    60.64320   -22.85624
    34  C   4.0   -0.06    3.95    3.54     4.91329    59.08417   -19.82134
    35  H   1.0    0.11    1.09    1.44    12.76510    60.01014   -26.38813
    36  H   1.0    0.06    1.09    1.44    13.50020    61.44066   -21.17816
    37  H   1.0    0.05    1.09    1.44     9.08202    59.19944   -20.36936
    38  H   1.0    0.05    1.06    1.44     9.21997    62.47623   -21.16682
    39  H   1.0    0.05    1.07    1.44     8.25621    61.40853   -25.56610
    40  H   1.0    0.05    1.07    1.44     8.01811    58.15632   -24.69494
    41  H   1.0    0.05    1.04    1.43     3.10293    59.25803   -18.85569
    42  H   1.0    0.06    1.04    1.43     5.36304    57.09618   -20.11802
    43  H   1.0    0.04    1.06    1.44     6.39294    59.97990   -18.70451
    44  N   5.0   -0.14    3.52    2.09    13.75532    57.16043   -19.44717
    45  C   4.0    0.04    4.39    4.36    14.58490    54.71513   -18.54955
    46  C   4.0    0.14    3.47    3.10    13.21107    54.26537   -16.09291
    47  O   6.0   -0.32    1.32    1.80    12.11503    56.01715   -15.03655
    48  C   4.0   -0.07    4.14    3.88    17.39115    54.73402   -18.11113
    49  H   1.0    0.10    1.08    1.44    13.59280    58.47757   -18.04877
    50  H   1.0    0.07    1.06    1.44    14.14271    53.21657   -19.89126
    51  H   1.0    0.04    1.00    1.43    17.97696    52.87831   -17.43650
    52  H   1.0    0.04    1.00    1.43    18.34357    55.17055   -19.88370
    53  H   1.0    0.04    1.00    1.43    17.84090    56.16832   -16.70140
    54  N   5.0   -0.14    3.44    2.04    13.26966    51.93156   -15.17450
    55  C   4.0    0.04    4.42    4.41    11.79945    51.25126   -12.94462
    56  C   4.0    0.14    3.44    3.09    12.58557    48.67934   -11.89771
    57  O   6.0   -0.29    1.24    1.80    12.24164    46.72347   -13.12604
    58  C   4.0   -0.03    4.29    4.18     8.97053    51.26260   -13.57579
    59  C   4.0   -0.04    4.21    4.01     7.26789    50.43112   -11.43284
    60  C   4.0   -0.04    4.17    3.94     5.05691    48.82485   -12.36448
    61  C   4.0   -0.02    4.13    3.86     3.20120    48.31840   -10.21397
    62  N   5.0   -0.11    3.99    2.84     1.36249    46.26238   -10.75821
    63  H   1.0    0.10    1.07    1.44    14.30334    50.48592   -15.92094
    64  H   1.0    0.05    1.07    1.44    12.15094    52.64776   -11.47064
    65  H   1.0    0.06    1.03    1.43     8.42251    53.17878   -14.09547
    66  H   1.0    0.06    1.04    1.43     8.64739    49.98325   -15.15749
    67  H   1.0    0.06    1.04    1.43     8.36015    49.30673   -10.09681
    68  H   1.0    0.05    1.03    1.43     6.50066    52.09596   -10.49176
    69  H   1.0    0.06    1.03    1.43     4.06291    49.82262   -13.86681
    70  H   1.0    0.06    1.03    1.43     5.76177    47.02016   -13.06368
    71  H   1.0    0.05    1.03    1.43     4.26511    47.77983    -8.53400
    72  H   1.0    0.06    1.02    1.43     2.12783    50.03805    -9.84736
    73  H   1.0    0.07    1.01    1.43     0.15874    46.01483    -9.22564
    74  H   1.0    0.08    1.02    1.43     0.29291    46.71969   -12.34180
    75  H   1.0    0.07    1.01    1.43     2.31869    44.57864   -11.09836
    76  N   5.0   -0.14    3.44    2.04    13.63059    48.69068    -9.61493
    77  C   4.0    0.04    4.47    4.49    14.29200    46.33230    -8.38093
    78  C   4.0    0.16    3.45    3.09    12.19818    45.24949    -6.74254
    79  O   6.0   -0.31    1.24    1.80    11.27788    46.48348    -4.99644
    80  C   4.0   -0.03    4.35    4.29    16.69384    46.54206    -6.81246
    81  C   4.0   -0.02    3.58    3.15    17.66705    44.02684    -5.95075
    82  C   4.0   -0.04    3.50    3.11    19.54166    42.78529    -7.30379
    83  C   4.0   -0.04    3.49    3.11    16.59746    42.82497    -3.88339
    84  C   4.0   -0.04    3.39    3.08    20.39959    40.43258    -6.56491
    85  C   4.0   -0.04    3.38    3.07    17.44784    40.47226    -3.12939
    86  C   4.0   -0.04    3.38    3.07    19.35835    39.27039    -4.47487
    87  H   1.0    0.10    1.06    1.44    14.03122    50.27805    -8.59825
    88  H   1.0    0.06    1.09    1.44    14.60002    45.00382    -9.92484
    89  H   1.0    0.05    1.05    1.44    18.16027    47.43779    -7.95008
    90  H   1.0    0.05    1.04    1.43    16.30456    47.68157    -5.14005
    91  H   1.0    0.05    1.08    1.44    20.34101    43.67157    -8.95919
    92  H   1.0    0.06    1.03    1.43    15.08757    43.73393    -2.85349
    93  H   1.0    0.06    1.03    1.43    21.88114    39.50472    -7.61938
    94  H   1.0    0.05    1.03    1.43    16.62770    39.56708    -1.49477
    95  H   1.0    0.06    1.03    1.43    20.02543    37.43358    -3.88717
    96  N   5.0   -0.12    3.39    2.02    11.54245    42.88355    -7.27356
    97  C   4.0    0.02    4.17    3.95     9.63571    41.54751    -5.85248
    98  C   4.0    0.07    3.14    3.03     7.05624    41.95947    -7.00143
    99  O   6.0   -0.29    1.15    1.80     6.81813    43.23126    -8.94218
   100  H   1.0    0.10    1.06    1.44    12.31723    41.84231    -8.69841
   101  H   1.0    0.05    1.03    1.43    10.05145    39.52929    -5.85437
   102  H   1.0    0.05    1.03    1.43     9.61304    42.22593    -3.90795
   103  N   5.0   -0.20    3.21    1.96     7.84803    32.03841   -10.35381
   104  C   4.0    0.03    4.31    4.22     9.53556    33.52374   -11.92417
   105  C   4.0    0.15    3.41    3.08    11.75032    34.59899   -10.45207
   106  O   6.0   -0.30    1.24    1.80    11.76543    34.57065    -8.13527
   107  C   4.0    0.03    4.17    3.94     8.09370    35.65157   -13.22052
   108  O   6.0   -0.25    2.04    1.83     9.44674    36.49250   -15.36914
   109  H   1.0    0.08    1.02    1.43     6.50633    33.05698    -9.41839
   110  H   1.0    0.04    1.06    1.44    10.31412    32.26329   -13.35469
   111  H   1.0    0.04    1.02    1.43     6.24554    34.95804   -13.81012
   112  H   1.0    0.06    1.02    1.43     7.86882    37.22004   -11.90338
   113  H   1.0    0.12    1.01    1.43     8.26944    37.11989   -16.65415
   114  N   5.0   -0.13    3.48    2.07    13.64004    35.50417   -11.82590
   115  C   4.0    0.03    4.42    4.42    15.62614    37.05186   -10.72231
   116  C   4.0    0.15    3.43    3.09    15.73764    39.54629   -12.14149
   117  O   6.0   -0.29    1.26    1.80    13.77988    40.70848   -12.62904
   118  C   4.0   -0.05    4.32    4.24    18.17538    35.68370   -10.79789
   119  C   4.0   -0.05    4.19    3.97    18.19995    33.24406    -9.25399
   120  C   4.0   -0.05    4.15    3.90    20.86635    32.41825    -8.52077
   121  C   4.0   -0.04    4.11    3.82    20.80210    30.11278    -6.75766
   122  N   5.0   -0.12    3.98    2.81    23.37591    29.12068    -6.10570
   123  H   1.0    0.09    1.06    1.44    13.84980    35.19804   -13.71752
   124  H   1.0    0.06    1.06    1.44    15.22930    37.42035    -8.73431
   125  H   1.0    0.04    1.03    1.43    18.61758    35.20181   -12.75187
   126  H   1.0    0.04    1.04    1.43    19.62480    36.93280   -10.03444
   127  H   1.0    0.05    1.03    1.43    17.12470    33.53319    -7.52111
   128  H   1.0    0.04    1.03    1.43    17.34957    31.73417   -10.36704
   129  H   1.0    0.04    1.03    1.43    21.91704    31.90991   -10.21775
   130  H   1.0    0.06    1.03    1.43    21.81500    33.96027    -7.54001
   131  H   1.0    0.04    1.02    1.43    19.86669    30.64380    -5.00021
   132  H   1.0    0.04    1.02    1.43    19.75708    28.59722    -7.68174
   133  H   1.0    0.05    1.01    1.43    23.21528    27.56732    -4.91329
   134  H   1.0    0.05    1.01    1.43    24.31888    28.57455    -7.74032
   135  H   1.0    0.07    1.01    1.43    24.42471    30.51529    -5.19864
   136  N   5.0   -0.14    3.50    2.08    18.01287    40.36266   -12.81045
   137  C   4.0    0.04    4.45    4.46    18.32089    42.65867   -14.30145
   138  C   4.0    0.15    3.45    3.10    17.19651    42.29396   -16.91116
   139  O   6.0   -0.30    1.23    1.80    17.75209    40.42880   -18.18861
   140  C   4.0   -0.04    4.31    4.22    21.11013    43.34464   -14.58302
   141  C   4.0   -0.03    3.70    3.24    22.11357    45.02083   -12.55345
   142  C   4.0   -0.02    3.61    3.17    24.16959    44.57675   -11.03978
   143  C   4.0   -0.00    3.89    3.45    21.11769    47.41700   -11.79378
   144  N   5.0   -0.11    3.49    2.07    24.50597    46.54962    -9.38249
   145  C   4.0    0.03    3.88    3.44    22.66726    48.32407    -9.81146
   146  C   4.0   -0.05    3.40    3.08    19.06356    48.87965   -12.57991
   147  C   4.0   -0.05    3.40    3.08    22.22696    50.64088    -8.61904
   148  C   4.0   -0.05    3.38    3.07    18.63081    51.17945   -11.38749
   149  C   4.0   -0.05    3.38    3.07    20.20495    52.03360    -9.43162
   150  H   1.0    0.07    1.08    1.44    19.66827    39.48582   -12.35503
   151  H   1.0    0.05    1.07    1.44    17.35524    44.19880   -13.33202
   152  H   1.0    0.04    1.04    1.43    22.21751    41.60799   -14.56034
   153  H   1.0    0.04    1.04    1.43    21.36713    44.31974   -16.37825
   154  H   1.0    0.05    1.01    1.43    25.35445    42.91757   -11.13616
   155  H   1.0    0.12    1.09    1.44    25.89491    46.67245    -8.05212
   156  H   1.0    0.06    1.03    1.43    17.83901    48.23714   -14.08035
   157  H   1.0    0.06    1.03    1.43    23.43638    51.30606    -7.11482
   158  H   1.0    0.05    1.03    1.43    17.05289    52.33218   -11.97708
   159  H   1.0    0.05    1.03    1.43    19.81189    53.83073    -8.54723
   160  N   5.0   -0.14    3.57    2.13    15.62614    44.09298   -17.69350
   161  C   4.0    0.03    4.45    4.46    14.71908    44.22526   -20.28621
   162  C   4.0    0.14    3.44    3.09    15.09324    46.91056   -21.19328
   163  O   6.0   -0.31    1.28    1.80    14.94395    48.66233   -19.66827
   164  C   4.0   -0.03    4.32    4.24    11.93362    43.55440   -20.35991
   165  C   4.0   -0.02    4.31    4.22    11.20607    41.77806   -18.26420
   166  C   4.0    0.15    3.23    3.04     8.51511    42.14656   -17.41005
   167  O   6.0   -0.29    1.20    1.80     6.78034    42.22971   -18.97474
   168  N   5.0   -0.17    3.16    1.95     8.13338    42.37332   -14.90994
   169  H   1.0    0.10    1.07    1.44    14.94584    45.49704   -16.56156
   170  H   1.0    0.05    1.06    1.44    15.74520    42.94780   -21.53343
   171  H   1.0    0.06    1.04    1.43    10.81868    45.27594   -20.16149
   172  H   1.0    0.05    1.03    1.43    11.50654    42.64167   -22.15515
   173  H   1.0    0.06    1.03    1.43    11.40639    39.83731   -18.92561
   174  H   1.0    0.07    1.08    1.44    12.44007    42.10309   -16.64660
   175  H   1.0    0.12    1.03    1.43     9.62815    42.29207   -13.69484
   176  H   1.0    0.10    1.02    1.43     6.34948    42.62655   -14.22586
   177  N   5.0   -0.14    3.40    2.02    15.59024    47.24693   -23.64236
   178  C   4.0    0.03    4.42    4.41    16.24219    49.75648   -24.66092
   179  C   4.0    0.15    3.40    3.08    14.99498    50.46135   -27.16292
   180  O   6.0   -0.29    1.23    1.80    14.52632    48.85320   -28.76352
   181  C   4.0   -0.04    4.48    4.51    19.08056    49.97569   -25.01241
   182  C   4.0   -0.04    4.08    3.77    20.50542    50.63899   -22.66537
   183  S   6.0   -0.04    2.57    3.10    23.60646    51.56306   -23.61213
   184  C   4.0   -0.06    3.93    3.51    22.93182    53.74948   -26.15381
   185  H   1.0    0.09    1.05    1.44    15.56000    45.84097   -24.96139
   186  H   1.0    0.06    1.08    1.44    15.49764    51.09630   -23.28331
   187  H   1.0    0.05    1.04    1.44    19.79866    48.16722   -25.68516
   188  H   1.0    0.04    1.11    1.44    19.45662    51.44590   -26.40514
   189  H   1.0    0.04    1.08    1.44    19.59079    52.20557   -21.69027
   190  H   1.0    0.05    1.07    1.44    20.62636    49.00626   -21.41626
   191  H   1.0    0.05    1.04    1.43    24.70817    54.46568   -26.91159
   192  H   1.0    0.04    1.05    1.44    21.88681    52.76115   -27.62779
   193  H   1.0    0.04    1.04    1.43    21.80366    55.30661   -25.41681
   194  N   5.0   -0.14    3.47    2.06    14.58302    52.90477   -27.52953
   195  C   4.0    0.04    4.36    4.31    13.57768    53.86286   -29.90302
   196  C   4.0    0.14    3.42    3.08    14.71719    56.44233   -30.46805
   197  O   6.0   -0.31    1.29    1.80    14.44318    58.22246   -28.97895
   198  C   4.0   -0.05    4.11    3.82    10.71853    54.04616   -29.77830
   199  H   1.0    0.11    1.10    1.44    14.92695    54.27293   -26.21617
   200  H   1.0    0.05    1.07    1.44    14.12192    52.58729   -31.42614
   201  H   1.0    0.05    1.00    1.43    10.01366    54.76615   -31.57543
   202  H   1.0    0.06    1.00    1.43     9.94185    52.17344   -29.41925
   203  H   1.0    0.06    1.00    1.43    10.19507    55.32740   -28.25329
   204  N   5.0   -0.13    3.45    2.04    16.00409    56.64454   -32.61289
   205  C   4.0    0.04    4.40    4.39    17.27398    58.99913   -33.28941
   206  C   4.0    0.15    3.43    3.09    17.37792    59.38653   -36.13345
   207  O   6.0   -0.30    1.25    1.80    16.25731    57.96923   -37.59421
   208  C   4.0    0.04    4.17    3.95    19.96495    59.04449   -32.21416
   209  O   6.0   -0.25    2.04    1.83    21.50886    57.18122   -33.37823
   210  H   1.0    0.09    1.06    1.44    16.20062    55.22913   -33.90735
   211  H   1.0    0.07    1.07    1.44    16.10424    60.49391   -32.48817
   212  H   1.0    0.05    1.02    1.43    20.78888    60.90209   -32.55431
   213  H   1.0    0.05    1.02    1.43    19.88181    58.67221   -30.19026
   214  H   1.0    0.14    1.04    1.43    22.42727    57.92199   -34.80497
   215  N   5.0   -0.13    3.54    2.11    18.70073    61.36507   -36.89879
   216  C   4.0    0.04    4.41    4.40    19.75708    61.43877   -39.41401
   217  C   4.0    0.16    3.44    3.09    22.58789    61.13263   -39.07575
   218  O   6.0   -0.30    1.30    1.80    23.47040    60.60351   -36.98005
   219  C   4.0    0.03    4.15    3.90    19.09001    63.91809   -40.78784
   220  O   6.0   -0.23    2.04    1.83    20.45817    66.01569   -39.83542
   221  H   1.0    0.09    1.06    1.44    19.06167    62.92220   -35.82165
   222  H   1.0    0.04    1.06    1.44    18.96529    59.92888   -40.57053
   223  H   1.0    0.04    1.01    1.43    19.53032    63.69888   -42.78717
   224  H   1.0    0.04    1.01    1.43    17.07745    64.28281   -40.54596
   225  H   1.0    0.12    1.01    1.43    19.98574    67.55203   -40.75572
   226  N   5.0   -0.13    3.49    2.07    23.98818    61.39153   -41.14878
   227  C   4.0    0.04    4.46    4.47    26.73206    61.32350   -41.08453
   228  C   4.0    0.17    3.54    3.13    27.60890    64.05037   -41.10343
   229  O   6.0   -0.28    1.25    1.80    26.70939    65.53381   -42.63222
   230  C   4.0   -0.05    4.30    4.20    27.75252    59.91565   -43.39567
   231  C   4.0   -0.03    4.21    4.02    30.55876    59.32417   -43.28039
   232  C   4.0    0.25    3.15    3.03    32.21605    61.62963   -43.74716
   233  O   6.0   -0.28    1.20    1.80    34.40813    61.63341   -42.89111
   234  O   6.0   -0.29    1.27    1.80    31.33544    63.45133   -44.95469
   235  H   1.0    0.08    1.06    1.44    23.26442    61.65420   -42.91568
   236  H   1.0    0.05    1.07    1.44    27.45016    60.34651   -39.41968
   237  H   1.0    0.04    1.03    1.43    26.74529    58.12797   -43.57330
   238  H   1.0    0.06    1.04    1.43    27.42748    61.07594   -45.06618
   239  H   1.0    0.05    1.03    1.43    31.01040    58.58528   -41.41145
   240  H   1.0    0.06    1.04    1.43    31.00662    57.92010   -44.71847
   241  N   5.0   -0.08    3.71    2.28    29.30209    64.74579   -39.34787
   242  C   4.0    0.02    4.59    4.66    30.40947    63.12441   -37.41657
   243  C   4.0    0.15    3.56    3.14    28.64825    62.92220   -35.18292
   244  O   6.0   -0.27    1.28    1.80    26.91348    64.46044   -34.92403
   245  C   4.0   -0.04    4.37    4.33    32.79052    64.56249   -36.59643
   246  C   4.0   -0.04    4.30    4.20    32.79808    66.99834   -38.04774
   247  C   4.0    0.01    4.38    4.34    30.21672    67.35361   -39.12111
   248  H   1.0    0.04    1.05    1.44    30.92725    61.28003   -38.17624
   249  H   1.0    0.05    1.04    1.43    32.71116    64.92531   -34.57065
   250  H   1.0    0.04    1.03    1.43    34.45915    63.44377   -37.04808
   251  H   1.0    0.04    1.03    1.43    33.26296    68.54792   -36.77407
   252  H   1.0    0.05    1.03    1.43    34.19270    66.88496   -39.55952
   253  H   1.0    0.06    1.02    1.43    29.02808    68.44587   -37.84365
   254  H   1.0    0.06    1.02    1.43    30.29987    68.27202   -40.96359
   255  N   5.0   -0.09    3.73    2.32    29.09989    61.06838   -33.52941
   256  C   4.0    0.04    4.61    4.68    27.36890    60.88697   -31.42992
   257  C   4.0    0.16    3.44    3.09    28.03597    62.99212   -29.57988
   258  O   6.0   -0.30    1.25    1.80    30.23373    63.78203   -29.46272
   259  C   4.0   -0.04    4.35    4.28    27.93771    58.26403   -30.31120
   260  C   4.0   -0.03    4.28    4.16    29.94649    57.07728   -31.99684
   261  C   4.0   -0.01    4.35    4.29    31.15402    59.20700   -33.37067
   262  H   1.0    0.06    1.05    1.44    25.38280    60.93043   -31.97416
   263  H   1.0    0.06    1.03    1.43    28.63691    58.47379   -28.38557
   264  H   1.0    0.05    1.02    1.43    26.21995    57.12642   -30.31687
   265  H   1.0    0.05    1.03    1.43    31.32788    56.08140   -30.83655
   266  H   1.0    0.05    1.03    1.43    29.06021    55.76770   -33.31587
   267  H   1.0    0.05    1.02    1.43    32.75084    59.95911   -32.31053
   268  H   1.0    0.04    1.02    1.43    31.76818    58.62119   -35.24717
   269  N   5.0   -0.14    3.49    2.07    26.14814    63.95022   -28.22684
   270  C   4.0    0.04    4.48    4.51    26.54876    65.97978   -26.39191
   271  C   4.0    0.15    3.47    3.10    27.45961    64.97823   -23.83511
   272  O   6.0   -0.33    1.33    1.80    28.62179    66.35395   -22.37058
   273  C   4.0   -0.03    4.19    3.99    24.10723    67.47455   -26.01586
   274  S   6.0   -0.03    2.60    3.10    21.76964    65.81349   -24.14503
   275  H   1.0    0.08    1.10    1.44    24.31510    63.36629   -28.35345
   276  H   1.0    0.06    1.07    1.44    27.97550    67.26857   -27.12891
   277  H   1.0    0.06    1.07    1.44    24.55132    69.23956   -25.05210
   278  H   1.0    0.06    1.08    1.44    23.27764    67.86762   -27.86023
   279  N   5.0   -0.13    3.58    2.14    26.85301    62.59528   -23.30221
   280  C   4.0    0.04    4.51    4.55    27.54276    61.35373   -20.93816
   281  C   4.0    0.14    3.45    3.09    28.64447    58.76292   -21.49374
   282  O   6.0   -0.31    1.26    1.80    28.68415    57.93711   -23.66693
   283  C   4.0   -0.02    4.33    4.25    25.23351    60.95500   -19.22418
   284  C   4.0   -0.07    4.13    3.85    24.79887    63.24535   -17.60280
   285  C   4.0   -0.07    4.17    3.94    22.89970    60.31438   -20.77943
   286  H   1.0    0.08    1.07    1.44    25.86279    61.45578   -24.50030
   287  H   1.0    0.06    1.07    1.44    28.96005    62.53292   -20.01976
   288  H   1.0    0.04    1.07    1.44    25.59445    59.35629   -17.97696
   289  H   1.0    0.03    1.00    1.43    23.15481    62.91654   -16.40471
   290  H   1.0    0.04    1.01    1.43    26.46561    63.56660   -16.43495
   291  H   1.0    0.05    1.00    1.43    24.46817    64.87429   -18.81789
   292  H   1.0    0.04    1.00    1.43    21.30099    60.04415   -19.50953
   293  H   1.0    0.05    1.08    1.44    22.51231    61.86585   -22.07578
   294  H   1.0    0.04    1.00    1.43    23.25497    58.58528   -21.83956
   295  N   5.0   -0.15    3.45    2.05    29.50996    57.46468   -19.52087
   296  C   4.0    0.04    4.46    4.48    30.37168    54.86630   -19.81567
   297  C   4.0    0.15    3.47    3.10    30.44915    53.32807   -17.39115
   298  O   6.0   -0.31    1.33    1.80    31.43748    54.18222   -15.47308
   299  C   4.0   -0.02    4.33    4.25    32.93414    54.69812   -21.11769
   300  C   4.0    0.16    3.26    3.05    33.77696    51.99959   -21.47485
   301  O   6.0   -0.29    1.22    1.80    32.28597    50.39143   -22.26664
   302  N   5.0   -0.17    3.16    1.95    36.16746    51.45913   -20.81533
   303  H   1.0    0.11    1.08    1.44    29.63468    58.15254   -17.72374
   304  H   1.0    0.06    1.08    1.44    28.90336    53.99703   -20.96840
   305  H   1.0    0.05    1.03    1.43    32.81131    55.58440   -22.97340
   306  H   1.0    0.05    1.04    1.43    34.34199    55.66566   -19.96684
   307  H   1.0    0.10    1.02    1.43    36.84021    49.66389   -21.01564
   308  H   1.0    0.09    1.02    1.43    37.31075    52.84430   -20.11424
   309  N   5.0   -0.13    3.53    2.10    29.49673    51.01315   -17.51965
   310  C   4.0    0.04    4.44    4.44    29.55342    49.34074   -15.32379
   311  C   4.0    0.16    3.48    3.11    32.21605    49.11587   -14.30145
   312  O   6.0   -0.28    1.27    1.80    33.98294    48.90611   -15.75087
   313  C   4.0   -0.05    4.33    4.25    28.52919    46.72536   -16.00409
   314  C   4.0   -0.05    4.27    4.14    26.84734    46.71403   -18.35491
   315  C   4.0   -0.04    4.17    3.94    28.23817    45.51972   -20.59612
   316  C   4.0   -0.03    4.17    3.94    29.63846    43.10276   -19.78921
   317  N   5.0   -0.12    4.01    2.89    27.99818    41.32453   -18.31333
   318  H   1.0    0.08    1.11    1.44    28.68415    50.24403   -19.09001
   319  H   1.0    0.04    1.06    1.44    28.34778    50.12876   -13.85169
   320  H   1.0    0.05    1.08    1.44    30.11845    45.46303   -16.35936
   321  H   1.0    0.04    1.03    1.43    27.41047    46.02050   -14.42617
   322  H   1.0    0.04    1.03    1.43    25.14469    45.61609   -17.97885
   323  H   1.0    0.04    1.06    1.44    26.34278    48.64910   -18.85191
   324  H   1.0    0.04    1.02    1.43    26.87946    45.02650   -22.06255
   325  H   1.0    0.06    1.03    1.43    29.61956    46.85575   -21.33690
   326  H   1.0    0.04    1.02    1.43    30.29609    42.11443   -21.47296
   327  H   1.0    0.05    1.03    1.43    31.24284    43.62054   -18.60435
   328  H   1.0    0.05    1.01    1.43    28.44793    39.46504   -18.76309
   329  H   1.0    0.05    1.01    1.43    28.27408    41.59854   -16.38770
   330  H   1.0    0.05    1.02    1.43    26.10656    41.64389   -18.73852
   331  N   5.0   -0.15    3.49    2.07    32.51462    49.23303   -11.81646
   332  C   4.0    0.04    4.57    4.63    34.94670    48.64155   -10.69585
   333  C   4.0    0.14    3.57    3.15    34.81631    46.13955    -9.32202
   334  O   6.0   -0.30    1.26    1.80    36.67202    44.74871    -9.20674
   335  C   4.0   -0.02    4.32    4.23    35.79708    50.61253    -8.79101
   336  C   4.0   -0.07    4.25    4.09    37.27484    49.31807    -6.68585
   337  C   4.0   -0.07    4.10    3.81    37.39201    52.64588   -10.07224
   338  H   1.0    0.10    1.07    1.44    31.13701    49.72058   -10.56168
   339  H   1.0    0.07    1.08    1.44    36.33754    48.57541   -12.21330
   340  H   1.0    0.05    1.06    1.44    34.15302    51.54605    -7.97464
   341  H   1.0    0.03    1.01    1.43    37.88145    50.73725    -5.32147
   342  H   1.0    0.06    1.04    1.43    36.05786    47.93479    -5.76555
   343  H   1.0    0.06    1.00    1.43    38.91702    48.37698    -7.50032
   344  H   1.0    0.04    1.00    1.43    37.97404    54.02915    -8.66250
   345  H   1.0    0.05    1.00    1.43    39.05119    51.76337   -10.91695
   346  H   1.0    0.06    1.00    1.43    36.26384    53.56239   -11.53111
   347  N   5.0   -0.13    3.51    2.09    32.60722    45.62743    -8.23543
   348  C   4.0    0.04    4.35    4.30    32.05731    43.26906    -6.88994
   349  C   4.0    0.15    3.43    3.09    29.41736    43.46937    -5.72020
   350  O   6.0   -0.31    1.46    1.80    28.24006    45.49137    -5.79579
   351  C   4.0    0.04    4.16    3.92    34.04719    42.72103    -4.84148
   352  O   6.0   -0.25    2.04    1.83    34.57254    44.86965    -3.32970
   353  H   1.0    0.11    1.10    1.44    31.11056    46.84253    -8.25243
   354  H   1.0    0.04    1.05    1.44    32.03274    41.71003    -8.23543
   355  H   1.0    0.04    1.02    1.43    33.34043    41.21681    -3.62449
   356  H   1.0    0.06    1.02    1.43    35.78952    42.12199    -5.76177
   357  H   1.0    0.11    1.01    1.43    35.84243    44.44824    -2.04846
   358  N   5.0   -0.14    3.42    2.03    28.48195    41.38878    -4.65628
   359  C   4.0    0.04    4.45    4.46    25.99129    41.36232    -3.45442
   360  C   4.0    0.15    3.54    3.13    25.46784    43.77928    -1.96720
   361  O   6.0   -0.30    1.29    1.80    26.85867    44.41801    -0.21165
   362  C   4.0   -0.03    4.29    4.17    25.70594    39.06253    -1.72532
   363  C   4.0    0.24    3.13    3.03    25.25430    36.63801    -3.18419
   364  O   6.0   -0.31    1.21    1.80    25.35823    36.70982    -5.54068
   365  O   6.0   -0.30    1.17    1.80    24.80832    34.65757    -1.97098
   366  H   1.0    0.08    1.06    1.44    29.40036    39.69558    -4.59581
   367  H   1.0    0.05    1.08    1.44    24.58344    41.21492    -4.95108
   368  H   1.0    0.05    1.03    1.43    27.42937    38.83198    -0.62172
   369  H   1.0    0.05    1.03    1.43    24.10156    39.36110    -0.46865
   370  N   5.0   -0.14    3.51    2.08    23.48362    45.13232    -2.71365
   371  C   4.0    0.03    4.46    4.48    22.55766    47.29795    -1.27745
   372  C   4.0    0.15    3.44    3.09    24.14881    49.61853    -1.73288
   373  O   6.0   -0.31    1.24    1.80    23.41559    51.72180    -1.03179
   374  C   4.0   -0.02    4.38    4.34    22.53498    46.69702     1.53446
   375  C   4.0   -0.02    3.71    3.24    20.63392    44.72792     2.16752
   376  C   4.0   -0.01    3.59    3.16    21.09312    42.30907     2.92152
   377  C   4.0    0.00    3.90    3.46    17.94295    44.98115     2.01823
   378  N   5.0   -0.12    3.48    2.07    18.85191    41.04674     3.27867
   379  C   4.0    0.03    3.90    3.46    16.89037    42.64734     2.74766
   380  C   4.0   -0.05    3.41    3.08    16.32345    46.96725     1.36249
   381  C   4.0   -0.05    3.40    3.08    14.29956    42.23349     2.82892
   382  C   4.0   -0.04    3.38    3.07    13.75343    46.56474     1.46832
   383  C   4.0   -0.04    3.39    3.07    12.76132    44.21203     2.19964
   384  H   1.0    0.08    1.06    1.44    22.48207    44.76194    -4.31802
   385  H   1.0    0.04    1.06    1.44    20.64337    47.77794    -1.86705
   386  H   1.0    0.07    1.07    1.44    24.39258    46.00538     2.09571
   387  H   1.0    0.05    1.03    1.43    22.07200    48.40533     2.58892
   388  H   1.0    0.05    1.01    1.43    22.94694    41.50216     3.19742
   389  H   1.0    0.07    1.04    1.43    18.67805    39.21370     3.84748
   390  H   1.0    0.05    1.03    1.43    17.07178    48.77572     0.78613
   391  H   1.0    0.05    1.03    1.43    13.53044    40.42124     3.36749
   392  H   1.0    0.05    1.03    1.43    12.47975    48.08219     0.98077
   393  H   1.0    0.05    1.03    1.43    10.73742    43.96069     2.26578
   394  N   5.0   -0.13    3.56    2.12    26.32766    49.22169    -2.91585
   395  C   4.0    0.04    4.47    4.49    28.11345    51.24181    -3.31269
   396  C   4.0    0.14    3.41    3.08    28.38746    51.86542    -6.09815
   397  O   6.0   -0.31    1.28    1.80    28.47628    50.17033    -7.67985
   398  C   4.0   -0.04    4.31    4.22    30.67025    50.53505    -2.21098
   399  C   4.0   -0.05    4.26    4.13    32.24250    52.81784    -1.61383
   400  C   4.0   -0.05    4.20    4.01    35.01284    52.23769    -1.42485
   401  C   4.0   -0.04    4.16    3.92    36.48683    54.59985    -2.08437
   402  N   5.0   -0.12    4.00    2.85    38.21971    55.41243    -0.00756
   403  H   1.0    0.13    1.16    1.46    26.89080    47.51527    -3.61316
   404  H   1.0    0.07    1.09    1.44    27.41803    52.94445    -2.38483
   405  H   1.0    0.06    1.03    1.43    30.38490    49.47492    -0.46676
   406  H   1.0    0.06    1.04    1.43    31.69826    49.38421    -3.57536
   407  H   1.0    0.05    1.05    1.44    31.98739    54.21624    -3.10482
   408  H   1.0    0.05    1.03    1.43    31.63401    53.59641     0.19275
   409  H   1.0    0.04    1.03    1.43    35.48338    51.66511     0.49700
   410  H   1.0    0.04    1.05    1.44    35.51173    50.74103    -2.74955
   411  H   1.0    0.03    1.02    1.43    37.62633    54.23513    -3.76055
   412  H   1.0    0.04    1.04    1.43    35.16591    56.13620    -2.45097
   413  H   1.0    0.05    1.01    1.43    39.19103    57.03571    -0.53857
   414  H   1.0    0.05    1.01    1.43    37.18603    55.79227     1.61950
   415  H   1.0    0.05    1.01    1.43    39.51984    53.98947     0.37983
   416  N   5.0   -0.14    3.46    2.05    28.62179    54.31072    -6.65184
   417  C   4.0    0.03    4.38    4.35    28.54242    55.31039    -9.22564
   418  C   4.0    0.14    3.43    3.09    30.40380    57.48546    -9.46375
   419  O   6.0   -0.32    1.28    1.80    30.83088    58.85740    -7.64583
   420  C   4.0   -0.04    4.38    4.34    25.88736    56.32517    -9.75666
   421  C   4.0   -0.03    4.18    3.96    25.04265    57.05461   -12.42495
   422  C   4.0   -0.08    4.11    3.82    24.18093    54.73402   -13.89138
   423  C   4.0   -0.08    4.11    3.83    22.90537    58.96701   -12.30023
   424  H   1.0    0.10    1.07    1.44    28.87501    55.68266    -5.32147
   425  H   1.0    0.05    1.06    1.44    29.06587    53.85530   -10.58624
   426  H   1.0    0.05    1.05    1.44    24.56266    54.87764    -9.12927
   427  H   1.0    0.05    1.05    1.44    25.66248    58.02592    -8.61715
   428  H   1.0    0.05    1.06    1.44    26.63947    57.89742   -13.41705
   429  H   1.0    0.04    1.00    1.43    23.59323    55.31417   -15.77921
   430  H   1.0    0.05    1.00    1.43    25.74752    53.40366   -14.02177
   431  H   1.0    0.04    1.01    1.43    22.59923    53.86286   -12.89927
   432  H   1.0    0.03    1.00    1.43    22.33278    59.46023   -14.21641
   433  H   1.0    0.04    1.00    1.43    21.31800    58.13364   -11.28544
   434  H   1.0    0.03    1.00    1.43    23.56677    60.64886   -11.31001
   435  N   5.0   -0.14    3.43    2.04    31.46205    57.84073   -11.70874
   436  C   4.0    0.04    4.41    4.40    33.13445    59.99880   -12.17928
   437  C   4.0    0.14    3.41    3.08    32.14424    61.87341   -14.16539
   438  O   6.0   -0.32    1.27    1.80    31.10678    61.11752   -16.11369
   439  C   4.0   -0.03    4.29    4.18    35.76306    59.09551   -12.94273
   440  C   4.0   -0.03    4.23    4.05    37.61500    61.25169   -13.37170
   441  C   4.0    0.24    3.13    3.03    39.67480    60.61107   -15.25576
   442  O   6.0   -0.29    1.19    1.80    39.44614    58.67977   -16.62959
   443  O   6.0   -0.29    1.17    1.80    41.51539    62.08506   -15.36347
   444  H   1.0    0.11    1.10    1.44    31.20504    56.68422   -13.22808
   445  H   1.0    0.06    1.08    1.44    33.21193    61.07405   -10.42373
   446  H   1.0    0.05    1.03    1.43    36.51895    57.89742   -11.44607
   447  H   1.0    0.07    1.04    1.43    35.61755    58.02404   -14.69640
   448  H   1.0    0.06    1.06    1.44    36.58509    62.88441   -14.09169
   449  H   1.0    0.06    1.03    1.43    38.51828    61.72223   -11.58213
   450  N   5.0   -0.15    3.50    2.08    32.54486    64.31493   -13.68540
   451  C   4.0    0.03    4.51    4.55    31.62456    66.33316   -15.34646
   452  C   4.0    0.15    3.40    3.08    33.57854    67.18732   -17.31745
   453  O   6.0   -0.32    1.33    1.80    35.64968    68.03958   -16.66738
   454  C   4.0   -0.02    4.36    4.31    30.75529    68.63296   -13.83657
   455  C   4.0   -0.04    4.24    4.08    29.12446    67.79770   -11.60859
   456  C   4.0   -0.06    4.16    3.92    29.28319    70.42442   -15.53355
   457  C   4.0   -0.08    4.04    3.70    26.50530    66.87929   -12.35314
   458  H   1.0    0.12    1.15    1.45    33.50862    64.96311   -12.14716
   459  H   1.0    0.05    1.08    1.44    30.06743    65.48278   -16.39337
   460  H   1.0    0.06    1.06    1.44    32.41447    69.61561   -13.10903
   461  H   1.0    0.06    1.05    1.44    30.07688    66.25190   -10.63727
   462  H   1.0    0.04    1.03    1.43    28.88824    69.39452   -10.32924
   463  H   1.0    0.05    1.00    1.43    28.67848    72.05336   -14.42617
   464  H   1.0    0.06    1.00    1.43    30.50018    71.03858   -17.07745
   465  H   1.0    0.05    1.01    1.43    27.63913    69.43798   -16.28566
   466  H   1.0    0.03    1.00    1.43    25.48106    66.32560   -10.65427
   467  H   1.0    0.04    1.00    1.43    25.50563    68.40619   -13.30934
   468  H   1.0    0.04    1.01    1.43    26.69616    65.26358   -13.61737
   469  N   5.0   -0.15    3.53    2.10    32.86800    67.00779   -19.72118
   470  C   4.0    0.04    4.43    4.43    34.59332    67.46133   -21.80933
   471  C   4.0    0.14    3.41    3.08    33.94515    69.89340   -23.23418
   472  O   6.0   -0.30    1.23    1.80    35.35488    70.71921   -24.89714
   473  C   4.0   -0.03    4.40    4.38    34.47427    65.24657   -23.64614
   474  C   4.0   -0.02    4.21    4.02    34.68970    62.61229   -22.51986
   475  C   4.0   -0.06    4.09    3.78    34.57632    60.61107   -24.60990
   476  C   4.0   -0.06    4.13    3.86    37.12367    62.44032   -21.00997
   477  H   1.0    0.11    1.13    1.45    31.08410    66.54481   -20.28243
   478  H   1.0    0.06    1.06    1.44    36.52462    67.60495   -21.10824
   479  H   1.0    0.06    1.04    1.43    32.66769    65.33350   -24.63069
   480  H   1.0    0.05    1.04    1.43    36.02007    65.45444   -24.99163
   481  H   1.0    0.06    1.06    1.44    33.11367    62.23623   -21.24808
   482  H   1.0    0.05    1.00    1.43    34.73505    58.74213   -23.75763
   483  H   1.0    0.06    1.00    1.43    32.77919    60.77926   -25.60390
   484  H   1.0    0.05    1.00    1.43    36.13534    60.92099   -25.91948
   485  H   1.0    0.06    1.00    1.43    37.28051    60.55249   -20.20306
   486  H   1.0    0.05    1.00    1.43    38.71671    62.80126   -22.26286
   487  H   1.0    0.06    1.00    1.43    37.08020    63.84628   -19.50575
   488  N   5.0   -0.13    3.50    2.08    31.77952    71.00456   -22.62947
   489  C   4.0    0.03    4.42    4.42    31.00851    73.35727   -23.81433
   490  C   4.0    0.15    3.43    3.09    30.05987    75.19031   -21.81311
   491  O   6.0   -0.31    1.32    1.80    28.44227    74.51378   -20.25219
   492  C   4.0   -0.02    4.30    4.19    28.92792    72.85838   -25.75130
   493  C   4.0   -0.03    4.21    4.01    29.83310    71.70376   -28.23440
   494  C   4.0    0.15    3.21    3.04    27.65047    71.16141   -30.05420
   495  O   6.0   -0.30    1.22    1.80    25.47162    71.84171   -29.54775
   496  N   5.0   -0.17    3.16    1.95    28.22306    69.91041   -32.16692
   497  H   1.0    0.10    1.07    1.44    30.53041    70.32048   -21.33123
   498  H   1.0    0.05    1.07    1.44    32.62612    74.22655   -24.74785
   499  H   1.0    0.06    1.03    1.43    27.56354    71.55447   -24.92360
   500  H   1.0    0.07    1.03    1.43    28.00952    74.64795   -26.19916
   501  H   1.0    0.05    1.03    1.43    31.12568    73.01523   -29.15658
   502  H   1.0    0.06    1.03    1.43    30.79497    69.92553   -27.84133
   503  H   1.0    0.09    1.02    1.43    30.04097    69.36617   -32.50140
   504  H   1.0    0.11    1.02    1.43    26.84167    69.49845   -33.44626
   505  N   5.0   -0.13    3.45    2.05    31.07654    77.49199   -21.81878
   506  C   4.0    0.04    4.41    4.39    30.12412    79.45353   -20.11424
   507  C   4.0    0.16    3.42    3.09    27.34811    79.99966   -20.71518
   508  O   6.0   -0.27    1.25    1.80    26.57522    79.83714   -22.90159
   509  C   4.0   -0.04    4.29    4.18    31.71905    81.87616   -20.29377
   510  C   4.0    0.15    3.23    3.04    34.54797    81.38105   -19.99708
   511  O   6.0   -0.32    1.22    1.80    35.54197    81.19774   -17.89570
   512  N   5.0   -0.19    3.19    1.95    35.85566    81.19397   -22.12113
   513  H   1.0    0.08    1.06    1.44    32.52974    78.05135   -22.95450
   514  H   1.0    0.06    1.06    1.44    30.26585    78.79779   -18.16594
   515  H   1.0    0.05    1.03    1.43    31.41480    82.74354   -22.13625
   516  H   1.0    0.05    1.03    1.43    31.14079    83.17251   -18.80088
   517  H   1.0    0.09    1.02    1.43    37.75295    80.86515   -22.05877
   518  H   1.0    0.08    1.03    1.43    34.96560    81.37916   -23.82000
   519  N   5.0   -0.13    3.32    1.99    25.82122    80.56469   -18.79899
   520  C   4.0    0.03    4.28    4.16    23.19450    81.25822   -19.30922
   521  C   4.0    0.15    3.30    3.05    21.29910    81.17129   -17.16816
   522  O   6.0   -0.31    1.27    1.80    21.94917    80.75177   -14.99498
   523  H   1.0    0.11    1.07    1.44    26.32388    80.56091   -16.93761
   524  H   1.0    0.06    1.03    1.43    23.18316    83.18952   -20.02543
   525  H   1.0    0.07    1.04    1.43    22.48396    79.99588   -20.77376
   526  N   5.0   -0.14    3.43    2.04    18.91994    81.59081   -17.83145
   527  C   4.0    0.03    4.44    4.45    16.87714    81.56624   -16.00220
   528  C   4.0    0.14    3.39    3.08    15.58835    78.95653   -15.81512
   529  O   6.0   -0.34    1.49    1.80    14.22019    78.14017   -17.53666
   530  C   4.0   -0.04    4.35    4.30    14.95718    83.64116   -16.60691
   531  C   4.0   -0.03    4.20    4.01    13.08635    84.16272   -14.47152
   532  C   4.0   -0.07    4.14    3.88    14.51499    84.49343   -11.99787
   533  C   4.0   -0.08    4.09    3.78    11.41394    86.44362   -15.03466
   534  H   1.0    0.10    1.07    1.44    18.34924    81.95552   -19.63614
   535  H   1.0    0.05    1.09    1.44    17.71618    81.91017   -14.15216
   536  H   1.0    0.05    1.03    1.43    15.97574    85.38916   -16.99242
   537  H   1.0    0.05    1.03    1.43    13.87626    83.07613   -18.26609
   538  H   1.0    0.04    1.06    1.44    11.81457    82.55268   -14.28822
   539  H   1.0    0.04    1.00    1.43    13.16383    84.86381   -10.48798
   540  H   1.0    0.05    1.01    1.43    15.56378    82.76811   -11.59347
   541  H   1.0    0.04    1.00    1.43    15.81512    86.08080   -12.18117
   542  H   1.0    0.04    1.00    1.43    10.11948    86.73086   -13.45863
   543  H   1.0    0.04    1.00    1.43    12.60636    88.10658   -15.27654
   544  H   1.0    0.04    1.00    1.43    10.35003    86.08458   -16.76187
   545  N   5.0   -0.14    3.48    2.06    16.02866    77.67341   -13.69673
   546  C   4.0    0.04    4.47    4.49    15.06301    75.13739   -13.34147
   547  C   4.0    0.15    3.45    3.09    13.10525    75.01645   -11.27788
   548  O   6.0   -0.32    1.36    1.80    13.56445    75.79691    -9.16328
   549  C   4.0   -0.03    4.36    4.31    17.20029    73.34782   -12.64794
   550  C   4.0   -0.02    3.55    3.14    19.07678    72.89240   -14.73986
   551  C   4.0   -0.04    3.48    3.10    21.11769    74.51378   -15.10647
   552  C   4.0   -0.05    3.47    3.10    18.83112    70.81937   -16.33479
   553  C   4.0   -0.04    3.43    3.09    22.87891    74.06970   -17.00186
   554  C   4.0   -0.04    3.43    3.09    20.56778    70.36017   -18.22830
   555  C   4.0    0.07    3.45    3.10    22.58600    71.98155   -18.55333
   556  O   6.0   -0.24    2.11    1.84    24.32266    71.49589   -20.42794
   557  H   1.0    0.12    1.14    1.45    17.04722    78.35182   -12.20763
   558  H   1.0    0.07    1.09    1.44    14.15783    74.56859   -15.10080
   559  H   1.0    0.05    1.04    1.43    18.22830    74.14151   -11.04923
   560  H   1.0    0.04    1.04    1.43    16.38959    71.52613   -12.13015
   561  H   1.0    0.07    1.03    1.43    21.33501    76.14273   -13.89704
   562  H   1.0    0.05    1.03    1.43    17.25509    69.54569   -16.08913
   563  H   1.0    0.07    1.03    1.43    24.45683    75.33770   -17.26265
   564  H   1.0    0.05    1.03    1.43    20.34857    68.74067   -19.44906
   565  H   1.0    0.15    1.09    1.44    25.77964    72.62406   -20.24841
   566  N   5.0   -0.14    3.49    2.07    10.93017    73.96198   -11.88827
   567  C   4.0    0.03    4.45    4.46     9.19352    73.08704    -9.95697
   568  C   4.0    0.15    3.46    3.10     9.97208    70.41497    -9.19730
   569  O   6.0   -0.32    1.29    1.80    10.09303    68.71799   -10.78845
   570  C   4.0   -0.05    4.43    4.43     6.51766    73.00578   -11.02466
   571  C   4.0   -0.03    4.21    4.01     4.37850    73.79758    -9.29745
   572  C   4.0   -0.07    4.14    3.88     5.01911    76.32792    -8.05590
   573  C   4.0   -0.08    4.14    3.88     2.03523    74.01112   -10.89427
   574  H   1.0    0.09    1.07    1.44    10.31790    73.68797   -13.69484
   575  H   1.0    0.05    1.07    1.44     9.25588    74.33804    -8.32235
   576  H   1.0    0.04    1.05    1.44     6.45530    74.25489   -12.66116
   577  H   1.0    0.05    1.05    1.44     6.13027    71.06692   -11.60292
   578  H   1.0    0.05    1.06    1.44     4.06669    72.43131    -7.78756
   579  H   1.0    0.05    1.00    1.43     3.46765    76.87972    -6.81813
   580  H   1.0    0.04    1.01    1.43     6.75010    76.11816    -6.96175
   581  H   1.0    0.04    1.00    1.43     5.28367    77.74711    -9.52422
   582  H   1.0    0.04    1.00    1.43     0.45731    74.57992    -9.69807
   583  H   1.0    0.03    1.00    1.43     2.34893    75.42274   -12.36070
   584  H   1.0    0.03    1.00    1.43     1.64028    72.18186   -11.75410
   585  N   5.0   -0.13    3.49    2.07    10.55223    70.02757    -6.79356
   586  C   4.0    0.04    4.59    4.65    10.68262    67.45566    -5.84303
   587  C   4.0    0.14    3.57    3.15     8.14283    66.88874    -4.72620
   588  O   6.0   -0.31    1.26    1.80     6.75766    68.62540    -3.99299
   589  C   4.0   -0.02    4.40    4.39    12.61581    67.14007    -3.73221
   590  C   4.0   -0.05    4.22    4.04    15.29544    67.13251    -4.80557
   591  C   4.0   -0.07    4.25    4.09    12.07535    64.70800    -2.29413
   592  C   4.0   -0.08    4.03    3.68    17.05100    68.83516    -3.40151
   593  H   1.0    0.08    1.05    1.44    10.92829    71.40896    -5.50288
   594  H   1.0    0.06    1.07    1.44    11.17962    66.20655    -7.40395
   595  H   1.0    0.04    1.07    1.44    12.46463    68.73311    -2.43397
   596  H   1.0    0.04    1.04    1.43    16.04944    65.21822    -4.70542
   597  H   1.0    0.04    1.05    1.44    15.23119    67.76179    -6.76522
   598  H   1.0    0.04    1.00    1.43    13.46619    64.49635    -0.78991
   599  H   1.0    0.05    1.05    1.44    10.18184    64.81004    -1.49099
   600  H   1.0    0.06    1.01    1.43    12.20196    63.11685    -3.59615
   601  H   1.0    0.03    1.00    1.43    18.91805    68.73500    -4.26700
   602  H   1.0    0.04    1.00    1.43    16.33479    70.76457    -3.49788
   603  H   1.0    0.04    1.00    1.43    17.15304    68.22100    -1.43808
   604  N   5.0   -0.14    3.61    2.16     7.55134    64.46422    -4.55046
   605  C   4.0    0.04    4.47    4.49     5.16084    63.65731    -3.47899
   606  C   4.0    0.15    3.52    3.12     5.43863    60.93232    -2.69853
   607  O   6.0   -0.33    1.42    1.80     7.19419    59.64353    -3.52434
   608  C   4.0   -0.03    4.36    4.31     3.07080    63.86518    -5.44808
   609  C   4.0   -0.01    3.60    3.16     3.28812    61.89419    -7.48709
   610  C   4.0   -0.04    3.48    3.11     2.07303    59.58495    -7.25466
   611  C   4.0   -0.03    3.47    3.10     4.76589    62.32127    -9.62437
   612  C   4.0   -0.03    3.43    3.09     2.28846    57.75758    -9.11037
   613  C   4.0   -0.05    3.43    3.09     4.99455    60.50714   -11.50465
   614  C   4.0    0.07    3.45    3.10     3.74355    58.23191   -11.23442
   615  O   6.0   -0.23    2.10    1.84     3.94953    56.41588   -13.08257
   616  H   1.0    0.11    1.11    1.45     8.68707    63.01858    -5.13250
   617  H   1.0    0.07    1.06    1.44     4.68841    64.80248    -1.83303
   618  H   1.0    0.05    1.03    1.43     1.24722    63.62518    -4.52022
   619  H   1.0    0.05    1.04    1.43     3.16907    65.71900    -6.33814
   620  H   1.0    0.05    1.03    1.43     0.94108    59.20700    -5.59926
   621  H   1.0    0.06    1.03    1.43     5.75233    64.09761    -9.82091
   622  H   1.0    0.06    1.03    1.43     1.32659    55.96990    -8.90439
   623  H   1.0    0.05    1.03    1.43     6.13594    60.86996   -13.15816
   624  H   1.0    0.11    1.03    1.43     5.03234    57.02815   -14.45451
   625  N   5.0   -0.13    3.43    2.04     3.68875    60.02148    -1.16029
   626  C   4.0    0.02    4.21    4.01     3.76622    57.39476    -0.39495
   627  C   4.0    0.08    3.17    3.03     2.49255    57.20011     2.12216
   628  O   6.0   -0.31    1.30    1.80     1.90106    59.12197     3.26356
   629  H   1.0    0.10    1.07    1.44     2.22421    61.03815    -0.42897
   630  H   1.0    0.04    1.03    1.43     2.77601    56.21557    -1.76311
   631  H   1.0    0.05    1.04    1.43     5.71453    56.74658    -0.23622
   632  N   5.0   -0.19    3.28    1.98    33.18359    66.79992     2.57948
   633  C   4.0    0.04    4.26    4.12    35.80653    66.22167     3.03112
   634  C   4.0    0.07    3.24    3.04    36.11833    65.34294     5.74099
   635  O   6.0   -0.29    1.12    1.80    34.94859    63.48534     6.51955
   636  C   4.0   -0.03    4.32    4.24    37.41657    68.56304     2.57381
   637  C   4.0    0.16    3.24    3.04    37.59232    69.24712    -0.20220
   638  O   6.0   -0.31    1.37    1.80    37.98349    67.61062    -1.82170
   639  N   5.0   -0.18    3.17    1.95    37.33343    71.67731    -0.76534
   640  H   1.0    0.13    1.10    1.44    32.33888    65.76435     1.19053
   641  H   1.0    0.07    1.08    1.44    36.25628    64.70611     1.71020
   642  H   1.0    0.04    1.04    1.43    36.58320    70.15986     3.57347
   643  H   1.0    0.04    1.03    1.43    39.32331    68.21533     3.26923
   644  H   1.0    0.11    1.03    1.43    37.43358    72.25745    -2.60026
   645  H   1.0    0.08    1.03    1.43    37.03485    72.96421     0.63684
   646  N   5.0   -0.19    3.32    1.99     3.54135    62.11151     6.92963
   647  C   4.0    0.03    4.40    4.38     6.13594    62.99024     6.72176
   648  C   4.0    0.15    3.52    3.13     6.40050    64.56816     4.32180
   649  O   6.0   -0.29    1.28    1.80     5.07391    64.13352     2.45097
   650  C   4.0   -0.03    4.28    4.16     7.98409    60.73957     6.56869
   651  C   4.0   -0.07    4.18    3.96     6.71798    58.36041     7.56079
   652  C   4.0   -0.07    4.18    3.96     8.88549    60.32194     3.84370
   653  H   1.0    0.13    1.13    1.45     3.01222    60.94555     5.48965
   654  H   1.0    0.04    1.05    1.44     6.57814    64.16564     8.35448
   655  H   1.0    0.03    1.05    1.44     9.63193    61.15909     7.73087
   656  H   1.0    0.04    1.00    1.43     8.04834    56.79193     7.43796
   657  H   1.0    0.04    1.00    1.43     6.16618    58.66276     9.52233
   658  H   1.0    0.06    1.02    1.43     5.05313    57.95978     6.41562
   659  H   1.0    0.04    1.00    1.43    10.18373    58.72323     3.80402
   660  H   1.0    0.06    1.00    1.43     7.25277    59.93077     2.64940
   661  H   1.0    0.05    1.02    1.43     9.84547    62.02270     3.18608
   662  N   5.0   -0.14    3.37    2.01     8.10692    66.39741     4.36716
   663  C   4.0    0.02    4.21    4.01     8.74187    67.72967     2.07114
   664  C   4.0    0.08    3.13    3.03     8.85148    70.54536     2.43964
   665  O   6.0   -0.29    1.14    1.80     9.64894    71.44487     4.42763
   666  H   1.0    0.09    1.05    1.44     9.05935    66.98323     5.93752
   667  H   1.0    0.04    1.04    1.43    10.58247    67.09094     1.40218
   668  H   1.0    0.07    1.04    1.44     7.32647    67.31960     0.63306
   669  N   5.0   -0.19    3.22    1.96     9.25966    78.09670    -2.32247
   670  C   4.0    0.03    4.40    4.38    10.25743    79.33825    -4.57314
   671  C   4.0    0.14    3.49    3.11    12.96352    80.13383    -4.07425
   672  O   6.0   -0.30    1.26    1.80    13.46052    81.55868    -2.30925
   673  C   4.0    0.05    4.29    4.17     8.80612    81.76655    -5.10604
   674  O   6.0   -0.26    2.10    1.84     6.14728    81.24877    -5.18163
   675  C   4.0   -0.08    4.11    3.83     9.68296    82.90984    -7.56268
   676  H   1.0    0.10    1.03    1.43     8.53022    79.33259    -1.03557
   677  H   1.0    0.04    1.05    1.44    10.12704    78.02112    -6.15106
   678  H   1.0    0.05    1.05    1.44     9.15194    83.14227    -3.61316
   679  H   1.0    0.11    1.01    1.43     5.20808    82.80779    -5.51989
   680  H   1.0    0.04    1.00    1.43     8.64361    84.64649    -7.94252
   681  H   1.0    0.04    1.01    1.43    11.69362    83.34258    -7.46064
   682  H   1.0    0.04    1.00    1.43     9.36170    81.58703    -9.10848
   683  N   5.0   -0.14    3.51    2.08    14.71719    79.22865    -5.61627
   684  C   4.0    0.04    4.49    4.52    17.38170    79.63494    -5.11738
   685  C   4.0    0.14    3.48    3.11    18.68561    80.26044    -7.53056
   686  O   6.0   -0.32    1.37    1.80    18.37570    78.95275    -9.42217
   687  C   4.0   -0.03    4.36    4.30    18.60057    77.27278    -4.03079
   688  C   4.0   -0.01    3.53    3.13    17.80878    76.67563    -1.35871
   689  C   4.0   -0.04    3.45    3.10    19.36780    77.30113     0.66518
   690  C   4.0   -0.03    3.45    3.09    15.52032    75.45676    -0.84471
   691  C   4.0   -0.03    3.41    3.08    18.68750    76.73610     3.14450
   692  C   4.0   -0.04    3.40    3.08    14.80789    74.89740     1.62516
   693  C   4.0    0.07    3.42    3.08    16.40660    75.54746     3.63016
   694  O   6.0   -0.24    2.08    1.84    15.75087    75.04291     6.12271
   695  H   1.0    0.12    1.13    1.45    14.34869    78.21387    -7.21308
   696  H   1.0    0.06    1.07    1.44    17.58201    81.19963    -3.79268
   697  H   1.0    0.05    1.04    1.43    18.08657    75.66463    -5.20997
   698  H   1.0    0.04    1.04    1.43    20.64526    77.52412    -4.03645
   699  H   1.0    0.05    1.03    1.43    21.14225    78.24410     0.30614
   700  H   1.0    0.06    1.03    1.43    14.28822    74.94086    -2.38672
   701  H   1.0    0.06    1.03    1.43    19.93472    77.22365     4.68463
   702  H   1.0    0.07    1.03    1.43    13.02966    73.96576     1.99366
   703  H   1.0    0.13    1.02    1.43    14.10114    74.20387     6.18696
   704  N   5.0   -0.15    3.46    2.06    20.13692    82.29190    -7.46064
   705  C   4.0    0.04    4.44    4.44    21.94917    82.81913    -9.44107
   706  C   4.0    0.15    3.44    3.09    24.45305    81.49821    -8.86092
   707  O   6.0   -0.29    1.24    1.80    25.81933    82.20875    -7.11482
   708  C   4.0   -0.03    4.30    4.20    22.32900    85.65939    -9.72453
   709  C   4.0   -0.02    4.22    4.05    24.25463    86.37937   -11.70685
   710  C   4.0    0.25    3.13    3.03    24.73840    89.19129   -11.75221
   711  O   6.0   -0.28    1.17    1.80    23.06599    90.58968   -12.67628
   712  O   6.0   -0.27    1.17    1.80    26.76608    90.00576   -10.82624
   713  H   1.0    0.08    1.06    1.44    20.09724    83.60715    -6.05279
   714  H   1.0    0.07    1.08    1.44    21.22918    82.05379   -11.21363
   715  H   1.0    0.05    1.03    1.43    20.53187    86.51543   -10.25554
   716  H   1.0    0.06    1.03    1.43    22.96962    86.42284    -7.92173
   717  H   1.0    0.07    1.04    1.43    26.03475    85.42506   -11.30056
   718  H   1.0    0.06    1.03    1.43    23.56110    85.81435   -13.56256
   719  N   5.0   -0.13    3.51    2.09    25.02753    79.54801   -10.32357
   720  C   4.0    0.04    4.46    4.48    27.22906    78.00600    -9.83035
   721  C   4.0    0.15    3.41    3.08    29.21327    78.40095   -11.85992
   722  O   6.0   -0.30    1.27    1.80    28.62935    79.27967   -13.92917
   723  C   4.0   -0.05    4.38    4.34    26.47506    75.22999    -9.69051
   724  C   4.0   -0.02    4.24    4.07    24.22818    74.77079    -7.94063
   725  C   4.0   -0.08    4.10    3.80    22.53687    72.63351    -8.89872
   726  C   4.0   -0.07    4.12    3.83    25.14658    74.25678    -5.28745
   727  H   1.0    0.10    1.07    1.44    23.99952    78.99999   -11.85803
   728  H   1.0    0.06    1.07    1.44    28.07566    78.55024    -8.03323
   729  H   1.0    0.04    1.04    1.43    25.95917    74.58181   -11.57646
   730  H   1.0    0.05    1.04    1.43    28.07188    74.13773    -8.98187
   731  H   1.0    0.05    1.08    1.44    23.06033    76.46587    -7.90661
   732  H   1.0    0.04    1.00    1.43    20.96840    72.38217    -7.58914
   733  H   1.0    0.04    1.02    1.43    21.82067    73.13050   -10.76577
   734  H   1.0    0.03    1.00    1.43    23.64425    70.90063    -9.01021
   735  H   1.0    0.04    1.00    1.43    23.51953    73.93364    -4.06480
   736  H   1.0    0.04    1.00    1.43    26.35223    72.58626    -5.30635
   737  H   1.0    0.05    1.00    1.43    26.21428    75.88761    -4.62038
   738  N   5.0   -0.13    3.47    2.06    31.55464    77.72443   -11.24387
   739  C   4.0    0.04    4.47    4.49    33.67492    78.08159   -12.95974
   740  C   4.0    0.16    3.44    3.09    35.07898    75.66841   -13.55122
   741  O   6.0   -0.30    1.33    1.80    34.81820    73.76734   -12.24164
   742  C   4.0   -0.03    4.32    4.23    35.48527    80.02611   -11.87693
   743  C   4.0    0.02    3.75    3.29    34.26451    82.52055   -11.42717
   744  N   5.0   -0.10    3.57    2.13    33.09288    83.86226   -13.33391
   745  C   4.0    0.03    3.57    3.15    33.90168    83.86037    -9.28044
   746  C   4.0    0.07    3.56    3.14    32.11211    85.95418   -12.39093
   747  N   5.0   -0.14    2.51    1.90    32.57132    85.99576    -9.93429
   748  H   1.0    0.10    1.07    1.44    32.03841    76.92129    -9.56012
   749  H   1.0    0.06    1.08    1.44    32.92658    78.72220   -14.76821
   750  H   1.0    0.06    1.04    1.43    36.21093    79.33825   -10.07602
   751  H   1.0    0.06    1.04    1.43    37.03863    80.30579   -13.20163
   752  H   1.0    0.09    1.05    1.44    33.00028    83.32180   -15.18206
   753  H   1.0    0.06    1.01    1.43    34.53663    83.35014    -7.40962
   754  H   1.0    0.06    1.01    1.43    31.10867    87.38471   -13.44351
   755  N   5.0   -0.14    3.49    2.07    36.58698    75.76856   -15.54111
   756  C   4.0    0.04    4.57    4.63    37.92680    73.54624   -16.41227
   757  C   4.0    0.16    3.50    3.12    39.61621    72.38217   -14.38270
   758  O   6.0   -0.29    1.24    1.80    40.89367    73.70876   -12.97297
   759  C   4.0   -0.02    4.33    4.26    39.48960    74.16607   -18.71963
   760  C   4.0   -0.06    4.18    3.96    40.93902    71.87195   -19.53410
   761  C   4.0   -0.06    4.14    3.87    37.76239    75.11472   -20.83612
   762  H   1.0    0.09    1.08    1.44    36.91958    77.35404   -16.58612
   763  H   1.0    0.06    1.08    1.44    36.48116    72.15352   -16.87525
   764  H   1.0    0.05    1.06    1.44    40.84454    75.65518   -18.28310
   765  H   1.0    0.06    1.00    1.43    42.05774    72.34249   -21.19895
   766  H   1.0    0.05    1.02    1.43    42.17868    71.28235   -17.99775
   767  H   1.0    0.06    1.00    1.43    39.61055    70.36395   -19.98385
   768  H   1.0    0.06    1.00    1.43    38.90757    75.55502   -22.48963
   769  H   1.0    0.06    1.00    1.43    36.39801    73.64262   -21.29910
   770  H   1.0    0.05    1.01    1.43    36.77974    76.80602   -20.19172
   771  N   5.0   -0.14    3.44    2.04    39.58220    69.88018   -14.21830
   772  C   4.0    0.02    4.27    4.13    40.99760    68.55170   -12.26243
   773  C   4.0    0.16    3.34    3.06    39.50094    68.22478    -9.84547
   774  O   6.0   -0.28    1.23    1.80    40.21526    66.75079    -8.19007
   775  H   1.0    0.11    1.12    1.45    38.59765    68.72555   -15.40505
   776  H   1.0    0.06    1.03    1.43    41.52295    66.68465   -12.95596
   777  H   1.0    0.05    1.03    1.43    42.70970    69.61183   -11.82590
   778  N   5.0   -0.11    3.50    2.08    37.40901    69.59672    -9.65083
   779  C   4.0    0.05    4.44    4.45    35.74606    69.34349    -7.49087
   780  C   4.0    0.16    3.44    3.09    34.77474    66.63552    -7.28489
   781  O   6.0   -0.33    1.40    1.80    33.95271    65.53948    -9.14249
   782  C   4.0   -0.03    4.27    4.14    33.54075    71.23700    -7.66284
   783  C   4.0    0.25    3.12    3.03    34.22105    73.84293    -6.58192
   784  O   6.0   -0.28    1.20    1.80    36.49439    74.46087    -6.54601
   785  O   6.0   -0.30    1.17    1.80    32.51462    75.27723    -5.78067
   786  H   1.0    0.12    1.11    1.44    36.82320    70.89118   -10.95285
   787  H   1.0    0.07    1.07    1.44    36.79296    69.78002    -5.77122
   788  H   1.0    0.06    1.05    1.44    33.01729    71.48266    -9.63949
   789  H   1.0    0.05    1.03    1.43    31.93826    70.50190    -6.59703
   790  N   5.0   -0.13    3.50    2.08    34.92591    65.54703    -5.03612
   791  C   4.0    0.04    4.48    4.50    33.52941    63.23590    -4.48999
   792  C   4.0    0.15    3.41    3.08    31.17481    63.65920    -2.86105
   793  O   6.0   -0.31    1.32    1.80    30.85356    65.66420    -1.66863
   794  C   4.0    0.05    4.23    4.06    35.18292    61.22145    -3.18608
   795  O   6.0   -0.25    2.12    1.84    35.34354    61.70144    -0.50267
   796  C   4.0   -0.06    4.10    3.81    37.78696    61.17610    -4.38227
   797  H   1.0    0.13    1.17    1.46    35.98605    66.21033    -3.56969
   798  H   1.0    0.07    1.08    1.44    32.92281    62.54615    -6.33247
   799  H   1.0    0.04    1.05    1.44    34.33821    59.35818    -3.42796
   800  H   1.0    0.11    1.00    1.43    36.39423    60.41076     0.30992
   801  H   1.0    0.04    1.00    1.43    38.96048    59.75313    -3.46387
   802  H   1.0    0.05    1.00    1.43    37.63389    60.72445    -6.38538
   803  H   1.0    0.07    1.01    1.43    38.68836    63.01669    -4.18007
   804  N   5.0   -0.14    3.46    2.05    29.58177    61.70522    -2.79301
   805  C   4.0    0.04    4.44    4.45    27.26686    61.70522    -1.31147
   806  C   4.0    0.07    3.29    3.05    26.81899    59.08039    -0.22866
   807  O   6.0   -0.30    1.15    1.80    27.11379    57.19445    -1.53824
   808  C   4.0   -0.02    4.38    4.34    25.00107    62.47434    -2.93852
   809  C   4.0   -0.05    4.23    4.05    24.99729    65.32972    -3.33537
   810  C   4.0   -0.08    4.18    3.96    22.54632    61.60129    -1.73855
   811  C   4.0   -0.07    4.07    3.75    24.84423    66.78480    -0.92030
   812  H   1.0    0.10    1.07    1.44    29.85956    60.06683    -3.77000
   813  H   1.0    0.05    1.07    1.44    27.48984    63.02425     0.25511
   814  H   1.0    0.05    1.06    1.44    25.16926    61.55782    -4.77534
   815  H   1.0    0.05    1.03    1.43    26.73773    65.87207    -4.29346
   816  H   1.0    0.03    1.03    1.43    23.36835    65.84183    -4.48810
   817  H   1.0    0.04    1.00    1.43    20.97218    62.17576    -2.93663
   818  H   1.0    0.05    1.02    1.43    22.58034    59.54904    -1.55902
   819  H   1.0    0.04    1.00    1.43    22.36491    62.46678     0.12283
   820  H   1.0    0.04    1.00    1.43    24.84990    68.79925    -1.34926
   821  H   1.0    0.04    1.00    1.43    23.10379    66.28025     0.05858
   822  H   1.0    0.05    1.01    1.43    26.47128    66.31237     0.25133
   823  N   5.0   -0.21    3.24    1.96     6.06980    46.98048     2.18830
   824  C   4.0    0.03    4.34    4.28     7.44363    47.65700    -0.11527
   825  C   4.0    0.14    3.48    3.11     7.81591    50.47836    -0.27779
   826  O   6.0   -0.31    1.28    1.80     6.90506    51.85219     1.33982
   827  C   4.0   -0.03    4.38    4.34     5.91862    46.86331    -2.43397
   828  C   4.0   -0.01    3.59    3.16     3.37883    48.17289    -2.58703
   829  C   4.0   -0.04    3.48    3.11     3.14072    50.53127    -3.73221
   830  C   4.0   -0.04    3.48    3.10     1.23021    47.06929    -1.53068
   831  C   4.0   -0.03    3.42    3.09     0.83526    51.73125    -3.84748
   832  C   4.0   -0.04    3.44    3.09    -1.07903    48.25793    -1.62705
   833  C   4.0    0.07    3.45    3.10    -1.27934    50.58607    -2.78735
   834  O   6.0   -0.23    2.09    1.84    -3.59804    51.78416    -2.87805
   835  H   1.0    0.10    1.04    1.43     5.69374    48.46769     3.35615
   836  H   1.0    0.04    1.06    1.44     9.26911    46.70458    -0.08504
   837  H   1.0    0.06    1.04    1.43     6.98443    47.33764    -4.13283
   838  H   1.0    0.04    1.03    1.43     5.58603    44.83186    -2.35460
   839  H   1.0    0.05    1.03    1.43     4.78479    51.42889    -4.53912
   840  H   1.0    0.05    1.03    1.43     1.38328    45.24949    -0.62172
   841  H   1.0    0.06    1.03    1.43     0.66896    53.55105    -4.75644
   842  H   1.0    0.05    1.03    1.43    -2.72310    47.37732    -0.80124
   843  H   1.0    0.12    1.02    1.43    -4.88494    50.73536    -2.05602
   844  N   5.0   -0.14    3.48    2.07     9.03478    51.34007    -2.30547
   845  C   4.0    0.04    4.44    4.45     9.24832    54.04238    -2.84971
   846  C   4.0    0.15    3.51    3.12    10.29901    54.52237    -5.45186
   847  O   6.0   -0.31    1.29    1.80    11.45552    52.87831    -6.59703
   848  C   4.0   -0.03    4.32    4.24    10.95474    55.34062    -0.95053
   849  C   4.0   -0.01    3.69    3.23    13.75909    54.91922    -1.35682
   850  C   4.0   -0.01    3.58    3.15    15.29166    53.27893    -0.05480
   851  C   4.0    0.01    3.89    3.45    15.38237    56.26659    -3.06136
   852  N   5.0   -0.12    3.47    2.06    17.75209    53.50381    -0.87872
   853  C   4.0    0.04    3.89    3.45    17.85602    55.32740    -2.71365
   854  C   4.0   -0.04    3.45    3.10    14.98742    58.17143    -4.83392
   855  C   4.0   -0.05    3.41    3.08    19.91204    56.23446    -4.08181
   856  C   4.0   -0.05    3.38    3.07    17.02643    59.05583    -6.19074
   857  C   4.0   -0.05    3.39    3.08    19.46229    58.09396    -5.80713
   858  H   1.0    0.11    1.08    1.44     9.89649    50.21191    -3.60938
   859  H   1.0    0.05    1.07    1.44     7.33592    54.80772    -2.80246
   860  H   1.0    0.05    1.03    1.43    10.61459    57.37019    -1.04880
   861  H   1.0    0.05    1.04    1.43    10.49176    54.63954     0.92975
   862  H   1.0    0.05    1.01    1.43    14.66049    51.99770     1.40407
   863  H   1.0    0.09    1.04    1.44    19.25064    52.47958    -0.22866
   864  H   1.0    0.07    1.07    1.44    13.12226    58.94055    -5.13816
   865  H   1.0    0.07    1.03    1.43    21.79043    55.49369    -3.78701
   866  H   1.0    0.05    1.03    1.43    16.73919    60.52225    -7.57969
   867  H   1.0    0.04    1.03    1.43    21.01564    58.84040    -6.89939
   868  N   5.0   -0.14    3.49    2.07     9.96264    56.81650    -6.37216
   869  C   4.0    0.02    4.32    4.23    10.54089    57.30216    -8.99132
   870  C   4.0    0.14    3.36    3.07    11.07568    60.04604    -9.53367
   871  O   6.0   -0.32    1.30    1.80    10.93584    61.66932    -7.85370
   872  H   1.0    0.12    1.15    1.45     9.31068    58.33206    -5.37438
   873  H   1.0    0.06    1.04    1.43    12.20007    56.20801    -9.53178
   874  H   1.0    0.05    1.03    1.43     8.94407    56.71823   -10.15539
   875  N   5.0   -0.14    3.47    2.06    11.66906    60.57706   -11.90527
   876  C   4.0    0.04    4.57    4.63    12.54778    63.06015   -12.55723
   877  C   4.0    0.14    3.49    3.11    11.85236    63.76691   -15.24064
   878  O   6.0   -0.32    1.28    1.80    11.72386    62.17765   -16.91872
   879  C   4.0   -0.02    4.38    4.35    15.39938    63.31527   -12.13960
   880  C   4.0   -0.05    4.23    4.05    16.07779    66.06293   -11.60670
   881  C   4.0   -0.07    4.19    3.98    16.84691    62.35529   -14.41294
   882  C   4.0   -0.09    4.04    3.69    18.84246    66.41253   -10.99821
   883  H   1.0    0.11    1.09    1.44    11.55567    59.33551   -13.37548
   884  H   1.0    0.06    1.08    1.44    11.53867    64.38296   -11.34214
   885  H   1.0    0.04    1.07    1.44    15.92094    62.17009   -10.50877
   886  H   1.0    0.04    1.03    1.43    15.64126    67.19677   -13.26966
   887  H   1.0    0.04    1.04    1.43    14.97986    66.72433    -9.99476
   888  H   1.0    0.03    1.01    1.43    18.86513    62.56127   -14.05956
   889  H   1.0    0.05    1.00    1.43    16.38581    60.37107   -14.71152
   890  H   1.0    0.05    1.01    1.43    16.30645    63.45889   -16.06645
   891  H   1.0    0.03    1.00    1.43    19.20340    68.40808   -10.63727
   892  H   1.0    0.03    1.00    1.43    19.30733    65.30137    -9.32580
   893  H   1.0    0.03    1.00    1.43    19.96873    65.77380   -12.60069
   894  N   5.0   -0.14    3.53    2.10    11.37615    66.19332   -15.60158
   895  C   4.0    0.04    4.54    4.59    10.59758    67.14007   -18.03177
   896  C   4.0    0.14    3.48    3.11    11.85803    69.69687   -18.44750
   897  O   6.0   -0.32    1.27    1.80    11.83535    71.33338   -16.77321
   898  C   4.0   -0.02    4.39    4.36     7.71197    67.39141   -18.15460
   899  C   4.0   -0.04    4.26    4.11     6.91262    68.83138   -20.51109
   900  C   4.0   -0.07    4.20    4.01     6.72364    68.71610   -15.84346
   901  C   4.0   -0.08    4.05    3.70     4.08748    68.89752   -20.83612
   902  H   1.0    0.10    1.08    1.44    11.51788    67.54258   -14.23342
   903  H   1.0    0.06    1.07    1.44    11.22497    65.87018   -19.52843
   904  H   1.0    0.04    1.06    1.44     6.92207    65.49034   -18.23397
   905  H   1.0    0.06    1.04    1.43     7.58725    70.77213   -20.37503
   906  H   1.0    0.05    1.03    1.43     7.72709    67.91675   -22.16838
   907  H   1.0    0.03    1.01    1.43     4.67329    68.86728   -15.98141
   908  H   1.0    0.06    1.01    1.43     7.23576    67.62384   -14.17483
   909  H   1.0    0.06    1.01    1.43     7.56079    70.59449   -15.73764
   910  H   1.0    0.05    1.00    1.43     3.63394    69.94821   -22.54821
   911  H   1.0    0.04    1.00    1.43     3.38450    66.96811   -20.99108
   912  H   1.0    0.03    1.01    1.43     3.24655    69.82348   -19.19962
   913  N   5.0   -0.14    3.47    2.06    13.07123    69.97277   -20.62825
   914  C   4.0    0.04    4.44    4.44    14.14838    72.37839   -21.37091
   915  C   4.0    0.15    3.46    3.10    12.01299    74.09049   -22.24018
   916  O   6.0   -0.30    1.25    1.80    10.60325    73.41018   -23.95417
   917  C   4.0   -0.05    4.38    4.35    15.98708    71.97210   -23.55732
   918  C   4.0   -0.02    4.18    3.97    18.05444    73.94309   -24.02598
   919  C   4.0   -0.06    4.10    3.80    19.16371    73.62750   -26.66403
   920  C   4.0   -0.06    4.18    3.95    17.07556    76.60949   -23.63480
   921  H   1.0    0.10    1.09    1.44    13.33391    68.56115   -21.91326
   922  H   1.0    0.05    1.06    1.44    15.14237    73.23822   -19.78543
   923  H   1.0    0.04    1.04    1.43    16.95084    70.18064   -23.23040
   924  H   1.0    0.05    1.04    1.43    14.87592    71.86817   -25.28831
   925  H   1.0    0.05    1.06    1.44    19.56244    73.64829   -22.65403
   926  H   1.0    0.06    1.00    1.43    20.62636    75.04858   -26.95127
   927  H   1.0    0.05    1.00    1.43    19.97440    71.74156   -26.82844
   928  H   1.0    0.05    1.00    1.43    17.66516    73.87128   -28.05487
   929  H   1.0    0.07    1.02    1.43    18.60435    77.94364   -23.98629
   930  H   1.0    0.05    1.01    1.43    15.52599    76.95531   -24.94816
   931  H   1.0    0.05    1.01    1.43    16.40849    76.80035   -21.69594
   932  N   5.0   -0.15    3.50    2.08    11.77299    76.31091   -21.07611
   933  C   4.0    0.04    4.40    4.37     9.83602    78.11938   -21.87358
   934  C   4.0    0.14    3.41    3.08    10.83002    80.05257   -23.76141
   935  O   6.0   -0.30    1.24    1.80     9.42595    80.84437   -25.43004
   936  C   4.0   -0.04    4.36    4.30     8.63416    79.48376   -19.61913
   937  C   4.0   -0.02    4.19    3.98     7.27544    77.96253   -17.57067
   938  C   4.0   -0.08    4.13    3.86     7.22631    79.51022   -15.17639
   939  C   4.0   -0.08    4.09    3.79     4.60715    77.16318   -18.30955
   940  H   1.0    0.13    1.26    1.48    12.86714    76.90429   -19.60402
   941  H   1.0    0.06    1.07    1.44     8.32235    77.05169   -22.77687
   942  H   1.0    0.05    1.04    1.43    10.13649    80.51933   -18.66293
   943  H   1.0    0.04    1.04    1.43     7.24143    80.79901   -20.37503
   944  H   1.0    0.05    1.06    1.44     8.30912    76.20509   -17.27776
   945  H   1.0    0.03    1.00    1.43     6.26066    78.44063   -13.70618
   946  H   1.0    0.04    1.00    1.43     9.16139    79.91084   -14.59624
   947  H   1.0    0.03    1.00    1.43     6.22287    81.27144   -15.53733
   948  H   1.0    0.03    1.00    1.43     3.77378    76.09548   -16.75809
   949  H   1.0    0.04    1.00    1.43     3.48276    78.84693   -18.68750
   950  H   1.0    0.04    1.00    1.43     4.70164    75.98966   -19.99897
   951  N   5.0   -0.14    3.44    2.04    13.21674    80.82358   -23.51764
   952  C   4.0    0.03    4.32    4.24    14.18617    82.87204   -25.11824
   953  C   4.0    0.14    3.34    3.06    17.08312    83.25566   -25.07099
   954  O   6.0   -0.31    1.26    1.80    18.44561    81.93852   -23.70472
   955  C   4.0   -0.06    4.12    3.83    12.82935    85.33813   -24.43983
   956  H   1.0    0.09    1.07    1.44    14.48853    80.09225   -22.26853
   957  H   1.0    0.05    1.06    1.44    13.84224    82.23898   -27.04765
   958  H   1.0    0.05    1.00    1.43    13.55500    86.85180   -25.63224
   959  H   1.0    0.06    1.00    1.43    10.80734    85.10003   -24.75730
   960  H   1.0    0.05    1.00    1.43    13.18273    85.77466   -22.45750
   961  N   5.0   -0.14    3.42    2.03    17.98641    85.07924   -26.57900
   962  C   4.0    0.04    4.35    4.29    20.56778    86.15261   -26.34089
   963  C   4.0    0.25    3.19    3.03    20.60368    89.01176   -25.91192
   964  O   6.0   -0.28    1.22    1.80    22.10979    90.36103   -27.07032
   965  C   4.0   -0.02    4.33    4.26    22.18160    85.52333   -28.66714
   966  C   4.0    0.16    3.24    3.04    22.21940    82.72275   -29.23973
   967  O   6.0   -0.26    1.20    1.80    23.90881    81.34892   -28.41392
   968  N   5.0   -0.18    3.19    1.95    20.29377    81.83836   -30.57577
   969  O   6.0   -0.28    1.20    1.80    19.12214    89.97930   -24.40203
   970  H   1.0    0.07    1.05    1.44    16.97352    85.87671   -28.01141
   971  H   1.0    0.07    1.06    1.44    21.40493    85.27955   -24.67415
   972  H   1.0    0.05    1.03    1.43    21.41060    86.50221   -30.30742
   973  H   1.0    0.07    1.03    1.43    24.11857    86.13371   -28.32888
   974  H   1.0    0.10    1.02    1.43    20.21062    79.96564   -31.02363
   975  H   1.0    0.08    1.03    1.43    18.89537    83.03078   -31.15591
   976  N   5.0   -0.19    3.22    1.96    41.90089    68.95363   -52.93406
   977  C   4.0    0.04    4.26    4.11    40.11510    66.93352   -53.33090
   978  C   4.0    0.08    3.23    3.04    39.84109    66.30991   -56.11636
   979  O   6.0   -0.29    1.13    1.80    39.75228    68.00499   -57.69806
   980  C   4.0   -0.04    4.31    4.22    37.55830    67.64027   -52.22919
   981  C   4.0   -0.04    4.26    4.13    35.98605    65.35748   -51.63204
   982  C   4.0   -0.04    4.20    4.00    33.21571    65.93763   -51.44306
   983  C   4.0   -0.04    4.16    3.92    31.74173    63.57547   -52.10258
   984  N   5.0   -0.12    4.01    2.89    30.00885    62.76289   -50.02577
   985  H   1.0    0.09    1.02    1.43    41.33776    70.66006   -53.63137
   986  H   1.0    0.06    1.07    1.44    40.81052    65.23087   -52.40305
   987  H   1.0    0.06    1.03    1.43    37.84365    68.70041   -50.48497
   988  H   1.0    0.05    1.04    1.43    36.53029    68.79112   -53.59357
   989  H   1.0    0.04    1.05    1.44    36.24116    63.95909   -53.12303
   990  H   1.0    0.06    1.04    1.43    36.59454    64.57892   -49.82546
   991  H   1.0    0.06    1.03    1.43    32.74517    66.51022   -49.52121
   992  H   1.0    0.04    1.03    1.43    32.71683    67.43429   -52.76776
   993  H   1.0    0.03    1.02    1.43    30.60222    63.94019   -53.77877
   994  H   1.0    0.04    1.04    1.43    33.06265    62.03913   -52.46919
   995  H   1.0    0.05    1.01    1.43    29.03753    61.13962   -50.55678
   996  H   1.0    0.09    1.05    1.44    31.04253    62.38306   -48.39872
   997  H   1.0    0.06    1.01    1.43    28.70872    64.18585   -49.63838
   998  N   5.0   -0.18    3.22    1.96   -16.65679    52.51625   -21.81878
   999  C   4.0    0.03    4.30    4.19   -14.48184    52.36031   -20.11424
  1000  C   4.0    0.15    3.39    3.08   -12.62088    54.49133   -20.71518
  1001  O   6.0   -0.27    1.25    1.80   -12.37517    55.24194   -22.90159
  1002  C   4.0   -0.03    4.29    4.18   -13.18125    49.76774   -20.29377
[...]
1263   1 H      0.075  0.925  0.000  0.000     2.029     2.227
1264   1 H      0.039  0.961  0.000  0.000     2.460     2.453
1265   7 N     -0.187  1.249  3.938  0.000    25.052     7.434
1266   6 C      0.017  1.057  2.926  0.000    20.281     6.409
1267   6 C      0.272  1.043  2.685  0.000    22.398     7.750
1268   8 O     -0.484  1.744  4.739  0.000    23.427     6.489
1269   6 C     -0.027  1.060  2.967  0.000    21.009     6.519
1270   6 C     -0.058  1.045  3.013  0.000    21.608     6.617
1271   6 C     -0.131  1.046  3.086  0.000    23.070     6.847
1272   6 C     -0.123  1.042  3.081  0.000    22.928     6.829
1273   1 H      0.226  0.774  0.000  0.000     0.982     1.552
1274   1 H      0.093  0.907  0.000  0.000     1.854     2.130
1275   1 H      0.067  0.933  0.000  0.000     2.115     2.274
1276   1 H      0.017  0.983  0.000  0.000     2.779     2.607
1277   1 H      0.017  0.983  0.000  0.000     2.778     2.606
1278   1 H      0.084  0.916  0.000  0.000     1.935     2.175
1279   1 H      0.054  0.946  0.000  0.000     2.276     2.359
1280   1 H      0.036  0.964  0.000  0.000     2.509     2.477
1281   1 H      0.052  0.948  0.000  0.000     2.290     2.367
1282   1 H      0.056  0.944  0.000  0.000     2.252     2.347
1283   1 H      0.054  0.946  0.000  0.000     2.266     2.354
1284   7 N     -0.176  1.239  3.937  0.000    24.809     7.398
1285   6 C      0.021  1.057  2.922  0.000    20.226     6.403
1286   6 C      0.272  1.041  2.687  0.000    22.409     7.752
1287   8 O     -0.487  1.743  4.743  0.000    23.489     6.498
1288   6 C     -0.057  1.045  3.012  0.000    21.589     6.614
1289   6 C     -0.105  1.056  3.049  0.000    22.500     6.752
1290   6 C      0.286  1.035  2.679  0.000    22.149     7.706
1291   8 O     -0.501  1.752  4.749  0.000    23.805     6.542
1292   7 N     -0.283  1.270  4.013  0.000    27.302     7.760
1293   1 H      0.202  0.798  0.000  0.000     1.096     1.640
1294   1 H      0.074  0.926  0.000  0.000     2.044     2.236
1295   1 H      0.077  0.923  0.000  0.000     2.011     2.218
1296   1 H      0.052  0.948  0.000  0.000     2.300     2.371
1297   1 H      0.050  0.950  0.000  0.000     2.323     2.384
1298   1 H      0.092  0.908  0.000  0.000     1.856     2.130
1299   1 H      0.221  0.779  0.000  0.000     1.003     1.569
1300   1 H      0.241  0.759  0.000  0.000     0.919     1.502
1301   7 N     -0.159  1.245  3.914  0.000    24.431     7.341
1302   6 C      0.018  1.060  2.923  0.000    20.283     6.413
1303   6 C      0.204  1.085  2.710  0.000    23.659     7.967
1304   8 O     -0.364  1.738  4.625  0.000    20.967     6.139
1305   6 C      0.121  1.048  2.830  0.000    18.681     6.167
1306   8 O     -0.472  1.723  4.749  0.000    22.297     6.374
1307   6 C     -0.137  1.047  3.090  0.000    23.188     6.866
1308   1 H      0.223  0.777  0.000  0.000     0.996     1.563
1309   1 H      0.092  0.908  0.000  0.000     1.856     2.130
1310   1 H      0.068  0.932  0.000  0.000     2.104     2.268
1311   1 H      0.314  0.686  0.000  0.000     0.680     1.296
1312   1 H      0.063  0.937  0.000  0.000     2.168     2.303
1313   1 H      0.059  0.941  0.000  0.000     2.207     2.323
1314   1 H      0.065  0.935  0.000  0.000     2.142     2.289
1315   7 N     -0.378  1.320  4.058  0.000    29.765     8.103
1316   6 C      0.024  1.058  2.918  0.000    20.177     6.397
1317   6 C      0.274  1.043  2.683  0.000    22.362     7.745
1318   8 O     -0.505  1.750  4.755  0.000    23.892     6.554
1319   6 C      0.117  1.044  2.839  0.000    18.748     6.178
1320   8 O     -0.479  1.724  4.755  0.000    22.448     6.396
1321   6 C     -0.129  1.046  3.083  0.000    23.036     6.844
1322   1 H      0.158  0.842  0.000  0.000     1.349     1.819
1323   1 H      0.050  0.950  0.000  0.000     2.323     2.384
1324   1 H      0.021  0.979  0.000  0.000     2.721     2.580
1325   1 H      0.310  0.690  0.000  0.000     0.692     1.307
1326   1 H      0.048  0.952  0.000  0.000     2.343     2.393
1327   1 H      0.038  0.962  0.000  0.000     2.470     2.458
1328   1 H      0.060  0.940  0.000  0.000     2.203     2.321
1329   7 N     -0.188  1.250  3.938  0.000    25.072     7.437
1330   6 C      0.025  1.052  2.923  0.000    20.145     6.389
1331   6 C      0.270  1.037  2.694  0.000    22.445     7.759
1332   8 O     -0.469  1.721  4.748  0.000    23.113     6.446
1333   6 C     -0.072  1.052  3.020  0.000    21.866     6.655
1334   6 C      0.001  1.079  2.920  0.000    28.001     8.679
1335   6 C     -0.045  1.086  2.959  0.000    29.106     8.847
1336   6 C     -0.037  1.087  2.950  0.000    28.928     8.820
1337   6 C     -0.058  1.075  2.983  0.000    29.447     8.898
1338   6 C     -0.070  1.083  2.987  0.000    29.736     8.942
1339   6 C      0.141  1.052  2.807  0.000    24.919     8.181
1340   8 O     -0.450  1.733  4.717  0.000    21.835     6.308
1341   1 H      0.241  0.759  0.000  0.000     0.918     1.501
1342   1 H      0.068  0.932  0.000  0.000     2.107     2.270
1343   1 H      0.074  0.926  0.000  0.000     2.044     2.236
1344   1 H      0.055  0.945  0.000  0.000     2.262     2.352
1345   1 H      0.043  0.957  0.000  0.000     2.413     2.429
1346   1 H      0.047  0.953  0.000  0.000     2.355     2.400
1347   1 H      0.053  0.947  0.000  0.000     2.289     2.366
1348   1 H      0.049  0.951  0.000  0.000     2.338     2.391
1349   1 H      0.345  0.655  0.000  0.000     0.600     1.217
1350   7 N     -0.163  1.245  3.918  0.000    24.524     7.355
1351   6 C      0.021  1.055  2.924  0.000    20.230     6.404
1352   6 C      0.203  1.089  2.708  0.000    23.676     7.969
1353   8 O     -0.350  1.755  4.595  0.000    20.704     6.101
1354   6 C     -0.046  1.045  3.001  0.000    21.396     6.584
1355   6 C     -0.079  1.053  3.026  0.000    22.002     6.678
1356   6 C      0.360  1.023  2.617  0.000    20.887     7.480
1357   8 O     -0.633  1.772  4.861  0.000    26.935     6.958
1358   8 O     -0.642  1.761  4.881  0.000    27.174     6.989
1359   1 H      0.215  0.785  0.000  0.000     1.031     1.591
1360   1 H      0.094  0.906  0.000  0.000     1.840     2.121
1361   1 H      0.048  0.952  0.000  0.000     2.341     2.393
1362   1 H      0.052  0.948  0.000  0.000     2.291     2.367
1363   1 H      0.011  0.989  0.000  0.000     2.868     2.648
1364   1 H      0.011  0.989  0.000  0.000     2.875     2.652
1365   7 N     -0.411  1.332  4.080  0.000    30.694     8.228
1366   6 C      0.026  1.058  2.916  0.000    20.153     6.394
1367   6 C      0.271  1.049  2.680  0.000    22.423     7.754
1368   8 O     -0.467  1.740  4.728  0.000    23.076     6.441
1369   6 C      0.105  1.054  2.841  0.000    18.958     6.217
1370   8 O     -0.492  1.743  4.749  0.000    22.727     6.435
1371   6 C     -0.143  1.047  3.097  0.000    23.325     6.887
1372   1 H      0.213  0.787  0.000  0.000     1.044     1.600
1373   1 H      0.049  0.951  0.000  0.000     2.333     2.389
1374   1 H      0.006  0.994  0.000  0.000     2.955     2.688
1375   1 H      0.302  0.698  0.000  0.000     0.717     1.330
1376   1 H      0.054  0.946  0.000  0.000     2.273     2.357
1377   1 H      0.069  0.931  0.000  0.000     2.099     2.266
1378   1 H      0.090  0.910  0.000  0.000     1.875     2.142
1379   7 N     -0.171  1.244  3.927  0.000    24.696     7.381
1380   6 C      0.012  1.061  2.927  0.000    20.376     6.427
1381   6 C      0.282  1.039  2.678  0.000    22.220     7.720
1382   8 O     -0.507  1.744  4.763  0.000    23.936     6.560
1383   6 C     -0.020  1.061  2.959  0.000    20.895     6.501
1384   6 C     -0.067  1.047  3.020  0.000    21.781     6.643
1385   6 C     -0.118  1.041  3.077  0.000    22.817     6.811
1386   6 C     -0.123  1.041  3.082  0.000    22.917     6.826
1387   1 H      0.193  0.807  0.000  0.000     1.145     1.676
1388   1 H      0.092  0.908  0.000  0.000     1.861     2.133
1389   1 H      0.044  0.956  0.000  0.000     2.396     2.420
1390   1 H      0.048  0.952  0.000  0.000     2.340     2.392
1391   1 H      0.054  0.946  0.000  0.000     2.277     2.360
1392   1 H      0.066  0.934  0.000  0.000     2.130     2.282
1393   1 H      0.021  0.979  0.000  0.000     2.718     2.578
1394   1 H      0.046  0.954  0.000  0.000     2.365     2.405
1395   1 H      0.059  0.941  0.000  0.000     2.209     2.324
1396   1 H      0.038  0.962  0.000  0.000     2.472     2.459
1397   1 H      0.055  0.945  0.000  0.000     2.256     2.349
1398   7 N     -0.190  1.251  3.939  0.000    25.127     7.445
1399   6 C      0.043  1.052  2.905  0.000    19.849     6.342
1400   6 C      0.271  1.046  2.684  0.000    22.429     7.755
1401   8 O     -0.482  1.734  4.747  0.000    23.386     6.484
1402   6 C     -0.057  1.059  2.998  0.000    21.599     6.616
1403   6 C      0.370  1.022  2.608  0.000    20.722     7.450
1404   8 O     -0.649  1.770  4.879  0.000    27.355     7.012
1405   8 O     -0.621  1.777  4.844  0.000    26.642     6.920
1406   1 H      0.217  0.783  0.000  0.000     1.025     1.586
1407   1 H      0.056  0.944  0.000  0.000     2.241     2.341
1408   1 H      0.028  0.972  0.000  0.000     2.610     2.526
1409   1 H      0.012  0.988  0.000  0.000     2.859     2.644
1410   7 N     -0.154  1.244  3.910  0.000    24.335     7.327
1411   6 C      0.020  1.058  2.921  0.000    20.237     6.406
1412   6 C      0.277  1.045  2.678  0.000    22.313     7.735
1413   8 O     -0.489  1.761  4.729  0.000    23.552     6.507
1414   6 C     -0.082  1.058  3.023  0.000    22.048     6.684
1415   6 C     -0.015  1.052  2.963  0.000    20.804     6.487
1416   6 C     -0.121  1.044  3.077  0.000    22.871     6.818
1417   6 C     -0.123  1.045  3.078  0.000    22.913     6.824
1418   1 H      0.213  0.787  0.000  0.000     1.044     1.600
1419   1 H      0.085  0.915  0.000  0.000     1.925     2.170
1420   1 H      0.069  0.931  0.000  0.000     2.095     2.264
1421   1 H      0.054  0.946  0.000  0.000     2.272     2.357
1422   1 H      0.025  0.975  0.000  0.000     2.666     2.553
1423   1 H      0.055  0.945  0.000  0.000     2.261     2.351
1424   1 H      0.024  0.976  0.000  0.000     2.666     2.554
1425   1 H      0.054  0.946  0.000  0.000     2.273     2.358
1426   1 H      0.058  0.942  0.000  0.000     2.226     2.333
1427   1 H      0.056  0.944  0.000  0.000     2.242     2.341
1428   1 H      0.045  0.955  0.000  0.000     2.385     2.415
1429   7 N     -0.165  1.244  3.921  0.000    24.575     7.363
1430   6 C      0.022  1.061  2.916  0.000    20.211     6.402
1431   6 C      0.192  1.094  2.714  0.000    23.897     8.006
1432   8 O     -0.355  1.752  4.603  0.000    20.798     6.114
1433   6 C     -0.020  1.063  2.957  0.000    20.896     6.501
1434   6 C     -0.041  1.038  3.003  0.000    21.303     6.570
1435   6 C     -0.130  1.045  3.085  0.000    23.057     6.847
1436   6 C     -0.100  1.034  3.066  0.000    22.464     6.759
1437   1 H      0.214  0.786  0.000  0.000     1.037     1.595
1438   1 H      0.083  0.917  0.000  0.000     1.952     2.185
1439   1 H      0.057  0.943  0.000  0.000     2.237     2.339
1440   1 H      0.012  0.988  0.000  0.000     2.854     2.642
1441   1 H      0.034  0.966  0.000  0.000     2.533     2.489
1442   1 H      0.050  0.950  0.000  0.000     2.315     2.379
1443   1 H      0.053  0.947  0.000  0.000     2.277     2.360
1444   1 H      0.059  0.941  0.000  0.000     2.208     2.324
1445   1 H      0.027  0.973  0.000  0.000     2.633     2.538
1446   1 H      0.048  0.952  0.000  0.000     2.347     2.396
1447   1 H      0.030  0.970  0.000  0.000     2.583     2.513
1448   7 N     -0.382  1.316  4.066  0.000    29.865     8.116
1449   6 C      0.034  1.052  2.914  0.000    20.026     6.375
1450   6 C      0.197  1.094  2.710  0.000    23.805     7.990
1451   8 O     -0.369  1.759  4.610  0.000    21.063     6.153
1452   6 C     -0.099  1.065  3.034  0.000    22.387     6.736
1453   6 C      0.283  1.048  2.669  0.000    22.202     7.715
1454   8 O     -0.488  1.741  4.747  0.000    23.519     6.502
1455   7 N     -0.261  1.260  4.001  0.000    26.775     7.685
1456   1 H      0.182  0.818  0.000  0.000     1.200     1.716
1457   1 H      0.065  0.935  0.000  0.000     2.136     2.286
1458   1 H      0.101  0.899  0.000  0.000     1.775     2.083
1459   1 H      0.069  0.931  0.000  0.000     2.102     2.267
1460   1 H      0.212  0.788  0.000  0.000     1.046     1.602
1461   1 H      0.230  0.770  0.000  0.000     0.965     1.538
1462   7 N     -0.391  1.327  4.064  0.000    30.124     8.151
1463   6 C      0.040  1.051  2.909  0.000    19.922     6.357
1464   6 C      0.279  1.044  2.677  0.000    22.282     7.730
1465   8 O     -0.525  1.754  4.771  0.000    24.344     6.615
1466   6 C     -0.071  1.061  3.010  0.000    21.847     6.653
1467   6 C     -0.012  1.055  2.957  0.000    20.755     6.480
1468   6 C     -0.113  1.044  3.069  0.000    22.718     6.796
1469   6 C     -0.114  1.042  3.072  0.000    22.736     6.799
1470   1 H      0.163  0.837  0.000  0.000     1.313     1.795
1471   1 H      0.017  0.983  0.000  0.000     2.784     2.609
1472   1 H      0.039  0.961  0.000  0.000     2.464     2.455
1473   1 H      0.043  0.957  0.000  0.000     2.412     2.429
1474   1 H      0.022  0.978  0.000  0.000     2.703     2.571
1475   1 H      0.041  0.959  0.000  0.000     2.442     2.444
1476   1 H      0.045  0.955  0.000  0.000     2.380     2.412
1477   1 H      0.039  0.961  0.000  0.000     2.468     2.457
1478   1 H      0.051  0.949  0.000  0.000     2.306     2.375
1479   1 H      0.027  0.973  0.000  0.000     2.629     2.536
1480   1 H      0.028  0.972  0.000  0.000     2.609     2.526
1481   7 N     -0.235  1.276  3.959  0.000    26.161     7.596
1482   6 C      0.023  1.060  2.918  0.000    20.196     6.399
1483   6 C      0.277  1.044  2.680  0.000    22.322     7.737
1484   8 O     -0.490  1.744  4.746  0.000    23.563     6.508
1485   6 C     -0.076  1.058  3.018  0.000    21.949     6.669
1486   6 C     -0.012  1.052  2.960  0.000    20.750     6.479
1487   6 C     -0.117  1.045  3.072  0.000    22.778     6.804
1488   6 C     -0.119  1.044  3.075  0.000    22.835     6.814
1489   1 H      0.259  0.741  0.000  0.000     0.846     1.439
1490   1 H      0.071  0.929  0.000  0.000     2.077     2.254
1491   1 H      0.049  0.951  0.000  0.000     2.332     2.388
1492   1 H      0.055  0.945  0.000  0.000     2.260     2.351
1493   1 H      0.031  0.969  0.000  0.000     2.568     2.506
1494   1 H      0.052  0.948  0.000  0.000     2.300     2.372
1495   1 H      0.032  0.968  0.000  0.000     2.561     2.503
1496   1 H      0.048  0.952  0.000  0.000     2.343     2.394
1497   1 H      0.048  0.952  0.000  0.000     2.348     2.396
1498   1 H      0.044  0.956  0.000  0.000     2.402     2.424
1499   1 H      0.034  0.966  0.000  0.000     2.525     2.485
1500   7 N     -0.172  1.238  3.935  0.000    24.733     7.386
1501   6 C      0.021  1.061  2.919  0.000    20.235     6.406
1502   6 C      0.271  1.048  2.681  0.000    22.424     7.754
1503   8 O     -0.501  1.753  4.748  0.000    23.803     6.541
1504   6 C     -0.129  1.046  3.083  0.000    23.033     6.844
1505   1 H      0.199  0.801  0.000  0.000     1.110     1.651
1506   1 H      0.076  0.924  0.000  0.000     2.017     2.221
1507   1 H      0.073  0.927  0.000  0.000     2.056     2.242
1508   1 H      0.090  0.910  0.000  0.000     1.876     2.142
1509   1 H      0.052  0.948  0.000  0.000     2.294     2.369
1510   7 N     -0.179  1.251  3.928  0.000    24.887     7.409
1511   6 C      0.024  1.073  2.903  0.000    20.191     6.400
1512   6 C      0.370  1.015  2.615  0.000    20.731     7.452
1513   8 O     -0.627  1.760  4.868  0.000    26.796     6.940
1514   6 C     -0.091  1.058  3.033  0.000    22.236     6.712
1515   6 C      0.288  1.036  2.676  0.000    22.121     7.701
1516   8 O     -0.511  1.763  4.748  0.000    24.035     6.573
1517   7 N     -0.281  1.266  4.015  0.000    27.250     7.753
1518   8 O     -0.615  1.757  4.859  0.000    26.492     6.901
1519   1 H      0.206  0.794  0.000  0.000     1.077     1.625
1520   1 H      0.033  0.967  0.000  0.000     2.539     2.492
1521   1 H      0.063  0.937  0.000  0.000     2.159     2.298
1522   1 H      0.067  0.933  0.000  0.000     2.121     2.278
1523   1 H      0.231  0.769  0.000  0.000     0.960     1.535
1524   1 H      0.225  0.775  0.000  0.000     0.986     1.555
1525   1 H      0.190  0.810  0.000  0.000     1.159     1.687
1526   1 H      0.092  0.908  0.000  0.000     1.857     2.131
1527   1 H      0.176  0.824  0.000  0.000     1.239     1.743
1528   1 H      0.086  0.914  0.000  0.000     1.921     2.167
1529   1 H      0.182  0.818  0.000  0.000     1.205     1.719
1530   1 H      0.093  0.907  0.000  0.000     1.845     2.124
1531   1 H      0.187  0.813  0.000  0.000     1.173     1.697
1532   1 H      0.087  0.913  0.000  0.000     1.912     2.162
1533   1 H      0.180  0.820  0.000  0.000     1.213     1.725
1534   1 H      0.070  0.930  0.000  0.000     2.084     2.257
1535   1 H      0.184  0.816  0.000  0.000     1.194     1.711
1536   1 H      0.079  0.921  0.000  0.000     1.991     2.207
1537   1 H      0.188  0.812  0.000  0.000     1.166     1.692
1538   1 H      0.097  0.903  0.000  0.000     1.811     2.105
1539   1 H      0.182  0.818  0.000  0.000     1.205     1.719
1540   1 H      0.169  0.831  0.000  0.000     1.277     1.770
1541   1 H      0.072  0.928  0.000  0.000     2.061     2.245
1542   1 H      0.186  0.814  0.000  0.000     1.178     1.700
1543   1 H      0.092  0.908  0.000  0.000     1.862     2.134
1544   1 H      0.178  0.822  0.000  0.000     1.226     1.735
1545   1 H      0.096  0.904  0.000  0.000     1.823     2.111
1546   1 H      0.175  0.825  0.000  0.000     1.244     1.747
1547   1 H      0.081  0.919  0.000  0.000     1.966     2.193
1548   1 H      0.192  0.808  0.000  0.000     1.147     1.677
1549   1 H      0.079  0.921  0.000  0.000     1.985     2.203

 Mol. C6AA /au·bohr⁶  :   22911286.306280
 Mol. C8AA /au·bohr⁸  :  517878961.826195
 Mol. α(0) /au        :       7185.576281

 
molecular dipole:
                 x           y           z       tot (Debye)
 q only:      -59.352    -249.684       9.220
   full:      -58.015    -242.640      10.886     634.729
molecular quadrupole (traceless):
                xx          xy          yy          xz          yz          zz
 q only:     8128.871  -10709.451  -22854.082    1204.442    4481.072   14725.211
  q+dip:     7800.417  -10214.885  -21921.506    1311.916    4367.273   14121.088
   full:     7825.558  -10215.317  -21941.695    1312.698    4369.978   14116.137
speedup  1.11
cpu  time for grad   16 m  4.9 s
wall time for grad   14 m 28.8 s

SCC energy    :   -2438.6353769
rep           :      29.0649396
ES            :       7.9511857
AES           :      -0.3092547
AXC           :       0.7389929
disp          :      -2.3192329
XB            :       0.0000000
fix           :       0.0000000
Gborn         :       0.0000000
Gsasa         :       0.0000000
Ghb           :       0.0000000
Gshift        :       0.0000000
Gsolv         :      -2.0193290    -1267.15
Etot ala COSMO:   -2438.6353769
grad norm     :       0.9308575
total E       :   -2409.2533531
atomizationE  :     441.2023239   276858.64
(atE without considering molecular charge,
 total energy contains solvation terms)
H-L gap (eV)  :          0.5721

------------------------------------------------------------------------
 * finished run on 2019/05/04 at 19:16:39.806     
------------------------------------------------------------------------
 total:
 * wall-time:     0 d,  0 h, 14 min, 43.578 sec
 *  cpu-time:     0 d,  0 h, 16 min, 15.854 sec
 * ratio c/w:     1.104 speedup
 SCF:
 * wall-time:     0 d,  0 h, 14 min, 35.878 sec
 *  cpu-time:     0 d,  0 h, 16 min, 11.379 sec
 * ratio c/w:     1.109 speedup

