      -----------------------------------------------------------      
     |                   =====================                   |     
     |                           x T B                           |     
     |                   =====================                   |     
     |                         S. Grimme                         |     
     |          Mulliken Center for Theoretical Chemistry        |     
     |                    University of Bonn                     |     
     |                 Version 6.0.1 (SAW181210)                 |     
      -----------------------------------------------------------      

   This program is distributed in the hope that it will be useful,
   but WITHOUT ANY WARRANTY; without even the implied warranty of
   MERCHANTABILITY or FITNESS FOR A PARTICULAR PURPOSE.
   
   FOR NON-COMMERCIAL, ACADEMIA USE ONLY.
   
   Cite this work as:
   S. Grimme, C. Bannwarth, P. Shushkov, J. Comput. Theory Chem., 2017,
   13, 1989-2009.
   C. Bannwarth, S. Ehlert and S. Grimme., ChemRxiv, 2018, preprint.
   http://doi.org/10.26434/chemrxiv.7246238.v1
   
   for sTDA-xTB:
   S. Grimme and C. Bannwarth, J. Chem. Phys., 2016, 145, 054103.
   
   in the mass-spec context:
   V. Asgeirsson, C. Bauer and S. Grimme, Chem. Sci., 2017, 8, 4879.
   
   if GBSA is used:
   P. Shushkov, F. März and S. Grimme, unpublished.
   
   for ANC optimizer:
   S. Grimme, unpublished.
   Rational Function algorithm used in ANCopt:
   F. Eckert, P. Pulay, H.-J. Werner, J. Comput. Chem., 1997, 18, 1473.
   
   with help from (in alphabetical order)
   C. Bannwarth, F. Bohle, G. Brandenburg, E. Caldeweyher, M. Checinski,
   S. Dohm, S. Ehlert, S. Ehrlich, F. März, H. Neugebauer, J. Pisarek,
   P. Pracht, P. Shushkov, and S. Spicher.
   
 * started run on 2019/05/05 at 17:06:27.911     
========================================================================
 # omp threads = 2
========================================================================
number of atoms            : 247
number of electrons        : 714
charge                     : -3
spin                       : .0
first test random number   : .6005

########################################################################
# WARNING! Please study the warnings concerning your input carefully
#  - Process number higher than OMP_NUM_THREADS, I hope you know what you are doing.
########################################################################

           ------------------------------------------------- 
          |                 G F N 2 - x T B                 |
          | Geometry, Frequencies, Noncovalent interactions |
          |            JCTC 2018 parametrisation            |
           ------------------------------------------------- 
 
      method parameters     
 k(s)        :  1.8500
 k(p)        :  2.2300
 k(d)        :  2.2300
 k(f)        :  2.0000
 kEN (H0ij)  : -2.0000
 D4 a1       :  0.5200
 D4 a2       :  5.0000
 D4 s6       :  1.0000
 D4 s8       :  2.7000
 D4 s9       :  5.0000
 alphaj      :  2.0000

 Solvent             : h2o
 Using internal parameter file: .param_gbsa2_h2o
 Gsolv ref. state (COSMO-RS): gsolv [1 M gas/solution]
 temperature (mdtemp)       :    298.150000000000     
 dielectric constant        :    80.2000000000000     
 rho                        :    1.00000000000000     
 mass                       :    18.0000000000000     
 surface tension            :    15.5689454083859     
 probe radius               :   0.975313790000000     
 vdW radii scaling          :    1.00000000000000     
 Gshift (Eh)                :   1.857443126794793E-003
 c1                         :    1.55243817000000     
 soset                      :   0.130326360000000     
 HB correction              :  T

            Z     q(EN)     CN     RAES       Cart. coordinates
     1  N   5.0   -0.23    3.22    1.96    39.26726    28.84451    28.19963
     2  C   4.0    0.02    4.31    4.22    39.52552    27.96883    30.84422
     3  C   4.0    0.14    3.42    3.08    41.07250    29.76782    32.41115
     4  O   6.0   -0.31    1.29    1.80    40.57553    30.18849    34.65951
     5  C   4.0   -0.04    4.26    4.13    40.59902    25.22083    30.94670
     6  C   4.0   -0.04    4.23    4.06    38.64119    23.51968    29.72163
     7  C   4.0    0.24    3.13    3.03    39.64485    20.82622    29.50130
     8  O   6.0   -0.32    1.20    1.80    41.97115    20.58399    29.22471
     9  O   6.0   -0.31    1.17    1.80    38.07455    19.06484    29.42549
    10  H   1.0    0.07    1.02    1.43    40.00125    27.81346    26.76543
    11  H   1.0    0.04    1.05    1.44    37.62714    27.94799    31.68385
    12  H   1.0    0.05    1.03    1.43    42.38165    25.13828    29.92515
    13  H   1.0    0.06    1.02    1.43    40.92545    24.68053    32.90460
    14  H   1.0    0.04    1.02    1.43    36.88357    23.52356    30.80046
    15  H   1.0    0.03    1.03    1.43    38.24076    24.15286    27.80005
    16  N   5.0   -0.15    3.48    2.06    43.03279    30.84653    31.21881
    17  C   4.0    0.03    4.42    4.41    44.59003    32.63837    32.61284
    18  C   4.0    0.15    3.41    3.08    43.13938    35.14534    33.09241
    19  O   6.0   -0.32    1.29    1.80    43.25838    36.21176    35.15490
    20  C   4.0   -0.06    4.28    4.16    47.09839    33.03072    31.21787
    21  C   4.0   -0.04    4.21    4.02    48.94767    34.63884    32.66505
    22  C   4.0    0.14    3.20    3.04    51.50682    35.05190    31.36372
    23  O   6.0   -0.33    1.19    1.80    52.85022    36.86180    31.88341
    24  N   5.0   -0.21    3.19    1.95    52.25717    33.24967    29.72296
    25  H   1.0    0.07    1.06    1.44    43.58706    30.28698    29.47653
    26  H   1.0    0.06    1.06    1.44    44.97244    31.83876    34.48941
    27  H   1.0    0.04    1.04    1.43    47.86550    31.13882    30.92647
    28  H   1.0    0.03    1.03    1.43    46.68946    33.87572    29.37632
    29  H   1.0    0.06    1.03    1.43    48.17521    36.50606    33.06839
    30  H   1.0    0.04    1.03    1.43    49.37516    33.75988    34.48539
    31  H   1.0    0.06    1.03    1.43    51.07528    31.92551    29.05718
    32  H   1.0    0.07    1.03    1.43    53.89354    33.52369    28.78964
    33  N   5.0   -0.15    3.44    2.04    41.77852    36.01003    31.20332
    34  C   4.0    0.03    4.41    4.40    40.19326    38.36271    31.51951
    35  C   4.0    0.16    3.46    3.10    38.49151    38.18228    33.82698
    36  O   6.0   -0.31    1.26    1.80    38.17619    39.96893    35.27824
    37  C   4.0   -0.05    4.29    4.18    38.61919    38.73317    29.13195
    38  C   4.0    0.05    3.76    3.29    37.05390    41.06772    29.26879
    39  N   5.0   -0.20    2.51    1.90    37.99047    43.40102    28.53953
    40  C   4.0   -0.01    3.57    3.15    34.60116    41.34447    30.08321
    41  C   4.0    0.04    3.61    3.17    36.15966    45.02475    28.96858
    42  N   5.0   -0.13    3.44    2.04    34.08388    43.89292    29.85750
    43  H   1.0    0.07    1.06    1.44    41.80167    35.20990    29.45872
    44  H   1.0    0.06    1.05    1.44    41.46302    39.96998    31.81063
    45  H   1.0    0.03    1.03    1.43    39.90611    38.85405    27.52434
    46  H   1.0    0.03    1.03    1.43    37.38664    37.09234    28.90687
    47  H   1.0    0.05    1.03    1.43    33.28652    40.02484    30.84289
    48  H   1.0    0.02    1.02    1.43    36.29883    47.01327    28.60993
    49  H   1.0    0.06    1.05    1.44    32.50374    44.75364    30.49376
    50  N   5.0   -0.14    3.50    2.08    37.29516    35.97789    34.09671
    51  C   4.0    0.03    4.39    4.36    35.48071    35.53649    36.15030
    52  C   4.0    0.15    3.42    3.08    36.68927    33.94559    38.27195
    53  O   6.0   -0.32    1.34    1.80    35.38169    32.74981    39.78917
    54  C   4.0   -0.03    4.32    4.24    33.08692    34.20845    35.15626
    55  C   4.0   -0.02    3.54    3.13    31.50332    35.80943    33.43887
    56  C   4.0   -0.05    3.49    3.11    30.31768    37.95439    34.38497
    57  C   4.0   -0.05    3.44    3.09    31.34274    35.31393    30.86184
    58  C   4.0   -0.05    3.43    3.09    28.90065    39.55124    32.88076
    59  C   4.0   -0.06    3.43    3.09    29.67328    36.72568    29.40294
    60  C   4.0    0.06    3.45    3.09    28.45075    38.83980    30.38455
    61  O   6.0   -0.28    2.12    1.84    26.94422    40.37021    29.00018
    62  H   1.0    0.08    1.06    1.44    37.48625    34.58866    32.79517
    63  H   1.0    0.06    1.06    1.44    35.01583    37.38653    36.95484
    64  H   1.0    0.04    1.03    1.43    33.67614    32.49276    34.16901
    65  H   1.0    0.05    1.03    1.43    31.99266    33.65132    36.81512
    66  H   1.0    0.04    1.03    1.43    30.57229    38.42781    36.35387
    67  H   1.0    0.04    1.03    1.43    32.37083    33.75434    30.04660
    68  H   1.0    0.04    1.03    1.43    28.08846    41.24865    33.65083
    69  H   1.0    0.03    1.03    1.43    29.46867    36.25482    27.42836
    70  H   1.0    0.09    1.03    1.43    26.61887    39.65603    27.34371
    71  N   5.0   -0.13    3.49    2.07    39.18145    34.20784    38.55036
    72  C   4.0    0.04    4.34    4.28    40.53105    32.75673    40.43479
    73  C   4.0    0.16    3.52    3.12    39.35677    33.16172    43.08902
    74  O   6.0   -0.32    1.42    1.80    39.29830    31.37958    44.57431
    75  C   4.0   -0.06    4.13    3.85    43.27684    33.51720    40.60382
    76  H   1.0    0.11    1.10    1.44    40.26195    35.14410    37.27664
    77  H   1.0    0.06    1.05    1.44    40.34088    30.73206    40.02888
    78  H   1.0    0.05    1.00    1.43    44.26817    32.22153    41.84924
    79  H   1.0    0.06    1.00    1.43    44.14420    33.45673    38.74433
    80  H   1.0    0.05    1.00    1.43    43.44137    35.42228    41.35620
    81  N   5.0   -0.14    3.53    2.10    38.49965    35.44022    43.68014
    82  C   4.0    0.04    4.45    4.46    37.57048    35.90448    46.20173
    83  C   4.0    0.15    3.43    3.09    35.14386    34.45789    46.71628
    84  O   6.0   -0.31    1.23    1.80    34.32514    34.19993    48.87092
    85  C   4.0   -0.03    4.25    4.10    37.19302    38.71737    46.74619
    86  C   4.0    0.24    3.09    3.02    39.69299    40.27822    46.79900
    87  O   6.0   -0.32    1.22    1.80    41.73352    39.18286    47.20489
    88  O   6.0   -0.32    1.16    1.80    39.42461    42.59690    46.38161
    89  H   1.0    0.11    1.11    1.45    38.59380    36.91102    42.45239
    90  H   1.0    0.07    1.06    1.44    38.96179    35.17140    47.56168
    91  H   1.0    0.05    1.02    1.43    35.91604    39.54022    45.35829
    92  H   1.0    0.04    1.03    1.43    36.36254    38.87811    48.62773
    93  N   5.0   -0.14    3.56    2.12    33.91733    33.58646    44.70290
    94  C   4.0    0.03    4.42    4.41    31.54622    32.16497    44.92772
    95  C   4.0    0.15    3.44    3.09    31.87224    29.33218    44.48770
    96  O   6.0   -0.32    1.30    1.80    30.02656    27.92393    44.22693
    97  C   4.0   -0.04    4.38    4.35    29.61601    33.14456    43.03947
    98  C   4.0   -0.03    4.19    3.98    29.13894    35.99946    43.24127
    99  C   4.0   -0.09    4.10    3.80    27.23192    36.76344    41.20624
   100  C   4.0   -0.09    4.10    3.81    28.20625    36.73254    45.87384
   101  H   1.0    0.12    1.14    1.45    34.69076    33.61160    42.95012
   102  H   1.0    0.05    1.07    1.44    30.91331    32.42074    46.88265
   103  H   1.0    0.05    1.03    1.43    30.32993    32.71475    41.15071
   104  H   1.0    0.04    1.03    1.43    27.86147    32.09883    43.31716
   105  H   1.0    0.04    1.06    1.44    30.92199    36.97659    42.87194
   106  H   1.0    0.03    1.00    1.43    27.06113    38.80808    41.12459
   107  H   1.0    0.03    1.00    1.43    27.84166    36.09932    39.36161
   108  H   1.0    0.03    1.00    1.43    25.39041    35.95828    41.62163
   109  H   1.0    0.02    1.00    1.43    27.70214    38.72193    45.88651
   110  H   1.0    0.03    1.00    1.43    26.56154    35.61098    46.37394
   111  H   1.0    0.04    1.00    1.43    29.68043    36.42958    47.27192
   112  N   5.0   -0.13    3.48    2.06    34.22767    28.40042    44.44497
   113  C   4.0    0.05    4.44    4.44    34.58672    25.80800    43.71171
   114  C   4.0    0.18    3.48    3.10    33.50734    23.86878    45.54879
   115  O   6.0   -0.31    1.32    1.80    33.02660    21.73050    44.80663
   116  C   4.0    0.05    4.16    3.92    37.39585    25.16068    43.36295
   117  O   6.0   -0.21    2.12    1.84    38.53180    25.40453    45.72229
   118  H   1.0    0.11    1.08    1.44    35.78448    29.48254    44.68635
   119  H   1.0    0.06    1.06    1.44    33.61113    25.45599    41.91039
   120  H   1.0    0.06    1.01    1.43    37.52727    23.21457    42.63666
   121  H   1.0    0.05    1.01    1.43    38.22405    26.44857    41.95796
   122  H   1.0    0.15    1.09    1.44    40.28292    25.97254    45.60351
   123  N   5.0   -0.13    3.48    2.07    32.89998    24.68620    47.90015
   124  C   4.0    0.04    4.36    4.32    31.83486    22.83557    49.66684
   125  C   4.0    0.15    3.44    3.09    28.96471    22.92649    49.61402
   126  O   6.0   -0.30    1.27    1.80    27.68155    21.52982    50.94582
   127  C   4.0   -0.02    4.24    4.08    32.63594    23.32294    52.40924
   128  C   4.0    0.25    3.05    3.02    35.51296    23.85360    53.11454
   129  O   6.0   -0.31    1.19    1.80    35.71708    25.35787    54.95540
   130  O   6.0   -0.24    1.23    1.80    37.24717    22.81895    52.00062
   131  H   1.0    0.10    1.07    1.44    34.05873    26.00341    48.64228
   132  H   1.0    0.07    1.06    1.44    32.45244    20.94417    49.08552
   133  H   1.0    0.05    1.03    1.43    31.59633    24.95585    53.13556
   134  H   1.0    0.06    1.03    1.43    32.09988    21.67065    53.52525
   135  N   5.0   -0.13    3.47    2.06    27.75561    24.65322    48.16280
   136  C   4.0    0.04    4.34    4.27    25.02857    24.71087    48.16961
   137  C   4.0    0.07    3.21    3.04    23.75481    22.56385    46.66036
   138  O   6.0   -0.31    1.15    1.80    24.67318    21.70616    44.69784
   139  C   4.0   -0.05    4.29    4.17    24.06229    27.15139    46.91426
   140  C   4.0   -0.05    4.20    4.01    24.95425    29.52899    48.26890
   141  C   4.0   -0.06    4.18    3.97    23.80364    29.80616    50.88673
   142  C   4.0   -0.05    4.13    3.87    24.52102    32.34779    52.01765
   143  N   5.0   -0.13    4.00    2.87    23.72634    32.52057    54.69896
   144  H   1.0    0.11    1.09    1.44    28.68618    25.61069    46.78351
   145  H   1.0    0.04    1.06    1.44    24.45428    24.56457    50.14601
   146  H   1.0    0.05    1.03    1.43    24.77006    27.17124    44.97635
   147  H   1.0    0.02    1.03    1.43    22.00453    27.12008    46.85422
   148  H   1.0    0.05    1.03    1.43    27.01024    29.50277    48.39572
   149  H   1.0    0.03    1.03    1.43    24.41119    31.14023    47.10397
   150  H   1.0    0.02    1.03    1.43    21.75438    29.63813    50.75073
   151  H   1.0    0.03    1.03    1.43    24.51363    28.29641    52.09668
   152  H   1.0    0.03    1.02    1.43    26.56846    32.58521    51.94678
   153  H   1.0    0.02    1.02    1.43    23.63328    33.87844    50.96508
   154  H   1.0    0.03    1.00    1.43    24.43488    34.24163    55.47793
   155  H   1.0    0.03    1.02    1.43    21.79997    32.47202    54.93148
   156  H   1.0    0.04    1.02    1.43    24.49519    31.06809    55.72487
   157  N   5.0   -0.22    3.19    1.95    23.30299    23.49458    39.37324
   158  C   4.0    0.03    4.23    4.06    25.55420    24.19318    37.96171
   159  C   4.0    0.07    3.24    3.04    25.73827    22.77793    35.46732
   160  O   6.0   -0.31    1.12    1.80    26.28387    23.93914    33.52231
   161  C   4.0   -0.02    4.34    4.27    27.91203    23.66616    39.53203
   162  C   4.0   -0.00    3.57    3.15    30.35950    24.20950    38.18427
   163  C   4.0   -0.03    3.47    3.10    31.14800    26.69452    37.80091
   164  C   4.0   -0.03    3.48    3.11    31.98839    22.28363    37.51138
   165  C   4.0   -0.03    3.40    3.08    33.60107    27.15675    37.04086
   166  C   4.0   -0.03    3.38    3.07    34.32049    22.75691    36.44986
   167  C   4.0   -0.04    3.38    3.07    35.17984    25.23487    36.29748
   168  H   1.0    0.11    1.05    1.44    23.58177    22.72804    41.11139
   169  H   1.0    0.04    1.05    1.44    25.43559    26.20752    37.47483
   170  H   1.0    0.06    1.03    1.43    27.84880    24.82817    41.23965
   171  H   1.0    0.06    1.04    1.43    27.88474    21.68534    40.09949
   172  H   1.0    0.05    1.03    1.43    29.92937    28.24705    38.32064
   173  H   1.0    0.06    1.03    1.43    31.40766    20.34945    37.80199
   174  H   1.0    0.06    1.03    1.43    34.26611    29.08637    36.96556
   175  H   1.0    0.06    1.03    1.43    35.53831    21.22466    35.88085
   176  H   1.0    0.06    1.03    1.43    37.07427    25.62403    35.65105
   177  O   6.0   -0.33    2.23    1.86    42.32589    28.21928    46.52576
   178  H   1.0    0.17    1.04    1.43    41.88239    28.15868    48.30632
   179  H   1.0    0.18    1.10    1.44    41.27722    29.55969    45.82919
   180  O   6.0   -0.30    1.96    1.82    29.36247    18.39610    44.06319
   181  H   1.0    0.17    1.03    1.43    30.94645    19.29654    44.07622
   182  H   1.0    0.15    0.99    1.43    28.11876    19.63072    44.57294
   183  O   6.0   -0.33    2.05    1.83    42.53859    26.58919    37.78006
   184  H   1.0    0.15    1.05    1.44    42.90939    26.77685    39.57629
   185  H   1.0    0.16    1.01    1.43    41.63883    28.06247    37.17733
   186  O   6.0   -0.31    1.98    1.82    38.16934    39.75008    40.64121
   187  H   1.0    0.13    0.97    1.43    38.95406    41.15293    41.48885
   188  H   1.0    0.15    1.00    1.43    38.27162    40.08270    38.82641
   189  O   6.0   -0.31    1.92    1.82    33.82688    22.07216    59.14764
   190  H   1.0    0.15    0.99    1.43    34.42249    23.18446    57.82126
   191  H   1.0    0.12    0.97    1.43    32.01944    22.01466    58.96879
   192  O   6.0   -0.32    1.92    1.82    25.32079    17.64946    40.36571
   193  H   1.0    0.14    0.99    1.43    26.70272    17.58818    41.56800
   194  H   1.0    0.12    0.97    1.43    23.78338    17.47033    41.31212
   195  O   6.0   -0.32    1.92    1.82    45.88382    41.36703    35.60849
   196  H   1.0    0.12    0.97    1.43    45.60145    41.98794    37.29008
   197  H   1.0    0.15    0.99    1.43    45.05148    39.74311    35.54109
   198  O   6.0   -0.32    2.05    1.83    43.91238    26.28429    42.50485
   199  H   1.0    0.13    0.97    1.43    44.98199    24.85240    42.80001
   200  H   1.0    0.16    1.10    1.44    43.58095    27.05129    44.14167
   201  O   6.0   -0.30    2.01    1.83    40.42330    29.48319    50.86877
   202  H   1.0    0.14    0.97    1.43    40.71480    31.25681    50.55834
   203  H   1.0    0.15    0.97    1.43    38.79414    29.28585    51.63301
   204  O   6.0   -0.30    1.92    1.82    43.61131    34.43053    48.45624
   205  H   1.0    0.12    0.97    1.43    45.41493    34.55682    48.59883
   206  H   1.0    0.15    1.01    1.43    43.01902    36.12496    48.03099
   207  O   6.0   -0.31    1.92    1.82    47.43147    27.25244    35.56804
   208  H   1.0    0.12    0.97    1.43    47.61147    26.33649    33.99354
   209  H   1.0    0.15    1.00    1.43    45.80235    26.76022    36.23375
   210  O   6.0   -0.30    1.92    1.82    41.38932    21.57335    37.51095
   211  H   1.0    0.15    1.02    1.43    41.75277    23.37370    37.66477
   212  H   1.0    0.13    0.97    1.43    40.65262    21.06747    39.08786
   213  O   6.0   -0.31    1.93    1.82    30.61273    16.23060    56.27181
   214  H   1.0    0.16    1.03    1.43    32.18452    17.15214    56.25878
   215  H   1.0    0.12    0.97    1.43    31.06009    14.53620    55.76206
   216  O   6.0   -0.29    1.92    1.82    36.02849    18.25885    41.18736
   217  H   1.0    0.15    0.99    1.43    37.28958    18.21852    42.51374
   218  H   1.0    0.12    0.97    1.43    35.07497    16.72232    41.36621
   219  N   5.0   -0.22    3.22    1.96    41.70932    15.44183    55.89003
   220  C   4.0    0.03    4.30    4.21    39.64374    17.04898    56.62329
   221  C   4.0    0.16    3.45    3.09    37.42464    17.08382    54.78621
   222  O   6.0   -0.32    1.32    1.80    35.33246    17.73662    55.52837
   223  C   4.0    0.03    4.16    3.92    40.48771    19.80542    56.97205
   224  O   6.0   -0.22    2.09    1.84    41.26687    20.66726    54.61271
   225  H   1.0    0.07    1.03    1.43    43.42487    16.24900    55.64865
   226  H   1.0    0.03    1.05    1.44    38.85109    16.38010    58.42462
   227  H   1.0    0.06    1.01    1.43    38.86804    20.89228    57.69834
   228  H   1.0    0.02    1.01    1.43    42.01716    19.87871    58.37704
   229  H   1.0    0.11    1.01    1.43    42.63434    21.89977    54.73149
   230  N   5.0   -0.14    3.42    2.03    37.82886    16.14911    52.43485
   231  C   4.0    0.04    4.29    4.18    35.69362    16.15201    50.66817
   232  C   4.0    0.07    3.23    3.04    34.33728    13.62093    50.72098
   233  O   6.0   -0.30    1.13    1.80    32.48614    13.20802    49.38918
   234  C   4.0   -0.02    4.24    4.08    36.51623    16.60208    47.92576
   235  C   4.0    0.25    3.05    3.02    38.41430    18.82833    47.22046
   236  O   6.0   -0.31    1.19    1.80    39.81910    18.25296    45.37961
   237  O   6.0   -0.24    1.23    1.80    38.38537    20.84752    48.33438
   238  H   1.0    0.09    1.07    1.44    39.54898    16.49402    51.69273
   239  H   1.0    0.07    1.06    1.44    34.36440    17.63255    51.24948
   240  H   1.0    0.05    1.03    1.43    37.41057    14.88530    47.19944
   241  H   1.0    0.06    1.03    1.43    34.81727    16.96399    46.80975
   242  H   1.0    0.08    1.07    1.44    37.61850    28.97470    27.80315
   243  H   1.0    0.04    1.04    1.43    22.12721    21.81938    47.26678
   244  H   1.0    0.08    1.07    1.44    22.33991    24.87362    39.62480
   245  H   1.0    0.05    1.04    1.43    25.41758    20.91646    35.41121
   246  H   1.0    0.07    1.07    1.44    41.94468    14.24395    57.07419
   247  H   1.0    0.04    1.05    1.44    34.95042    12.24399    51.86078

  Z AO/shell   Hii/eV     exponent
  1     Wed Apr 25 08:07:45 CEST 2018   EN: 2.200 GM2: 0.406  GM3: 0.0800  RAES: 1.40
     1s    -10.707211    1.230000
  6     Wed Apr 25 08:07:45 CEST 2018   EN: 2.550 GM2: 0.538  GM3: 0.1500  RAES: 3.00
     2s    -13.970922    2.096432
     2p    -10.063292    1.800000
  7     Wed Apr 25 08:07:45 CEST 2018   EN: 3.040 GM2: 0.461  GM3:-0.0640  RAES: 1.90
     2s    -16.686243    2.339881
     2p    -12.523956    2.014332
  8     Wed Apr 25 08:07:45 CEST 2018   EN: 3.440 GM2: 0.452  GM3:-0.0517  RAES: 1.80
     2s    -20.229985    2.439742
     2p    -15.503117    2.137023
 no old-style atom pair restraining (fixing) potential

molecular fragmentation (1/2 indicates fragments):
111111111111111111111111111111111111111111111111111111111111111111111111
111111111111111111111111111111111111111111111111111111111111111111111111
111111111111222222222222222222222222222222222222222222222222222222222222
2222222222222222222222222112222
# atoms in fragment 1/2:   158    89
 fragment masses (1/2) :     1187.23      604.58
CMA distance (Bohr)    :  10.638
constraining FC (au)   :  0.0500
           ------------------------------------------------- 
          |        Self-Consistent Charge Iterations        |
           ------------------------------------------------- 

 Ncao       : 616
 Nao        : 616
 Nshell     : 370
 Nel        : 714
 T(el)      :   500.0
 intcut     :    35.0
 scfconv/Eh :  0.100E-06
   qconv/e  :  0.100E-04
 intneglect :  0.100E-08
 broydamp   :      0.400
 iter      E             dE          RMSdq      gap      omega  full diag
   1   -419.3399152 -0.419340E+03  0.524E+00    3.13       0.0  T
   2   -420.4333959 -0.109348E+01  0.251E+00    1.99       1.0  T
   3   -420.5079328 -0.745369E-01  0.131E+00    2.04       1.0  T
   4   -420.5845294 -0.765966E-01  0.330E-01    1.09       1.0  T
   5   -420.5885099 -0.398048E-02  0.152E-01    1.36       1.0  T
   6   -420.5897948 -0.128495E-02  0.607E-02    1.36       1.0  T
   7   -420.5900304 -0.235575E-03  0.314E-02    1.38       1.0  T
   8   -420.5900672 -0.368093E-04  0.133E-02    1.41       1.0  T
   9   -420.5900795 -0.122708E-04  0.608E-03    1.42       1.0  T
  10   -420.5900814 -0.192809E-05  0.291E-03    1.42       2.2  T
  11   -420.5900818 -0.369067E-06  0.122E-03    1.42       5.2  T
  12   -420.5900819 -0.916116E-07  0.601E-04    1.42      10.6  T
  13   -420.5900819 -0.222454E-07  0.285E-04    1.42      22.4  T
  14   -420.5900819 -0.448648E-08  0.118E-04    1.42      54.1  T
  15   -420.5900819 -0.937746E-09  0.462E-05    1.42     137.8  T
  16   -420.5900819 -0.110958E-09  0.213E-05    1.42     298.4  T
speedup  1.86
cpu  time for SCC    6.76 s
wall time for SCC    3.64 s

   *** convergence criteria satisfied after 16 iterations ***

          eigenvalues
 #    :         345        346        347        348        349        350        351        352
 occ. :        2.000      2.000      2.000      2.000      2.000      2.000      2.000      2.000
 eps  :       -10.460    -10.460    -10.433    -10.339    -10.238    -10.112    -10.041     -9.967
 #    :         353        354        355        356        357        358        359        360
 occ. :        2.000      2.000      2.000      2.000      2.000      0.000      0.000      0.000
 eps  :        -9.808     -9.741     -9.656     -9.537     -9.369     -7.950     -7.818     -7.497
 #    :         361        362        363        364        365        366        367        368
 occ. :        0.000      0.000      0.000      0.000      0.000      0.000      0.000      0.000
 eps  :        -6.722     -6.583     -6.547     -6.470     -6.370     -6.312     -6.310     -6.252


   #   Z            q   n(s)   n(p)   n(d)      C6AA      α(0)
   1   7 N     -0.390  1.304  4.086  0.000    30.099     8.148
   2   6 C      0.028  1.065  2.907  0.000    20.119     6.388
   3   6 C      0.268  1.047  2.685  0.000    22.470     7.763
   4   8 O     -0.518  1.758  4.760  0.000    24.184     6.593
   5   6 C     -0.043  1.053  2.991  0.000    21.345     6.578
   6   6 C     -0.080  1.060  3.020  0.000    22.021     6.680
   7   6 C      0.372  1.023  2.605  0.000    20.693     7.445
   8   8 O     -0.650  1.767  4.883  0.000    27.393     7.017
   9   8 O     -0.668  1.778  4.891  0.000    27.861     7.077
  10   1 H      0.166  0.834  0.000  0.000     1.297     1.784
  11   1 H      0.033  0.967  0.000  0.000     2.539     2.492
  12   1 H      0.048  0.952  0.000  0.000     2.340     2.392
  13   1 H      0.022  0.978  0.000  0.000     2.698     2.569
  14   1 H      0.008  0.992  0.000  0.000     2.917     2.671
  15   1 H      0.034  0.966  0.000  0.000     2.536     2.491
  16   7 N     -0.174  1.247  3.928  0.000    24.775     7.392
  17   6 C      0.014  1.066  2.920  0.000    20.352     6.423
  18   6 C      0.276  1.043  2.681  0.000    22.338     7.739
  19   8 O     -0.502  1.750  4.752  0.000    23.833     6.545
  20   6 C     -0.080  1.055  3.025  0.000    22.028     6.682
  21   6 C     -0.097  1.051  3.046  0.000    22.342     6.729
  22   6 C      0.290  1.041  2.669  0.000    22.083     7.694
  23   8 O     -0.500  1.755  4.745  0.000    23.791     6.540
  24   7 N     -0.292  1.269  4.022  0.000    27.519     7.791
  25   1 H      0.230  0.770  0.000  0.000     0.964     1.538
  26   1 H      0.083  0.917  0.000  0.000     1.952     2.185
  27   1 H      0.076  0.924  0.000  0.000     2.024     2.225
  28   1 H      0.076  0.924  0.000  0.000     2.025     2.225
  29   1 H      0.072  0.928  0.000  0.000     2.064     2.247
  30   1 H      0.076  0.924  0.000  0.000     2.024     2.225
  31   1 H      0.225  0.775  0.000  0.000     0.985     1.554
  32   1 H      0.237  0.763  0.000  0.000     0.937     1.516
  33   7 N     -0.179  1.258  3.921  0.000    24.883     7.409
  34   6 C      0.015  1.074  2.911  0.000    20.325     6.420
  35   6 C      0.285  1.038  2.677  0.000    22.171     7.711
  36   8 O     -0.481  1.743  4.738  0.000    23.377     6.482
  37   6 C     -0.082  1.053  3.029  0.000    22.059     6.686
  38   6 C      0.053  1.063  2.884  0.000    26.495     8.415
  39   7 N     -0.305  1.497  3.808  0.000    28.748     7.949
  40   6 C     -0.034  1.068  2.965  0.000    28.823     8.807
  41   6 C      0.089  1.061  2.850  0.000    25.901     8.340
  42   7 N     -0.091  1.242  3.849  0.000    23.018     7.126
  43   1 H      0.231  0.769  0.000  0.000     0.959     1.534
  44   1 H      0.101  0.899  0.000  0.000     1.779     2.086
  45   1 H      0.096  0.904  0.000  0.000     1.819     2.109
  46   1 H      0.058  0.942  0.000  0.000     2.219     2.330
  47   1 H      0.043  0.957  0.000  0.000     2.413     2.429
  48   1 H      0.056  0.944  0.000  0.000     2.242     2.341
  49   1 H      0.209  0.791  0.000  0.000     1.059     1.612
  50   7 N     -0.175  1.243  3.932  0.000    24.789     7.395
  51   6 C      0.019  1.069  2.912  0.000    20.261     6.410
  52   6 C      0.270  1.047  2.683  0.000    22.446     7.758
  53   8 O     -0.499  1.748  4.751  0.000    23.769     6.537
  54   6 C     -0.063  1.048  3.015  0.000    21.708     6.632
  55   6 C     -0.005  1.076  2.929  0.000    28.137     8.701
  56   6 C     -0.042  1.082  2.960  0.000    29.042     8.838
  57   6 C     -0.042  1.084  2.959  0.000    29.052     8.839
  58   6 C     -0.061  1.075  2.986  0.000    29.510     8.908
  59   6 C     -0.076  1.079  2.997  0.000    29.891     8.966
  60   6 C      0.149  1.043  2.808  0.000    24.767     8.156
  61   8 O     -0.421  1.711  4.709  0.000    21.250     6.223
  62   1 H      0.196  0.804  0.000  0.000     1.124     1.661
  63   1 H      0.102  0.898  0.000  0.000     1.764     2.077
  64   1 H      0.039  0.961  0.000  0.000     2.458     2.452
  65   1 H      0.067  0.933  0.000  0.000     2.117     2.276
  66   1 H      0.042  0.958  0.000  0.000     2.428     2.437
  67   1 H      0.033  0.967  0.000  0.000     2.548     2.496
  68   1 H      0.066  0.934  0.000  0.000     2.127     2.281
  69   1 H      0.053  0.947  0.000  0.000     2.284     2.363
  70   1 H      0.356  0.644  0.000  0.000     0.574     1.191
  71   7 N     -0.172  1.250  3.922  0.000    24.719     7.384
  72   6 C      0.038  1.053  2.909  0.000    19.938     6.358
  73   6 C      0.284  1.043  2.673  0.000    22.187     7.714
  74   8 O     -0.518  1.744  4.775  0.000    24.195     6.595
  75   6 C     -0.128  1.038  3.090  0.000    23.006     6.838
  76   1 H      0.222  0.778  0.000  0.000     0.998     1.565
  77   1 H      0.057  0.943  0.000  0.000     2.237     2.339
  78   1 H      0.068  0.932  0.000  0.000     2.107     2.270
  79   1 H      0.084  0.916  0.000  0.000     1.937     2.177
  80   1 H      0.061  0.939  0.000  0.000     2.188     2.313
  81   7 N     -0.184  1.251  3.933  0.000    24.983     7.423
  82   6 C      0.040  1.052  2.909  0.000    19.902     6.351
  83   6 C      0.274  1.043  2.683  0.000    22.365     7.744
  84   8 O     -0.512  1.741  4.771  0.000    24.048     6.575
  85   6 C     -0.101  1.071  3.030  0.000    22.433     6.743
  86   6 C      0.372  1.023  2.605  0.000    20.695     7.445
  87   8 O     -0.625  1.766  4.859  0.000    26.731     6.932
  88   8 O     -0.629  1.769  4.861  0.000    26.850     6.947
  89   1 H      0.234  0.766  0.000  0.000     0.947     1.525
  90   1 H      0.064  0.936  0.000  0.000     2.150     2.293
  91   1 H      0.053  0.947  0.000  0.000     2.286     2.365
  92   1 H      0.052  0.948  0.000  0.000     2.293     2.368
  93   7 N     -0.193  1.252  3.941  0.000    25.192     7.454
  94   6 C      0.024  1.060  2.916  0.000    20.174     6.396
  95   6 C      0.266  1.052  2.683  0.000    22.520     7.772
  96   8 O     -0.483  1.732  4.752  0.000    23.418     6.488
  97   6 C     -0.071  1.056  3.015  0.000    21.843     6.652
  98   6 C     -0.011  1.056  2.955  0.000    20.742     6.478
  99   6 C     -0.123  1.044  3.079  0.000    22.906     6.824
 100   6 C     -0.129  1.043  3.086  0.000    23.025     6.842
 101   1 H      0.215  0.785  0.000  0.000     1.033     1.592
 102   1 H      0.099  0.901  0.000  0.000     1.794     2.095
 103   1 H      0.039  0.961  0.000  0.000     2.458     2.452
 104   1 H      0.083  0.917  0.000  0.000     1.951     2.185
 105   1 H      0.017  0.983  0.000  0.000     2.773     2.604
 106   1 H      0.054  0.946  0.000  0.000     2.266     2.354
 107   1 H      0.035  0.965  0.000  0.000     2.517     2.481
 108   1 H      0.063  0.937  0.000  0.000     2.163     2.300
 109   1 H      0.061  0.939  0.000  0.000     2.185     2.312
 110   1 H      0.066  0.934  0.000  0.000     2.131     2.283
 111   1 H      0.031  0.969  0.000  0.000     2.566     2.505
 112   7 N     -0.180  1.246  3.934  0.000    24.903     7.412
 113   6 C      0.044  1.049  2.907  0.000    19.833     6.340
 114   6 C      0.306  1.043  2.651  0.000    21.801     7.646
 115   8 O     -0.493  1.741  4.751  0.000    23.619     6.516
 116   6 C      0.110  1.027  2.863  0.000    18.974     6.238
 117   8 O     -0.504  1.724  4.780  0.000    22.967     6.470
 118   1 H      0.205  0.795  0.000  0.000     1.080     1.628
 119   1 H      0.061  0.939  0.000  0.000     2.188     2.313
 120   1 H      0.008  0.992  0.000  0.000     2.929     2.676
 121   1 H      0.024  0.976  0.000  0.000     2.670     2.556
 122   1 H      0.345  0.655  0.000  0.000     0.600     1.217
 123   7 N     -0.191  1.263  3.928  0.000    25.151     7.448
 124   6 C      0.053  1.052  2.895  0.000    19.688     6.318
 125   6 C      0.268  1.050  2.682  0.000    22.478     7.764
 126   8 O     -0.494  1.739  4.755  0.000    23.659     6.522
 127   6 C     -0.096  1.077  3.020  0.000    22.342     6.730
 128   6 C      0.366  1.024  2.610  0.000    20.801     7.463
 129   8 O     -0.664  1.762  4.902  0.000    27.743     7.062
 130   8 O     -0.572  1.787  4.785  0.000    25.431     6.761
 131   1 H      0.189  0.811  0.000  0.000     1.162     1.689
 132   1 H      0.035  0.965  0.000  0.000     2.512     2.479
 133   1 H      0.036  0.964  0.000  0.000     2.507     2.476
 134   1 H      0.039  0.961  0.000  0.000     2.467     2.456
 135   7 N     -0.170  1.241  3.929  0.000    24.673     7.377
 136   6 C      0.025  1.059  2.916  0.000    20.152     6.392
 137   6 C      0.191  1.096  2.713  0.000    23.913     8.009
 138   8 O     -0.383  1.763  4.620  0.000    21.354     6.196
 139   6 C     -0.078  1.057  3.020  0.000    21.971     6.672
 140   6 C     -0.076  1.049  3.027  0.000    21.941     6.668
 141   6 C     -0.098  1.053  3.045  0.000    22.371     6.734
 142   6 C     -0.049  1.058  2.992  0.000    21.551     6.625
 143   7 N     -0.147  1.234  3.914  0.000    24.179     7.303
 144   1 H      0.207  0.793  0.000  0.000     1.072     1.622
 145   1 H      0.104  0.896  0.000  0.000     1.745     2.066
 146   1 H      0.063  0.937  0.000  0.000     2.164     2.300
 147   1 H      0.093  0.907  0.000  0.000     1.846     2.125
 148   1 H      0.041  0.959  0.000  0.000     2.433     2.439
 149   1 H      0.080  0.920  0.000  0.000     1.984     2.203
 150   1 H      0.101  0.899  0.000  0.000     1.779     2.086
 151   1 H      0.065  0.935  0.000  0.000     2.141     2.288
 152   1 H      0.100  0.900  0.000  0.000     1.785     2.089
 153   1 H      0.131  0.869  0.000  0.000     1.530     1.935
 154   1 H      0.308  0.692  0.000  0.000     0.690     1.301
 155   1 H      0.311  0.689  0.000  0.000     0.681     1.293
 156   1 H      0.288  0.712  0.000  0.000     0.749     1.356
 157   7 N     -0.385  1.315  4.070  0.000    29.971     8.131
 158   6 C      0.047  1.053  2.900  0.000    19.795     6.338
 159   6 C      0.204  1.093  2.702  0.000    23.659     7.966
 160   8 O     -0.390  1.759  4.631  0.000    21.485     6.214
 161   6 C     -0.073  1.056  3.017  0.000    21.882     6.658
 162   6 C      0.011  1.085  2.904  0.000    27.766     8.643
 163   6 C     -0.044  1.080  2.964  0.000    29.095     8.846
 164   6 C     -0.037  1.080  2.957  0.000    28.920     8.819
 165   6 C     -0.038  1.076  2.962  0.000    28.939     8.822
 166   6 C     -0.026  1.080  2.945  0.000    28.642     8.776
 167   6 C     -0.038  1.076  2.963  0.000    28.956     8.824
 168   1 H      0.174  0.826  0.000  0.000     1.247     1.749
 169   1 H      0.055  0.945  0.000  0.000     2.255     2.348
 170   1 H      0.068  0.932  0.000  0.000     2.104     2.269
 171   1 H      0.065  0.935  0.000  0.000     2.141     2.288
 172   1 H      0.049  0.951  0.000  0.000     2.328     2.386
 173   1 H      0.025  0.975  0.000  0.000     2.655     2.548
 174   1 H      0.032  0.968  0.000  0.000     2.552     2.498
 175   1 H      0.010  0.990  0.000  0.000     2.890     2.659
 176   1 H      0.018  0.982  0.000  0.000     2.757     2.596
 177   8 O     -0.653  1.753  4.900  0.000    26.489     6.947
 178   1 H      0.342  0.658  0.000  0.000     0.608     1.225
 179   1 H      0.340  0.660  0.000  0.000     0.612     1.228
 180   8 O     -0.625  1.746  4.878  0.000    25.781     6.853
 181   1 H      0.304  0.696  0.000  0.000     0.708     1.322
 182   1 H      0.306  0.694  0.000  0.000     0.704     1.318
 183   8 O     -0.647  1.755  4.892  0.000    26.349     6.928
 184   1 H      0.330  0.670  0.000  0.000     0.637     1.254
 185   1 H      0.311  0.689  0.000  0.000     0.689     1.304
 186   8 O     -0.631  1.753  4.878  0.000    25.948     6.875
 187   1 H      0.311  0.689  0.000  0.000     0.689     1.304
 188   1 H      0.333  0.667  0.000  0.000     0.629     1.246
 189   8 O     -0.628  1.756  4.873  0.000    25.878     6.866
 190   1 H      0.287  0.713  0.000  0.000     0.761     1.370
 191   1 H      0.325  0.675  0.000  0.000     0.650     1.267
 192   8 O     -0.642  1.762  4.880  0.000    26.211     6.910
 193   1 H      0.302  0.698  0.000  0.000     0.714     1.327
 194   1 H      0.327  0.673  0.000  0.000     0.645     1.261
 195   8 O     -0.637  1.760  4.876  0.000    26.083     6.893
 196   1 H      0.328  0.672  0.000  0.000     0.642     1.259
 197   1 H      0.300  0.700  0.000  0.000     0.721     1.334
 198   8 O     -0.669  1.755  4.914  0.000    26.906     7.001
 199   1 H      0.322  0.678  0.000  0.000     0.658     1.274
 200   1 H      0.338  0.662  0.000  0.000     0.617     1.233
 201   8 O     -0.609  1.749  4.860  0.000    25.413     6.804
 202   1 H      0.332  0.668  0.000  0.000     0.631     1.248
 203   1 H      0.309  0.691  0.000  0.000     0.695     1.310
 204   8 O     -0.662  1.770  4.892  0.000    26.732     6.978
 205   1 H      0.327  0.673  0.000  0.000     0.645     1.261
 206   1 H      0.308  0.692  0.000  0.000     0.698     1.312
 207   8 O     -0.637  1.758  4.879  0.000    26.094     6.894
 208   1 H      0.313  0.687  0.000  0.000     0.683     1.298
 209   1 H      0.302  0.698  0.000  0.000     0.715     1.328
 210   8 O     -0.643  1.762  4.881  0.000    26.230     6.912
 211   1 H      0.322  0.678  0.000  0.000     0.659     1.275
 212   1 H      0.285  0.715  0.000  0.000     0.768     1.376
 213   8 O     -0.639  1.755  4.884  0.000    26.141     6.901
 214   1 H      0.309  0.691  0.000  0.000     0.694     1.308
 215   1 H      0.307  0.693  0.000  0.000     0.700     1.314
 216   8 O     -0.623  1.758  4.865  0.000    25.732     6.846
 217   1 H      0.285  0.715  0.000  0.000     0.768     1.376
 218   1 H      0.321  0.679  0.000  0.000     0.662     1.278
 219   7 N     -0.397  1.314  4.082  0.000    30.284     8.173
 220   6 C      0.035  1.055  2.911  0.000    20.007     6.371
 221   6 C      0.289  1.052  2.659  0.000    22.096     7.698
 222   8 O     -0.492  1.738  4.753  0.000    23.598     6.513
 223   6 C      0.099  1.032  2.869  0.000    19.138     6.265
 224   8 O     -0.489  1.739  4.750  0.000    22.664     6.427
 225   1 H      0.171  0.829  0.000  0.000     1.268     1.764
 226   1 H      0.055  0.945  0.000  0.000     2.254     2.348
 227   1 H      0.021  0.979  0.000  0.000     2.724     2.581
 228   1 H      0.037  0.963  0.000  0.000     2.493     2.469
 229   1 H      0.338  0.662  0.000  0.000     0.618     1.235
 230   7 N     -0.188  1.266  3.922  0.000    25.066     7.436
 231   6 C      0.051  1.053  2.897  0.000    19.735     6.326
 232   6 C      0.196  1.086  2.718  0.000    23.816     7.993
 233   8 O     -0.375  1.751  4.625  0.000    21.195     6.172
 234   6 C     -0.089  1.079  3.010  0.000    22.203     6.709
 235   6 C      0.372  1.022  2.607  0.000    20.701     7.445
 236   8 O     -0.668  1.772  4.896  0.000    27.845     7.075
 237   8 O     -0.556  1.778  4.777  0.000    25.053     6.711
 238   1 H      0.204  0.796  0.000  0.000     1.086     1.633
 239   1 H      0.068  0.932  0.000  0.000     2.113     2.273
 240   1 H      0.029  0.971  0.000  0.000     2.605     2.524
 241   1 H      0.035  0.965  0.000  0.000     2.520     2.482
 242   1 H      0.185  0.815  0.000  0.000     1.188     1.707
 243   1 H      0.102  0.898  0.000  0.000     1.770     2.080
 244   1 H      0.196  0.804  0.000  0.000     1.124     1.661
 245   1 H      0.075  0.925  0.000  0.000     2.028     2.227
 246   1 H      0.208  0.792  0.000  0.000     1.068     1.619
 247   1 H      0.087  0.913  0.000  0.000     1.911     2.161

 Mol. C6AA /au·bohr⁶  :     568283.498761
 Mol. C8AA /au·bohr⁸  :   12475256.959624
 Mol. α(0) /au        :       1123.586768

 
molecular dipole:
                 x           y           z       tot (Debye)
 q only:     -129.995     -63.435    -126.161
   full:     -128.344     -63.862    -125.489     484.266
molecular quadrupole (traceless):
                xx          xy          yy          xz          yz          zz
 q only:    -1890.435   -4583.280    3861.983   -8381.018   -4066.563   -1971.549
  q+dip:    -1811.798   -4561.639    3750.269   -8217.994   -4049.005   -1938.470
   full:    -1811.868   -4561.512    3746.892   -8215.080   -4050.790   -1935.024
speedup  1.87
cpu  time for grad    8.00 s
wall time for grad    4.28 s

SCC energy    :    -420.5937346
rep           :       4.4488238
ES            :       2.4154960
AES           :      -0.1336079
AXC           :       0.0826014
disp          :      -0.3139631
XB            :       0.0000000
fix           :       0.0000000
Gborn         :       0.0000000
Gsasa         :       0.0000000
Ghb           :       0.0000000
Gshift        :       0.0000000
Gsolv         :      -0.8676487     -544.46
Etot ala COSMO:    -420.5937346
grad norm     :       0.4100608
total E       :    -416.1174622
atomizationE  :      68.7052568    43113.20
(atE without considering molecular charge,
 total energy contains solvation terms)
H-L gap (eV)  :          1.4196

------------------------------------------------------------------------
 * finished run on 2019/05/05 at 17:06:32.831     
------------------------------------------------------------------------
 total:
 * wall-time:     0 d,  0 h,  0 min,  4.918 sec
 *  cpu-time:     0 d,  0 h,  0 min,  8.890 sec
 * ratio c/w:     1.808 speedup
 SCF:
 * wall-time:     0 d,  0 h,  0 min,  4.646 sec
 *  cpu-time:     0 d,  0 h,  0 min,  8.680 sec
 * ratio c/w:     1.868 speedup

