      -----------------------------------------------------------      
     |                   =====================                   |     
     |                           x T B                           |     
     |                   =====================                   |     
     |                         S. Grimme                         |     
     |          Mulliken Center for Theoretical Chemistry        |     
     |                    University of Bonn                     |     
     |                 Version 6.0.1 (SAW181210)                 |     
      -----------------------------------------------------------      

   This program is distributed in the hope that it will be useful,
   but WITHOUT ANY WARRANTY; without even the implied warranty of
   MERCHANTABILITY or FITNESS FOR A PARTICULAR PURPOSE.
   
   FOR NON-COMMERCIAL, ACADEMIA USE ONLY.
   
   Cite this work as:
   S. Grimme, C. Bannwarth, P. Shushkov, J. Comput. Theory Chem., 2017,
   13, 1989-2009.
   C. Bannwarth, S. Ehlert and S. Grimme., ChemRxiv, 2018, preprint.
   http://doi.org/10.26434/chemrxiv.7246238.v1
   
   for sTDA-xTB:
   S. Grimme and C. Bannwarth, J. Chem. Phys., 2016, 145, 054103.
   
   in the mass-spec context:
   V. Asgeirsson, C. Bauer and S. Grimme, Chem. Sci., 2017, 8, 4879.
   
   if GBSA is used:
   P. Shushkov, F. März and S. Grimme, unpublished.
   
   for ANC optimizer:
   S. Grimme, unpublished.
   Rational Function algorithm used in ANCopt:
   F. Eckert, P. Pulay, H.-J. Werner, J. Comput. Chem., 1997, 18, 1473.
   
   with help from (in alphabetical order)
   C. Bannwarth, F. Bohle, G. Brandenburg, E. Caldeweyher, M. Checinski,
   S. Dohm, S. Ehlert, S. Ehrlich, F. März, H. Neugebauer, J. Pisarek,
   P. Pracht, P. Shushkov, and S. Spicher.
   
 * started run on 2019/05/05 at 18:41:40.733     
========================================================================
 # omp threads = 2
========================================================================
number of atoms            : 319
number of electrons        : 900
charge                     : -2
spin                       : .0
first test random number   : .3552

########################################################################
# WARNING! Please study the warnings concerning your input carefully
#  - Process number higher than OMP_NUM_THREADS, I hope you know what you are doing.
########################################################################

           ------------------------------------------------- 
          |                 G F N 2 - x T B                 |
          | Geometry, Frequencies, Noncovalent interactions |
          |            JCTC 2018 parametrisation            |
           ------------------------------------------------- 
 
      method parameters     
 k(s)        :  1.8500
 k(p)        :  2.2300
 k(d)        :  2.2300
 k(f)        :  2.0000
 kEN (H0ij)  : -2.0000
 D4 a1       :  0.5200
 D4 a2       :  5.0000
 D4 s6       :  1.0000
 D4 s8       :  2.7000
 D4 s9       :  5.0000
 alphaj      :  2.0000

 Solvent             : h2o
 Using internal parameter file: .param_gbsa2_h2o
 Gsolv ref. state (COSMO-RS): gsolv [1 M gas/solution]
 temperature (mdtemp)       :    298.150000000000     
 dielectric constant        :    80.2000000000000     
 rho                        :    1.00000000000000     
 mass                       :    18.0000000000000     
 surface tension            :    15.5689454083859     
 probe radius               :   0.975313790000000     
 vdW radii scaling          :    1.00000000000000     
 Gshift (Eh)                :   1.857443126794793E-003
 c1                         :    1.55243817000000     
 soset                      :   0.130326360000000     
 HB correction              :  T

            Z     q(EN)     CN     RAES       Cart. coordinates
     1  N   5.0   -0.15    3.47    2.06    -0.67438    45.31206    18.03443
     2  C   4.0    0.03    4.50    4.53     0.57908    43.94041    20.06404
     3  C   4.0    0.14    3.43    3.09    -0.36657    41.23075    20.27103
     4  O   6.0   -0.30    1.25    1.80    -2.66262    40.79594    19.64790
     5  C   4.0   -0.04    4.38    4.34    -0.18581    45.46582    22.43130
     6  C   4.0   -0.05    4.31    4.21    -0.84413    47.95509    21.48973
     7  C   4.0   -0.02    4.30    4.19    -2.07064    47.50905    18.95945
     8  H   1.0    0.03    1.05    1.44     2.60336    43.96305    19.78790
     9  H   1.0    0.05    1.03    1.43    -1.78947    44.54441    23.35572
    10  H   1.0    0.04    1.01    1.43     1.41594    45.51662    23.78889
    11  H   1.0    0.03    1.01    1.43    -2.17265    48.96649    22.77672
    12  H   1.0    0.03    1.02    1.43     0.82965    49.19257    21.26472
    13  H   1.0    0.04    1.02    1.43    -4.07355    47.08836    19.15745
    14  H   1.0    0.02    1.02    1.43    -1.81977    49.12897    17.69284
    15  N   5.0   -0.14    3.42    2.03     1.10151    39.55760    21.04718
    16  C   4.0    0.05    4.38    4.35     0.26951    36.93091    21.41843
    17  C   4.0    0.09    3.32    3.06    -1.05866    36.44490    23.93223
    18  O   6.0   -0.29    1.12    1.80     0.02960    37.07742    25.95752
    19  C   4.0   -0.02    4.34    4.27     2.34347    35.02945    21.15293
    20  C   4.0    0.15    3.33    3.06     1.67454    32.58367    22.40934
    21  O   6.0   -0.30    1.22    1.80    -0.58613    31.63068    22.07410
    22  N   5.0   -0.18    3.19    1.95     3.28851    31.54094    23.79168
    23  H   1.0    0.11    1.09    1.44     3.00395    39.85980    21.55850
    24  H   1.0    0.06    1.06    1.44    -1.20156    36.66818    19.94088
    25  H   1.0    0.05    1.02    1.43     2.78229    34.72245    19.15359
    26  H   1.0    0.06    1.02    1.43     4.07921    35.76381    22.09411
    27  H   1.0    0.09    1.02    1.43     3.02749    29.81308    24.63708
    28  H   1.0    0.09    1.03    1.43     5.08071    32.30802    24.05491
    29  N   5.0   -0.19    3.14    1.94     2.28895    32.24740    29.86167
    30  C   4.0    0.03    4.17    3.95     4.98754    32.74925    30.46123
    31  C   4.0    0.07    3.19    3.03     5.50985    32.66810    33.29827
    32  O   6.0   -0.28    1.09    1.80     4.47522    34.42597    34.73587
    33  C   4.0   -0.02    4.27    4.14     5.94503    35.22484    29.25524
    34  C   4.0   -0.01    3.52    3.12     8.61708    35.97372    30.07554
    35  C   4.0   -0.04    3.46    3.10     9.02547    38.21452    31.36914
    36  C   4.0   -0.03    3.46    3.10    10.66391    34.45932    29.48953
    37  C   4.0   -0.04    3.44    3.09    11.51403    38.91641    32.13110
    38  C   4.0   -0.03    3.46    3.10    13.13614    35.21185    30.22731
    39  C   4.0    0.06    3.45    3.10    13.46508    37.36715    31.54750
    40  O   6.0   -0.26    2.14    1.84    15.92114    38.08432    32.23732
    41  H   1.0    0.10    1.02    1.43     1.61017    33.35983    28.39823
    42  H   1.0    0.04    1.05    1.44     6.07332    31.15434    29.66523
    43  H   1.0    0.06    1.03    1.43     5.92693    34.99198    27.21718
    44  H   1.0    0.06    1.02    1.43     4.63557    36.74961    29.77942
    45  H   1.0    0.06    1.03    1.43     7.47910    39.41173    31.84271
    46  H   1.0    0.06    1.03    1.43    10.42066    32.72746    28.47288
    47  H   1.0    0.07    1.03    1.43    11.75974    40.65456    33.16554
    48  H   1.0    0.08    1.05    1.44    14.68021    33.95730    29.76678
    49  H   1.0    0.16    1.10    1.44    15.83401    39.40950    33.47692
    50  N   5.0   -0.18    3.27    1.97    12.19377    31.88670    36.50525
    51  C   4.0    0.03    4.36    4.32    14.86107    31.68671    37.19442
    52  C   4.0    0.14    3.47    3.10    15.58390    33.94229    38.79522
    53  O   6.0   -0.27    1.27    1.80    13.80352    35.51217    39.38833
    54  C   4.0   -0.04    4.29    4.17    16.50417    31.57137    34.81812
    55  C   4.0    0.23    3.16    3.03    15.42091    29.80244    32.83026
    56  O   6.0   -0.30    1.18    1.80    14.36603    27.76041    33.62909
    57  O   6.0   -0.31    1.19    1.80    15.66910    30.41062    30.54519
    58  H   1.0    0.10    1.02    1.43    11.77995    33.51022    35.51497
    59  H   1.0    0.04    1.06    1.44    15.08170    29.93758    38.24785
    60  H   1.0    0.06    1.02    1.43    16.64541    33.48843    34.01316
    61  H   1.0    0.04    1.02    1.43    18.39632    30.90447    35.35868
    62  N   5.0   -0.15    3.55    2.11    17.78676    34.19485    39.49288
    63  C   4.0    0.03    4.54    4.60    18.55680    36.02712    41.43233
    64  C   4.0    0.15    3.47    3.10    18.73299    38.57495    40.06725
    65  O   6.0   -0.28    1.22    1.80    17.75251    40.54947    41.19665
    66  C   4.0   -0.03    4.25    4.10    21.06303    35.37513    42.75880
    67  C   4.0   -0.08    4.10    3.81    21.09891    36.55662    45.39317
    68  C   4.0   -0.09    4.15    3.89    21.37168    32.50835    42.92790
    69  H   1.0    0.06    1.06    1.44    19.28737    33.00662    38.91105
    70  H   1.0    0.06    1.06    1.44    17.04874    36.05827    42.82805
    71  H   1.0    0.04    1.06    1.44    22.62818    36.15078    41.66424
    72  H   1.0    0.03    1.00    1.43    22.86469    36.09179    46.32909
    73  H   1.0    0.05    1.00    1.43    20.92109    38.59789    45.24088
    74  H   1.0    0.03    1.00    1.43    19.53537    35.83852    46.51282
    75  H   1.0    0.03    1.00    1.43    23.14533    32.06684    43.87376
    76  H   1.0    0.03    1.00    1.43    19.80666    31.69552    43.97311
    77  H   1.0    0.03    1.01    1.43    21.42325    31.68364    41.05897
    78  N   5.0   -0.13    3.47    2.06    19.83082    38.68271    38.01715
    79  C   4.0    0.03    4.34    4.28    20.47028    40.99938    36.61086
    80  C   4.0    0.16    3.51    3.12    18.12454    42.69491    36.42114
    81  O   6.0   -0.30    1.31    1.80    16.10514    41.91779    35.61021
    82  C   4.0   -0.07    4.10    3.80    21.50194    40.35446    33.99855
    83  H   1.0    0.07    1.06    1.44    20.49038    37.06115    37.07643
    84  H   1.0    0.05    1.06    1.44    21.91683    42.02378    37.69272
    85  H   1.0    0.05    1.01    1.43    21.91403    42.06621    32.99156
    86  H   1.0    0.04    1.00    1.43    23.23880    39.25754    34.19781
    87  H   1.0    0.06    1.00    1.43    20.11720    39.25608    32.93861
    88  N   5.0   -0.09    3.68    2.25    18.44624    45.17928    37.05343
    89  C   4.0    0.04    4.61    4.67    16.32807    46.90340    36.83149
    90  C   4.0    0.16    3.43    3.09    15.53215    47.23850    34.05221
    91  O   6.0   -0.32    1.37    1.80    17.12097    46.99382    32.35005
    92  C   4.0   -0.04    4.37    4.34    17.44057    49.40261    37.87289
    93  C   4.0   -0.04    4.31    4.22    20.06990    49.20818    37.51902
    94  C   4.0   -0.01    4.38    4.34    20.72968    46.43378    37.93703
    95  H   1.0    0.05    1.05    1.44    14.72638    46.23868    37.91806
    96  H   1.0    0.04    1.01    1.43    16.56448    51.04049    36.85297
    97  H   1.0    0.04    1.02    1.43    16.89640    49.55904    39.89162
    98  H   1.0    0.05    1.01    1.43    20.67158    49.78758    35.58283
    99  H   1.0    0.04    1.00    1.43    21.16248    50.42223    38.88715
   100  H   1.0    0.05    1.02    1.43    22.39239    45.83936    36.85851
   101  H   1.0    0.05    1.03    1.43    21.03486    46.03875    39.92040
   102  N   5.0   -0.14    3.44    2.04    13.23764    47.86401    33.60875
   103  C   4.0    0.04    4.44    4.45    12.23300    48.39201    31.08417
   104  C   4.0    0.14    3.44    3.09    13.14275    50.95690    30.16567
   105  O   6.0   -0.30    1.21    1.80    12.56588    52.92343    31.50853
   106  C   4.0   -0.04    4.32    4.24     9.35849    48.20540    31.09523
   107  C   4.0   -0.01    3.56    3.14     8.21085    48.36533    28.51052
   108  C   4.0   -0.04    3.45    3.10     7.31074    46.20696    27.32009
   109  C   4.0   -0.04    3.47    3.10     7.91290    50.71615    27.32938
   110  C   4.0   -0.04    3.37    3.07     6.14537    46.36642    25.01271
   111  C   4.0   -0.05    3.35    3.07     6.73029    50.89871    24.99440
   112  C   4.0   -0.05    3.38    3.07     5.83889    48.73256    23.84858
   113  H   1.0    0.07    1.05    1.44    11.92175    48.18273    35.04522
   114  H   1.0    0.06    1.07    1.44    13.02363    46.96686    29.78922
   115  H   1.0    0.04    1.03    1.43     8.83493    46.37869    31.94457
   116  H   1.0    0.05    1.03    1.43     8.62299    49.75407    32.26544
   117  H   1.0    0.05    1.03    1.43     7.46259    44.38424    28.25414
   118  H   1.0    0.06    1.03    1.43     8.53809    52.40675    28.27519
   119  H   1.0    0.06    1.03    1.43     5.47969    44.69512    24.08683
   120  H   1.0    0.04    1.03    1.43     6.51012    52.71107    24.09771
   121  H   1.0    0.04    1.03    1.43     4.96050    48.84495    22.03676
   122  N   5.0   -0.13    3.42    2.03    14.43707    51.04611    28.16633
   123  C   4.0    0.04    4.39    4.36    15.03775    53.33059    26.70047
   124  C   4.0    0.13    3.46    3.10    15.72218    52.65072    23.95500
   125  O   6.0   -0.30    1.25    1.80    17.33204    50.85075    23.54788
   126  C   4.0   -0.03    4.23    4.05    17.06239    54.92548    28.05356
   127  C   4.0   -0.03    4.23    4.05    18.78865    56.33077    26.23841
   128  C   4.0    0.23    3.10    3.02    19.08771    59.14825    26.74098
   129  O   6.0   -0.31    1.15    1.80    21.29623    60.02756    27.09574
   130  O   6.0   -0.29    1.16    1.80    17.07204    60.47600    26.71397
   131  H   1.0    0.10    1.07    1.44    15.17806    49.42256    27.33145
   132  H   1.0    0.05    1.06    1.44    13.30576    54.46530    26.58754
   133  H   1.0    0.06    1.03    1.43    16.12281    56.33078    29.23521
   134  H   1.0    0.05    1.02    1.43    18.20756    53.67626    29.26253
   135  H   1.0    0.05    1.05    1.44    20.66953    55.45139    26.36881
   136  H   1.0    0.06    1.06    1.44    18.10598    56.10261    24.29626
   137  N   5.0   -0.14    3.45    2.05    14.68077    53.83436    22.18906
   138  C   4.0    0.03    4.55    4.60    15.60449    53.72293    19.54998
   139  C   4.0    0.13    3.43    3.09    16.74139    56.24359    18.69448
   140  O   6.0   -0.30    1.23    1.80    15.58550    58.26504    19.31880
   141  C   4.0   -0.02    4.29    4.17    13.50488    52.86861    17.76632
   142  C   4.0   -0.08    4.18    3.96    14.46605    52.97185    15.10889
   143  C   4.0   -0.08    4.14    3.88    12.68410    50.20504    18.43853
   144  H   1.0    0.08    1.06    1.44    13.22425    55.08914    22.47129
   145  H   1.0    0.05    1.08    1.44    17.14185    52.36048    19.55639
   146  H   1.0    0.04    1.05    1.44    11.88630    54.14585    17.96827
   147  H   1.0    0.03    1.00    1.43    13.00414    52.34807    13.80896
   148  H   1.0    0.05    1.01    1.43    15.01819    54.89895    14.60600
   149  H   1.0    0.04    1.00    1.43    16.10549    51.75121    14.88570
   150  H   1.0    0.03    1.00    1.43    11.20675    49.60572    17.14362
   151  H   1.0    0.04    1.00    1.43    14.29428    48.93847    18.29462
   152  H   1.0    0.05    1.00    1.43    11.97054    50.15228    20.36065
   153  N   5.0   -0.14    3.41    2.03    18.80456    56.25504    17.42698
   154  C   4.0    0.03    4.29    4.18    20.20670    58.57999    16.75903
   155  C   4.0    0.05    3.18    3.03    20.60586    58.87326    13.90896
   156  O   6.0   -0.30    1.10    1.80    21.57943    57.04959    12.66100
   157  C   4.0   -0.04    4.26    4.13    22.72189    58.73687    18.16879
   158  C   4.0   -0.04    4.17    3.94    22.47352    59.21807    21.00605
   159  C   4.0   -0.01    4.22    4.05    25.00825    59.06316    22.38159
   160  N   5.0   -0.15    3.44    2.04    26.41027    56.76720    21.71477
   161  C   4.0    0.10    3.36    3.07    25.97393    54.51912    22.54827
   162  N   5.0   -0.18    3.36    2.00    24.24591    54.18750    24.40483
   163  N   5.0   -0.18    3.27    1.97    27.17239    52.56495    21.82131
   164  H   1.0    0.08    1.05    1.44    19.69481    54.60748    16.86811
   165  H   1.0    0.05    1.06    1.44    18.96789    60.15412    17.34257
   166  H   1.0    0.05    1.03    1.43    23.72123    56.94950    17.90092
   167  H   1.0    0.03    1.03    1.43    23.82481    60.27127    17.33970
   168  H   1.0    0.05    1.03    1.43    21.66894    61.08446    21.33170
   169  H   1.0    0.05    1.03    1.43    21.17110    57.83581    21.82298
   170  H   1.0    0.03    1.02    1.43    26.16451    60.69593    21.90313
   171  H   1.0    0.06    1.04    1.43    24.68300    59.05947    24.39255
   172  H   1.0    0.06    1.05    1.44    27.75476    56.99087    20.29692
   173  H   1.0    0.08    1.05    1.44    23.27059    55.75272    25.05146
   174  H   1.0    0.13    1.13    1.45    23.88680    52.49763    25.13788
   175  H   1.0    0.07    1.02    1.43    28.53646    52.67831    20.40898
   176  H   1.0    0.09    1.02    1.43    26.85497    50.76348    22.51230
   177  N   5.0   -0.18    3.22    1.96    20.93136    47.35802    15.42465
   178  C   4.0    0.03    4.30    4.19    19.34645    46.52517    17.53546
   179  C   4.0    0.15    3.39    3.08    20.90889    45.59150    19.82928
   180  O   6.0   -0.25    1.23    1.80    22.87484    44.17294    19.35007
   181  C   4.0   -0.03    4.35    4.28    17.50801    44.48680    16.67916
   182  C   4.0   -0.02    3.63    3.18    16.81950    44.64973    13.91204
   183  C   4.0   -0.05    3.49    3.11    14.88375    46.15467    13.14215
   184  C   4.0   -0.03    3.51    3.12    18.06898    43.14834    12.18214
   185  C   4.0   -0.05    3.40    3.08    14.22203    46.24872    10.60875
   186  C   4.0   -0.04    3.39    3.08    17.39900    43.24044     9.65043
   187  C   4.0   -0.05    3.39    3.08    15.53577    44.78978     8.87948
   188  H   1.0    0.09    1.03    1.43    21.23253    45.95583    14.05368
   189  H   1.0    0.04    1.05    1.44    18.31137    48.20302    18.18640
   190  H   1.0    0.08    1.05    1.44    18.36666    42.65118    17.04111
   191  H   1.0    0.04    1.04    1.43    15.80753    44.63506    17.79230
   192  H   1.0    0.04    1.03    1.43    13.86428    47.31320    14.50325
   193  H   1.0    0.07    1.03    1.43    19.55761    41.88938    12.82303
   194  H   1.0    0.04    1.03    1.43    12.71626    47.48087    10.00219
   195  H   1.0    0.05    1.02    1.43    18.45323    42.07636     8.30751
   196  H   1.0    0.04    1.02    1.43    15.01463    44.88886     6.87402
   197  N   5.0   -0.13    3.38    2.01    20.23025    46.13058    22.03393
   198  C   4.0    0.05    4.41    4.40    21.74131    45.43482    24.31079
   199  C   4.0    0.16    3.43    3.09    22.04584    42.53335    24.48166
   200  O   6.0   -0.29    1.23    1.80    24.33591    41.67727    24.48468
   201  C   4.0   -0.03    4.28    4.16    20.68683    46.50551    26.80007
   202  C   4.0    0.15    3.22    3.04    22.12370    48.80723    27.73773
   203  O   6.0   -0.32    1.33    1.80    23.99790    49.67178    26.45720
   204  N   5.0   -0.19    3.17    1.95    21.38280    49.84586    29.83534
   205  H   1.0    0.10    1.06    1.44    18.64197    47.24009    22.46173
   206  H   1.0    0.08    1.07    1.44    23.60466    46.24672    24.00032
   207  H   1.0    0.07    1.04    1.43    18.73623    47.05683    26.51449
   208  H   1.0    0.05    1.03    1.43    20.79190    45.05383    28.26618
   209  H   1.0    0.09    1.03    1.43    22.26133    51.39114    30.56125
   210  H   1.0    0.10    1.05    1.44    19.87674    49.10607    30.82744
   211  N   5.0   -0.13    3.46    2.05    20.23573    41.10441    24.78401
   212  C   4.0    0.04    4.40    4.39    20.27166    38.35551    24.21881
   213  C   4.0    0.16    3.48    3.11    19.48641    37.94498    21.48820
   214  O   6.0   -0.28    1.28    1.80    18.51704    39.80121    20.28545
   215  C   4.0    0.03    4.16    3.92    18.57300    36.85014    26.01447
   216  O   6.0   -0.26    2.15    1.85    17.77741    34.56175    24.90702
   217  H   1.0    0.08    1.09    1.44    18.41954    41.79051    25.12325
   218  H   1.0    0.06    1.06    1.44    22.21475    37.73193    24.47511
   219  H   1.0    0.04    1.01    1.43    19.57136    36.55375    27.80448
   220  H   1.0    0.04    1.05    1.44    16.89949    37.97197    26.46055
   221  H   1.0    0.12    1.01    1.43    16.71346    33.66796    26.15879
   222  N   5.0   -0.14    3.57    2.14    19.69878    35.78995    20.50476
   223  C   4.0    0.04    4.48    4.50    18.66596    35.22330    17.99838
   224  C   4.0    0.14    3.46    3.10    15.93148    34.48657    18.44358
   225  O   6.0   -0.29    1.21    1.80    14.27304    35.00769    16.74088
   226  C   4.0   -0.05    4.21    4.01    20.20522    33.19572    16.61672
   227  C   4.0   -0.04    4.13    3.86    22.72275    34.25909    15.58634
   228  C   4.0    0.24    3.08    3.02    22.42093    36.54307    13.71638
   229  O   6.0   -0.30    1.16    1.80    21.82745    36.12649    11.53675
   230  O   6.0   -0.28    1.14    1.80    22.85990    38.79929    14.63593
   231  H   1.0    0.08    1.06    1.44    20.61234    34.28925    21.37900
   232  H   1.0    0.08    1.07    1.44    18.76833    36.91927    16.84962
   233  H   1.0    0.04    1.02    1.43    20.60989    31.63712    17.92958
   234  H   1.0    0.05    1.03    1.43    19.09096    32.52058    15.03129
   235  H   1.0    0.05    1.01    1.43    23.92758    34.84726    17.17829
   236  H   1.0    0.04    1.03    1.43    23.67535    32.75798    14.55291
   237  N   5.0   -0.14    3.58    2.14    15.39247    33.40334    20.48929
   238  C   4.0    0.03    4.41    4.39    12.89040    32.34690    21.08002
   239  C   4.0    0.15    3.43    3.09    11.24249    34.41227    22.30721
   240  O   6.0   -0.31    1.26    1.80     9.24947    33.72105    23.43689
   241  C   4.0   -0.03    4.25    4.10    13.11680    29.95436    22.75302
   242  C   4.0    0.05    3.78    3.31    14.82339    27.92294    21.69340
   243  N   5.0   -0.16    2.62    1.91    16.53402    26.68132    23.22469
   244  C   4.0   -0.02    3.66    3.21    15.00872    26.97729    19.39568
   245  C   4.0    0.05    3.68    3.22    17.69510    25.04035    21.65328
   246  N   5.0   -0.11    3.53    2.10    16.85890    25.21383    19.55822
   247  H   1.0    0.10    1.12    1.45    16.65744    33.18043    21.95136
   248  H   1.0    0.06    1.06    1.44    12.02277    31.81773    19.28641
   249  H   1.0    0.06    1.02    1.43    13.81691    30.51909    24.63263
   250  H   1.0    0.05    1.03    1.43    11.21259    29.21690    22.98572
   251  H   1.0    0.04    0.98    1.43    13.90051    27.50434    17.65412
   252  H   1.0    0.03    1.03    1.43    19.15011    23.81510    22.37857
   253  H   1.0    0.05    0.99    1.43    17.41704    24.11623    17.85844
   254  N   5.0   -0.14    3.56    2.12    11.90659    36.68034    22.17635
   255  C   4.0    0.03    4.45    4.46    10.37525    38.74604    23.26261
   256  C   4.0    0.14    3.43    3.09     8.22300    39.24045    21.42424
   257  O   6.0   -0.32    1.26    1.80     6.26406    40.46281    22.26210
   258  C   4.0   -0.04    4.28    4.15    11.90763    41.16312    23.69773
   259  C   4.0   -0.03    4.27    4.15    13.75767    40.91667    25.84550
   260  C   4.0    0.13    3.25    3.04    14.80209    43.37971    26.82958
   261  O   6.0   -0.30    1.22    1.80    14.61530    45.40919    25.51843
   262  N   5.0   -0.19    3.23    1.96    15.92735    43.39643    28.95236
   263  H   1.0    0.09    1.07    1.44    13.52151    37.31285    21.24504
   264  H   1.0    0.06    1.06    1.44     9.64197    38.12607    25.07286
   265  H   1.0    0.06    1.03    1.43    12.96419    41.62366    21.97867
   266  H   1.0    0.06    1.04    1.43    10.62687    42.69762    24.16311
   267  H   1.0    0.04    1.03    1.43    12.93731    39.89869    27.46040
   268  H   1.0    0.04    1.08    1.44    15.34217    39.83447    25.13618
   269  H   1.0    0.09    1.03    1.43    16.04849    41.76870    30.05015
   270  H   1.0    0.12    1.09    1.44    16.60482    44.97060    29.79414
   271  N   5.0   -0.13    3.47    2.06     8.44637    38.51210    19.15957
   272  C   4.0    0.03    4.37    4.32     7.03035    39.43492    16.94704
   273  C   4.0    0.06    3.24    3.04     5.77017    37.34125    15.37096
   274  O   6.0   -0.28    1.10    1.80     6.76012    35.11551    15.24106
   275  C   4.0   -0.02    4.27    4.14     8.76531    41.13036    15.32279
   276  C   4.0   -0.08    4.19    3.99     8.47687    40.49387    12.56963
   277  C   4.0   -0.08    4.12    3.84     8.18508    43.87870    15.81612
   278  H   1.0    0.10    1.08    1.44     9.73880    37.11987    18.65342
   279  H   1.0    0.05    1.06    1.44     5.45100    40.55097    17.73053
   280  H   1.0    0.05    1.06    1.44    10.74403    40.76689    15.84139
   281  H   1.0    0.04    1.01    1.43     9.68143    41.69499    11.43723
   282  H   1.0    0.06    1.01    1.43     8.99403    38.51697    12.26095
   283  H   1.0    0.03    1.01    1.43     6.53268    40.77156    11.98585
   284  H   1.0    0.03    1.01    1.43     9.38187    45.04783    14.64538
   285  H   1.0    0.03    1.01    1.43     6.22257    44.25061    15.37173
   286  H   1.0    0.04    1.00    1.43     8.52917    44.32769    17.80895
   287  N   5.0   -0.20    3.14    1.94    31.61862    42.39247    34.49034
   288  C   4.0    0.03    4.46    4.49    30.15536    44.59869    33.47731
   289  C   4.0    0.10    3.27    3.05    28.87138    45.92577    35.85030
   290  O   6.0   -0.29    1.01    1.80    27.12873    44.15637    37.27893
   291  C   4.0   -0.03    4.22    4.03    28.93490    44.26732    31.17188
   292  C   4.0   -0.05    4.28    4.17    27.29830    45.92386    30.41122
   293  C   4.0   -0.07    4.18    3.96    30.37108    43.48151    29.22660
   294  H   1.0    0.06    0.95    1.42    31.31380    40.61309    33.40964
   295  H   1.0    0.03    1.03    1.43    31.80028    46.05260    33.25895
   296  H   1.0    0.05    0.91    1.42    27.33093    42.53348    31.69593
   297  H   1.0    0.06    1.04    1.43    26.18865    45.81235    28.86369
   298  H   1.0    0.05    0.94    1.42    26.04495    46.90446    31.98716
   299  H   1.0    0.04    0.87    1.42    28.66178    47.79485    29.92234
   300  H   1.0    0.05    0.93    1.42    29.22526    42.55559    27.53349
   301  H   1.0    0.03    1.04    1.43    31.88872    44.58084    28.76395
   302  H   1.0    0.03    0.79    1.41    31.44829    41.37057    29.80035
   303  N   5.0   -0.15    3.19    1.95    28.59991    48.36609    35.68852
   304  C   4.0    0.01    4.02    3.65    27.10677    49.86114    37.90581
   305  C   4.0    0.01    2.77    3.01    28.93444    49.53920    40.10841
   306  O   6.0   -0.31    0.68    1.80    27.79093    51.81110    42.23801
   307  H   1.0    0.06    1.03    1.43    29.80161    49.12533    34.25901
   308  H   1.0    0.05    1.06    1.44    26.71407    51.42203    37.10286
   309  H   1.0    0.05    1.05    1.44    25.46316    48.83529    38.10148
   310  H   1.0    0.08    1.06    1.44    33.28232    42.74123    34.43533
   311  H   1.0    0.06    1.02    1.43    30.31646    48.25419    40.00934
   312  H   1.0    0.07    1.12    1.45     0.48323    45.83632    16.90409
   313  H   1.0    0.06    1.04    1.43    -2.76636    35.63608    23.95772
   314  H   1.0    0.09    1.06    1.44     2.10245    30.62045    29.40251
   315  H   1.0    0.05    1.03    1.43     6.60863    31.30965    34.01825
   316  H   1.0    0.11    1.09    1.44    11.75896    30.56380    35.52882
   317  H   1.0    0.04    1.04    1.43    20.10653    60.47811    13.04513
   318  H   1.0    0.09    1.07    1.44    20.19256    48.67727    14.64600
   319  H   1.0    0.04    1.04    1.43     4.16820    37.69826    14.43432

  Z AO/shell   Hii/eV     exponent
  1     Wed Apr 25 08:07:45 CEST 2018   EN: 2.200 GM2: 0.406  GM3: 0.0800  RAES: 1.40
     1s    -10.707211    1.230000
  6     Wed Apr 25 08:07:45 CEST 2018   EN: 2.550 GM2: 0.538  GM3: 0.1500  RAES: 3.00
     2s    -13.970922    2.096432
     2p    -10.063292    1.800000
  7     Wed Apr 25 08:07:45 CEST 2018   EN: 3.040 GM2: 0.461  GM3:-0.0640  RAES: 1.90
     2s    -16.686243    2.339881
     2p    -12.523956    2.014332
  8     Wed Apr 25 08:07:45 CEST 2018   EN: 3.440 GM2: 0.452  GM3:-0.0517  RAES: 1.80
     2s    -20.229985    2.439742
     2p    -15.503117    2.137023
 no old-style atom pair restraining (fixing) potential

molecular fragmentation (1/2 indicates fragments):
111111111111111111111111111122222222222222222222222222222222222222222222
222222222222222222222222222222222222222222222222222222222222222222222222
222222222222222222222222222222222222222222222222222222222222222222222222
222222222222222222222222222222222222222222222222222222222222222222222222
2222222222222222222222211222222
# atoms in fragment 1/2:    30   289
 fragment masses (1/2) :      213.24     2081.31
CMA distance (Bohr)    :  17.829
constraining FC (au)   :  0.0500
           ------------------------------------------------- 
          |        Self-Consistent Charge Iterations        |
           ------------------------------------------------- 

 Ncao       : 808
 Nao        : 808
 Nshell     : 482
 Nel        : 900
 T(el)      :   500.0
 intcut     :    35.0
 scfconv/Eh :  0.100E-06
   qconv/e  :  0.100E-04
 intneglect :  0.100E-08
 broydamp   :      0.400
 iter      E             dE          RMSdq      gap      omega  full diag
   1   -514.4558757 -0.514456E+03  0.502E+00    1.66       0.0  T
   2   -515.4058189 -0.949943E+00  0.272E+00    0.36       1.0  T
   3   -515.8867192 -0.480900E+00  0.207E+00    0.79       1.0  T
   4   -514.9265824  0.960137E+00  0.244E+00    0.14       1.0  T
   5   -516.5642557 -0.163767E+01  0.849E-01    0.86       1.0  T
   6   -516.1149632  0.449292E+00  0.121E+00    0.13       1.0  T
   7   -516.6330103 -0.518047E+00  0.469E-01    0.72       1.0  T
   8   -516.6750970 -0.420867E-01  0.245E-01    0.24       1.0  T
   9   -516.6561390  0.189581E-01  0.286E-01    0.43       1.0  T
  10   -516.6036281  0.525108E-01  0.429E-01    0.04       1.0  T
  11   -516.6712511 -0.676230E-01  0.200E-01    0.38       1.0  T
  12   -516.6749851 -0.373399E-02  0.166E-01    0.30       1.0  T
  13   -516.6785076 -0.352255E-02  0.124E-01    0.25       1.0  T
  14   -516.6810774 -0.256974E-02  0.843E-02    0.17       1.0  T
  15   -516.6812394 -0.162004E-03  0.812E-02    0.17       1.0  T
  16   -516.6823890 -0.114963E-02  0.516E-02    0.17       1.0  T
  17   -516.6828671 -0.478050E-03  0.360E-02    0.19       1.0  T
  18   -516.6832560 -0.388892E-03  0.169E-02    0.19       1.0  T
  19   -516.6833633 -0.107385E-03  0.565E-03    0.19       1.0  T
  20   -516.6833746 -0.112525E-04  0.210E-03    0.20       2.7  T
  21   -516.6833726  0.203447E-05  0.304E-03    0.20       1.8  T
  22   -516.6833757 -0.314394E-05  0.887E-04    0.20       6.3  T
  23   -516.6833759 -0.200753E-06  0.480E-04    0.20      11.7  T
  24   -516.6833760 -0.597066E-07  0.283E-04    0.20      19.8  T
  25   -516.6833760 -0.287259E-07  0.419E-05    0.20     133.6  T
  26   -516.6833760  0.202044E-08  0.817E-05    0.20      68.6  T
speedup  1.90
cpu  time for SCC   20.14 s
wall time for SCC   10.62 s

   *** convergence criteria satisfied after 26 iterations ***

          eigenvalues
 #    :         438        439        440        441        442        443        444        445
 occ. :        2.000      2.000      2.000      2.000      2.000      2.000      2.000      1.999
 eps  :       -10.551    -10.317    -10.309    -10.207    -10.174    -10.173    -10.172    -10.051
 #    :         446        447        448        449        450        451        452        453
 occ. :        1.995      1.979      1.956      1.953      1.865      0.253      0.000      0.000
 eps  :        -9.969     -9.908     -9.876     -9.872     -9.825     -9.629     -8.741     -8.576
 #    :         454        455        456        457        458        459        460        461
 occ. :        0.000      0.000      0.000      0.000      0.000      0.000      0.000      0.000
 eps  :        -8.515     -8.299     -7.642     -7.022     -6.741     -6.740     -6.645     -6.619


   #   Z            q   n(s)   n(p)   n(d)      C6AA      α(0)
   1   7 N     -0.244  1.300  3.944  0.000    26.360     7.625
   2   6 C      0.023  1.063  2.914  0.000    20.174     6.392
   3   6 C      0.267  1.037  2.696  0.000    22.497     7.768
   4   8 O     -0.548  1.775  4.772  0.000    24.865     6.686
   5   6 C     -0.055  1.048  3.007  0.000    21.526     6.600
   6   6 C     -0.056  1.047  3.010  0.000    21.552     6.604
   7   6 C      0.001  1.049  2.950  0.000    20.598     6.467
   8   1 H      0.038  0.962  0.000  0.000     2.477     2.461
   9   1 H      0.039  0.961  0.000  0.000     2.459     2.452
  10   1 H      0.046  0.954  0.000  0.000     2.369     2.407
  11   1 H      0.043  0.957  0.000  0.000     2.410     2.428
  12   1 H      0.045  0.955  0.000  0.000     2.385     2.415
  13   1 H      0.056  0.944  0.000  0.000     2.243     2.342
  14   1 H      0.052  0.948  0.000  0.000     2.294     2.368
  15   7 N     -0.153  1.249  3.903  0.000    24.307     7.322
  16   6 C      0.038  1.048  2.914  0.000    19.925     6.354
  17   6 C      0.202  1.096  2.702  0.000    23.701     7.973
  18   8 O     -0.372  1.768  4.604  0.000    21.129     6.163
  19   6 C     -0.088  1.055  3.033  0.000    22.159     6.699
  20   6 C      0.278  1.035  2.687  0.000    22.287     7.730
  21   8 O     -0.568  1.789  4.779  0.000    25.338     6.749
  22   7 N     -0.216  1.251  3.965  0.000    25.711     7.531
  23   1 H      0.237  0.763  0.000  0.000     0.936     1.515
  24   1 H      0.097  0.903  0.000  0.000     1.813     2.106
  25   1 H      0.089  0.911  0.000  0.000     1.886     2.148
  26   1 H      0.069  0.931  0.000  0.000     2.099     2.266
  27   1 H      0.246  0.754  0.000  0.000     0.900     1.486
  28   1 H      0.232  0.768  0.000  0.000     0.956     1.531
  29   7 N     -0.375  1.333  4.041  0.000    29.679     8.091
  30   6 C      0.053  1.056  2.892  0.000    19.719     6.327
  31   6 C      0.187  1.109  2.704  0.000    23.992     8.021
  32   8 O     -0.382  1.801  4.582  0.000    21.335     6.193
  33   6 C     -0.072  1.060  3.012  0.000    21.872     6.658
  34   6 C     -0.000  1.085  2.915  0.000    28.035     8.685
  35   6 C     -0.049  1.090  2.958  0.000    29.205     8.863
  36   6 C     -0.044  1.087  2.957  0.000    29.101     8.847
  37   6 C     -0.076  1.081  2.994  0.000    29.885     8.965
  38   6 C     -0.068  1.079  2.989  0.000    29.706     8.938
  39   6 C      0.139  1.043  2.818  0.000    24.971     8.190
  40   8 O     -0.482  1.721  4.761  0.000    22.502     6.404
  41   1 H      0.167  0.833  0.000  0.000     1.288     1.778
  42   1 H      0.027  0.973  0.000  0.000     2.633     2.538
  43   1 H      0.068  0.932  0.000  0.000     2.112     2.273
  44   1 H      0.079  0.921  0.000  0.000     1.989     2.205
  45   1 H      0.057  0.943  0.000  0.000     2.229     2.335
  46   1 H      0.041  0.959  0.000  0.000     2.438     2.442
  47   1 H      0.053  0.947  0.000  0.000     2.282     2.362
  48   1 H      0.059  0.941  0.000  0.000     2.211     2.325
  49   1 H      0.332  0.668  0.000  0.000     0.631     1.248
  50   7 N     -0.369  1.318  4.051  0.000    29.533     8.071
  51   6 C      0.048  1.052  2.899  0.000    19.768     6.331
  52   6 C      0.267  1.036  2.697  0.000    22.503     7.769
  53   8 O     -0.566  1.788  4.778  0.000    25.304     6.744
  54   6 C     -0.087  1.072  3.016  0.000    22.165     6.702
  55   6 C      0.365  1.027  2.608  0.000    20.802     7.464
  56   8 O     -0.665  1.794  4.871  0.000    27.770     7.065
  57   8 O     -0.617  1.769  4.848  0.000    26.553     6.909
  58   1 H      0.132  0.868  0.000  0.000     1.532     1.939
  59   1 H      0.045  0.955  0.000  0.000     2.380     2.412
  60   1 H      0.021  0.979  0.000  0.000     2.725     2.581
  61   1 H      0.019  0.981  0.000  0.000     2.746     2.592
  62   7 N     -0.147  1.240  3.907  0.000    24.190     7.305
  63   6 C      0.017  1.073  2.911  0.000    20.280     6.409
  64   6 C      0.272  1.037  2.690  0.000    22.397     7.750
  65   8 O     -0.572  1.789  4.783  0.000    25.443     6.763
  66   6 C     -0.023  1.063  2.960  0.000    20.946     6.510
  67   6 C     -0.121  1.042  3.080  0.000    22.882     6.820
  68   6 C     -0.128  1.043  3.084  0.000    23.001     6.838
  69   1 H      0.203  0.797  0.000  0.000     1.094     1.639
  70   1 H      0.089  0.911  0.000  0.000     1.886     2.148
  71   1 H      0.048  0.952  0.000  0.000     2.351     2.398
  72   1 H      0.072  0.928  0.000  0.000     2.067     2.248
  73   1 H      0.047  0.953  0.000  0.000     2.363     2.404
  74   1 H      0.054  0.946  0.000  0.000     2.274     2.358
  75   1 H      0.079  0.921  0.000  0.000     1.988     2.205
  76   1 H      0.057  0.943  0.000  0.000     2.228     2.334
  77   1 H      0.041  0.959  0.000  0.000     2.436     2.441
  78   7 N     -0.120  1.233  3.887  0.000    23.616     7.217
  79   6 C      0.020  1.063  2.917  0.000    20.252     6.408
  80   6 C      0.274  1.046  2.679  0.000    22.362     7.744
  81   8 O     -0.496  1.743  4.752  0.000    23.686     6.525
  82   6 C     -0.131  1.041  3.091  0.000    23.082     6.851
  83   1 H      0.210  0.790  0.000  0.000     1.056     1.610
  84   1 H      0.085  0.915  0.000  0.000     1.930     2.172
  85   1 H      0.074  0.926  0.000  0.000     2.038     2.232
  86   1 H      0.078  0.922  0.000  0.000     2.001     2.212
  87   1 H      0.067  0.933  0.000  0.000     2.120     2.277
  88   7 N     -0.074  1.230  3.844  0.000    22.665     7.071
  89   6 C      0.015  1.066  2.919  0.000    20.297     6.409
  90   6 C      0.273  1.039  2.687  0.000    22.381     7.747
  91   8 O     -0.511  1.726  4.784  0.000    24.022     6.571
  92   6 C     -0.060  1.049  3.011  0.000    21.619     6.614
  93   6 C     -0.063  1.043  3.020  0.000    21.675     6.622
  94   6 C     -0.014  1.053  2.960  0.000    20.840     6.503
  95   1 H      0.064  0.936  0.000  0.000     2.148     2.292
  96   1 H      0.063  0.937  0.000  0.000     2.163     2.300
  97   1 H      0.073  0.927  0.000  0.000     2.054     2.241
  98   1 H      0.064  0.936  0.000  0.000     2.156     2.297
  99   1 H      0.076  0.924  0.000  0.000     2.026     2.226
 100   1 H      0.073  0.927  0.000  0.000     2.052     2.240
 101   1 H      0.071  0.929  0.000  0.000     2.077     2.254
 102   7 N     -0.143  1.246  3.897  0.000    24.089     7.290
 103   6 C      0.023  1.063  2.913  0.000    20.180     6.396
 104   6 C      0.267  1.037  2.696  0.000    22.490     7.766
 105   8 O     -0.542  1.782  4.761  0.000    24.745     6.669
 106   6 C     -0.076  1.056  3.020  0.000    21.950     6.669
 107   6 C      0.006  1.080  2.914  0.000    27.886     8.662
 108   6 C     -0.038  1.081  2.957  0.000    28.936     8.821
 109   6 C     -0.043  1.083  2.961  0.000    29.077     8.843
 110   6 C     -0.037  1.083  2.955  0.000    28.923     8.819
 111   6 C     -0.036  1.081  2.955  0.000    28.887     8.813
 112   6 C     -0.038  1.082  2.956  0.000    28.937     8.822
 113   1 H      0.224  0.776  0.000  0.000     0.993     1.561
 114   1 H      0.063  0.937  0.000  0.000     2.159     2.298
 115   1 H      0.063  0.937  0.000  0.000     2.161     2.299
 116   1 H      0.074  0.926  0.000  0.000     2.040     2.233
 117   1 H      0.032  0.968  0.000  0.000     2.562     2.503
 118   1 H      0.030  0.970  0.000  0.000     2.586     2.515
 119   1 H      0.055  0.945  0.000  0.000     2.259     2.350
 120   1 H      0.049  0.951  0.000  0.000     2.338     2.391
 121   1 H      0.054  0.946  0.000  0.000     2.269     2.356
 122   7 N     -0.133  1.238  3.895  0.000    23.879     7.258
 123   6 C      0.025  1.069  2.907  0.000    20.168     6.395
 124   6 C      0.261  1.043  2.697  0.000    22.609     7.787
 125   8 O     -0.534  1.766  4.769  0.000    24.562     6.645
 126   6 C     -0.053  1.051  3.002  0.000    21.527     6.606
 127   6 C     -0.093  1.066  3.027  0.000    22.280     6.720
 128   6 C      0.359  1.030  2.611  0.000    20.912     7.484
 129   8 O     -0.624  1.775  4.850  0.000    26.724     6.931
 130   8 O     -0.643  1.794  4.849  0.000    27.205     6.993
 131   1 H      0.220  0.780  0.000  0.000     1.008     1.573
 132   1 H      0.059  0.941  0.000  0.000     2.210     2.325
 133   1 H      0.059  0.941  0.000  0.000     2.212     2.326
 134   1 H      0.056  0.944  0.000  0.000     2.250     2.346
 135   1 H      0.053  0.947  0.000  0.000     2.281     2.362
 136   1 H      0.028  0.972  0.000  0.000     2.620     2.531
 137   7 N     -0.118  1.233  3.884  0.000    23.562     7.209
 138   6 C      0.012  1.069  2.919  0.000    20.362     6.423
 139   6 C      0.265  1.041  2.695  0.000    22.537     7.774
 140   8 O     -0.531  1.778  4.754  0.000    24.489     6.635
 141   6 C     -0.018  1.055  2.963  0.000    20.855     6.495
 142   6 C     -0.123  1.038  3.084  0.000    22.893     6.820
 143   6 C     -0.121  1.040  3.081  0.000    22.873     6.818
 144   1 H      0.218  0.782  0.000  0.000     1.021     1.583
 145   1 H      0.079  0.921  0.000  0.000     1.985     2.203
 146   1 H      0.061  0.939  0.000  0.000     2.183     2.310
 147   1 H      0.073  0.927  0.000  0.000     2.048     2.238
 148   1 H      0.042  0.958  0.000  0.000     2.427     2.436
 149   1 H      0.044  0.956  0.000  0.000     2.395     2.420
 150   1 H      0.068  0.932  0.000  0.000     2.106     2.269
 151   1 H      0.045  0.955  0.000  0.000     2.387     2.416
 152   1 H      0.043  0.957  0.000  0.000     2.412     2.429
 153   7 N     -0.132  1.235  3.897  0.000    23.859     7.255
 154   6 C      0.022  1.061  2.917  0.000    20.217     6.404
 155   6 C      0.186  1.101  2.713  0.000    24.008     8.024
 156   8 O     -0.358  1.782  4.576  0.000    20.868     6.125
 157   6 C     -0.081  1.057  3.025  0.000    22.051     6.685
 158   6 C     -0.066  1.047  3.019  0.000    21.763     6.642
 159   6 C     -0.029  1.055  2.974  0.000    21.162     6.563
 160   7 N     -0.145  1.210  3.935  0.000    24.131     7.296
 161   6 C      0.247  1.002  2.751  0.000    22.849     7.826
 162   7 N     -0.299  1.251  4.048  0.000    27.689     7.815
 163   7 N     -0.238  1.229  4.008  0.000    26.214     7.604
 164   1 H      0.219  0.781  0.000  0.000     1.014     1.577
 165   1 H      0.098  0.902  0.000  0.000     1.800     2.098
 166   1 H      0.083  0.917  0.000  0.000     1.949     2.183
 167   1 H      0.089  0.911  0.000  0.000     1.892     2.151
 168   1 H      0.060  0.940  0.000  0.000     2.198     2.318
 169   1 H      0.034  0.966  0.000  0.000     2.534     2.489
 170   1 H      0.099  0.901  0.000  0.000     1.792     2.094
 171   1 H      0.093  0.907  0.000  0.000     1.847     2.125
 172   1 H      0.239  0.761  0.000  0.000     0.926     1.507
 173   1 H      0.211  0.789  0.000  0.000     1.054     1.608
 174   1 H      0.247  0.753  0.000  0.000     0.893     1.480
 175   1 H      0.253  0.747  0.000  0.000     0.871     1.462
 176   1 H      0.248  0.752  0.000  0.000     0.891     1.479
 177   7 N     -0.373  1.325  4.048  0.000    29.642     8.086
 178   6 C      0.048  1.061  2.891  0.000    19.779     6.335
 179   6 C      0.265  1.047  2.687  0.000    22.528     7.772
 180   8 O     -0.573  1.805  4.768  0.000    25.459     6.765
 181   6 C     -0.065  1.046  3.019  0.000    21.734     6.635
 182   6 C      0.018  1.076  2.906  0.000    27.605     8.618
 183   6 C     -0.050  1.079  2.971  0.000    29.237     8.868
 184   6 C     -0.029  1.080  2.949  0.000    28.734     8.791
 185   6 C     -0.040  1.082  2.958  0.000    28.988     8.830
 186   6 C     -0.024  1.074  2.950  0.000    28.605     8.771
 187   6 C     -0.032  1.076  2.956  0.000    28.791     8.800
 188   1 H      0.146  0.854  0.000  0.000     1.428     1.872
 189   1 H      0.031  0.969  0.000  0.000     2.570     2.507
 190   1 H      0.035  0.965  0.000  0.000     2.512     2.479
 191   1 H      0.039  0.961  0.000  0.000     2.464     2.455
 192   1 H      0.061  0.939  0.000  0.000     2.189     2.314
 193   1 H      0.001  0.999  0.000  0.000     3.042     2.727
 194   1 H      0.060  0.940  0.000  0.000     2.201     2.320
 195   1 H      0.012  0.988  0.000  0.000     2.857     2.643
 196   1 H      0.041  0.959  0.000  0.000     2.435     2.440
 197   7 N     -0.143  1.248  3.895  0.000    24.102     7.291
 198   6 C      0.023  1.066  2.911  0.000    20.188     6.398
 199   6 C      0.279  1.037  2.684  0.000    22.271     7.728
 200   8 O     -0.547  1.776  4.771  0.000    24.854     6.684
 201   6 C     -0.114  1.062  3.052  0.000    22.673     6.778
 202   6 C      0.274  1.044  2.682  0.000    22.361     7.743
 203   8 O     -0.509  1.755  4.754  0.000    23.994     6.567
 204   7 N     -0.234  1.252  3.982  0.000    26.131     7.592
 205   1 H      0.236  0.764  0.000  0.000     0.942     1.520
 206   1 H      0.115  0.885  0.000  0.000     1.654     2.011
 207   1 H      0.106  0.894  0.000  0.000     1.731     2.057
 208   1 H      0.078  0.922  0.000  0.000     1.997     2.210
 209   1 H      0.246  0.754  0.000  0.000     0.900     1.486
 210   1 H      0.232  0.768  0.000  0.000     0.955     1.531
 211   7 N     -0.127  1.226  3.901  0.000    23.761     7.240
 212   6 C      0.012  1.063  2.925  0.000    20.376     6.427
 213   6 C      0.276  1.031  2.694  0.000    22.336     7.740
 214   8 O     -0.544  1.773  4.771  0.000    24.783     6.675
 215   6 C      0.056  1.038  2.906  0.000    19.848     6.382
 216   8 O     -0.459  1.711  4.748  0.000    22.035     6.337
 217   1 H      0.199  0.801  0.000  0.000     1.113     1.652
 218   1 H      0.100  0.900  0.000  0.000     1.786     2.090
 219   1 H      0.066  0.934  0.000  0.000     2.126     2.280
 220   1 H      0.057  0.943  0.000  0.000     2.232     2.336
 221   1 H      0.337  0.663  0.000  0.000     0.621     1.238
 222   7 N     -0.148  1.242  3.906  0.000    24.193     7.305
 223   6 C      0.032  1.059  2.909  0.000    20.031     6.370
 224   6 C      0.263  1.039  2.698  0.000    22.567     7.780
 225   8 O     -0.555  1.774  4.782  0.000    25.049     6.710
 226   6 C     -0.061  1.058  3.003  0.000    21.668     6.628
 227   6 C     -0.095  1.074  3.021  0.000    22.311     6.727
 228   6 C      0.365  1.031  2.603  0.000    20.802     7.464
 229   8 O     -0.587  1.754  4.834  0.000    25.807     6.811
 230   8 O     -0.673  1.811  4.863  0.000    27.996     7.094
 231   1 H      0.223  0.777  0.000  0.000     0.997     1.565
 232   1 H      0.082  0.918  0.000  0.000     1.958     2.188
 233   1 H      0.057  0.943  0.000  0.000     2.239     2.340
 234   1 H      0.062  0.938  0.000  0.000     2.170     2.304
 235   1 H      0.023  0.977  0.000  0.000     2.683     2.561
 236   1 H      0.045  0.955  0.000  0.000     2.388     2.416
 237   7 N     -0.160  1.240  3.921  0.000    24.469     7.347
 238   6 C      0.013  1.072  2.914  0.000    20.360     6.425
 239   6 C      0.266  1.037  2.697  0.000    22.516     7.771
 240   8 O     -0.523  1.752  4.771  0.000    24.298     6.609
 241   6 C     -0.075  1.055  3.020  0.000    21.935     6.668
 242   6 C      0.061  1.060  2.879  0.000    25.857     8.258
 243   7 N     -0.365  1.528  3.837  0.000    30.264     8.160
 244   6 C     -0.043  1.054  2.989  0.000    28.771     8.772
 245   6 C      0.102  1.035  2.863  0.000    25.187     8.173
 246   7 N     -0.026  1.228  3.799  0.000    21.751     6.927
 247   1 H      0.234  0.766  0.000  0.000     0.948     1.525
 248   1 H      0.097  0.903  0.000  0.000     1.816     2.108
 249   1 H      0.063  0.937  0.000  0.000     2.169     2.303
 250   1 H      0.085  0.915  0.000  0.000     1.932     2.174
 251   1 H      0.034  0.966  0.000  0.000     2.536     2.491
 252   1 H      0.052  0.948  0.000  0.000     2.292     2.367
 253   1 H      0.209  0.791  0.000  0.000     1.064     1.617
 254   7 N     -0.144  1.233  3.910  0.000    24.109     7.292
 255   6 C      0.015  1.067  2.918  0.000    20.312     6.416
 256   6 C      0.259  1.042  2.698  0.000    22.633     7.791
 257   8 O     -0.514  1.760  4.754  0.000    24.105     6.583
 258   6 C     -0.063  1.045  3.019  0.000    21.708     6.633
 259   6 C     -0.103  1.053  3.050  0.000    22.461     6.746
 260   6 C      0.266  1.039  2.696  0.000    22.514     7.769
 261   8 O     -0.541  1.770  4.771  0.000    24.707     6.664
 262   7 N     -0.259  1.263  3.996  0.000    26.719     7.677
 263   1 H      0.195  0.805  0.000  0.000     1.134     1.668
 264   1 H      0.103  0.897  0.000  0.000     1.754     2.071
 265   1 H      0.067  0.933  0.000  0.000     2.122     2.278
 266   1 H      0.100  0.900  0.000  0.000     1.786     2.090
 267   1 H      0.061  0.939  0.000  0.000     2.186     2.312
 268   1 H      0.069  0.931  0.000  0.000     2.094     2.263
 269   1 H      0.207  0.793  0.000  0.000     1.074     1.623
 270   1 H      0.255  0.745  0.000  0.000     0.866     1.458
 271   7 N     -0.117  1.223  3.893  0.000    23.548     7.207
 272   6 C      0.015  1.074  2.912  0.000    20.338     6.422
 273   6 C      0.185  1.104  2.711  0.000    24.034     8.028
 274   8 O     -0.386  1.796  4.590  0.000    21.401     6.202
 275   6 C     -0.011  1.059  2.952  0.000    20.736     6.477
 276   6 C     -0.125  1.038  3.087  0.000    22.946     6.829
 277   6 C     -0.130  1.042  3.087  0.000    23.037     6.843
 278   1 H      0.206  0.794  0.000  0.000     1.075     1.625
 279   1 H      0.107  0.893  0.000  0.000     1.725     2.054
 280   1 H      0.049  0.951  0.000  0.000     2.326     2.385
 281   1 H      0.069  0.931  0.000  0.000     2.101     2.267
 282   1 H      0.040  0.960  0.000  0.000     2.449     2.447
 283   1 H      0.065  0.935  0.000  0.000     2.139     2.287
 284   1 H      0.074  0.926  0.000  0.000     2.044     2.236
 285   1 H      0.068  0.932  0.000  0.000     2.109     2.271
 286   1 H      0.050  0.950  0.000  0.000     2.322     2.383
 287   7 N     -0.378  1.362  4.016  0.000    29.780     8.105
 288   6 C      0.058  1.068  2.873  0.000    19.578     6.295
 289   6 C      0.196  1.124  2.680  0.000    23.815     7.988
 290   8 O     -0.614  1.882  4.732  0.000    26.494     6.900
 291   6 C      0.048  0.999  2.953  0.000    19.836     6.353
 292   6 C     -0.084  1.043  3.041  0.000    22.057     6.678
 293   6 C     -0.088  1.053  3.035  0.000    22.174     6.703
 294   1 H      0.142  0.858  0.000  0.000     1.463     1.896
 295   1 H      0.017  0.983  0.000  0.000     2.789     2.613
 296   1 H     -0.003  1.003  0.000  0.000     3.173     2.798
 297   1 H      0.071  0.929  0.000  0.000     2.070     2.250
 298   1 H      0.009  0.991  0.000  0.000     2.908     2.668
 299   1 H     -0.003  1.003  0.000  0.000     3.139     2.778
 300   1 H      0.050  0.950  0.000  0.000     2.330     2.389
 301   1 H      0.085  0.915  0.000  0.000     1.924     2.169
 302   1 H     -0.016  1.016  0.000  0.000     3.431     2.914
 303   7 N     -0.146  1.305  3.841  0.000    24.162     7.300
 304   6 C     -0.010  1.063  2.947  0.000    20.893     6.531
 305   6 C      0.092  1.186  2.722  0.000    26.130     8.349
 306   8 O     -0.570  1.957  4.613  0.000    25.528     6.763
 307   1 H      0.252  0.748  0.000  0.000     0.874     1.465
 308   1 H      0.165  0.835  0.000  0.000     1.295     1.779
 309   1 H      0.147  0.853  0.000  0.000     1.411     1.857
 310   1 H      0.192  0.808  0.000  0.000     1.150     1.680
 311   1 H      0.135  0.865  0.000  0.000     1.496     1.913
 312   1 H      0.190  0.810  0.000  0.000     1.157     1.685
 313   1 H      0.094  0.906  0.000  0.000     1.841     2.122
 314   1 H      0.187  0.813  0.000  0.000     1.173     1.696
 315   1 H      0.074  0.926  0.000  0.000     2.046     2.237
 316   1 H      0.169  0.831  0.000  0.000     1.276     1.770
 317   1 H      0.107  0.893  0.000  0.000     1.721     2.051
 318   1 H      0.190  0.810  0.000  0.000     1.156     1.684
 319   1 H      0.117  0.883  0.000  0.000     1.638     2.001

 Mol. C6AA /au·bohr⁶  :    1009059.295580
 Mol. C8AA /au·bohr⁸  :   22712719.998167
 Mol. α(0) /au        :       1511.364227

 
molecular dipole:
                 x           y           z       tot (Debye)
 q only:      -27.396     -74.016     -57.268
   full:      -25.991     -76.358     -57.326     251.528
molecular quadrupole (traceless):
                xx          xy          yy          xz          yz          zz
 q only:     1969.035   -1512.275   -1746.607   -1083.374   -3348.479    -222.428
  q+dip:     2088.003   -1516.239   -1937.906   -1036.093   -3428.534    -150.098
   full:     2090.161   -1511.921   -1939.086   -1037.911   -3430.556    -151.075
speedup  1.90
cpu  time for grad   24.44 s
wall time for grad   12.86 s

SCC energy    :    -516.6937249
rep           :       6.3283092
ES            :       1.9891286
AES           :      -0.0309323
AXC           :       0.1749846
disp          :      -0.4297788
XB            :       0.0000000
fix           :       0.0000000
Gborn         :       0.0000000
Gsasa         :       0.0000000
Ghb           :       0.0000000
Gshift        :       0.0000000
Gsolv         :      -0.5125962     -321.66
Etot ala COSMO:    -516.6937249
grad norm     :       1.2387822
total E       :    -510.3247359
atomizationE  :      92.5634437    58084.44
(atE without considering molecular charge,
 total energy contains solvation terms)
H-L gap (eV)  :          0.1966

------------------------------------------------------------------------
 * finished run on 2019/05/05 at 18:41:54.145     
------------------------------------------------------------------------
 total:
 * wall-time:     0 d,  0 h,  0 min, 13.409 sec
 *  cpu-time:     0 d,  0 h,  0 min, 25.288 sec
 * ratio c/w:     1.886 speedup
 SCF:
 * wall-time:     0 d,  0 h,  0 min, 13.143 sec
 *  cpu-time:     0 d,  0 h,  0 min, 24.992 sec
 * ratio c/w:     1.901 speedup

