      -----------------------------------------------------------      
     |                   =====================                   |     
     |                           x T B                           |     
     |                   =====================                   |     
     |                         S. Grimme                         |     
     |          Mulliken Center for Theoretical Chemistry        |     
     |                    University of Bonn                     |     
     |                 Version 6.0.1 (SAW181210)                 |     
      -----------------------------------------------------------      

   This program is distributed in the hope that it will be useful,
   but WITHOUT ANY WARRANTY; without even the implied warranty of
   MERCHANTABILITY or FITNESS FOR A PARTICULAR PURPOSE.
   
   FOR NON-COMMERCIAL, ACADEMIA USE ONLY.
   
   Cite this work as:
   S. Grimme, C. Bannwarth, P. Shushkov, J. Comput. Theory Chem., 2017,
   13, 1989-2009.
   C. Bannwarth, S. Ehlert and S. Grimme., ChemRxiv, 2018, preprint.
   http://doi.org/10.26434/chemrxiv.7246238.v1
   
   for sTDA-xTB:
   S. Grimme and C. Bannwarth, J. Chem. Phys., 2016, 145, 054103.
   
   in the mass-spec context:
   V. Asgeirsson, C. Bauer and S. Grimme, Chem. Sci., 2017, 8, 4879.
   
   if GBSA is used:
   P. Shushkov, F. März and S. Grimme, unpublished.
   
   for ANC optimizer:
   S. Grimme, unpublished.
   Rational Function algorithm used in ANCopt:
   F. Eckert, P. Pulay, H.-J. Werner, J. Comput. Chem., 1997, 18, 1473.
   
   with help from (in alphabetical order)
   C. Bannwarth, F. Bohle, G. Brandenburg, E. Caldeweyher, M. Checinski,
   S. Dohm, S. Ehlert, S. Ehrlich, F. März, H. Neugebauer, J. Pisarek,
   P. Pracht, P. Shushkov, and S. Spicher.
   
 * started run on 2019/02/18 at 08:32:59.825     
========================================================================
 # omp threads = 12
========================================================================
number of atoms            : 418
number of electrons        : 1070
charge                     : -1
spin                       : .0
first test random number   : .2363

########################################################################
# WARNING! Please study the warnings concerning your input carefully
#  - Process number higher than OMP_NUM_THREADS, I hope you know what you are doing.
########################################################################

           ------------------------------------------------- 
          |                 G F N 2 - x T B                 |
          | Geometry, Frequencies, Noncovalent interactions |
          |            JCTC 2018 parametrisation            |
           ------------------------------------------------- 
 
      method parameters     
 k(s)        :  1.8500
 k(p)        :  2.2300
 k(d)        :  2.2300
 k(f)        :  2.0000
 kEN (H0ij)  : -2.0000
 D4 a1       :  0.5200
 D4 a2       :  5.0000
 D4 s6       :  1.0000
 D4 s8       :  2.7000
 D4 s9       :  5.0000
 alphaj      :  2.0000

 Solvent             : h2o
 Using internal parameter file: .param_gbsa2_h2o
 Gsolv ref. state (COSMO-RS): gsolv [1 M gas/solution]
 temperature (mdtemp)       :    298.150000000000     
 dielectric constant        :    80.2000000000000     
 rho                        :    1.00000000000000     
 mass                       :    18.0000000000000     
 surface tension            :    15.5689454083859     
 probe radius               :   0.975313790000000     
 vdW radii scaling          :    1.00000000000000     
 Gshift (Eh)                :   1.857443126794793E-003
 c1                         :    1.55243817000000     
 soset                      :   0.130326360000000     
 HB correction              :  T

            Z     q(EN)     CN     RAES       Cart. coordinates
     1  N   5.0   -0.21    3.23    1.96    56.37441    22.03332    20.58624
     2  C   4.0    0.03    4.34    4.28    57.16331    23.34677    22.85118
     3  C   4.0    0.14    3.45    3.10    55.03875    23.26814    24.80536
     4  O   6.0   -0.32    1.29    1.80    55.43814    22.65471    27.01268
     5  C   4.0   -0.04    4.28    4.17    57.96146    26.04986    22.22734
     6  C   4.0   -0.03    4.24    4.07    59.21011    27.32149    24.49197
     7  C   4.0    0.15    3.23    3.04    61.68660    26.05782    25.21613
     8  O   6.0   -0.30    1.22    1.80    62.80414    24.55886    23.84219
     9  N   5.0   -0.19    3.19    1.95    62.57325    26.73506    27.48214
    10  H   1.0    0.08    1.02    1.43    56.45223    22.97429    18.91288
    11  H   1.0    0.06    1.06    1.44    58.76557    22.32672    23.68841
    12  H   1.0    0.05    1.03    1.43    59.30822    25.95996    20.66876
    13  H   1.0    0.04    1.03    1.43    56.31519    27.13412    21.63526
    14  H   1.0    0.04    1.03    1.43    59.61000    29.29301    24.04615
    15  H   1.0    0.05    1.03    1.43    57.95801    27.28517    26.12728
    16  H   1.0    0.11    1.07    1.44    61.70764    28.07245    28.55133
    17  H   1.0    0.09    1.03    1.43    64.22053    26.00368    28.09977
    18  N   5.0   -0.15    3.49    2.07    52.76294    23.93001    23.95975
    19  C   4.0    0.03    4.44    4.45    50.57689    23.79880    25.59931
    20  C   4.0    0.16    3.52    3.12    50.45402    21.23096    26.91322
    21  O   6.0   -0.32    1.30    1.80    50.20720    21.06370    29.21431
    22  C   4.0   -0.06    4.38    4.34    48.12789    24.18355    24.12300
    23  C   4.0   -0.03    4.18    3.95    47.60708    26.93932    23.41117
    24  C   4.0   -0.09    4.11    3.82    45.39064    27.05951    21.57119
    25  C   4.0   -0.08    4.11    3.83    47.02054    28.51156    25.75343
    26  H   1.0    0.07    1.06    1.44    52.50249    24.46768    22.13554
    27  H   1.0    0.05    1.05    1.44    50.76241    25.20644    27.11155
    28  H   1.0    0.04    1.03    1.43    48.23533    23.01655    22.42798
    29  H   1.0    0.04    1.03    1.43    46.56971    23.47507    25.27888
    30  H   1.0    0.04    1.05    1.44    49.28189    27.71288    22.48040
    31  H   1.0    0.03    1.00    1.43    45.04203    28.99968    20.99429
    32  H   1.0    0.03    1.00    1.43    45.77881    25.92914    19.90046
    33  H   1.0    0.03    1.00    1.43    43.68657    26.34223    22.46479
    34  H   1.0    0.03    1.00    1.43    46.27926    30.33783    25.19875
    35  H   1.0    0.03    1.00    1.43    45.60684    27.57889    26.92095
    36  H   1.0    0.03    1.00    1.43    48.70321    28.81244    26.88917
    37  N   5.0   -0.15    3.52    2.09    50.49523    19.23581    25.37792
    38  C   4.0    0.03    4.44    4.45    50.32990    16.68401    26.35771
    39  C   4.0    0.17    3.50    3.11    52.22319    16.35792    28.51117
    40  O   6.0   -0.31    1.28    1.80    51.59545    15.55749    30.59341
    41  C   4.0   -0.04    4.27    4.14    50.79448    14.76478    24.24918
    42  C   4.0   -0.04    4.18    3.97    48.54451    14.61437    22.45674
    43  C   4.0    0.25    3.10    3.02    49.14506    13.48854    19.84357
    44  O   6.0   -0.29    1.18    1.80    51.35251    13.60648    19.03439
    45  O   6.0   -0.29    1.17    1.80    47.32113    12.63970    18.59683
    46  H   1.0    0.07    1.07    1.44    50.73739    19.47013    23.48916
    47  H   1.0    0.05    1.05    1.44    48.45491    16.37612    27.20131
    48  H   1.0    0.06    1.03    1.43    52.47178    15.33548    23.19198
    49  H   1.0    0.05    1.03    1.43    51.17594    12.92260    25.09223
    50  H   1.0    0.05    1.02    1.43    46.97709    13.56465    23.28988
    51  H   1.0    0.04    1.03    1.43    47.88187    16.53009    22.03808
    52  N   5.0   -0.13    3.53    2.10    54.56527    17.05524    27.91752
    53  C   4.0    0.04    4.46    4.48    56.67895    16.65566    29.60126
    54  C   4.0    0.16    3.49    3.11    56.16107    17.88714    32.15597
    55  O   6.0   -0.32    1.28    1.80    56.49209    16.78329    34.17919
    56  C   4.0    0.05    4.25    4.09    59.09177    17.78624    28.39972
    57  O   6.0   -0.25    2.12    1.84    59.64463    16.64950    26.06354
    58  C   4.0   -0.06    4.10    3.79    61.36346    17.40543    30.12782
    59  H   1.0    0.08    1.08    1.44    54.91382    17.64891    26.13078
    60  H   1.0    0.06    1.05    1.44    56.92335    14.61655    29.90684
    61  H   1.0    0.06    1.04    1.43    58.74890    19.82179    28.12581
    62  H   1.0    0.12    1.02    1.43    58.30986    17.02292    24.86001
    63  H   1.0    0.05    1.00    1.43    63.05182    18.10077    29.19266
    64  H   1.0    0.05    1.00    1.43    61.09165    18.41554    31.89111
    65  H   1.0    0.05    1.00    1.43    61.60205    15.40470    30.52568
    66  N   5.0   -0.14    3.53    2.10    55.46238    20.29928    32.04339
    67  C   4.0    0.04    4.51    4.55    55.10833    21.79112    34.31968
    68  C   4.0    0.16    3.49    3.11    52.86740    20.78305    35.84616
    69  O   6.0   -0.31    1.28    1.80    53.02667    20.38370    38.12308
    70  C   4.0   -0.02    4.27    4.13    54.77625    24.59879    33.64425
    71  C   4.0   -0.08    4.12    3.85    54.16377    26.13694    36.01004
    72  C   4.0   -0.07    4.11    3.83    57.17228    25.61014    32.38819
    73  H   1.0    0.11    1.10    1.44    55.13082    21.13490    30.34918
    74  H   1.0    0.05    1.06    1.44    56.78238    21.53287    35.51745
    75  H   1.0    0.05    1.05    1.44    53.20656    24.71983    32.30332
    76  H   1.0    0.03    1.00    1.43    53.89919    28.10467    35.49519
    77  H   1.0    0.04    1.00    1.43    52.44828    25.45672    36.90901
    78  H   1.0    0.04    1.00    1.43    55.70409    25.98113    37.35623
    79  H   1.0    0.05    1.00    1.43    56.95216    27.60535    31.95742
    80  H   1.0    0.04    1.00    1.43    58.78528    25.37466    33.63558
    81  H   1.0    0.06    1.00    1.43    57.55829    24.61765    30.63294
    82  N   5.0   -0.15    3.51    2.08    50.72979    20.50076    34.54093
    83  C   4.0    0.03    4.44    4.45    48.46980    19.54200    35.75303
    84  C   4.0    0.16    3.51    3.12    49.02218    17.07645    37.14184
    85  O   6.0   -0.33    1.33    1.80    48.29201    16.74420    39.31766
    86  C   4.0   -0.05    4.36    4.30    46.36720    19.20351    33.80630
    87  C   4.0   -0.03    4.18    3.97    43.87450    18.22935    34.92550
    88  C   4.0   -0.08    4.11    3.82    42.92603    19.90362    37.07642
    89  C   4.0   -0.08    4.11    3.82    41.89387    18.09098    32.83046
    90  H   1.0    0.11    1.11    1.45    50.71089    20.64949    32.63167
    91  H   1.0    0.04    1.06    1.44    47.88678    20.90494    37.20421
    92  H   1.0    0.04    1.03    1.43    46.04853    21.02940    32.90125
    93  H   1.0    0.06    1.03    1.43    47.03038    17.88744    32.35970
    94  H   1.0    0.04    1.05    1.44    44.18480    16.31901    35.66332
    95  H   1.0    0.03    1.00    1.43    41.00692    19.36719    37.57700
    96  H   1.0    0.04    1.00    1.43    44.09543    19.68417    38.74851
    97  H   1.0    0.03    1.00    1.43    42.93710    21.87297    36.50133
    98  H   1.0    0.04    1.00    1.43    40.10200    17.42469    33.57805
    99  H   1.0    0.04    1.00    1.43    41.60647    19.94441    31.99305
   100  H   1.0    0.04    1.00    1.43    42.50456    16.79598    31.35750
   101  N   5.0   -0.14    3.51    2.09    50.33904    15.35063    35.86682
   102  C   4.0    0.03    4.43    4.43    51.03148    12.96643    37.01931
   103  C   4.0    0.16    3.50    3.11    52.24782    13.40420    39.60823
   104  O   6.0   -0.30    1.25    1.80    51.65909    12.17176    41.47325
   105  C   4.0   -0.03    4.29    4.18    52.82162    11.55415    35.25570
   106  C   4.0   -0.03    4.19    3.99    53.68796     9.02784    36.32181
   107  C   4.0    0.25    3.11    3.03    53.98027     6.98021    34.28986
   108  O   6.0   -0.28    1.19    1.80    53.33340     7.37769    32.07414
   109  O   6.0   -0.28    1.17    1.80    54.82249     4.88249    35.07106
   110  H   1.0    0.11    1.10    1.44    50.86412    15.62926    34.04623
   111  H   1.0    0.05    1.05    1.44    49.31943    11.83448    37.36008
   112  H   1.0    0.07    1.04    1.43    51.83970    11.22973    33.46562
   113  H   1.0    0.07    1.03    1.43    54.44949    12.74686    34.84288
   114  H   1.0    0.06    1.02    1.43    55.47801     9.19123    37.32909
   115  H   1.0    0.06    1.03    1.43    52.30465     8.28231    37.66593
   116  N   5.0   -0.13    3.43    2.04    54.04538    15.17820    39.62787
   117  C   4.0    0.02    4.26    4.12    55.42906    15.78142    41.90806
   118  C   4.0    0.17    3.38    3.07    53.60916    16.59983    44.00814
   119  O   6.0   -0.31    1.27    1.80    53.65742    15.64168    46.11873
   120  H   1.0    0.11    1.07    1.44    54.57726    15.98550    37.98103
   121  H   1.0    0.06    1.02    1.43    56.48254    14.12927    42.57280
   122  H   1.0    0.05    1.03    1.43    56.72097    17.32435    41.47774
   123  N   5.0   -0.14    3.50    2.08    52.10515    18.50696    43.35334
   124  C   4.0    0.04    4.50    4.53    50.13891    19.48552    45.00068
   125  C   4.0    0.16    3.52    3.13    48.63277    17.32033    46.18206
   126  O   6.0   -0.32    1.28    1.80    48.30382    17.16736    48.47017
   127  C   4.0   -0.02    4.28    4.16    48.41586    21.28570    43.50096
   128  C   4.0   -0.08    4.13    3.87    45.96082    21.79830    44.92704
   129  C   4.0   -0.08    4.11    3.82    49.80768    23.75729    42.97484
   130  H   1.0    0.11    1.10    1.44    52.12187    19.10243    41.52680
   131  H   1.0    0.06    1.05    1.44    51.02119    20.49975    46.58297
   132  H   1.0    0.06    1.06    1.44    47.96684    20.34203    41.71869
   133  H   1.0    0.03    1.00    1.43    44.87419    23.24569    43.95808
   134  H   1.0    0.04    1.00    1.43    44.81059    20.10142    45.05184
   135  H   1.0    0.04    1.00    1.43    46.35913    22.43871    46.83538
   136  H   1.0    0.03    1.00    1.43    48.60101    25.01060    41.88436
   137  H   1.0    0.04    1.00    1.43    50.25526    24.65897    44.76381
   138  H   1.0    0.05    1.00    1.43    51.53314    23.40331    41.91970
   139  N   5.0   -0.14    3.52    2.09    47.65301    15.69134    44.52996
   140  C   4.0    0.03    4.51    4.56    46.09535    13.59833    45.34680
   141  C   4.0    0.16    3.55    3.14    47.42476    12.14202    47.45119
   142  O   6.0   -0.30    1.26    1.80    46.37353    11.74267    49.47777
   143  C   4.0   -0.02    4.27    4.15    45.43234    11.87129    43.11615
   144  C   4.0   -0.07    4.14    3.88    44.19641     9.45188    44.08029
   145  C   4.0   -0.08    4.11    3.82    43.65969    13.22418    41.27966
   146  H   1.0    0.11    1.11    1.45    48.02280    15.85422    42.65754
   147  H   1.0    0.05    1.05    1.44    44.35481    14.35295    46.20112
   148  H   1.0    0.06    1.06    1.44    47.19786    11.39374    42.14950
   149  H   1.0    0.04    1.00    1.43    43.67706     8.27979    42.47932
   150  H   1.0    0.05    1.00    1.43    45.47165     8.37843    45.28565
   151  H   1.0    0.04    1.00    1.43    42.52223     9.90991    45.17932
   152  H   1.0    0.04    1.00    1.43    43.25403    12.00136    39.68071
   153  H   1.0    0.03    1.00    1.43    41.89486    13.70967    42.20885
   154  H   1.0    0.05    1.01    1.43    44.52488    14.94019    40.56356
   155  N   5.0   -0.13    3.49    2.07    49.77513    11.36823    46.95501
   156  C   4.0    0.05    4.42    4.42    51.09240     9.86829    48.82375
   157  C   4.0    0.16    3.50    3.11    51.32249    11.30411    51.32340
   158  O   6.0   -0.30    1.30    1.80    50.92214    10.27783    53.35855
   159  C   4.0    0.03    4.15    3.89    53.70457     9.06420    47.90056
   160  O   6.0   -0.25    2.04    1.83    53.44297     6.81659    46.47815
   161  H   1.0    0.11    1.08    1.44    50.54655    11.58960    45.21784
   162  H   1.0    0.06    1.06    1.44    49.98629     8.15579    49.21741
   163  H   1.0    0.06    1.01    1.43    54.51366    10.59308    46.75691
   164  H   1.0    0.04    1.01    1.43    54.92562     8.72220    49.54658
   165  H   1.0    0.12    1.02    1.43    55.00409     6.45300    45.60662
   166  N   5.0   -0.14    3.52    2.09    52.05165    13.70654    51.13532
   167  C   4.0    0.03    4.44    4.44    52.26576    15.26700    53.38403
   168  C   4.0    0.17    3.49    3.11    49.91310    14.95083    55.05368
   169  O   6.0   -0.31    1.24    1.80    50.06964    14.62049    57.33765
   170  C   4.0   -0.04    4.31    4.21    52.56676    18.04326    52.66442
   171  C   4.0   -0.03    4.23    4.06    55.07841    18.55311    51.33795
   172  C   4.0    0.15    3.23    3.04    55.07031    21.11527    50.05985
   173  O   6.0   -0.32    1.27    1.80    53.62260    22.83039    50.63710
   174  N   5.0   -0.19    3.19    1.95    56.79145    21.40774    48.22962
   175  H   1.0    0.11    1.09    1.44    52.24054    14.52868    49.41523
   176  H   1.0    0.05    1.05    1.44    53.88226    14.61285    54.51062
   177  H   1.0    0.07    1.04    1.43    51.01326    18.54840    51.40717
   178  H   1.0    0.05    1.03    1.43    52.41480    19.19595    54.36760
   179  H   1.0    0.04    1.03    1.43    56.62893    18.49475    52.69602
   180  H   1.0    0.06    1.04    1.43    55.41917    17.11221    49.90616
   181  H   1.0    0.08    1.03    1.43    57.91556    19.96992    47.69878
   182  H   1.0    0.10    1.04    1.43    56.83489    23.06257    47.26594
   183  N   5.0   -0.14    3.50    2.08    47.74088    15.27289    53.81611
   184  C   4.0    0.04    4.41    4.40    45.30133    15.05162    55.03746
   185  C   4.0    0.09    3.29    3.05    45.00072    12.41559    56.16870
   186  O   6.0   -0.30    1.13    1.80    44.41196    12.13277    58.39649
   187  C   4.0   -0.02    4.33    4.26    43.15044    15.65800    53.18363
   188  C   4.0   -0.05    4.19    3.98    43.23421    18.46975    52.49032
   189  C   4.0   -0.07    4.14    3.88    40.62023    14.91970    54.35844
   190  C   4.0   -0.08    4.01    3.64    41.50908    19.12829    50.28194
   191  H   1.0    0.11    1.09    1.44    47.76170    15.48565    51.91395
   192  H   1.0    0.05    1.06    1.44    45.24266    16.37221    56.63891
   193  H   1.0    0.06    1.06    1.44    43.47823    14.52377    51.48531
   194  H   1.0    0.04    1.03    1.43    42.69721    19.57995    54.14194
   195  H   1.0    0.05    1.03    1.43    45.16828    18.97385    51.97857
   196  H   1.0    0.04    1.00    1.43    39.06379    15.39485    53.11287
   197  H   1.0    0.05    1.01    1.43    40.56428    12.89845    54.71422
   198  H   1.0    0.04    1.00    1.43    40.36117    15.89319    56.14695
   199  H   1.0    0.04    1.00    1.43    41.67495    21.12919    49.85194
   200  H   1.0    0.04    1.00    1.43    42.06952    18.06058    48.61810
   201  H   1.0    0.04    1.00    1.43    39.54874    18.70757    50.72151
   202  N   5.0   -0.19    3.26    1.97    48.78117     8.54588    58.20297
   203  C   4.0    0.03    4.24    4.08    50.39613     8.25188    60.39725
   204  C   4.0    0.15    3.45    3.09    49.30334     9.66138    62.67148
   205  O   6.0   -0.28    1.26    1.80    49.18513     8.69545    64.77344
   206  C   4.0   -0.07    4.12    3.84    53.02120     9.23461    59.74789
   207  H   1.0    0.12    1.06    1.44    49.57323     9.31832    56.64163
   208  H   1.0    0.05    1.05    1.44    50.46412     6.24779    60.93730
   209  H   1.0    0.04    1.00    1.43    54.28744     8.97771    61.33983
   210  H   1.0    0.05    1.00    1.43    53.74056     8.19923    58.12665
   211  H   1.0    0.06    1.00    1.43    52.90694    11.22840    59.26231
   212  N   5.0   -0.13    3.49    2.07    48.57021    12.03638    62.24749
   213  C   4.0    0.04    4.43    4.43    47.34419    13.43445    64.26090
   214  C   4.0    0.10    3.30    3.05    45.12493    11.87295    65.26996
   215  O   6.0   -0.28    1.11    1.80    44.83006    11.47792    67.53391
   216  C   4.0   -0.02    4.25    4.11    46.48430    16.04967    63.35588
   217  C   4.0   -0.07    4.13    3.86    44.88483    17.32905    65.39336
   218  C   4.0   -0.07    4.11    3.83    48.78075    17.67710    62.71485
   219  H   1.0    0.11    1.08    1.44    48.65539    12.79605    60.49292
   220  H   1.0    0.06    1.05    1.44    48.67923    13.64235    65.83646
   221  H   1.0    0.05    1.05    1.44    45.34405    15.77079    61.65243
   222  H   1.0    0.04    1.00    1.43    44.37247    19.22665    64.80184
   223  H   1.0    0.05    1.00    1.43    43.17054    16.25976    65.76783
   224  H   1.0    0.05    1.00    1.43    45.94375    17.46613    67.14766
   225  H   1.0    0.04    1.00    1.43    48.16413    19.55073    62.13895
   226  H   1.0    0.04    1.00    1.43    50.00225    17.87536    64.35272
   227  H   1.0    0.06    1.00    1.43    49.85822    16.85350    61.17509
   228  O   6.0   -0.30    1.92    1.82    59.93976    13.12804    36.00747
   229  H   1.0    0.13    0.97    1.43    61.26668    14.09503    36.75563
   230  H   1.0    0.15    1.01    1.43    58.74029    14.34424    35.33544
   231  O   6.0   -0.32    1.97    1.82    54.82228    26.63423    47.26748
   232  H   1.0    0.15    1.02    1.43    54.30982    25.63235    48.72401
   233  H   1.0    0.12    0.97    1.43    53.27832    27.08025    46.42682
   234  O   6.0   -0.30    1.91    1.82    54.40608    24.82900    60.50146
   235  H   1.0    0.12    0.97    1.43    52.59615    25.05724    60.28324
   236  H   1.0    0.12    0.97    1.43    55.08640    24.79151    58.81972
   237  N   5.0   -0.22    3.20    1.96    36.41444    15.21164    23.95975
   238  C   4.0    0.03    4.22    4.05    37.39383    17.17042    25.59931
   239  C   4.0    0.07    3.22    3.04    35.23146    18.56075    26.91322
   240  O   6.0   -0.33    1.17    1.80    35.21001    18.85813    29.21431
   241  C   4.0   -0.05    4.36    4.31    38.95153    19.09894    24.12300
   242  C   4.0   -0.03    4.18    3.95    41.59851    18.17209    23.41117
   243  C   4.0   -0.08    4.11    3.82    42.81082    20.03149    21.57119
   244  C   4.0   -0.08    4.11    3.83    43.25338    17.89393    25.75343
   245  H   1.0    0.08    1.02    1.43    37.01030    15.16836    22.13554
   246  H   1.0    0.04    1.05    1.44    38.52013    16.30594    27.11155
   247  H   1.0    0.04    1.03    1.43    37.88716    19.58940    22.42798
   248  H   1.0    0.04    1.03    1.43    39.11707    20.80260    25.27888
   249  H   1.0    0.04    1.05    1.44    41.43103    16.33489    22.48040
   250  H   1.0    0.04    1.00    1.43    44.66535    19.36331    20.99429
   251  H   1.0    0.04    1.00    1.43    41.63780    20.26050    19.90046
   252  H   1.0    0.03    1.00    1.43    43.04167    21.86589    22.46479
   253  H   1.0    0.04    1.01    1.43    45.20561    17.62276    25.19875
   254  H   1.0    0.04    1.00    1.43    43.15252    19.58456    26.92095
   255  H   1.0    0.04    1.00    1.43    42.67262    16.28625    26.88917
   256  N   5.0   -0.20    3.24    1.97    31.92041    14.68922    32.04339
   257  C   4.0    0.03    4.40    4.38    33.38942    14.24992    34.31968
   258  C   4.0    0.15    3.46    3.10    33.63687    16.69466    35.84616
   259  O   6.0   -0.32    1.27    1.80    33.21138    16.75640    38.12308
   260  C   4.0   -0.03    4.26    4.13    35.98697    13.13367    33.64425
   261  C   4.0   -0.08    4.12    3.85    37.62528    12.89502    36.01004
   262  C   4.0   -0.08    4.11    3.83    35.66481    10.55298    32.38819
   263  H   1.0    0.09    1.02    1.43    32.80986    14.55855    30.34918
   264  H   1.0    0.04    1.05    1.44    32.32874    12.92927    35.51745
   265  H   1.0    0.04    1.05    1.44    36.87664    14.43255    32.30332
   266  H   1.0    0.03    1.00    1.43    39.46167    12.14029    35.49519
   267  H   1.0    0.04    1.00    1.43    37.89394    14.72079    36.90901
   268  H   1.0    0.04    1.00    1.43    36.72019    11.63897    37.35623
   269  H   1.0    0.04    1.00    1.43    37.50277     9.74600    31.95742
   270  H   1.0    0.04    1.00    1.43    34.65437     9.27382    33.63558
   271  H   1.0    0.04    1.00    1.43    34.61228    10.71493    30.63294
   272  N   5.0   -0.15    3.48    2.06    34.46120    18.68703    34.54093
   273  C   4.0    0.03    4.35    4.28    34.76088    21.12362    35.75303
   274  C   4.0    0.09    3.27    3.05    32.34946    21.87801    37.14184
   275  O   6.0   -0.30    1.13    1.80    32.42681    22.67649    39.31766
   276  C   4.0   -0.05    4.35    4.29    35.51904    23.11376    33.80630
   277  C   4.0   -0.02    4.18    3.97    35.92175    25.75959    34.92550
   278  C   4.0   -0.08    4.11    3.82    37.84593    25.74385    37.07642
   279  C   4.0   -0.08    4.11    3.81    36.79222    27.54405    32.83046
   280  H   1.0    0.11    1.11    1.45    34.59946    18.62903    32.63167
   281  H   1.0    0.05    1.06    1.44    36.23273    20.94705    37.20421
   282  H   1.0    0.04    1.03    1.43    37.25964    22.47679    32.90125
   283  H   1.0    0.05    1.03    1.43    34.04771    23.19747    32.35970
   284  H   1.0    0.04    1.05    1.44    34.11219    26.44603    35.66332
   285  H   1.0    0.03    1.00    1.43    38.34093    27.67407    37.57700
   286  H   1.0    0.04    1.00    1.43    37.07119    24.84084    38.74851
   287  H   1.0    0.03    1.00    1.43    39.54591    24.74959    36.50133
   288  H   1.0    0.03    1.00    1.43    37.11114    29.42900    33.57805
   289  H   1.0    0.03    1.00    1.43    38.54104    26.86623    31.99305
   290  H   1.0    0.04    1.00    1.43    35.36538    27.66267    31.35750
   291  N   5.0   -0.20    3.21    1.96    32.04684    18.49283    43.35334
   292  C   4.0    0.03    4.30    4.20    33.87741    19.70637    45.00068
   293  C   4.0    0.08    3.24    3.04    32.75538    22.09331    46.18206
   294  O   6.0   -0.30    1.11    1.80    32.78738    22.45468    48.47017
   295  C   4.0   -0.02    4.27    4.13    36.29794    20.29847    43.50096
   296  C   4.0   -0.08    4.13    3.87    37.96938    22.16831    44.92704
   297  C   4.0   -0.08    4.11    3.82    37.74249    17.85733    42.97484
   298  H   1.0    0.12    1.05    1.44    32.55417    18.18062    41.52680
   299  H   1.0    0.04    1.05    1.44    34.31463    18.43517    46.58297
   300  H   1.0    0.06    1.06    1.44    35.70521    21.15918    41.71869
   301  H   1.0    0.03    1.00    1.43    39.76618    22.38566    43.95808
   302  H   1.0    0.04    1.00    1.43    37.07496    24.01287    45.05184
   303  H   1.0    0.04    1.00    1.43    38.32484    21.50315    46.83538
   304  H   1.0    0.03    1.00    1.43    39.43122    18.27569    41.88436
   305  H   1.0    0.03    1.00    1.43    38.29957    17.01887    44.76381
   306  H   1.0    0.05    1.00    1.43    36.57320    16.54003    41.91970
   307  N   5.0   -0.22    3.20    1.96    41.02475    33.68290    34.54093
   308  C   4.0    0.02    4.23    4.07    42.98506    32.20508    35.75303
   309  C   4.0    0.07    3.22    3.04    44.84410    33.91623    37.14184
   310  O   6.0   -0.33    1.19    1.80    45.49692    33.45000    39.31766
   311  C   4.0   -0.05    4.35    4.29    44.32950    30.55342    33.80630
   312  C   4.0   -0.02    4.18    3.97    46.41950    28.88175    34.92550
   313  C   4.0   -0.08    4.11    3.82    45.44377    27.22323    37.07642
   314  C   4.0   -0.08    4.11    3.82    47.52965    27.23567    32.83046
   315  H   1.0    0.07    1.03    1.43    40.90540    33.59217    32.63167
   316  H   1.0    0.04    1.06    1.44    42.09623    31.01870    37.20421
   317  H   1.0    0.03    1.03    1.43    42.90757    29.36450    32.90125
   318  H   1.0    0.03    1.03    1.43    45.13766    31.78578    32.35970
   319  H   1.0    0.04    1.05    1.44    47.91875    30.10566    35.66332
   320  H   1.0    0.03    1.00    1.43    46.86789    25.82944    37.57700
   321  H   1.0    0.04    1.00    1.43    45.04912    28.34568    38.74851
   322  H   1.0    0.03    1.00    1.43    43.73273    26.24813    36.50133
   323  H   1.0    0.04    1.00    1.43    49.00261    26.01700    33.57805
   324  H   1.0    0.04    1.00    1.43    46.06823    26.06006    31.99305
   325  H   1.0    0.03    1.00    1.43    48.34580    28.41204    31.35750
   326  N   5.0   -0.20    3.23    1.96    42.06376    35.87090    43.35334
   327  C   4.0    0.03    4.40    4.39    42.19942    33.67881    45.00068
   328  C   4.0    0.15    3.47    3.10    44.82759    33.45705    46.18206
   329  O   6.0   -0.32    1.27    1.80    45.12454    33.24865    48.47017
   330  C   4.0   -0.02    4.28    4.16    41.50194    31.28651    43.50096
   331  C   4.0   -0.08    4.13    3.87    42.28554    28.90409    44.92704
   332  C   4.0   -0.08    4.11    3.82    38.66557    31.25607    42.97484
   333  H   1.0    0.09    1.03    1.43    41.53971    35.58765    41.52680
   334  H   1.0    0.04    1.05    1.44    40.87993    33.93577    46.58297
   335  H   1.0    0.05    1.06    1.44    42.54369    31.36948    41.71869
   336  H   1.0    0.03    1.00    1.43    41.57537    27.23934    43.95808
   337  H   1.0    0.04    1.00    1.43    44.33019    28.75640    45.05184
   338  H   1.0    0.04    1.00    1.43    41.53177    28.92883    46.83538
   339  H   1.0    0.03    1.00    1.43    38.18351    29.58441    41.88436
   340  H   1.0    0.04    1.00    1.43    37.66090    31.19285    44.76381
   341  H   1.0    0.04    1.00    1.43    38.10940    32.92736    41.91970
   342  N   5.0   -0.15    3.49    2.07    46.72822    33.42305    44.52996
   343  C   4.0    0.03    4.42    4.41    49.31965    33.12058    45.34680
   344  C   4.0    0.09    3.30    3.05    49.91615    35.00003    47.45119
   345  O   6.0   -0.30    1.13    1.80    50.78761    34.28932    49.47777
   346  C   4.0   -0.03    4.26    4.13    51.14682    33.40991    43.11615
   347  C   4.0   -0.07    4.15    3.90    53.86005    33.54927    44.08029
   348  C   4.0   -0.08    4.11    3.82    50.86151    31.19831    41.27966
   349  H   1.0    0.11    1.11    1.45    46.40227    33.66185    42.65754
   350  H   1.0    0.05    1.05    1.44    49.53640    31.23592    46.20112
   351  H   1.0    0.04    1.05    1.44    50.67763    35.17767    42.14950
   352  H   1.0    0.04    1.00    1.43    55.13479    33.68555    42.47932
   353  H   1.0    0.05    1.00    1.43    54.15207    35.19039    45.28565
   354  H   1.0    0.05    1.00    1.43    54.30047    31.87038    45.17932
   355  H   1.0    0.04    1.00    1.43    52.12333    31.45841    39.68071
   356  H   1.0    0.03    1.00    1.43    51.32347    29.42718    42.20885
   357  H   1.0    0.05    1.01    1.43    48.94281    31.08958    40.56356
   358  N   5.0   -0.20    3.22    1.96    47.04668    33.70837    53.81611
   359  C   4.0    0.03    4.32    4.23    48.45808    31.70630    55.03746
   360  C   4.0    0.08    3.25    3.04    50.89125    32.76397    56.16870
   361  O   6.0   -0.29    1.11    1.80    51.43056    32.39550    58.39649
   362  C   4.0   -0.02    4.33    4.26    49.00838    29.54038    53.18363
   363  C   4.0   -0.05    4.19    3.98    46.53145    28.20705    52.49032
   364  C   4.0   -0.07    4.14    3.88    50.91287    27.71830    54.35844
   365  C   4.0   -0.08    4.01    3.64    46.82370    26.38378    50.28194
   366  H   1.0    0.12    1.05    1.44    46.85201    33.62002    51.91395
   367  H   1.0    0.05    1.05    1.44    47.34375    30.99519    56.63891
   368  H   1.0    0.06    1.06    1.44    49.82676    30.39137    51.48531
   369  H   1.0    0.04    1.03    1.43    45.83849    27.18689    54.14194
   370  H   1.0    0.05    1.03    1.43    45.12786    29.62995    51.97857
   371  H   1.0    0.06    1.00    1.43    51.27960    26.13281    53.11287
   372  H   1.0    0.05    1.01    1.43    52.69130    28.68047    54.71422
   373  H   1.0    0.05    1.00    1.43    50.19934    27.00721    56.14695
   374  H   1.0    0.03    1.00    1.43    45.00794    25.52697    49.85194
   375  H   1.0    0.04    1.00    1.43    47.46815    27.40298    48.61810
   376  H   1.0    0.05    1.00    1.43    48.16823    24.89643    50.72151
   377  N   5.0   -0.22    3.20    1.96    65.53565    32.04995    35.28503
   378  C   4.0    0.03    4.22    4.04    63.17319    31.03675    34.35957
   379  C   4.0    0.07    3.19    3.03    62.41656    32.16776    31.79602
   380  O   6.0   -0.32    1.17    1.80    61.00793    30.98687    30.37453
   381  C   4.0   -0.05    4.25    4.10    61.08305    31.42131    36.32322
   382  C   4.0   -0.05    4.17    3.94    61.45818    29.68409    38.61098
   383  C   4.0   -0.02    4.17    3.94    59.28532    29.81605    40.52766
   384  N   5.0   -0.15    3.38    2.01    59.67801    31.76129    42.42593
   385  C   4.0    0.08    3.34    3.06    59.45837    31.56943    44.93524
   386  N   5.0   -0.18    3.27    1.97    59.14161    29.34857    46.08162
   387  N   5.0   -0.19    3.23    1.96    59.79074    33.59202    46.38937
   388  H   1.0    0.08    1.02    1.43    65.55533    32.87806    37.01526
   389  H   1.0    0.04    1.05    1.44    63.42217    29.00483    33.99600
   390  H   1.0    0.04    1.03    1.43    61.10956    33.40839    36.86693
   391  H   1.0    0.04    1.03    1.43    59.28094    31.00176    35.41209
   392  H   1.0    0.03    1.03    1.43    61.59807    27.75179    37.91469
   393  H   1.0    0.04    1.03    1.43    63.23569    30.14113    39.54560
   394  H   1.0    0.03    1.02    1.43    57.51522    30.21318    39.53257
   395  H   1.0    0.04    1.03    1.43    59.10238    27.99507    41.46620
   396  H   1.0    0.07    1.07    1.44    60.19306    33.46267    41.73298
   397  H   1.0    0.09    1.04    1.43    58.42974    27.84115    45.16380
   398  H   1.0    0.09    1.04    1.43    58.71169    29.40278    47.94613
   399  H   1.0    0.08    1.03    1.43    59.89291    35.32941    45.61828
   400  H   1.0    0.08    1.01    1.43    59.04505    33.59991    48.22142
   401  H   1.0    0.10    1.07    1.44    57.34871    20.65793    20.35907
   402  H   1.0    0.07    1.05    1.44    45.28388    10.88788    55.09307
   403  H   1.0    0.10    1.07    1.44    48.20163     7.02274    57.71643
   404  H   1.0    0.07    1.05    1.44    43.86204    11.14060    64.07004
   405  H   1.0    0.09    1.07    1.44    66.68781    30.80293    35.38511
   406  H   1.0    0.05    1.04    1.43    63.06952    33.86508    31.28241
   407  H   1.0    0.09    1.07    1.44    36.82576    13.68615    24.58925
   408  H   1.0    0.05    1.05    1.44    33.79533    19.24997    25.89657
   409  H   1.0    0.09    1.07    1.44    30.65188    13.55947    31.95950
   410  H   1.0    0.05    1.05    1.44    30.67507    21.72494    36.27926
   411  H   1.0    0.09    1.07    1.44    31.65384    16.95887    43.97390
   412  H   1.0    0.06    1.05    1.44    31.96772    23.41191    45.08117
   413  H   1.0    0.08    1.07    1.44    39.50243    33.18327    35.11143
   414  H   1.0    0.05    1.05    1.44    45.54873    35.44284    36.27926
   415  H   1.0    0.09    1.07    1.44    40.93181    36.97822    43.97390
   416  H   1.0    0.05    1.05    1.44    49.59712    36.84415    47.18945
   417  H   1.0    0.09    1.07    1.44    45.46026    33.73968    54.42837
   418  H   1.0    0.06    1.04    1.44    52.07271    33.77306    55.09307

  Z AO/shell   Hii/eV     exponent
  1     Wed Apr 25 08:07:45 CEST 2018   EN: 2.200 GM2: 0.406  GM3: 0.0800  RAES: 1.40
     1s    -10.707211    1.230000
  6     Wed Apr 25 08:07:45 CEST 2018   EN: 2.550 GM2: 0.538  GM3: 0.1500  RAES: 3.00
     2s    -13.970922    2.096432
     2p    -10.063292    1.800000
  7     Wed Apr 25 08:07:45 CEST 2018   EN: 3.040 GM2: 0.461  GM3:-0.0640  RAES: 1.90
     2s    -16.686243    2.339881
     2p    -12.523956    2.014332
  8     Wed Apr 25 08:07:45 CEST 2018   EN: 3.440 GM2: 0.452  GM3:-0.0517  RAES: 1.80
     2s    -20.229985    2.439742
     2p    -15.503117    2.137023
 no old-style atom pair restraining (fixing) potential

molecular fragmentation (1/2 indicates fragments):
111111111111111111111111111111111111111111111111111111111111111111111111
111111111111111111111111111111111111111111111111111111111111111111111111
111111111111111111111111111111111111111111111111111111111222222222222222
222222222222222222222222222222222222222222222222222222222222222222222222
222222222222222222222222222222222222222222222222222222222222222222222222
2222222222222222222222222222222222222222112222222222222222
# atoms in fragment 1/2:   203   215
 fragment masses (1/2) :     1396.60     1246.74
CMA distance (Bohr)    :  10.532
constraining FC (au)   :  0.0500
           ------------------------------------------------- 
          |        Self-Consistent Charge Iterations        |
           ------------------------------------------------- 

 Ncao       : 970
 Nao        : 970
 Nshell     : 602
 Nel        : 1070
 T(el)      :   500.0
 intcut     :    35.0
 scfconv/Eh :  0.100E-06
   qconv/e  :  0.100E-04
 intneglect :  0.100E-08
 broydamp   :      0.400
 iter      E             dE          RMSdq      gap      omega  full diag
   1   -609.8321352 -0.609832E+03  0.440E+00    3.23       0.0  T
   2   -611.2484259 -0.141629E+01  0.205E+00    2.00       1.0  T
   3   -611.3439659 -0.955400E-01  0.119E+00    2.03       1.0  T
   4   -611.4444373 -0.100471E+00  0.238E-01    1.41       1.0  T
   5   -611.4493520 -0.491472E-02  0.117E-01    1.54       1.0  T
   6   -611.4502154 -0.863336E-03  0.475E-02    1.47       1.0  T
   7   -611.4503978 -0.182464E-03  0.229E-02    1.43       1.0  T
   8   -611.4504336 -0.357316E-04  0.923E-03    1.41       1.0  T
   9   -611.4504413 -0.776969E-05  0.441E-03    1.40       1.1  T
  10   -611.4504427 -0.138234E-05  0.182E-03    1.40       2.7  T
  11   -611.4504430 -0.317863E-06  0.799E-04    1.40       6.1  T
  12   -611.4504431 -0.599713E-07  0.331E-04    1.40      14.8  T
  13   -611.4504431 -0.691682E-08  0.174E-04    1.40      28.1  T
  14   -611.4504431 -0.249997E-08  0.574E-05    1.40      85.2  T
  15   -611.4504431 -0.272394E-09  0.257E-05    1.40     190.4  T
speedup  9.04
cpu  time for SCC   21.70 s
wall time for SCC    2.40 s

   *** convergence criteria satisfied after 15 iterations ***

          eigenvalues
 #    :         523        524        525        526        527        528        529        530
 occ. :        2.000      2.000      2.000      2.000      2.000      2.000      2.000      2.000
 eps  :       -10.467    -10.333    -10.271    -10.192    -10.039    -10.028     -9.999     -9.932
 #    :         531        532        533        534        535        536        537        538
 occ. :        2.000      2.000      2.000      2.000      2.000      0.000      0.000      0.000
 eps  :        -9.824     -9.753     -9.544     -9.484     -9.420     -8.024     -7.863     -7.759
 #    :         539        540        541        542        543        544        545        546
 occ. :        0.000      0.000      0.000      0.000      0.000      0.000      0.000      0.000
 eps  :        -7.628     -7.487     -7.400     -7.399     -7.358     -7.257     -6.968     -6.758


   #   Z            q   n(s)   n(p)   n(d)      C6AA      α(0)
   1   7 N     -0.403  1.312  4.091  0.000    30.456     8.196
   2   6 C      0.034  1.054  2.911  0.000    20.007     6.371
   3   6 C      0.261  1.051  2.688  0.000    22.607     7.786
   4   8 O     -0.500  1.739  4.761  0.000    23.787     6.539
   5   6 C     -0.065  1.053  3.012  0.000    21.740     6.638
   6   6 C     -0.104  1.058  3.046  0.000    22.487     6.750
   7   6 C      0.289  1.038  2.673  0.000    22.092     7.696
   8   8 O     -0.525  1.763  4.762  0.000    24.344     6.615
   9   7 N     -0.290  1.268  4.022  0.000    27.488     7.787
  10   1 H      0.171  0.829  0.000  0.000     1.270     1.765
  11   1 H      0.037  0.963  0.000  0.000     2.493     2.469
  12   1 H      0.059  0.941  0.000  0.000     2.206     2.323
  13   1 H      0.057  0.943  0.000  0.000     2.231     2.336
  14   1 H      0.086  0.914  0.000  0.000     1.920     2.167
  15   1 H      0.073  0.927  0.000  0.000     2.053     2.240
  16   1 H      0.238  0.762  0.000  0.000     0.930     1.510
  17   1 H      0.221  0.779  0.000  0.000     1.005     1.570
  18   7 N     -0.166  1.242  3.924  0.000    24.586     7.364
  19   6 C      0.014  1.062  2.924  0.000    20.345     6.422
  20   6 C      0.278  1.042  2.680  0.000    22.299     7.733
  21   8 O     -0.469  1.731  4.738  0.000    23.107     6.445
  22   6 C     -0.079  1.060  3.018  0.000    21.989     6.674
  23   6 C     -0.014  1.056  2.958  0.000    20.796     6.486
  24   6 C     -0.119  1.042  3.077  0.000    22.834     6.813
  25   6 C     -0.125  1.042  3.083  0.000    22.955     6.831
  26   1 H      0.219  0.781  0.000  0.000     1.013     1.577
  27   1 H      0.102  0.898  0.000  0.000     1.767     2.079
  28   1 H      0.045  0.955  0.000  0.000     2.390     2.418
  29   1 H      0.064  0.936  0.000  0.000     2.154     2.295
  30   1 H      0.043  0.957  0.000  0.000     2.407     2.426
  31   1 H      0.054  0.946  0.000  0.000     2.275     2.359
  32   1 H      0.034  0.966  0.000  0.000     2.533     2.489
  33   1 H      0.046  0.954  0.000  0.000     2.376     2.410
  34   1 H      0.059  0.941  0.000  0.000     2.211     2.325
  35   1 H      0.050  0.950  0.000  0.000     2.318     2.381
  36   1 H      0.046  0.954  0.000  0.000     2.364     2.404
  37   7 N     -0.182  1.242  3.940  0.000    24.945     7.418
  38   6 C      0.027  1.061  2.912  0.000    20.116     6.386
  39   6 C      0.283  1.039  2.678  0.000    22.205     7.717
  40   8 O     -0.487  1.741  4.746  0.000    23.499     6.499
  41   6 C     -0.052  1.048  3.004  0.000    21.508     6.602
  42   6 C     -0.087  1.065  3.022  0.000    22.165     6.703
  43   6 C      0.370  1.023  2.607  0.000    20.726     7.450
  44   8 O     -0.648  1.772  4.876  0.000    27.320     7.008
  45   8 O     -0.657  1.777  4.880  0.000    27.554     7.038
  46   1 H      0.203  0.797  0.000  0.000     1.092     1.637
  47   1 H      0.071  0.929  0.000  0.000     2.073     2.251
  48   1 H      0.047  0.953  0.000  0.000     2.355     2.400
  49   1 H      0.025  0.975  0.000  0.000     2.654     2.548
  50   1 H      0.028  0.972  0.000  0.000     2.620     2.531
  51   1 H      0.041  0.959  0.000  0.000     2.439     2.442
  52   7 N     -0.178  1.240  3.938  0.000    24.857     7.405
  53   6 C      0.015  1.065  2.920  0.000    20.318     6.418
  54   6 C      0.276  1.040  2.685  0.000    22.338     7.740
  55   8 O     -0.507  1.741  4.766  0.000    23.946     6.561
  56   6 C      0.115  1.046  2.838  0.000    18.785     6.188
  57   8 O     -0.462  1.722  4.740  0.000    22.083     6.344
  58   6 C     -0.131  1.041  3.090  0.000    23.065     6.848
  59   1 H      0.192  0.808  0.000  0.000     1.146     1.677
  60   1 H      0.052  0.948  0.000  0.000     2.297     2.370
  61   1 H      0.048  0.952  0.000  0.000     2.340     2.392
  62   1 H      0.304  0.696  0.000  0.000     0.709     1.322
  63   1 H      0.085  0.915  0.000  0.000     1.927     2.171
  64   1 H      0.066  0.934  0.000  0.000     2.133     2.284
  65   1 H      0.058  0.942  0.000  0.000     2.224     2.332
  66   7 N     -0.173  1.249  3.924  0.000    24.747     7.388
  67   6 C      0.011  1.069  2.920  0.000    20.399     6.430
  68   6 C      0.272  1.043  2.685  0.000    22.404     7.751
  69   8 O     -0.482  1.731  4.751  0.000    23.390     6.484
  70   6 C     -0.025  1.063  2.962  0.000    20.982     6.515
  71   6 C     -0.133  1.043  3.090  0.000    23.114     6.855
  72   6 C     -0.130  1.042  3.087  0.000    23.047     6.845
  73   1 H      0.231  0.769  0.000  0.000     0.960     1.535
  74   1 H      0.087  0.913  0.000  0.000     1.911     2.162
  75   1 H      0.050  0.950  0.000  0.000     2.319     2.381
  76   1 H      0.078  0.922  0.000  0.000     1.995     2.209
  77   1 H      0.047  0.953  0.000  0.000     2.352     2.398
  78   1 H      0.072  0.928  0.000  0.000     2.065     2.247
  79   1 H      0.074  0.926  0.000  0.000     2.046     2.237
  80   1 H      0.059  0.941  0.000  0.000     2.214     2.327
  81   1 H      0.038  0.962  0.000  0.000     2.469     2.457
  82   7 N     -0.187  1.251  3.937  0.000    25.063     7.435
  83   6 C      0.022  1.061  2.918  0.000    20.213     6.401
  84   6 C      0.281  1.041  2.677  0.000    22.235     7.722
  85   8 O     -0.490  1.730  4.760  0.000    23.571     6.509
  86   6 C     -0.077  1.060  3.017  0.000    21.954     6.670
  87   6 C     -0.009  1.054  2.955  0.000    20.695     6.471
  88   6 C     -0.119  1.041  3.078  0.000    22.836     6.814
  89   6 C     -0.114  1.041  3.072  0.000    22.724     6.796
  90   1 H      0.230  0.770  0.000  0.000     0.967     1.540
  91   1 H      0.094  0.906  0.000  0.000     1.838     2.120
  92   1 H      0.080  0.920  0.000  0.000     1.976     2.198
  93   1 H      0.035  0.965  0.000  0.000     2.517     2.481
  94   1 H      0.012  0.988  0.000  0.000     2.862     2.645
  95   1 H      0.044  0.956  0.000  0.000     2.394     2.420
  96   1 H      0.042  0.958  0.000  0.000     2.423     2.434
  97   1 H      0.063  0.937  0.000  0.000     2.164     2.301
  98   1 H      0.048  0.952  0.000  0.000     2.347     2.396
  99   1 H      0.054  0.946  0.000  0.000     2.270     2.356
 100   1 H      0.024  0.976  0.000  0.000     2.675     2.558
 101   7 N     -0.192  1.252  3.941  0.000    25.169     7.451
 102   6 C      0.038  1.059  2.904  0.000    19.944     6.358
 103   6 C      0.284  1.040  2.676  0.000    22.182     7.713
 104   8 O     -0.498  1.740  4.758  0.000    23.742     6.533
 105   6 C     -0.055  1.049  3.006  0.000    21.547     6.608
 106   6 C     -0.085  1.060  3.025  0.000    22.127     6.697
 107   6 C      0.370  1.026  2.604  0.000    20.720     7.449
 108   8 O     -0.643  1.770  4.874  0.000    27.209     6.994
 109   8 O     -0.676  1.781  4.895  0.000    28.063     7.102
 110   1 H      0.220  0.780  0.000  0.000     1.010     1.574
 111   1 H      0.041  0.959  0.000  0.000     2.434     2.440
 112   1 H      0.045  0.955  0.000  0.000     2.382     2.414
 113   1 H      0.049  0.951  0.000  0.000     2.331     2.387
 114   1 H      0.029  0.971  0.000  0.000     2.603     2.523
 115   1 H      0.022  0.978  0.000  0.000     2.698     2.569
 116   7 N     -0.166  1.236  3.931  0.000    24.596     7.366
 117   6 C     -0.034  1.054  2.980  0.000    21.252     6.575
 118   6 C      0.276  1.038  2.686  0.000    22.328     7.738
 119   8 O     -0.498  1.739  4.759  0.000    23.745     6.533
 120   1 H      0.213  0.787  0.000  0.000     1.040     1.598
 121   1 H      0.077  0.923  0.000  0.000     2.010     2.217
 122   1 H      0.112  0.888  0.000  0.000     1.682     2.028
 123   7 N     -0.175  1.250  3.925  0.000    24.781     7.393
 124   6 C      0.014  1.068  2.918  0.000    20.339     6.421
 125   6 C      0.282  1.040  2.677  0.000    22.216     7.719
 126   8 O     -0.494  1.739  4.755  0.000    23.649     6.520
 127   6 C     -0.027  1.063  2.963  0.000    21.016     6.520
 128   6 C     -0.121  1.039  3.083  0.000    22.877     6.820
 129   6 C     -0.135  1.045  3.090  0.000    23.151     6.860
 130   1 H      0.236  0.764  0.000  0.000     0.939     1.518
 131   1 H      0.082  0.918  0.000  0.000     1.956     2.187
 132   1 H      0.050  0.950  0.000  0.000     2.323     2.384
 133   1 H      0.066  0.934  0.000  0.000     2.126     2.280
 134   1 H      0.026  0.974  0.000  0.000     2.646     2.544
 135   1 H      0.056  0.944  0.000  0.000     2.248     2.345
 136   1 H      0.070  0.930  0.000  0.000     2.087     2.259
 137   1 H      0.061  0.939  0.000  0.000     2.183     2.311
 138   1 H      0.066  0.934  0.000  0.000     2.134     2.284
 139   7 N     -0.193  1.251  3.943  0.000    25.194     7.455
 140   6 C      0.030  1.062  2.909  0.000    20.072     6.378
 141   6 C      0.285  1.040  2.676  0.000    22.178     7.712
 142   8 O     -0.495  1.746  4.749  0.000    23.675     6.524
 143   6 C     -0.017  1.060  2.957  0.000    20.847     6.494
 144   6 C     -0.113  1.039  3.074  0.000    22.719     6.796
 145   6 C     -0.119  1.040  3.079  0.000    22.829     6.812
 146   1 H      0.229  0.771  0.000  0.000     0.970     1.543
 147   1 H      0.062  0.938  0.000  0.000     2.180     2.309
 148   1 H      0.036  0.964  0.000  0.000     2.503     2.474
 149   1 H      0.050  0.950  0.000  0.000     2.316     2.380
 150   1 H      0.023  0.977  0.000  0.000     2.685     2.563
 151   1 H      0.053  0.947  0.000  0.000     2.281     2.362
 152   1 H      0.040  0.960  0.000  0.000     2.447     2.446
 153   1 H      0.056  0.944  0.000  0.000     2.242     2.342
 154   1 H      0.061  0.939  0.000  0.000     2.189     2.313
 155   7 N     -0.186  1.247  3.939  0.000    25.036     7.431
 156   6 C      0.029  1.057  2.915  0.000    20.092     6.382
 157   6 C      0.277  1.041  2.682  0.000    22.321     7.737
 158   8 O     -0.495  1.742  4.753  0.000    23.672     6.523
 159   6 C      0.077  1.039  2.884  0.000    19.508     6.327
 160   8 O     -0.489  1.728  4.761  0.000    22.658     6.426
 161   1 H      0.216  0.784  0.000  0.000     1.027     1.587
 162   1 H      0.069  0.931  0.000  0.000     2.094     2.263
 163   1 H      0.052  0.948  0.000  0.000     2.295     2.369
 164   1 H      0.043  0.957  0.000  0.000     2.408     2.427
 165   1 H      0.347  0.653  0.000  0.000     0.595     1.212
 166   7 N     -0.181  1.249  3.932  0.000    24.928     7.415
 167   6 C      0.021  1.064  2.915  0.000    20.223     6.402
 168   6 C      0.280  1.041  2.679  0.000    22.261     7.726
 169   8 O     -0.487  1.736  4.751  0.000    23.494     6.499
 170   6 C     -0.073  1.051  3.022  0.000    21.880     6.659
 171   6 C     -0.108  1.057  3.051  0.000    22.560     6.761
 172   6 C      0.285  1.040  2.676  0.000    22.179     7.711
 173   8 O     -0.483  1.739  4.744  0.000    23.414     6.488
 174   7 N     -0.283  1.264  4.019  0.000    27.307     7.761
 175   1 H      0.229  0.771  0.000  0.000     0.968     1.541
 176   1 H      0.069  0.931  0.000  0.000     2.093     2.263
 177   1 H      0.078  0.922  0.000  0.000     1.996     2.209
 178   1 H      0.073  0.927  0.000  0.000     2.058     2.243
 179   1 H      0.083  0.917  0.000  0.000     1.946     2.181
 180   1 H      0.072  0.928  0.000  0.000     2.067     2.248
 181   1 H      0.214  0.786  0.000  0.000     1.038     1.596
 182   1 H      0.257  0.743  0.000  0.000     0.859     1.451
 183   7 N     -0.173  1.244  3.928  0.000    24.738     7.387
 184   6 C      0.029  1.062  2.909  0.000    20.092     6.383
 185   6 C      0.212  1.084  2.705  0.000    23.516     7.942
 186   8 O     -0.360  1.750  4.610  0.000    20.907     6.130
 187   6 C     -0.021  1.065  2.956  0.000    20.918     6.505
 188   6 C     -0.068  1.052  3.016  0.000    21.798     6.647
 189   6 C     -0.116  1.038  3.078  0.000    22.767     6.803
 190   6 C     -0.103  1.036  3.068  0.000    22.537     6.770
 191   1 H      0.223  0.777  0.000  0.000     0.996     1.563
 192   1 H      0.080  0.920  0.000  0.000     1.977     2.199
 193   1 H      0.055  0.945  0.000  0.000     2.257     2.350
 194   1 H      0.051  0.949  0.000  0.000     2.313     2.378
 195   1 H      0.052  0.948  0.000  0.000     2.293     2.368
 196   1 H      0.061  0.939  0.000  0.000     2.191     2.314
 197   1 H      0.028  0.972  0.000  0.000     2.609     2.526
 198   1 H      0.053  0.947  0.000  0.000     2.287     2.365
 199   1 H      0.053  0.947  0.000  0.000     2.282     2.362
 200   1 H      0.031  0.969  0.000  0.000     2.572     2.508
 201   1 H      0.039  0.961  0.000  0.000     2.465     2.455
 202   7 N     -0.403  1.316  4.088  0.000    30.467     8.198
 203   6 C      0.042  1.054  2.904  0.000    19.889     6.352
 204   6 C      0.271  1.049  2.680  0.000    22.428     7.756
 205   8 O     -0.521  1.753  4.768  0.000    24.265     6.604
 206   6 C     -0.118  1.043  3.075  0.000    22.809     6.809
 207   1 H      0.173  0.827  0.000  0.000     1.252     1.753
 208   1 H      0.022  0.978  0.000  0.000     2.703     2.571
 209   1 H      0.046  0.954  0.000  0.000     2.372     2.409
 210   1 H      0.051  0.949  0.000  0.000     2.313     2.379
 211   1 H      0.060  0.940  0.000  0.000     2.200     2.319
 212   7 N     -0.164  1.246  3.918  0.000    24.549     7.359
 213   6 C      0.029  1.063  2.908  0.000    20.087     6.381
 214   6 C      0.217  1.084  2.699  0.000    23.423     7.926
 215   8 O     -0.377  1.752  4.625  0.000    21.230     6.178
 216   6 C     -0.015  1.062  2.953  0.000    20.811     6.488
 217   6 C     -0.119  1.041  3.078  0.000    22.827     6.812
 218   6 C     -0.127  1.042  3.085  0.000    22.989     6.836
 219   1 H      0.226  0.774  0.000  0.000     0.983     1.553
 220   1 H      0.077  0.923  0.000  0.000     2.007     2.216
 221   1 H      0.053  0.947  0.000  0.000     2.279     2.361
 222   1 H      0.065  0.935  0.000  0.000     2.140     2.288
 223   1 H      0.033  0.967  0.000  0.000     2.539     2.492
 224   1 H      0.051  0.949  0.000  0.000     2.303     2.373
 225   1 H      0.061  0.939  0.000  0.000     2.191     2.315
 226   1 H      0.051  0.949  0.000  0.000     2.304     2.374
 227   1 H      0.059  0.941  0.000  0.000     2.214     2.327
 228   8 O     -0.666  1.783  4.883  0.000    26.828     6.991
 229   1 H      0.337  0.663  0.000  0.000     0.618     1.235
 230   1 H      0.306  0.694  0.000  0.000     0.703     1.317
 231   8 O     -0.621  1.736  4.885  0.000    25.705     6.843
 232   1 H      0.313  0.687  0.000  0.000     0.684     1.299
 233   1 H      0.291  0.709  0.000  0.000     0.749     1.359
 234   8 O     -0.648  1.778  4.870  0.000    26.357     6.929
 235   1 H      0.317  0.683  0.000  0.000     0.671     1.287
 236   1 H      0.330  0.670  0.000  0.000     0.637     1.254
 237   7 N     -0.385  1.306  4.079  0.000    29.953     8.128
 238   6 C      0.041  1.053  2.906  0.000    19.897     6.354
 239   6 C      0.194  1.098  2.708  0.000    23.856     7.999
 240   8 O     -0.360  1.740  4.620  0.000    20.894     6.128
 241   6 C     -0.074  1.062  3.013  0.000    21.913     6.663
 242   6 C     -0.005  1.053  2.952  0.000    20.641     6.462
 243   6 C     -0.113  1.042  3.071  0.000    22.712     6.795
 244   6 C     -0.109  1.038  3.071  0.000    22.641     6.784
 245   1 H      0.164  0.836  0.000  0.000     1.312     1.794
 246   1 H      0.042  0.958  0.000  0.000     2.417     2.431
 247   1 H      0.061  0.939  0.000  0.000     2.192     2.315
 248   1 H      0.057  0.943  0.000  0.000     2.231     2.336
 249   1 H      0.020  0.980  0.000  0.000     2.735     2.586
 250   1 H      0.022  0.978  0.000  0.000     2.698     2.569
 251   1 H      0.043  0.957  0.000  0.000     2.414     2.430
 252   1 H      0.060  0.940  0.000  0.000     2.202     2.321
 253   1 H      0.029  0.971  0.000  0.000     2.608     2.525
 254   1 H      0.053  0.947  0.000  0.000     2.288     2.365
 255   1 H      0.025  0.975  0.000  0.000     2.660     2.551
 256   7 N     -0.390  1.312  4.079  0.000    30.100     8.148
 257   6 C      0.028  1.063  2.909  0.000    20.109     6.386
 258   6 C      0.271  1.048  2.681  0.000    22.419     7.754
 259   8 O     -0.507  1.749  4.758  0.000    23.932     6.559
 260   6 C     -0.019  1.065  2.954  0.000    20.869     6.497
 261   6 C     -0.109  1.038  3.071  0.000    22.645     6.785
 262   6 C     -0.110  1.038  3.072  0.000    22.661     6.787
 263   1 H      0.152  0.848  0.000  0.000     1.385     1.844
 264   1 H      0.034  0.966  0.000  0.000     2.527     2.486
 265   1 H      0.039  0.961  0.000  0.000     2.460     2.453
 266   1 H      0.039  0.961  0.000  0.000     2.468     2.457
 267   1 H      0.038  0.962  0.000  0.000     2.474     2.460
 268   1 H      0.040  0.960  0.000  0.000     2.449     2.447
 269   1 H      0.037  0.963  0.000  0.000     2.484     2.465
 270   1 H      0.040  0.960  0.000  0.000     2.450     2.448
 271   1 H      0.041  0.959  0.000  0.000     2.442     2.444
 272   7 N     -0.182  1.253  3.929  0.000    24.937     7.417
 273   6 C      0.031  1.057  2.913  0.000    20.064     6.378
 274   6 C      0.208  1.082  2.711  0.000    23.597     7.955
 275   8 O     -0.360  1.755  4.605  0.000    20.893     6.128
 276   6 C     -0.079  1.061  3.018  0.000    21.999     6.676
 277   6 C     -0.010  1.055  2.955  0.000    20.725     6.475
 278   6 C     -0.117  1.040  3.077  0.000    22.792     6.807
 279   6 C     -0.117  1.042  3.074  0.000    22.785     6.806
 280   1 H      0.242  0.758  0.000  0.000     0.917     1.500
 281   1 H      0.080  0.920  0.000  0.000     1.977     2.199
 282   1 H      0.073  0.927  0.000  0.000     2.055     2.242
 283   1 H      0.058  0.942  0.000  0.000     2.219     2.330
 284   1 H      0.026  0.974  0.000  0.000     2.643     2.542
 285   1 H      0.049  0.951  0.000  0.000     2.336     2.390
 286   1 H      0.037  0.963  0.000  0.000     2.495     2.470
 287   1 H      0.051  0.949  0.000  0.000     2.310     2.377
 288   1 H      0.048  0.952  0.000  0.000     2.340     2.392
 289   1 H      0.049  0.951  0.000  0.000     2.331     2.388
 290   1 H      0.039  0.961  0.000  0.000     2.456     2.451
 291   7 N     -0.397  1.314  4.083  0.000    30.298     8.175
 292   6 C      0.042  1.059  2.899  0.000    19.881     6.351
 293   6 C      0.207  1.092  2.701  0.000    23.615     7.958
 294   8 O     -0.389  1.757  4.632  0.000    21.461     6.211
 295   6 C     -0.016  1.064  2.952  0.000    20.823     6.490
 296   6 C     -0.119  1.041  3.078  0.000    22.834     6.813
 297   6 C     -0.109  1.038  3.070  0.000    22.632     6.783
 298   1 H      0.177  0.823  0.000  0.000     1.232     1.739
 299   1 H      0.031  0.969  0.000  0.000     2.570     2.507
 300   1 H      0.056  0.944  0.000  0.000     2.246     2.343
 301   1 H      0.058  0.942  0.000  0.000     2.221     2.331
 302   1 H      0.037  0.963  0.000  0.000     2.494     2.470
 303   1 H      0.043  0.957  0.000  0.000     2.410     2.428
 304   1 H      0.047  0.953  0.000  0.000     2.352     2.398
 305   1 H      0.034  0.966  0.000  0.000     2.529     2.487
 306   1 H      0.038  0.962  0.000  0.000     2.472     2.459
 307   7 N     -0.389  1.312  4.077  0.000    30.076     8.145
 308   6 C      0.038  1.054  2.908  0.000    19.945     6.362
 309   6 C      0.196  1.096  2.708  0.000    23.817     7.992
 310   8 O     -0.360  1.739  4.620  0.000    20.894     6.128
 311   6 C     -0.075  1.063  3.012  0.000    21.930     6.666
 312   6 C     -0.017  1.059  2.958  0.000    20.844     6.494
 313   6 C     -0.119  1.040  3.079  0.000    22.837     6.814
 314   6 C     -0.119  1.042  3.076  0.000    22.826     6.812
 315   1 H      0.167  0.833  0.000  0.000     1.289     1.778
 316   1 H      0.053  0.947  0.000  0.000     2.281     2.362
 317   1 H      0.054  0.946  0.000  0.000     2.270     2.356
 318   1 H      0.053  0.947  0.000  0.000     2.282     2.362
 319   1 H      0.041  0.959  0.000  0.000     2.432     2.439
 320   1 H      0.041  0.959  0.000  0.000     2.435     2.440
 321   1 H      0.046  0.954  0.000  0.000     2.371     2.408
 322   1 H      0.040  0.960  0.000  0.000     2.454     2.450
 323   1 H      0.044  0.956  0.000  0.000     2.392     2.418
 324   1 H      0.033  0.967  0.000  0.000     2.541     2.493
 325   1 H      0.042  0.958  0.000  0.000     2.416     2.431
 326   7 N     -0.392  1.313  4.078  0.000    30.138     8.153
 327   6 C      0.031  1.062  2.907  0.000    20.061     6.379
 328   6 C      0.272  1.047  2.681  0.000    22.402     7.751
 329   8 O     -0.510  1.752  4.758  0.000    24.015     6.570
 330   6 C     -0.024  1.066  2.958  0.000    20.961     6.512
 331   6 C     -0.115  1.039  3.076  0.000    22.751     6.801
 332   6 C     -0.111  1.039  3.072  0.000    22.671     6.789
 333   1 H      0.157  0.843  0.000  0.000     1.356     1.824
 334   1 H      0.020  0.980  0.000  0.000     2.737     2.587
 335   1 H      0.056  0.944  0.000  0.000     2.245     2.343
 336   1 H      0.048  0.952  0.000  0.000     2.347     2.396
 337   1 H      0.044  0.956  0.000  0.000     2.398     2.422
 338   1 H      0.031  0.969  0.000  0.000     2.571     2.508
 339   1 H      0.046  0.954  0.000  0.000     2.376     2.411
 340   1 H      0.033  0.967  0.000  0.000     2.549     2.497
 341   1 H      0.038  0.962  0.000  0.000     2.479     2.462
 342   7 N     -0.180  1.249  3.932  0.000    24.907     7.412
 343   6 C      0.024  1.062  2.914  0.000    20.165     6.394
 344   6 C      0.207  1.081  2.712  0.000    23.605     7.957
 345   8 O     -0.362  1.754  4.608  0.000    20.946     6.136
 346   6 C     -0.026  1.063  2.963  0.000    21.002     6.518
 347   6 C     -0.139  1.045  3.094  0.000    23.227     6.871
 348   6 C     -0.136  1.044  3.091  0.000    23.162     6.862
 349   1 H      0.245  0.755  0.000  0.000     0.902     1.488
 350   1 H      0.072  0.928  0.000  0.000     2.067     2.248
 351   1 H      0.060  0.940  0.000  0.000     2.199     2.319
 352   1 H      0.076  0.924  0.000  0.000     2.024     2.225
 353   1 H      0.042  0.958  0.000  0.000     2.422     2.434
 354   1 H      0.062  0.938  0.000  0.000     2.175     2.306
 355   1 H      0.068  0.932  0.000  0.000     2.108     2.271
 356   1 H      0.059  0.941  0.000  0.000     2.208     2.324
 357   1 H      0.055  0.945  0.000  0.000     2.255     2.348
 358   7 N     -0.394  1.312  4.082  0.000    30.208     8.163
 359   6 C      0.042  1.058  2.900  0.000    19.879     6.350
 360   6 C      0.205  1.093  2.702  0.000    23.644     7.963
 361   8 O     -0.395  1.762  4.633  0.000    21.584     6.229
 362   6 C     -0.023  1.069  2.954  0.000    20.946     6.509
 363   6 C     -0.056  1.048  3.009  0.000    21.585     6.614
 364   6 C     -0.119  1.039  3.080  0.000    22.841     6.814
 365   6 C     -0.107  1.037  3.070  0.000    22.599     6.779
 366   1 H      0.180  0.820  0.000  0.000     1.213     1.725
 367   1 H      0.030  0.970  0.000  0.000     2.593     2.518
 368   1 H      0.065  0.935  0.000  0.000     2.140     2.288
 369   1 H      0.023  0.977  0.000  0.000     2.686     2.563
 370   1 H      0.037  0.963  0.000  0.000     2.494     2.469
 371   1 H      0.069  0.931  0.000  0.000     2.091     2.261
 372   1 H      0.036  0.964  0.000  0.000     2.499     2.472
 373   1 H      0.027  0.973  0.000  0.000     2.634     2.538
 374   1 H      0.033  0.967  0.000  0.000     2.542     2.493
 375   1 H      0.043  0.957  0.000  0.000     2.413     2.429
 376   1 H      0.045  0.955  0.000  0.000     2.382     2.414
 377   7 N     -0.396  1.314  4.082  0.000    30.269     8.171
 378   6 C      0.035  1.056  2.908  0.000    19.998     6.370
 379   6 C      0.193  1.099  2.708  0.000    23.875     8.002
 380   8 O     -0.384  1.753  4.631  0.000    21.359     6.196
 381   6 C     -0.080  1.059  3.021  0.000    22.026     6.681
 382   6 C     -0.084  1.054  3.030  0.000    22.110     6.695
 383   6 C     -0.032  1.056  2.977  0.000    21.236     6.577
 384   7 N     -0.135  1.205  3.931  0.000    23.933     7.266
 385   6 C      0.229  1.022  2.750  0.000    23.197     7.885
 386   7 N     -0.237  1.248  3.988  0.000    26.193     7.601
 387   7 N     -0.254  1.256  3.998  0.000    26.606     7.661
 388   1 H      0.177  0.823  0.000  0.000     1.229     1.737
 389   1 H      0.057  0.943  0.000  0.000     2.240     2.340
 390   1 H      0.070  0.930  0.000  0.000     2.082     2.257
 391   1 H      0.065  0.935  0.000  0.000     2.138     2.287
 392   1 H      0.066  0.934  0.000  0.000     2.128     2.281
 393   1 H      0.074  0.926  0.000  0.000     2.044     2.236
 394   1 H      0.094  0.906  0.000  0.000     1.842     2.122
 395   1 H      0.090  0.910  0.000  0.000     1.877     2.142
 396   1 H      0.230  0.770  0.000  0.000     0.965     1.539
 397   1 H      0.243  0.757  0.000  0.000     0.910     1.495
 398   1 H      0.244  0.756  0.000  0.000     0.906     1.491
 399   1 H      0.242  0.758  0.000  0.000     0.914     1.497
 400   1 H      0.246  0.754  0.000  0.000     0.899     1.486
 401   1 H      0.167  0.833  0.000  0.000     1.294     1.782
 402   1 H      0.059  0.941  0.000  0.000     2.206     2.322
 403   1 H      0.168  0.832  0.000  0.000     1.282     1.774
 404   1 H      0.063  0.937  0.000  0.000     2.169     2.303
 405   1 H      0.178  0.822  0.000  0.000     1.227     1.735
 406   1 H      0.081  0.919  0.000  0.000     1.972     2.196
 407   1 H      0.172  0.828  0.000  0.000     1.259     1.758
 408   1 H      0.084  0.916  0.000  0.000     1.938     2.177
 409   1 H      0.182  0.818  0.000  0.000     1.204     1.719
 410   1 H      0.063  0.937  0.000  0.000     2.158     2.297
 411   1 H      0.172  0.828  0.000  0.000     1.262     1.760
 412   1 H      0.070  0.930  0.000  0.000     2.081     2.256
 413   1 H      0.172  0.828  0.000  0.000     1.257     1.756
 414   1 H      0.081  0.919  0.000  0.000     1.971     2.196
 415   1 H      0.175  0.825  0.000  0.000     1.243     1.746
 416   1 H      0.062  0.938  0.000  0.000     2.177     2.307
 417   1 H      0.170  0.830  0.000  0.000     1.271     1.766
 418   1 H      0.078  0.922  0.000  0.000     1.998     2.210

 Mol. C6AA /au·bohr⁶  :    1455422.643945
 Mol. C8AA /au·bohr⁸  :   31502287.246449
 Mol. α(0) /au        :       1793.084307

 
 Wiberg/Mayer (AO) data. WBOs > 0.1 written file <wbo>
 largest (>0.05) Wiberg bond orders for each atom
           total WBO             WBO to atom ...
     1  N   2.988    C    2 1.008    H  401 0.961    H   10 0.951
     2  C   3.981    N    1 1.008    C    5 0.978    H   11 0.961    C    3 0.942
     3  C   3.944    O    4 1.595    N   18 1.321    C    2 0.942
     4  O   1.953    C    3 1.595    N   18 0.193
     5  C   3.993    C    6 1.009    C    2 0.978    H   13 0.973    H   12 0.970
     6  C   3.995    C    5 1.009    C    7 0.970    H   15 0.962    H   14 0.952    O    8 0.055
     7  C   3.942    O    8 1.626    N    9 1.319    C    6 0.970
     8  O   1.928    C    7 1.626    N    9 0.198    C    6 0.055
     9  N   3.396    C    7 1.319    H   17 0.929    H   16 0.892    O    8 0.198
    10  H   0.971    N    1 0.951
    11  H   0.998    C    2 0.961
    12  H   0.996    C    5 0.970
    13  H   0.996    C    5 0.973
    14  H   0.993    C    6 0.952
    15  H   0.995    C    6 0.962
    16  H   0.943    N    9 0.892
    17  H   0.951    N    9 0.929
    18  N   3.482    C    3 1.321    C   19 0.976    H   26 0.916    O    4 0.193
    19  C   3.959    C   22 0.978    N   18 0.976    H   27 0.942    C   20 0.938
    20  C   3.938    O   21 1.620    N   37 1.287    C   19 0.938
    21  O   1.980    C   20 1.620    N   37 0.187
    22  C   3.983    C   23 0.990    C   19 0.978    H   28 0.969    H   29 0.966
    23  C   3.992    C   25 1.009    C   24 1.007    C   22 0.990    H   30 0.966
    24  C   3.993    C   23 1.007    H   32 0.986    H   31 0.984    H   33 0.984
    25  C   3.993    C   23 1.009    H   35 0.984    H   34 0.983    H   36 0.981
    26  H   0.952    N   18 0.916
    27  H   0.989    C   19 0.942
    28  H   0.998    C   22 0.969
    29  H   0.995    C   22 0.966
    30  H   0.998    C   23 0.966
    31  H   0.996    C   24 0.984
    32  H   0.999    C   24 0.986
    33  H   0.998    C   24 0.984
    34  H   0.996    C   25 0.983
    35  H   0.997    C   25 0.984
    36  H   0.998    C   25 0.981
    37  N   3.459    C   20 1.287    C   38 0.982    H   46 0.920    O   21 0.187
    38  C   3.971    N   37 0.982    C   41 0.980    H   47 0.946    C   39 0.936
    39  C   3.944    O   40 1.618    N   52 1.299    C   38 0.936
    40  O   1.970    C   39 1.618    N   52 0.190
    41  C   3.991    C   42 1.008    C   38 0.980    H   49 0.976    H   48 0.967
    42  C   3.989    C   41 1.008    H   50 0.976    H   51 0.953    C   43 0.921    O   44 0.052
    43  C   3.934    O   44 1.501    O   45 1.490    C   42 0.921
    44  O   1.793    C   43 1.501    O   45 0.216    C   42 0.052
    45  O   1.778    C   43 1.490    O   44 0.216
    46  H   0.959    N   37 0.920
    47  H   0.995    C   38 0.946
    48  H   0.998    C   41 0.967
    49  H   0.999    C   41 0.976
    50  H   0.999    C   42 0.976
    51  H   0.998    C   42 0.953
    52  N   3.461    C   39 1.299    C   53 0.971    H   59 0.918    O   40 0.190
    53  C   3.956    N   52 0.971    H   60 0.954    C   56 0.949    C   54 0.941
    54  C   3.957    O   55 1.576    N   66 1.350    C   53 0.941
    55  O   1.946    C   54 1.576    N   66 0.198
    56  C   3.945    C   58 1.004    O   57 0.992    H   61 0.952    C   53 0.949
    57  O   1.961    C   56 0.992    H   62 0.883
    58  C   3.985    C   56 1.004    H   65 0.984    H   64 0.981    H   63 0.980
    59  H   0.963    N   52 0.918
    60  H   0.997    C   53 0.954
    61  H   0.998    C   56 0.952
    62  H   0.907    O   57 0.883
    63  H   0.992    C   58 0.980
    64  H   0.996    C   58 0.981
    65  H   0.997    C   58 0.984
    66  N   3.495    C   54 1.350    C   67 0.963    H   73 0.888    O   55 0.198
    67  C   3.941    N   66 0.963    C   70 0.961    H   74 0.950    C   68 0.935
    68  C   3.947    O   69 1.609    N   82 1.317    C   67 0.935
    69  O   1.962    C   68 1.609    N   82 0.196
    70  C   3.979    C   72 1.007    C   71 1.006    H   75 0.961    C   67 0.961
    71  C   3.986    C   70 1.006    H   78 0.982    H   77 0.982    H   76 0.981
    72  C   3.990    C   70 1.007    H   80 0.984    H   81 0.981    H   79 0.980
    73  H   0.946    N   66 0.888
    74  H   0.992    C   67 0.950
    75  H   0.997    C   70 0.961
    76  H   0.993    C   71 0.981
    77  H   0.998    C   71 0.982
    78  H   0.995    C   71 0.982
    79  H   0.994    C   72 0.980
    80  H   0.996    C   72 0.984
    81  H   0.998    C   72 0.981
    82  N   3.472    C   68 1.317    C   83 0.979    H   90 0.884    O   69 0.196
    83  C   3.965    C   86 0.980    N   82 0.979    H   91 0.943    C   84 0.940
    84  C   3.936    O   85 1.589    N  101 1.315    C   83 0.940
    85  O   1.965    C   84 1.589    N  101 0.189
    86  C   3.985    C   87 0.993    C   83 0.980    H   93 0.973    H   92 0.966
    87  C   3.993    C   88 1.008    C   89 1.007    C   86 0.993    H   94 0.969
    88  C   3.993    C   87 1.008    H   96 0.982    H   95 0.982    H   97 0.978
    89  C   3.994    C   87 1.007    H  100 0.985    H   99 0.984    H   98 0.981
    90  H   0.947    N   82 0.884
    91  H   0.991    C   83 0.943
    92  H   0.993    C   86 0.966
    93  H   0.999    C   86 0.973
    94  H   1.000    C   87 0.969
    95  H   0.998    C   88 0.982
    96  H   0.998    C   88 0.982
    97  H   0.996    C   88 0.978
    98  H   0.997    C   89 0.981
    99  H   0.997    C   89 0.984
   100  H   0.999    C   89 0.985
   101  N   3.474    C   84 1.315    C  102 0.982    H  110 0.891    O   85 0.189
   102  C   3.973    N  101 0.982    C  105 0.982    H  111 0.954    C  103 0.936
   103  C   3.950    O  104 1.616    N  116 1.313    C  102 0.936
   104  O   1.953    C  103 1.616    N  116 0.194
   105  C   3.992    C  106 1.010    C  102 0.982    H  113 0.969    H  112 0.965
   106  C   3.991    C  105 1.010    H  114 0.972    H  115 0.965    C  107 0.931    O  108 0.053
   107  C   3.932    O  108 1.510    O  109 1.469    C  106 0.931
   108  O   1.804    C  107 1.510    O  109 0.213    C  106 0.053
   109  O   1.750    C  107 1.469    O  108 0.213
   110  H   0.951    N  101 0.891
   111  H   0.998    C  102 0.954
   112  H   0.998    C  105 0.965
   113  H   0.998    C  105 0.969
   114  H   0.999    C  106 0.972
   115  H   0.999    C  106 0.965
   116  N   3.475    C  103 1.313    C  117 0.985    H  120 0.914    O  104 0.194
   117  C   3.955    N  116 0.985    H  121 0.963    H  122 0.955    C  118 0.944    O  119 0.050
   118  C   3.954    O  119 1.600    N  123 1.338    C  117 0.944
   119  O   1.955    C  118 1.600    N  123 0.201    C  117 0.050
   120  H   0.954    N  116 0.914
   121  H   0.994    C  117 0.963
   122  H   0.987    C  117 0.955
   123  N   3.484    C  118 1.338    C  124 0.972    H  130 0.887    O  119 0.201
   124  C   3.954    N  123 0.972    C  127 0.963    H  131 0.948    C  125 0.937
   125  C   3.942    O  126 1.605    N  139 1.314    C  124 0.937
   126  O   1.960    C  125 1.605    N  139 0.193
   127  C   3.982    C  128 1.007    C  129 1.006    C  124 0.963    H  132 0.955
   128  C   3.991    C  127 1.007    H  134 0.984    H  135 0.981    H  133 0.981
   129  C   3.988    C  127 1.006    H  138 0.981    H  137 0.980    H  136 0.979
   130  H   0.944    N  123 0.887
   131  H   0.993    C  124 0.948
   132  H   0.997    C  127 0.955
   133  H   0.995    C  128 0.981
   134  H   0.999    C  128 0.984
   135  H   0.997    C  128 0.981
   136  H   0.994    C  129 0.979
   137  H   0.996    C  129 0.980
   138  H   0.996    C  129 0.981
   139  N   3.471    C  125 1.314    C  140 0.983    H  146 0.882    O  126 0.193
   140  C   3.971    N  139 0.983    C  143 0.970    H  147 0.950    C  141 0.938
   141  C   3.944    O  142 1.624    N  155 1.297    C  140 0.938
   142  O   1.947    C  141 1.624    N  155 0.191
   143  C   3.991    C  144 1.008    C  145 1.007    C  140 0.970    H  148 0.961
   144  C   3.994    C  143 1.008    H  151 0.985    H  149 0.985    H  150 0.985
   145  C   3.992    C  143 1.007    H  152 0.985    H  153 0.984    H  154 0.976
   146  H   0.947    N  139 0.882
   147  H   0.996    C  140 0.950
   148  H   0.999    C  143 0.961
   149  H   0.997    C  144 0.985
   150  H   0.999    C  144 0.985
   151  H   0.997    C  144 0.985
   152  H   0.998    C  145 0.985
   153  H   0.997    C  145 0.984
   154  H   0.996    C  145 0.976
   155  N   3.461    C  141 1.297    C  156 0.983    H  161 0.906    O  142 0.191
   156  C   3.969    N  155 0.983    C  159 0.982    H  162 0.950    C  157 0.932
   157  C   3.954    O  158 1.610    N  166 1.327    C  156 0.932
   158  O   1.957    C  157 1.610    N  166 0.200
   159  C   3.958    O  160 0.999    C  156 0.982    H  164 0.966    H  163 0.965
   160  O   1.919    C  159 0.999    H  165 0.866
   161  H   0.953    N  155 0.906
   162  H   0.995    C  156 0.950
   163  H   0.997    C  159 0.965
   164  H   0.998    C  159 0.966
   165  H   0.879    O  160 0.866
   166  N   3.476    C  157 1.327    C  167 0.970    H  175 0.890    O  158 0.200
   167  C   3.956    C  170 0.981    N  166 0.970    H  176 0.953    C  168 0.931    O  169 0.050
   168  C   3.949    O  169 1.616    N  183 1.314    C  167 0.931
   169  O   1.960    C  168 1.616    N  183 0.195    C  167 0.050
   170  C   3.982    C  171 1.004    C  167 0.981    H  178 0.971    H  177 0.961
   171  C   3.993    C  170 1.004    C  172 0.978    H  180 0.955    H  179 0.950
   172  C   3.951    O  173 1.615    N  174 1.326    C  171 0.978
   173  O   1.970    C  172 1.615    N  174 0.197
   174  N   3.402    C  172 1.326    H  181 0.936    H  182 0.898    O  173 0.197
   175  H   0.947    N  166 0.890
   176  H   0.995    C  167 0.953
   177  H   0.994    C  170 0.961
   178  H   0.994    C  170 0.971
   179  H   0.993    C  171 0.950
   180  H   0.995    C  171 0.955
   181  H   0.954    N  174 0.936
   182  H   0.934    N  174 0.898
   183  N   3.480    C  168 1.314    C  184 0.976    H  191 0.896    O  169 0.195
   184  C   3.963    N  183 0.976    C  185 0.972    C  187 0.953    H  192 0.949    O  186 0.054
   185  C   3.900    O  186 1.892    C  184 0.972    H  402 0.955
   186  O   2.039    C  185 1.892    C  184 0.054
   187  C   3.982    C  189 1.008    C  188 0.993    H  193 0.959    C  184 0.953
   188  C   3.993    C  190 1.018    C  187 0.993    H  194 0.976    H  195 0.972
   189  C   3.993    C  187 1.008    H  198 0.985    H  197 0.981    H  196 0.980
   190  C   3.995    C  188 1.018    H  200 0.985    H  201 0.983    H  199 0.983
   191  H   0.950    N  183 0.896
   192  H   0.993    C  184 0.949
   193  H   0.997    C  187 0.959
   194  H   0.997    C  188 0.976
   195  H   0.997    C  188 0.972
   196  H   0.996    C  189 0.980
   197  H   0.999    C  189 0.981
   198  H   0.997    C  189 0.985
   199  H   0.996    C  190 0.983
   200  H   0.999    C  190 0.985
   201  H   0.998    C  190 0.983
   202  N   2.991    C  203 1.012    H  403 0.961    H  207 0.933
   203  C   3.986    N  202 1.012    C  206 0.993    H  208 0.966    C  204 0.937
   204  C   3.943    O  205 1.608    N  212 1.320    C  203 0.937
   205  O   1.929    C  204 1.608    N  212 0.197
   206  C   3.993    C  203 0.993    H  209 0.986    H  210 0.983    H  211 0.981
   207  H   0.970    N  202 0.933
   208  H   0.999    C  203 0.966
   209  H   0.998    C  206 0.986
   210  H   0.997    C  206 0.983
   211  H   0.996    C  206 0.981
   212  N   3.484    C  204 1.320    C  213 0.976    H  219 0.897    O  205 0.197
   213  C   3.962    N  212 0.976    C  214 0.972    C  216 0.954    H  220 0.949    O  215 0.055
   214  C   3.898    O  215 1.885    C  213 0.972    H  404 0.956
   215  O   2.029    C  214 1.885    C  213 0.055
   216  C   3.985    C  217 1.007    C  218 1.007    H  221 0.963    C  213 0.954
   217  C   3.993    C  216 1.007    H  224 0.985    H  223 0.984    H  222 0.983
   218  C   3.991    C  216 1.007    H  226 0.985    H  225 0.982    H  227 0.978
   219  H   0.949    N  212 0.897
   220  H   0.994    C  213 0.949
   221  H   0.997    C  216 0.963
   222  H   0.995    C  217 0.983
   223  H   0.999    C  217 0.984
   224  H   0.997    C  217 0.985
   225  H   0.995    C  218 0.982
   226  H   0.997    C  218 0.985
   227  H   0.997    C  218 0.978
   228  O   1.778    H  229 0.886    H  230 0.872
   229  H   0.886    O  228 0.886
   230  H   0.906    O  228 0.872
   231  O   1.824    H  233 0.907    H  232 0.856
   232  H   0.902    O  231 0.856
   233  H   0.915    O  231 0.907
   234  O   1.790    H  235 0.899    H  236 0.891
   235  H   0.899    O  234 0.899
   236  H   0.891    O  234 0.891
   237  N   3.001    C  238 1.010    H  407 0.959    H  245 0.952
   238  C   3.984    N  237 1.010    C  239 0.976    C  241 0.965    H  246 0.957    O  240 0.054
   239  C   3.889    O  240 1.876    C  238 0.976    H  408 0.952
   240  O   2.056    C  239 1.876    C  238 0.054
   241  C   3.990    C  242 0.992    H  247 0.971    H  248 0.970    C  238 0.965
   242  C   3.996    C  244 1.009    C  243 1.006    C  241 0.992    H  249 0.968
   243  C   3.993    C  242 1.006    H  251 0.986    H  250 0.983    H  252 0.981
   244  C   3.995    C  242 1.009    H  254 0.983    H  255 0.982    H  253 0.976
   245  H   0.973    N  237 0.952
   246  H   0.998    C  238 0.957
   247  H   0.996    C  241 0.971
   248  H   0.997    C  241 0.970
   249  H   0.999    C  242 0.968
   250  H   0.998    C  243 0.983
   251  H   0.998    C  243 0.986
   252  H   0.996    C  243 0.981
   253  H   0.999    C  244 0.976
   254  H   0.997    C  244 0.983
   255  H   0.999    C  244 0.982
   256  N   2.995    C  257 1.012    H  409 0.957    H  263 0.954
   257  C   3.983    N  256 1.012    H  264 0.965    C  260 0.965    C  258 0.937
   258  C   3.945    O  259 1.607    N  272 1.320    C  257 0.937
   259  O   1.952    C  258 1.607    N  272 0.197
   260  C   3.994    C  261 1.008    C  262 1.008    C  257 0.965    H  265 0.963
   261  C   3.996    C  260 1.008    H  268 0.986    H  266 0.986    H  267 0.982
   262  C   3.995    C  260 1.008    H  270 0.986    H  269 0.985    H  271 0.983
   263  H   0.977    N  256 0.954
   264  H   0.998    C  257 0.965
   265  H   0.998    C  260 0.963
   266  H   0.999    C  261 0.986
   267  H   0.999    C  261 0.982
   268  H   0.998    C  261 0.986
   269  H   0.998    C  262 0.985
   270  H   0.998    C  262 0.986
   271  H   0.998    C  262 0.983
   272  N   3.471    C  258 1.320    C  273 0.975    H  280 0.880    O  259 0.197
   273  C   3.964    N  272 0.975    C  274 0.974    C  276 0.967    H  281 0.944    O  275 0.054
   274  C   3.903    O  275 1.892    C  273 0.974    H  410 0.955
   275  O   2.048    C  274 1.892    C  273 0.054
   276  C   3.982    C  277 0.993    H  283 0.972    C  273 0.967    H  282 0.966
   277  C   3.993    C  278 1.009    C  279 1.008    C  276 0.993    H  284 0.968
   278  C   3.994    C  277 1.009    H  286 0.983    H  285 0.981    H  287 0.979
   279  C   3.994    C  277 1.008    H  290 0.987    H  289 0.985    H  288 0.983
   280  H   0.942    N  272 0.880
   281  H   0.993    C  273 0.944
   282  H   0.995    C  276 0.966
   283  H   0.997    C  276 0.972
   284  H   0.999    C  277 0.968
   285  H   0.998    C  278 0.981
   286  H   0.999    C  278 0.983
   287  H   0.997    C  278 0.979
   288  H   0.997    C  279 0.983
   289  H   0.997    C  279 0.985
   290  H   0.998    C  279 0.987
   291  N   2.996    C  292 1.009    H  411 0.959    H  298 0.930
   292  C   3.984    N  291 1.009    C  293 0.976    H  299 0.963    C  295 0.950    O  294 0.054
   293  C   3.888    O  294 1.884    C  292 0.976    H  412 0.954
   294  O   2.020    C  293 1.884    C  292 0.054
   295  C   3.990    C  297 1.009    C  296 1.008    H  300 0.955    C  292 0.950
   296  C   3.995    C  295 1.008    H  303 0.983    H  302 0.982    H  301 0.982
   297  C   3.996    C  295 1.009    H  305 0.986    H  306 0.983    H  304 0.980
   298  H   0.969    N  291 0.930
   299  H   0.999    C  292 0.963
   300  H   0.997    C  295 0.955
   301  H   0.997    C  296 0.982
   302  H   0.999    C  296 0.982
   303  H   0.998    C  296 0.983
   304  H   0.996    C  297 0.980
   305  H   0.999    C  297 0.986
   306  H   0.999    C  297 0.983
   307  N   2.998    C  308 1.007    H  413 0.957    H  315 0.953
   308  C   3.983    N  307 1.007    C  309 0.981    C  311 0.962    H  316 0.955    O  310 0.053
   309  C   3.888    O  310 1.867    C  308 0.981    H  414 0.953
   310  O   2.066    C  309 1.867    C  308 0.053
   311  C   3.990    C  312 0.994    H  318 0.973    H  317 0.968    C  308 0.962
   312  C   3.995    C  313 1.009    C  314 1.008    C  311 0.994    H  319 0.967
   313  C   3.995    C  312 1.009    H  321 0.982    H  320 0.982    H  322 0.980
   314  C   3.995    C  312 1.008    H  324 0.985    H  325 0.983    H  323 0.981
   315  H   0.972    N  307 0.953
   316  H   0.997    C  308 0.955
   317  H   0.997    C  311 0.968
   318  H   0.997    C  311 0.973
   319  H   0.998    C  312 0.967
   320  H   0.998    C  313 0.982
   321  H   0.998    C  313 0.982
   322  H   0.998    C  313 0.980
   323  H   0.998    C  314 0.981
   324  H   0.999    C  314 0.985
   325  H   0.998    C  314 0.983
   326  N   2.993    C  327 1.010    H  415 0.959    H  333 0.953
   327  C   3.982    N  326 1.010    C  330 0.966    H  334 0.965    C  328 0.936
   328  C   3.945    O  329 1.608    N  342 1.321    C  327 0.936
   329  O   1.952    C  328 1.608    N  342 0.198
   330  C   3.992    C  332 1.009    C  331 1.009    C  327 0.966    H  335 0.955
   331  C   3.995    C  330 1.009    H  338 0.987    H  336 0.983    H  337 0.983
   332  C   3.996    C  330 1.009    H  340 0.987    H  341 0.984    H  339 0.982
   333  H   0.975    N  326 0.953
   334  H   0.999    C  327 0.965
   335  H   0.997    C  330 0.955
   336  H   0.998    C  331 0.983
   337  H   0.998    C  331 0.983
   338  H   0.999    C  331 0.987
   339  H   0.997    C  332 0.982
   340  H   0.999    C  332 0.987
   341  H   0.999    C  332 0.984
   342  N   3.472    C  328 1.321    C  343 0.974    H  349 0.876    O  329 0.198
   343  C   3.962    N  342 0.974    C  344 0.972    C  346 0.955    H  350 0.947    O  345 0.054
   344  C   3.903    O  345 1.887    C  343 0.972    H  416 0.955
   345  O   2.043    C  344 1.887    C  343 0.054
   346  C   3.983    C  347 1.007    C  348 1.007    H  351 0.964    C  343 0.955
   347  C   3.990    C  346 1.007    H  353 0.981    H  354 0.981    H  352 0.979
   348  C   3.989    C  346 1.007    H  356 0.983    H  355 0.980    H  357 0.975
   349  H   0.940    N  342 0.876
   350  H   0.995    C  343 0.947
   351  H   0.996    C  346 0.964
   352  H   0.994    C  347 0.979
   353  H   0.998    C  347 0.981
   354  H   0.996    C  347 0.981
   355  H   0.994    C  348 0.980
   356  H   0.996    C  348 0.983
   357  H   0.997    C  348 0.975
   358  N   3.000    C  359 1.010    H  417 0.959    H  366 0.931
   359  C   3.984    N  358 1.010    C  360 0.978    H  367 0.963    C  362 0.948    O  361 0.053
   360  C   3.886    O  361 1.880    C  359 0.978    H  418 0.953
   361  O   2.016    C  360 1.880    C  359 0.053
   362  C   3.990    C  364 1.009    C  363 0.995    H  368 0.957    C  359 0.948
   363  C   3.997    C  365 1.017    C  362 0.995    H  369 0.978    H  370 0.972
   364  C   3.994    C  362 1.009    H  373 0.986    H  372 0.981    H  371 0.977
   365  C   3.995    C  363 1.017    H  375 0.984    H  374 0.984    H  376 0.983
   366  H   0.968    N  358 0.931
   367  H   0.999    C  359 0.963
   368  H   0.996    C  362 0.957
   369  H   0.999    C  363 0.978
   370  H   0.999    C  363 0.972
   371  H   0.995    C  364 0.977
   372  H   0.999    C  364 0.981
   373  H   0.999    C  364 0.986
   374  H   0.998    C  365 0.984
   375  H   0.998    C  365 0.984
   376  H   0.998    C  365 0.983
   377  N   2.997    C  378 1.022    H  405 0.957    H  388 0.948
   378  C   3.985    N  377 1.022    C  379 0.979    C  381 0.959    H  389 0.944    O  380 0.060
   379  C   3.880    O  380 1.858    C  378 0.979    H  406 0.953
   380  O   2.041    C  379 1.858    C  378 0.060
   381  C   3.986    C  382 1.005    H  391 0.971    H  390 0.971    C  378 0.959
   382  C   3.990    C  381 1.005    C  383 0.998    H  392 0.971    H  393 0.969
   383  C   3.951    C  382 0.998    N  384 0.985    H  395 0.962    H  394 0.955
   384  N   3.470    C  385 1.311    C  383 0.985    H  396 0.915    N  386 0.101    N  387 0.098
   385  C   3.976    N  386 1.323    N  384 1.311    N  387 1.305
   386  N   3.397    C  385 1.323    H  398 0.916    H  397 0.906    N  384 0.101    N  387 0.097
   387  N   3.375    C  385 1.305    H  399 0.920    H  400 0.914    N  384 0.098    N  386 0.097
   388  H   0.969    N  377 0.948
   389  H   0.997    C  378 0.944
   390  H   0.995    C  381 0.971
   391  H   0.996    C  381 0.971
   392  H   0.995    C  382 0.971
   393  H   0.994    C  382 0.969
   394  H   0.991    C  383 0.955
   395  H   0.991    C  383 0.962
   396  H   0.947    N  384 0.915
   397  H   0.941    N  386 0.906
   398  H   0.940    N  386 0.916
   399  H   0.941    N  387 0.920
   400  H   0.939    N  387 0.914
   401  H   0.972    N    1 0.961
   402  H   0.996    C  185 0.955
   403  H   0.972    N  202 0.961
   404  H   0.996    C  214 0.956
   405  H   0.968    N  377 0.957
   406  H   0.993    C  379 0.953
   407  H   0.970    N  237 0.959
   408  H   0.993    C  239 0.952
   409  H   0.967    N  256 0.957
   410  H   0.996    C  274 0.955
   411  H   0.971    N  291 0.959
   412  H   0.995    C  293 0.954
   413  H   0.970    N  307 0.957
   414  H   0.993    C  309 0.953
   415  H   0.969    N  326 0.959
   416  H   0.996    C  344 0.955
   417  H   0.971    N  358 0.959
   418  H   0.994    C  360 0.953
 
molecular dipole:
                 x           y           z       tot (Debye)
 q only:      -41.215      24.987     -41.592
   full:      -41.487      22.325     -46.911     168.992
molecular quadrupole (traceless):
                xx          xy          yy          xz          yz          zz
 q only:     -945.804    2385.775    3245.882   -2293.831    1238.153   -2300.078
  q+dip:     -696.227    2172.242    3388.196   -2709.869     923.864   -2691.969
   full:     -690.908    2171.745    3389.727   -2709.032     926.613   -2698.819
speedup  9.29
cpu  time for grad   24.52 s
wall time for grad    2.64 s

SCC energy    :    -611.4669409
rep           :       7.4600522
ES            :       1.8867050
AES           :      -0.0577578
AXC           :       0.2141091
disp          :      -0.5181810
XB            :       0.0000000
fix           :       0.0000000
Gborn         :       0.0000000
Gsasa         :       0.0000000
Ghb           :       0.0000000
Gshift        :       0.0000000
Gsolv         :      -0.4953877     -310.86
Etot ala COSMO:    -611.4669409
grad norm     :       0.6672097
total E       :    -603.9586359
atomizationE  :     111.9457691    70247.03
(atE without considering molecular charge,
 total energy contains solvation terms)
H-L gap (eV)  :          1.3962

------------------------------------------------------------------------
 * finished run on 2019/02/18 at 08:33:02.793     
------------------------------------------------------------------------
 total:
 * wall-time:     0 d,  0 h,  0 min,  2.966 sec
 *  cpu-time:     0 d,  0 h,  0 min, 28.265 sec
 * ratio c/w:     9.528 speedup
 SCF:
 * wall-time:     0 d,  0 h,  0 min,  2.813 sec
 *  cpu-time:     0 d,  0 h,  0 min, 26.586 sec
 * ratio c/w:     9.452 speedup

