      -----------------------------------------------------------      
     |                   =====================                   |     
     |                           x T B                           |     
     |                   =====================                   |     
     |                         S. Grimme                         |     
     |          Mulliken Center for Theoretical Chemistry        |     
     |                    University of Bonn                     |     
     |                 Version 6.0.1 (SAW181210)                 |     
      -----------------------------------------------------------      

   This program is distributed in the hope that it will be useful,
   but WITHOUT ANY WARRANTY; without even the implied warranty of
   MERCHANTABILITY or FITNESS FOR A PARTICULAR PURPOSE.
   
   FOR NON-COMMERCIAL, ACADEMIA USE ONLY.
   
   Cite this work as:
   S. Grimme, C. Bannwarth, P. Shushkov, J. Comput. Theory Chem., 2017,
   13, 1989-2009.
   C. Bannwarth, S. Ehlert and S. Grimme., ChemRxiv, 2018, preprint.
   http://doi.org/10.26434/chemrxiv.7246238.v1
   
   for sTDA-xTB:
   S. Grimme and C. Bannwarth, J. Chem. Phys., 2016, 145, 054103.
   
   in the mass-spec context:
   V. Asgeirsson, C. Bauer and S. Grimme, Chem. Sci., 2017, 8, 4879.
   
   if GBSA is used:
   P. Shushkov, F. März and S. Grimme, unpublished.
   
   for ANC optimizer:
   S. Grimme, unpublished.
   Rational Function algorithm used in ANCopt:
   F. Eckert, P. Pulay, H.-J. Werner, J. Comput. Chem., 1997, 18, 1473.
   
   with help from (in alphabetical order)
   C. Bannwarth, F. Bohle, G. Brandenburg, E. Caldeweyher, M. Checinski,
   S. Dohm, S. Ehlert, S. Ehrlich, F. März, H. Neugebauer, J. Pisarek,
   P. Pracht, P. Shushkov, and S. Spicher.
   
 * started run on 2019/05/07 at 22:47:07.307     
========================================================================
 # omp threads = 2
========================================================================
number of atoms            : 155
number of electrons        : 412
charge                     : 1
spin                       : .0
first test random number   : .1643

########################################################################
# WARNING! Please study the warnings concerning your input carefully
#  - Process number higher than OMP_NUM_THREADS, I hope you know what you are doing.
########################################################################

           ------------------------------------------------- 
          |                 G F N 2 - x T B                 |
          | Geometry, Frequencies, Noncovalent interactions |
          |            JCTC 2018 parametrisation            |
           ------------------------------------------------- 
 
      method parameters     
 k(s)        :  1.8500
 k(p)        :  2.2300
 k(d)        :  2.2300
 k(f)        :  2.0000
 kEN (H0ij)  : -2.0000
 D4 a1       :  0.5200
 D4 a2       :  5.0000
 D4 s6       :  1.0000
 D4 s8       :  2.7000
 D4 s9       :  5.0000
 alphaj      :  2.0000

 Solvent             : h2o
 Using internal parameter file: .param_gbsa2_h2o
 Gsolv ref. state (COSMO-RS): gsolv [1 M gas/solution]
 temperature (mdtemp)       :    298.150000000000     
 dielectric constant        :    80.2000000000000     
 rho                        :    1.00000000000000     
 mass                       :    18.0000000000000     
 surface tension            :    15.5689454083859     
 probe radius               :   0.975313790000000     
 vdW radii scaling          :    1.00000000000000     
 Gshift (Eh)                :   1.857443126794793E-003
 c1                         :    1.55243817000000     
 soset                      :   0.130326360000000     
 HB correction              :  T

            Z     q(EN)     CN     RAES       Cart. coordinates
     1  N   5.0   -0.14    3.43    2.04   102.44840    93.22121   391.77201
     2  C   4.0    0.04    4.54    4.60   104.29691    92.29866   389.99916
     3  C   4.0    0.15    3.49    3.11   106.33249    90.74569   391.25085
     4  O   6.0   -0.29    1.23    1.80   106.98492    90.98317   393.44828
     5  C   4.0   -0.04    4.38    4.35   105.78568    94.58201   389.01343
     6  C   4.0   -0.04    4.25    4.10   104.85787    96.78282   390.58110
     7  C   4.0    0.01    4.27    4.14   103.19178    95.66637   392.66289
     8  H   1.0    0.06    1.05    1.44   103.37057    91.21613   388.50104
     9  H   1.0    0.05    1.04    1.43   107.81091    94.28274   389.21632
    10  H   1.0    0.05    1.02    1.43   105.39680    94.83275   387.00498
    11  H   1.0    0.04    1.02    1.43   106.38715    97.87203   391.41934
    12  H   1.0    0.05    1.03    1.43   103.74854    98.07980   389.42954
    13  H   1.0    0.06    1.02    1.43   104.25448    95.44515   394.42614
    14  H   1.0    0.05    1.02    1.43   101.57818    96.88947   393.06611
    15  N   5.0   -0.14    3.46    2.05   107.49918    89.19498   389.60123
    16  C   4.0    0.04    4.37    4.33   109.62267    87.64781   390.37119
    17  C   4.0    0.16    3.51    3.12   112.15571    89.06457   390.25380
    18  O   6.0   -0.31    1.30    1.80   112.53018    91.01322   389.09186
    19  C   4.0    0.03    4.14    3.88   109.86902    85.23078   388.78439
    20  O   6.0   -0.26    2.09    1.84   111.97480    85.35682   387.06952
    21  H   1.0    0.10    1.08    1.44   106.95604    89.23663   387.76690
    22  H   1.0    0.06    1.07    1.44   109.23850    87.19803   392.35580
    23  H   1.0    0.05    1.01    1.43   110.15366    83.58476   390.00282
    24  H   1.0    0.06    1.01    1.43   108.11185    84.96145   387.72666
    25  H   1.0    0.12    1.03    1.43   111.57910    84.21041   385.70940
    26  N   5.0   -0.15    3.51    2.09   113.93821    87.96792   391.74156
    27  C   4.0    0.04    4.46    4.47   116.29196    89.36096   391.91967
    28  C   4.0    0.16    3.46    3.10   117.53416    89.33785   389.33034
    29  O   6.0   -0.30    1.27    1.80   118.20498    91.36553   388.45265
    30  C   4.0   -0.05    4.20    4.01   118.07413    88.59957   394.05736
    31  C   4.0   -0.04    4.12    3.83   117.26053    89.26100   396.79440
    32  C   4.0   -0.04    4.12    3.84   116.10152    86.99021   398.24163
    33  C   4.0   -0.03    4.10    3.80   113.33271    86.45998   397.42404
    34  N   5.0   -0.12    4.00    2.85   112.65699    83.74629   397.75879
    35  H   1.0    0.07    1.06    1.44   113.96280    86.06455   391.91539
    36  H   1.0    0.06    1.08    1.44   115.76329    91.34453   392.21129
    37  H   1.0    0.05    1.03    1.43   118.47282    86.57988   393.92290
    38  H   1.0    0.05    1.03    1.43   119.84489    89.57683   393.65786
    39  H   1.0    0.05    1.03    1.43   118.94474    89.87470   397.79835
    40  H   1.0    0.05    1.02    1.43   115.93166    90.82992   396.76969
    41  H   1.0    0.05    1.03    1.43   117.29536    85.35227   397.87603
    42  H   1.0    0.05    1.02    1.43   116.18885    87.39111   400.25301
    43  H   1.0    0.05    1.02    1.43   112.08271    87.62134   398.57593
    44  H   1.0    0.05    1.05    1.44   113.06818    87.02800   395.46917
    45  H   1.0    0.07    1.02    1.43   110.80717    83.37369   397.28395
    46  H   1.0    0.06    1.02    1.43   113.85015    82.57587   396.75632
    47  H   1.0    0.07    1.02    1.43   112.90474    83.28105   399.64277
    48  N   5.0   -0.14    3.40    2.02   117.67814    87.11498   388.09805
    49  C   4.0    0.03    4.26    4.11   118.35851    86.85731   385.36934
    50  C   4.0    0.16    3.34    3.06   117.25174    89.06021   383.68313
    51  O   6.0   -0.31    1.25    1.80   118.59863    90.29693   382.24069
    52  C   4.0   -0.05    4.17    3.93   117.54588    84.13942   384.52965
    53  C   4.0   -0.04    4.10    3.80   117.41382    83.39390   381.68313
    54  C   4.0   -0.04    4.12    3.84   119.87670    83.11769   380.16637
    55  C   4.0   -0.03    4.10    3.80   121.64058    80.96994   380.94981
    56  N   5.0   -0.11    4.01    2.88   120.86059    78.47971   379.90112
    57  H   1.0    0.08    1.07    1.44   116.92709    85.54728   388.88393
    58  H   1.0    0.06    1.04    1.44   120.41104    87.08013   385.19399
    59  H   1.0    0.04    1.02    1.43   118.79874    82.84138   385.52676
    60  H   1.0    0.05    1.04    1.43   115.63420    83.87223   385.24309
    61  H   1.0    0.05    1.03    1.43   116.35485    81.62559   381.61700
    62  H   1.0    0.05    1.03    1.43   116.26933    84.81179   380.71694
    63  H   1.0    0.05    1.03    1.43   119.37578    82.91761   378.17768
    64  H   1.0    0.05    1.03    1.43   120.91496    84.89047   380.33313
    65  H   1.0    0.05    1.02    1.43   123.54089    81.39153   380.27555
    66  H   1.0    0.05    1.02    1.43   121.69741    80.83176   383.00539
    67  H   1.0    0.07    1.02    1.43   122.10317    77.09550   380.47905
    68  H   1.0    0.06    1.02    1.43   119.07111    78.01185   380.50835
    69  H   1.0    0.07    1.02    1.43   120.86498    78.54173   377.95421
    70  N   5.0   -0.14    3.47    2.06   114.74317    89.41299   383.92069
    71  C   4.0    0.03    4.39    4.37   113.30611    91.21315   382.45573
    72  C   4.0    0.15    3.39    3.07   114.03437    94.00695   382.88698
    73  O   6.0   -0.32    1.24    1.80   114.03516    95.50946   381.10658
    74  C   4.0   -0.03    4.32    4.24   110.52120    90.82829   383.09831
    75  C   4.0   -0.03    4.17    3.94   109.51100    88.28779   382.22141
    76  C   4.0    0.25    3.09    3.02   106.69984    87.92565   383.11363
    77  O   6.0   -0.29    1.20    1.80   105.59729    89.85711   383.90170
    78  O   6.0   -0.26    1.15    1.80   105.78837    85.74504   383.01811
    79  H   1.0    0.10    1.09    1.44   113.75589    88.38861   385.20547
    80  H   1.0    0.05    1.05    1.44   113.62385    90.85963   380.43362
    81  H   1.0    0.06    1.03    1.43   110.28062    91.02700   385.14033
    82  H   1.0    0.06    1.03    1.43   109.37471    92.31077   382.23554
    83  H   1.0    0.06    1.02    1.43   109.44249    88.21427   380.15831
    84  H   1.0    0.05    1.03    1.43   110.64772    86.70752   382.87175
    85  N   5.0   -0.14    3.52    2.09   114.47668    94.62552   385.30253
    86  C   4.0    0.03    4.52    4.56   115.26770    97.11722   386.17725
    87  C   4.0    0.16    3.51    3.12   117.79104    97.65534   384.96300
    88  O   6.0   -0.29    1.24    1.80   118.19200    99.64202   383.85175
    89  C   4.0   -0.02    4.34    4.27   115.38374    97.29493   389.07504
    90  C   4.0   -0.04    4.22    4.03   112.66866    97.09332   390.05288
    91  C   4.0   -0.06    4.14    3.88   116.62893    99.75272   389.87676
    92  C   4.0   -0.06    4.02    3.66   112.51373    96.87410   392.89606
    93  H   1.0    0.11    1.10    1.44   114.32361    93.25088   386.63193
    94  H   1.0    0.05    1.06    1.44   113.92844    98.53008   385.45886
    95  H   1.0    0.06    1.05    1.44   116.50433    95.70024   389.76708
    96  H   1.0    0.04    1.03    1.43   111.61456    98.75591   389.43135
    97  H   1.0    0.06    1.04    1.43   111.78994    95.43686   389.20391
    98  H   1.0    0.05    1.00    1.43   116.70999    99.88771   391.92335
    99  H   1.0    0.06    1.00    1.43   118.54835    99.89771   389.15105
   100  H   1.0    0.05    1.00    1.43   115.56906   101.36501   389.16805
   101  H   1.0    0.05    1.00    1.43   110.54570    96.75804   393.47660
   102  H   1.0    0.05    1.00    1.43   113.47818    95.17175   393.52459
   103  H   1.0    0.05    1.00    1.43   113.36639    98.48385   393.83622
   104  N   5.0   -0.13    3.43    2.04   119.48438    95.80523   385.14191
   105  C   4.0    0.03    4.26    4.13   121.97596    96.03296   384.02965
   106  C   4.0    0.17    3.36    3.07   121.85128    96.41283   381.18125
   107  O   6.0   -0.25    1.22    1.80   123.20692    97.97976   380.12188
   108  H   1.0    0.11    1.09    1.44   119.09261    94.24251   386.18549
   109  H   1.0    0.07    1.02    1.43   122.99345    97.64230   384.84214
   110  H   1.0    0.06    1.03    1.43   123.01904    94.30083   384.42372
   111  N   5.0   -0.13    3.48    2.06   120.20020    94.90262   380.00767
   112  C   4.0    0.05    4.33    4.25   119.71818    95.11148   377.29688
   113  C   4.0    0.17    3.42    3.08   119.11784    97.86716   376.56508
   114  O   6.0   -0.24    1.19    1.80   120.30907    98.98575   374.91216
   115  C   4.0   -0.06    4.10    3.81   117.57032    93.35229   376.50984
   116  H   1.0    0.12    1.10    1.44   119.34922    93.45256   380.94308
   117  H   1.0    0.07    1.05    1.44   121.45254    94.61882   376.26861
   118  H   1.0    0.06    1.00    1.43   117.24274    93.53646   374.49030
   119  H   1.0    0.06    1.00    1.43   118.08624    91.41535   376.94697
   120  H   1.0    0.07    1.01    1.43   115.84046    93.84106   377.50007
   121  N   5.0   -0.13    3.45    2.04   117.16984    98.83783   377.90520
   122  C   4.0    0.04    4.30    4.19   116.25927   101.43577   377.66292
   123  C   4.0    0.11    3.25    3.04   118.49650   103.27239   378.10229
   124  O   6.0   -0.23    1.10    1.80   119.22086   104.74523   376.43660
   125  C   4.0   -0.04    4.33    4.26   114.05794   101.97697   379.41052
   126  C   4.0   -0.03    4.12    3.83   113.27483   104.71588   379.11479
   127  S   6.0   -0.02    2.48    3.10   111.24886   105.73570   381.70275
   128  C   4.0   -0.05    3.90    3.47   113.74488   106.04023   384.01304
   129  H   1.0    0.11    1.09    1.44   116.27394    97.73932   379.19840
   130  H   1.0    0.07    1.05    1.44   115.67473   101.73344   375.68768
   131  H   1.0    0.05    1.03    1.43   112.47497   100.73602   378.96332
   132  H   1.0    0.06    1.04    1.43   114.63915   101.60114   381.35229
   133  H   1.0    0.06    1.08    1.44   114.90556   105.96934   379.08503
   134  H   1.0    0.06    1.07    1.44   112.19239   104.99375   377.38412
   135  H   1.0    0.06    1.05    1.44   112.87890   106.76916   385.72575
   136  H   1.0    0.05    1.04    1.43   114.58278   104.20539   384.39030
   137  H   1.0    0.06    1.04    1.43   115.16098   107.35992   383.33529
   138  N   5.0   -0.19    3.17    1.95   102.40445    99.63726   378.91906
   139  C   4.0    0.04    4.22    4.04   104.02946    99.69277   381.13391
   140  C   4.0    0.08    3.22    3.04   104.03088   102.42953   382.24402
   141  O   6.0   -0.27    1.10    1.80   103.56906   102.92820   384.48662
   142  C   4.0    0.05    4.20    3.99   106.81176    98.90664   380.61684
   143  O   6.0   -0.24    2.09    1.84   107.10315    96.36550   379.77240
   144  C   4.0   -0.07    4.13    3.85   108.28197    99.19878   383.07184
   145  H   1.0    0.10    1.02    1.43   103.21312    99.08362   377.27084
   146  H   1.0    0.06    1.04    1.44   103.24675    98.42264   382.58084
   147  H   1.0    0.05    1.03    1.43   107.56057   100.18074   379.15355
   148  H   1.0    0.13    1.03    1.43   108.88759    96.00508   379.75520
   149  H   1.0    0.05    1.00    1.43   110.24025    98.64353   382.75775
   150  H   1.0    0.05    1.01    1.43   108.24692   101.13671   383.74633
   151  H   1.0    0.05    1.00    1.43   107.48948    97.96541   384.51379
   152  H   1.0    0.10    1.10    1.44   100.91174    92.62607   391.35124
   153  H   1.0    0.08    1.04    1.43   119.39420   103.28727   379.76512
   154  H   1.0    0.11    1.07    1.44   101.11716    98.55835   379.18630
   155  H   1.0    0.07    1.04    1.43   104.42016   103.90246   381.12599

  Z AO/shell   Hii/eV     exponent
  1     Wed Apr 25 08:07:45 CEST 2018   EN: 2.200 GM2: 0.406  GM3: 0.0800  RAES: 1.40
     1s    -10.707211    1.230000
  6     Wed Apr 25 08:07:45 CEST 2018   EN: 2.550 GM2: 0.538  GM3: 0.1500  RAES: 3.00
     2s    -13.970922    2.096432
     2p    -10.063292    1.800000
  7     Wed Apr 25 08:07:45 CEST 2018   EN: 3.040 GM2: 0.461  GM3:-0.0640  RAES: 1.90
     2s    -16.686243    2.339881
     2p    -12.523956    2.014332
  8     Wed Apr 25 08:07:45 CEST 2018   EN: 3.440 GM2: 0.452  GM3:-0.0517  RAES: 1.80
     2s    -20.229985    2.439742
     2p    -15.503117    2.137023
 16     Tue Apr 24 11:44:34 CEST 2018   EN: 2.580 GM2: 0.340  GM3:-0.0502  RAES: 3.10
     3s    -20.029654    1.981333
     3p    -11.377694    2.025643
     3d     -0.420282    1.702555
 no old-style atom pair restraining (fixing) potential

molecular fragmentation (1/2 indicates fragments):
111111111111111111111111111111111111111111111111111111111111111111111111
111111111111111111111111111111111111111111111111111111111111111112222222
22222221122
# atoms in fragment 1/2:   139    16
 fragment masses (1/2) :      945.16      103.12
CMA distance (Bohr)    :  12.161
constraining FC (au)   :  0.0500
           ------------------------------------------------- 
          |        Self-Consistent Charge Iterations        |
           ------------------------------------------------- 

 Ncao       : 377
 Nao        : 376
 Nshell     : 228
 Nel        : 412
 T(el)      :   500.0
 intcut     :    35.0
 scfconv/Eh :  0.100E-06
   qconv/e  :  0.100E-04
 intneglect :  0.100E-08
 broydamp   :      0.400
 iter      E             dE          RMSdq      gap      omega  full diag
   1   -235.7983739 -0.235798E+03  0.461E+00    2.75       0.0  T
   2   -236.3225386 -0.524165E+00  0.219E+00    1.15       1.0  T
   3   -236.3531903 -0.306517E-01  0.122E+00    1.45       1.0  T
   4   -236.3945199 -0.413296E-01  0.274E-01    1.04       1.0  T
   5   -236.3968351 -0.231525E-02  0.133E-01    1.23       1.0  T
   6   -236.3972291 -0.393933E-03  0.537E-02    1.20       1.0  T
   7   -236.3973243 -0.952037E-04  0.236E-02    1.19       1.0  T
   8   -236.3973356 -0.113278E-04  0.948E-03    1.19       1.0  T
   9   -236.3973381 -0.249358E-05  0.399E-03    1.19       2.0  T
  10   -236.3973384 -0.325646E-06  0.154E-03    1.19       5.2  T
  11   -236.3973385 -0.746451E-07  0.696E-04    1.19      11.5  T
  12   -236.3973385 -0.127482E-07  0.275E-04    1.19      29.2  T
  13   -236.3973385 -0.114937E-08  0.116E-04    1.19      69.0  T
  14   -236.3973385 -0.279897E-09  0.454E-05    1.19     177.0  T
  15   -236.3973385 -0.429452E-10  0.199E-05    1.19     404.3  T
speedup  1.55
cpu  time for SCC    1.57 s
wall time for SCC    1.01 s

   *** convergence criteria satisfied after 15 iterations ***

          eigenvalues
 #    :         194        195        196        197        198        199        200        201
 occ. :        2.000      2.000      2.000      2.000      2.000      2.000      2.000      2.000
 eps  :       -11.166    -11.107    -11.068    -11.027    -10.948    -10.908    -10.899    -10.849
 #    :         202        203        204        205        206        207        208        209
 occ. :        2.000      2.000      2.000      2.000      2.000      0.000      0.000      0.000
 eps  :       -10.425    -10.245     -9.959     -9.903     -9.270     -8.082     -7.965     -7.013
 #    :         210        211        212        213        214        215        216        217
 occ. :        0.000      0.000      0.000      0.000      0.000      0.000      0.000      0.000
 eps  :        -6.744     -6.573     -6.456     -6.255     -6.140     -6.011     -5.822     -5.693


   #   Z            q   n(s)   n(p)   n(d)      C6AA      α(0)
   1   7 N     -0.273  1.217  4.056  0.000    27.049     7.724
   2   6 C      0.031  1.055  2.914  0.000    20.024     6.366
   3   6 C      0.273  1.048  2.679  0.000    22.391     7.750
   4   8 O     -0.465  1.730  4.735  0.000    23.020     6.433
   5   6 C     -0.046  1.048  2.998  0.000    21.359     6.575
   6   6 C     -0.061  1.049  3.012  0.000    21.652     6.621
   7   6 C      0.016  1.045  2.939  0.000    20.336     6.426
   8   1 H      0.015  0.985  0.000  0.000     2.808     2.620
   9   1 H      0.034  0.966  0.000  0.000     2.530     2.487
  10   1 H      0.024  0.976  0.000  0.000     2.680     2.560
  11   1 H      0.042  0.958  0.000  0.000     2.416     2.431
  12   1 H      0.032  0.968  0.000  0.000     2.553     2.499
  13   1 H      0.046  0.954  0.000  0.000     2.374     2.410
  14   1 H      0.030  0.970  0.000  0.000     2.588     2.516
  15   7 N     -0.196  1.244  3.952  0.000    25.245     7.462
  16   6 C      0.008  1.062  2.929  0.000    20.441     6.438
  17   6 C      0.286  1.043  2.671  0.000    22.157     7.709
  18   8 O     -0.462  1.750  4.712  0.000    22.968     6.425
  19   6 C      0.054  1.047  2.899  0.000    19.887     6.390
  20   8 O     -0.473  1.713  4.759  0.000    22.312     6.376
  21   1 H      0.181  0.819  0.000  0.000     1.210     1.723
  22   1 H      0.106  0.894  0.000  0.000     1.730     2.057
  23   1 H      0.088  0.912  0.000  0.000     1.900     2.156
  24   1 H      0.045  0.955  0.000  0.000     2.381     2.413
  25   1 H      0.334  0.666  0.000  0.000     0.628     1.244
  26   7 N     -0.199  1.269  3.930  0.000    25.313     7.472
  27   6 C      0.013  1.063  2.924  0.000    20.354     6.422
  28   6 C      0.272  1.044  2.684  0.000    22.405     7.751
  29   8 O     -0.498  1.750  4.748  0.000    23.747     6.533
  30   6 C     -0.089  1.059  3.030  0.000    22.201     6.709
  31   6 C     -0.079  1.055  3.023  0.000    22.004     6.680
  32   6 C     -0.099  1.062  3.036  0.000    22.385     6.737
  33   6 C     -0.062  1.059  3.003  0.000    21.789     6.664
  34   7 N     -0.144  1.229  3.915  0.000    24.100     7.291
  35   1 H      0.238  0.762  0.000  0.000     0.933     1.513
  36   1 H      0.084  0.916  0.000  0.000     1.943     2.180
  37   1 H      0.088  0.912  0.000  0.000     1.897     2.154
  38   1 H      0.066  0.934  0.000  0.000     2.135     2.285
  39   1 H      0.068  0.932  0.000  0.000     2.113     2.273
  40   1 H      0.056  0.944  0.000  0.000     2.243     2.342
  41   1 H      0.091  0.909  0.000  0.000     1.865     2.136
  42   1 H      0.081  0.919  0.000  0.000     1.973     2.197
  43   1 H      0.116  0.884  0.000  0.000     1.649     2.008
  44   1 H      0.109  0.891  0.000  0.000     1.706     2.042
  45   1 H      0.294  0.706  0.000  0.000     0.732     1.340
  46   1 H      0.300  0.700  0.000  0.000     0.714     1.324
  47   1 H      0.300  0.700  0.000  0.000     0.712     1.322
  48   7 N     -0.187  1.258  3.929  0.000    25.053     7.434
  49   6 C     -0.001  1.086  2.915  0.000    20.629     6.472
  50   6 C      0.272  1.051  2.677  0.000    22.404     7.750
  51   8 O     -0.483  1.751  4.733  0.000    23.422     6.489
  52   6 C     -0.100  1.068  3.032  0.000    22.411     6.741
  53   6 C     -0.079  1.054  3.025  0.000    22.010     6.681
  54   6 C     -0.092  1.050  3.042  0.000    22.250     6.716
  55   6 C     -0.053  1.057  2.996  0.000    21.617     6.637
  56   7 N     -0.144  1.228  3.916  0.000    24.106     7.292
  57   1 H      0.231  0.769  0.000  0.000     0.960     1.535
  58   1 H      0.095  0.905  0.000  0.000     1.830     2.116
  59   1 H      0.100  0.900  0.000  0.000     1.787     2.090
  60   1 H      0.076  0.924  0.000  0.000     2.026     2.226
  61   1 H      0.076  0.924  0.000  0.000     2.016     2.221
  62   1 H      0.038  0.962  0.000  0.000     2.479     2.462
  63   1 H      0.077  0.923  0.000  0.000     2.012     2.218
  64   1 H      0.074  0.926  0.000  0.000     2.038     2.232
  65   1 H      0.118  0.882  0.000  0.000     1.633     1.999
  66   1 H      0.127  0.873  0.000  0.000     1.557     1.951
  67   1 H      0.304  0.696  0.000  0.000     0.701     1.311
  68   1 H      0.297  0.703  0.000  0.000     0.724     1.333
  69   1 H      0.293  0.707  0.000  0.000     0.736     1.344
  70   7 N     -0.178  1.246  3.932  0.000    24.847     7.403
  71   6 C      0.023  1.063  2.915  0.000    20.203     6.401
  72   6 C      0.267  1.048  2.684  0.000    22.484     7.764
  73   8 O     -0.511  1.749  4.763  0.000    24.036     6.573
  74   6 C     -0.048  1.047  3.002  0.000    21.430     6.589
  75   6 C     -0.100  1.066  3.033  0.000    22.404     6.740
  76   6 C      0.369  1.026  2.605  0.000    20.750     7.454
  77   8 O     -0.643  1.780  4.863  0.000    27.192     6.991
  78   8 O     -0.648  1.775  4.873  0.000    27.322     7.008
  79   1 H      0.221  0.779  0.000  0.000     1.005     1.570
  80   1 H      0.065  0.935  0.000  0.000     2.141     2.288
  81   1 H      0.050  0.950  0.000  0.000     2.318     2.381
  82   1 H      0.037  0.963  0.000  0.000     2.490     2.468
  83   1 H      0.023  0.977  0.000  0.000     2.688     2.564
  84   1 H      0.050  0.950  0.000  0.000     2.319     2.381
  85   7 N     -0.184  1.253  3.931  0.000    24.996     7.425
  86   6 C      0.024  1.064  2.912  0.000    20.167     6.394
  87   6 C      0.280  1.035  2.684  0.000    22.254     7.726
  88   8 O     -0.506  1.753  4.753  0.000    23.907     6.556
  89   6 C     -0.023  1.066  2.958  0.000    20.954     6.510
  90   6 C     -0.059  1.047  3.012  0.000    21.629     6.620
  91   6 C     -0.113  1.036  3.077  0.000    22.724     6.797
  92   6 C     -0.107  1.035  3.072  0.000    22.604     6.780
  93   1 H      0.234  0.766  0.000  0.000     0.950     1.527
  94   1 H      0.056  0.944  0.000  0.000     2.249     2.345
  95   1 H      0.064  0.936  0.000  0.000     2.149     2.293
  96   1 H      0.030  0.970  0.000  0.000     2.592     2.517
  97   1 H      0.042  0.958  0.000  0.000     2.427     2.436
  98   1 H      0.068  0.932  0.000  0.000     2.110     2.272
  99   1 H      0.034  0.966  0.000  0.000     2.536     2.490
 100   1 H      0.039  0.961  0.000  0.000     2.462     2.454
 101   1 H      0.041  0.959  0.000  0.000     2.437     2.441
 102   1 H      0.046  0.954  0.000  0.000     2.369     2.407
 103   1 H      0.047  0.953  0.000  0.000     2.352     2.399
 104   7 N     -0.180  1.243  3.937  0.000    24.893     7.410
 105   6 C     -0.029  1.052  2.976  0.000    21.151     6.559
 106   6 C      0.284  1.036  2.681  0.000    22.196     7.715
 107   8 O     -0.517  1.766  4.751  0.000    24.158     6.590
 108   1 H      0.234  0.766  0.000  0.000     0.949     1.526
 109   1 H      0.080  0.920  0.000  0.000     1.975     2.198
 110   1 H      0.100  0.900  0.000  0.000     1.786     2.090
 111   7 N     -0.193  1.255  3.938  0.000    25.184     7.453
 112   6 C      0.026  1.063  2.911  0.000    20.141     6.391
 113   6 C      0.282  1.045  2.674  0.000    22.232     7.721
 114   8 O     -0.498  1.762  4.736  0.000    23.739     6.532
 115   6 C     -0.135  1.044  3.091  0.000    23.150     6.861
 116   1 H      0.239  0.761  0.000  0.000     0.928     1.509
 117   1 H      0.068  0.932  0.000  0.000     2.111     2.272
 118   1 H      0.064  0.936  0.000  0.000     2.148     2.292
 119   1 H      0.087  0.913  0.000  0.000     1.911     2.162
 120   1 H      0.066  0.934  0.000  0.000     2.124     2.279
 121   7 N     -0.185  1.252  3.933  0.000    25.012     7.428
 122   6 C      0.036  1.060  2.904  0.000    19.982     6.366
 123   6 C      0.211  1.089  2.699  0.000    23.524     7.943
 124   8 O     -0.368  1.763  4.605  0.000    21.051     6.151
 125   6 C     -0.065  1.049  3.016  0.000    21.709     6.628
 126   6 C     -0.009  1.063  2.946  0.000    20.742     6.484
 127  16 S     -0.213  1.915  4.252  0.046   150.123    20.622
 128   6 C     -0.058  1.053  3.005  0.000    21.687     6.643
 129   1 H      0.227  0.773  0.000  0.000     0.978     1.549
 130   1 H      0.073  0.927  0.000  0.000     2.058     2.244
 131   1 H      0.068  0.932  0.000  0.000     2.105     2.269
 132   1 H      0.071  0.929  0.000  0.000     2.073     2.252
 133   1 H      0.043  0.957  0.000  0.000     2.411     2.428
 134   1 H      0.062  0.938  0.000  0.000     2.177     2.307
 135   1 H      0.073  0.927  0.000  0.000     2.052     2.240
 136   1 H      0.056  0.944  0.000  0.000     2.247     2.344
 137   1 H      0.055  0.945  0.000  0.000     2.257     2.349
 138   7 N     -0.382  1.312  4.070  0.000    29.879     8.118
 139   6 C      0.034  1.065  2.901  0.000    20.017     6.374
 140   6 C      0.195  1.103  2.701  0.000    23.830     7.994
 141   8 O     -0.365  1.762  4.603  0.000    21.003     6.144
 142   6 C      0.118  1.047  2.834  0.000    18.749     6.184
 143   8 O     -0.480  1.725  4.755  0.000    22.460     6.398
 144   6 C     -0.121  1.042  3.079  0.000    22.873     6.819
 145   1 H      0.174  0.826  0.000  0.000     1.249     1.751
 146   1 H      0.052  0.948  0.000  0.000     2.301     2.372
 147   1 H      0.027  0.973  0.000  0.000     2.636     2.539
 148   1 H      0.317  0.683  0.000  0.000     0.671     1.287
 149   1 H      0.047  0.953  0.000  0.000     2.352     2.398
 150   1 H      0.053  0.947  0.000  0.000     2.288     2.365
 151   1 H      0.051  0.949  0.000  0.000     2.302     2.373
 152   1 H      0.168  0.832  0.000  0.000     1.287     1.777
 153   1 H      0.075  0.925  0.000  0.000     2.031     2.229
 154   1 H      0.189  0.811  0.000  0.000     1.162     1.688
 155   1 H      0.087  0.913  0.000  0.000     1.911     2.162

 Mol. C6AA /au·bohr⁶  :     212366.661285
 Mol. C8AA /au·bohr⁸  :    4770562.949613
 Mol. α(0) /au        :        686.183783

 
molecular dipole:
                 x           y           z       tot (Debye)
 q only:      124.557      63.664     400.027
   full:      124.209      62.601     399.408    1075.014
molecular quadrupole (traceless):
                xx          xy          yy          xz          yz          zz
 q only:   -66359.583   12119.794  -84198.418   74503.787   38820.939  150558.002
  q+dip:   -66096.993   11903.758  -84115.258   74205.774   38127.499  150212.251
   full:   -66095.294   11903.785  -84116.507   74205.565   38130.501  150211.801
speedup  1.45
cpu  time for grad    2.01 s
wall time for grad    1.38 s

SCC energy    :    -236.4027310
rep           :       2.6629381
ES            :       0.9432968
AES           :      -0.0499004
AXC           :       0.0794936
disp          :      -0.1900457
XB            :       0.0000000
fix           :       0.0000000
Gborn         :       0.0000000
Gsasa         :       0.0000000
Ghb           :       0.0000000
Gshift        :       0.0000000
Gsolv         :      -0.3639860     -228.40
Etot ala COSMO:    -236.4027310
grad norm     :       0.3309952
total E       :    -233.7248563
atomizationE  :      41.8023519    26231.37
(atE without considering molecular charge,
 total energy contains solvation terms)
H-L gap (eV)  :          1.1886

------------------------------------------------------------------------
 * finished run on 2019/05/07 at 22:47:09.163     
------------------------------------------------------------------------
 total:
 * wall-time:     0 d,  0 h,  0 min,  1.854 sec
 *  cpu-time:     0 d,  0 h,  0 min,  2.365 sec
 * ratio c/w:     1.276 speedup
 SCF:
 * wall-time:     0 d,  0 h,  0 min,  1.552 sec
 *  cpu-time:     0 d,  0 h,  0 min,  2.252 sec
 * ratio c/w:     1.451 speedup

