      -----------------------------------------------------------      
     |                   =====================                   |     
     |                           x T B                           |     
     |                   =====================                   |     
     |                         S. Grimme                         |     
     |          Mulliken Center for Theoretical Chemistry        |     
     |                    University of Bonn                     |     
     |                 Version 6.0.1 (SAW181210)                 |     
      -----------------------------------------------------------      

   This program is distributed in the hope that it will be useful,
   but WITHOUT ANY WARRANTY; without even the implied warranty of
   MERCHANTABILITY or FITNESS FOR A PARTICULAR PURPOSE.
   
   FOR NON-COMMERCIAL, ACADEMIA USE ONLY.
   
   Cite this work as:
   S. Grimme, C. Bannwarth, P. Shushkov, J. Comput. Theory Chem., 2017,
   13, 1989-2009.
   C. Bannwarth, S. Ehlert and S. Grimme., ChemRxiv, 2018, preprint.
   http://doi.org/10.26434/chemrxiv.7246238.v1
   
   for sTDA-xTB:
   S. Grimme and C. Bannwarth, J. Chem. Phys., 2016, 145, 054103.
   
   in the mass-spec context:
   V. Asgeirsson, C. Bauer and S. Grimme, Chem. Sci., 2017, 8, 4879.
   
   if GBSA is used:
   P. Shushkov, F. März and S. Grimme, unpublished.
   
   for ANC optimizer:
   S. Grimme, unpublished.
   Rational Function algorithm used in ANCopt:
   F. Eckert, P. Pulay, H.-J. Werner, J. Comput. Chem., 1997, 18, 1473.
   
   with help from (in alphabetical order)
   C. Bannwarth, F. Bohle, G. Brandenburg, E. Caldeweyher, M. Checinski,
   S. Dohm, S. Ehlert, S. Ehrlich, F. März, H. Neugebauer, J. Pisarek,
   P. Pracht, P. Shushkov, and S. Spicher.
   
 * started run on 2019/05/12 at 13:13:33.042     
========================================================================
 # omp threads = 2
========================================================================
number of atoms            : 309
number of electrons        : 840
charge                     : 0
spin                       : .0
first test random number   : .2197

########################################################################
# WARNING! Please study the warnings concerning your input carefully
#  - Process number higher than OMP_NUM_THREADS, I hope you know what you are doing.
########################################################################

           ------------------------------------------------- 
          |                 G F N 2 - x T B                 |
          | Geometry, Frequencies, Noncovalent interactions |
          |            JCTC 2018 parametrisation            |
           ------------------------------------------------- 
 
      method parameters     
 k(s)        :  1.8500
 k(p)        :  2.2300
 k(d)        :  2.2300
 k(f)        :  2.0000
 kEN (H0ij)  : -2.0000
 D4 a1       :  0.5200
 D4 a2       :  5.0000
 D4 s6       :  1.0000
 D4 s8       :  2.7000
 D4 s9       :  5.0000
 alphaj      :  2.0000

 Solvent             : h2o
 Using internal parameter file: .param_gbsa2_h2o
 Gsolv ref. state (COSMO-RS): gsolv [1 M gas/solution]
 temperature (mdtemp)       :    298.150000000000     
 dielectric constant        :    80.2000000000000     
 rho                        :    1.00000000000000     
 mass                       :    18.0000000000000     
 surface tension            :    15.5689454083859     
 probe radius               :   0.975313790000000     
 vdW radii scaling          :    1.00000000000000     
 Gshift (Eh)                :   1.857443126794793E-003
 c1                         :    1.55243817000000     
 soset                      :   0.130326360000000     
 HB correction              :  T

            Z     q(EN)     CN     RAES       Cart. coordinates
     1  N   5.0   -0.21    3.19    1.95     4.78508    79.22084   137.97964
     2  C   4.0    0.03    4.21    4.03     2.81140    80.05614   139.67522
     3  C   4.0    0.08    3.21    3.04     0.44136    80.86853   138.23060
     4  O   6.0   -0.28    1.12    1.80    -1.61670    80.89845   139.28552
     5  C   4.0   -0.05    4.25    4.10     3.69611    82.23274   141.37783
     6  C   4.0   -0.05    4.16    3.93     4.49713    81.44347   144.04492
     7  C   4.0   -0.01    4.19    3.99     2.28465    80.51286   145.66283
     8  N   5.0   -0.14    3.40    2.02     2.95568    80.67266   148.32552
     9  C   4.0    0.09    3.33    3.06     1.40776    80.24342   150.25403
    10  N   5.0   -0.18    3.25    1.97    -1.00131    79.65340   149.91841
    11  N   5.0   -0.19    3.24    1.97     2.31242    80.39494   152.61295
    12  H   1.0    0.08    1.03    1.43     6.31384    80.35017   137.76327
    13  H   1.0    0.05    1.06    1.44     2.20529    78.42758   140.80968
    14  H   1.0    0.04    1.03    1.43     5.28156    83.15568   140.43585
    15  H   1.0    0.05    1.04    1.43     2.16880    83.61139   141.52105
    16  H   1.0    0.04    1.02    1.43     5.95063    79.99082   143.91652
    17  H   1.0    0.04    1.03    1.43     5.31269    83.11381   144.93759
    18  H   1.0    0.05    1.02    1.43     0.62085    81.68219   145.28747
    19  H   1.0    0.04    1.02    1.43     1.81133    78.55360   145.20365
    20  H   1.0    0.08    1.07    1.44     4.77032    81.12119   148.71534
    21  H   1.0    0.09    1.02    1.43    -1.82149    79.49104   148.19209
    22  H   1.0    0.08    1.03    1.43    -2.13094    79.41150   151.42676
    23  H   1.0    0.08    1.04    1.43     4.10255    80.95273   152.96008
    24  H   1.0    0.08    1.03    1.43     1.13162    80.30201   154.09952
    25  N   5.0   -0.20    3.22    1.96     4.18750    71.22143   150.63621
    26  C   4.0    0.03    4.43    4.44     6.37373    72.56259   151.60477
    27  C   4.0    0.14    3.54    3.13     8.76485    71.61787   150.30147
    28  O   6.0   -0.29    1.25    1.80     9.35300    69.36689   150.31816
    29  C   4.0   -0.02    4.35    4.29     6.62385    72.16999   154.47915
    30  C   4.0   -0.05    4.19    3.99     4.51088    73.61873   155.82416
    31  C   4.0   -0.07    4.14    3.89     9.21966    73.02202   155.39991
    32  C   4.0   -0.08    4.02    3.65     3.97546    72.59341   158.45800
    33  H   1.0    0.09    1.02    1.43     3.87298    69.46831   151.36917
    34  H   1.0    0.03    1.07    1.44     6.07307    74.56473   151.21657
    35  H   1.0    0.05    1.06    1.44     6.40720    70.14777   154.86075
    36  H   1.0    0.04    1.03    1.43     5.03481    75.61021   155.95004
    37  H   1.0    0.04    1.03    1.43     2.78628    73.46768   154.70042
    38  H   1.0    0.04    1.00    1.43     9.35052    72.79861   157.43843
    39  H   1.0    0.06    1.01    1.43    10.72292    71.90360   154.55799
    40  H   1.0    0.04    1.00    1.43     9.53263    75.00377   154.95721
    41  H   1.0    0.04    1.00    1.43     2.34184    73.53574   159.27111
    42  H   1.0    0.04    1.00    1.43     3.61372    70.57051   158.37867
    43  H   1.0    0.05    1.00    1.43     5.56219    72.90585   159.72134
    44  N   5.0   -0.10    3.67    2.23    10.18226    73.32920   149.13368
    45  C   4.0    0.04    4.49    4.52    12.43740    72.54338   147.75577
    46  C   4.0    0.08    3.19    3.04    14.76153    72.48209   149.50219
    47  O   6.0   -0.30    1.13    1.80    15.60055    74.38253   150.54205
    48  C   4.0   -0.04    4.34    4.27    12.67343    74.56871   145.70823
    49  C   4.0   -0.03    4.27    4.14    11.75057    76.94998   147.05374
    50  C   4.0   -0.01    4.36    4.31     9.62250    75.99938   148.77550
    51  H   1.0    0.05    1.05    1.44    12.13630    70.63966   147.01550
    52  H   1.0    0.05    1.02    1.43    14.59830    74.77280   145.03205
    53  H   1.0    0.04    1.02    1.43    11.41021    74.10531   144.14771
    54  H   1.0    0.07    1.03    1.43    13.25415    77.75574   148.20314
    55  H   1.0    0.04    1.02    1.43    11.09303    78.38860   145.74323
    56  H   1.0    0.04    1.02    1.43     9.61978    77.00947   150.57508
    57  H   1.0    0.04    1.02    1.43     7.77749    76.20344   147.86200
    58  N   5.0   -0.20    3.25    1.97    -1.86566    66.60712   157.35533
    59  C   4.0    0.02    4.31    4.21    -1.93869    68.42510   159.39574
    60  C   4.0    0.15    3.38    3.07    -1.69044    67.12223   161.96909
    61  O   6.0   -0.33    1.29    1.80    -0.31798    67.99509   163.63570
    62  C   4.0   -0.04    4.28    4.16    -4.37423    69.96272   159.08188
    63  C   4.0   -0.04    4.21    4.02    -4.40010    72.43132   160.58280
    64  C   4.0    0.15    3.22    3.04    -6.52679    74.12467   159.64212
    65  O   6.0   -0.28    1.20    1.80    -8.75030    73.52071   159.78564
    66  N   5.0   -0.19    3.18    1.95    -5.78386    76.32289   158.62174
    67  H   1.0    0.09    1.04    1.43    -3.37552    66.58600   156.19329
    68  H   1.0    0.04    1.05    1.44    -0.30404    69.69145   159.22455
    69  H   1.0    0.05    1.04    1.43    -4.52768    70.43699   157.07461
    70  H   1.0    0.06    1.02    1.43    -6.00504    68.80398   159.58583
    71  H   1.0    0.05    1.03    1.43    -4.74308    72.03983   162.57689
    72  H   1.0    0.03    1.03    1.43    -2.58946    73.38850   160.37730
    73  H   1.0    0.08    1.03    1.43    -3.95900    76.83259   158.51544
    74  H   1.0    0.10    1.03    1.43    -7.11136    77.52470   157.96820
    75  N   5.0   -0.14    3.51    2.09    -3.01212    65.01449   162.27341
    76  C   4.0    0.04    4.30    4.20    -3.21219    63.76269   164.68927
    77  C   4.0    0.09    3.20    3.04    -1.94599    61.15338   164.61327
    78  O   6.0   -0.27    1.14    1.80    -2.95267    59.21432   165.34807
    79  C   4.0   -0.03    4.23    4.07    -5.94894    63.55856   165.66625
    80  C   4.0   -0.03    4.19    3.97    -8.01245    63.93747   163.67873
    81  C   4.0    0.26    3.12    3.03    -7.90827    62.01111   161.46682
    82  O   6.0   -0.29    1.30    1.80    -6.37744    62.49378   159.70676
    83  O   6.0   -0.26    1.16    1.80    -9.36962    60.18594   161.52909
    84  H   1.0    0.12    1.17    1.46    -4.20720    64.25876   160.89491
    85  H   1.0    0.05    1.06    1.44    -2.10293    64.87853   166.05271
    86  H   1.0    0.07    1.04    1.43    -6.16203    61.67890   166.49439
    87  H   1.0    0.04    1.02    1.43    -6.24479    64.95391   167.15895
    88  H   1.0    0.06    1.03    1.43    -9.84372    63.73892   164.60677
    89  H   1.0    0.05    1.02    1.43    -7.88645    65.83792   162.88230
    90  N   5.0   -0.18    3.22    1.96     8.69537    63.01567   178.11432
    91  C   4.0    0.04    4.26    4.12     7.65080    65.20701   176.84523
    92  C   4.0    0.16    3.43    3.09     6.62745    64.49178   174.24786
    93  O   6.0   -0.28    1.22    1.80     7.48941    62.70011   173.05969
    94  C   4.0   -0.07    4.13    3.86     9.69917    67.19261   176.42025
    95  H   1.0    0.09    1.03    1.43    10.60659    62.89850   178.18779
    96  H   1.0    0.05    1.05    1.44     6.08755    65.97114   177.97096
    97  H   1.0    0.05    1.00    1.43     9.10741    68.54189   174.98968
    98  H   1.0    0.05    1.00    1.43    10.06307    68.23784   178.15156
    99  H   1.0    0.05    1.00    1.43    11.43278    66.27416   175.80946
   100  N   5.0   -0.14    3.49    2.07     4.81686    66.03292   173.42538
   101  C   4.0    0.04    4.47    4.49     3.89818    66.03850   170.86235
   102  C   4.0    0.16    3.48    3.10     5.55113    67.68924   169.16580
   103  O   6.0   -0.32    1.31    1.80     6.78342    69.48469   169.97264
   104  C   4.0    0.05    4.26    4.11     1.20187    67.16995   170.69855
   105  O   6.0   -0.26    2.15    1.85     1.24167    69.76741   171.28989
   106  C   4.0   -0.06    4.07    3.75    -0.64076    65.70395   172.36054
   107  H   1.0    0.11    1.10    1.44     4.24479    67.49171   174.54550
   108  H   1.0    0.05    1.05    1.44     3.90753    64.10411   170.13519
   109  H   1.0    0.05    1.04    1.43     0.61222    67.07467   168.71083
   110  H   1.0    0.14    1.08    1.44     1.61687    69.91907   173.11517
   111  H   1.0    0.05    1.00    1.43    -2.53477    66.45576   172.11608
   112  H   1.0    0.05    1.00    1.43    -0.62623    63.71557   171.85582
   113  H   1.0    0.06    1.00    1.43    -0.10077    65.91720   174.33264
   114  N   5.0   -0.15    3.52    2.09     5.40619    67.08490   166.73065
   115  C   4.0    0.04    4.51    4.55     6.75466    68.49753   164.82710
   116  C   4.0    0.15    3.47    3.10     5.78010    71.19565   164.65457
   117  O   6.0   -0.33    1.32    1.80     7.21018    72.94119   164.11864
   118  C   4.0   -0.05    4.37    4.34     6.54827    67.15609   162.29168
   119  C   4.0   -0.04    4.09    3.79     8.16982    64.79803   162.30394
   120  S   6.0   -0.05    2.57    3.10    11.50608    65.67359   162.34753
   121  C   4.0   -0.06    3.89    3.46    12.76114    62.50743   162.59482
   122  H   1.0    0.08    1.07    1.44     4.67350    65.37948   166.24697
   123  H   1.0    0.05    1.09    1.44     8.76266    68.64492   165.34463
   124  H   1.0    0.05    1.03    1.43     4.57738    66.67239   161.91518
   125  H   1.0    0.04    1.04    1.43     7.19420    68.42460   160.80062
   126  H   1.0    0.05    1.07    1.44     7.79453    63.64900   163.97444
   127  H   1.0    0.04    1.07    1.44     7.82943    63.70795   160.60121
   128  H   1.0    0.05    1.05    1.44    14.74005    62.67149   163.09300
   129  H   1.0    0.05    1.04    1.43    11.73919    61.52399   164.07937
   130  H   1.0    0.05    1.04    1.43    12.56181    61.55472   160.79117
   131  N   5.0   -0.14    3.54    2.11     3.32771    71.49375   165.09099
   132  C   4.0    0.03    4.36    4.30     2.18421    73.97698   165.26295
   133  C   4.0    0.16    3.51    3.12     3.69966    75.53791   167.15625
   134  O   6.0   -0.31    1.29    1.80     4.52014    77.63509   166.63927
   135  C   4.0   -0.07    4.12    3.85    -0.55152    73.73204   166.12376
   136  H   1.0    0.11    1.11    1.45     2.13221    69.99316   165.06376
   137  H   1.0    0.05    1.05    1.44     2.31126    74.93791   163.43096
   138  H   1.0    0.04    1.00    1.43    -1.50940    75.54012   165.98721
   139  H   1.0    0.05    1.01    1.43    -1.49846    72.35344   164.93818
   140  H   1.0    0.06    1.00    1.43    -0.64162    73.05938   168.06265
   141  N   5.0   -0.14    3.53    2.10     3.96847    74.45617   169.41807
   142  C   4.0    0.04    4.43    4.43     5.45197    75.68526   171.34573
   143  C   4.0    0.16    3.50    3.12     8.13525    76.15997   170.36871
   144  O   6.0   -0.30    1.32    1.80     9.04403    78.29615   170.38052
   145  C   4.0   -0.04    4.24    4.09     5.40448    74.12580   173.78122
   146  C   4.0   -0.03    4.18    3.96     2.82318    74.30290   175.07358
   147  C   4.0    0.25    3.09    3.02     2.31647    72.21620   177.08843
   148  O   6.0   -0.32    1.27    1.80     2.46910    69.95548   176.36239
   149  O   6.0   -0.28    1.16    1.80     1.70527    72.92179   179.23424
   150  H   1.0    0.10    1.09    1.44     3.33870    72.67883   169.76633
   151  H   1.0    0.06    1.06    1.44     4.65431    77.56923   171.71257
   152  H   1.0    0.07    1.03    1.43     5.84232    72.16386   173.31715
   153  H   1.0    0.06    1.02    1.43     6.87391    74.81366   175.06027
   154  H   1.0    0.06    1.04    1.43     2.64242    76.11428   176.02363
   155  H   1.0    0.05    1.03    1.43     1.33034    74.11393   173.66047
   156  N   5.0   -0.14    3.51    2.09     9.39316    74.17566   169.44979
   157  C   4.0    0.04    4.54    4.60    12.01083    74.53606   168.73007
   158  C   4.0    0.16    3.52    3.12    12.23712    76.77244   166.90017
   159  O   6.0   -0.32    1.28    1.80    14.04903    78.21661   166.95423
   160  C   4.0   -0.02    4.33    4.26    13.17662    72.16094   167.55072
   161  C   4.0   -0.05    4.19    3.98    12.86753    69.81138   169.22003
   162  C   4.0   -0.07    4.14    3.89    15.97126    72.62950   167.00682
   163  C   4.0   -0.07    4.03    3.67    13.84422    70.14649   171.90828
   164  H   1.0    0.11    1.10    1.44     8.60769    72.43116   169.46612
   165  H   1.0    0.05    1.05    1.44    13.08860    75.08789   170.42111
   166  H   1.0    0.05    1.05    1.44    12.19766    71.81275   165.75730
   167  H   1.0    0.06    1.04    1.43    10.88435    69.26936   169.31089
   168  H   1.0    0.04    1.03    1.43    13.89510    68.27232   168.30504
   169  H   1.0    0.04    1.00    1.43    16.80688    70.94639   166.18186
   170  H   1.0    0.05    1.00    1.43    16.20648    74.19823   165.70365
   171  H   1.0    0.04    1.00    1.43    16.97324    73.10191   168.73430
   172  H   1.0    0.04    1.00    1.43    13.75691    68.35297   172.90134
   173  H   1.0    0.04    1.00    1.43    15.79034    70.79621   171.92111
   174  H   1.0    0.05    1.00    1.43    12.69632    71.50350   172.94371
   175  N   5.0   -0.14    3.54    2.11    10.45985    76.89086   165.12433
   176  C   4.0    0.04    4.43    4.43    10.51665    78.73254   163.08776
   177  C   4.0    0.16    3.48    3.11    10.07227    81.37774   164.15210
   178  O   6.0   -0.31    1.30    1.80    11.47570    83.16576   163.69232
   179  C   4.0   -0.03    4.34    4.27     8.49485    78.04671   161.12363
   180  C   4.0   -0.02    3.55    3.14     8.78772    79.50490   158.70046
   181  C   4.0   -0.05    3.48    3.11    10.86840    79.05583   157.15604
   182  C   4.0   -0.05    3.45    3.10     7.00741    81.27174   157.93221
   183  C   4.0   -0.05    3.43    3.09    11.13850    80.27918   154.86789
   184  C   4.0   -0.04    3.45    3.09     7.26700    82.52581   155.65306
   185  C   4.0    0.07    3.45    3.09     9.32328    82.01956   154.08209
   186  O   6.0   -0.25    2.12    1.84     9.46162    83.20720   151.82222
   187  H   1.0    0.12    1.13    1.45     9.07393    75.56951   165.07602
   188  H   1.0    0.05    1.05    1.44    12.41027    78.72584   162.23814
   189  H   1.0    0.05    1.03    1.43     8.69308    76.02930   160.74031
   190  H   1.0    0.05    1.03    1.43     6.63606    78.35292   161.95842
   191  H   1.0    0.04    1.03    1.43    12.28085    77.71055   157.75238
   192  H   1.0    0.05    1.03    1.43     5.41560    81.67468   159.13942
   193  H   1.0    0.07    1.03    1.43    12.75406    79.89286   153.68475
   194  H   1.0    0.05    1.03    1.43     5.94603    83.97830   155.10369
   195  H   1.0    0.15    1.09    1.44    11.09763    82.83183   151.04083
   196  N   5.0   -0.14    3.52    2.09     7.97199    81.59000   165.52101
   197  C   4.0    0.03    4.43    4.43     7.36606    83.87541   166.89572
   198  C   4.0    0.17    3.50    3.11     9.73579    85.02927   168.09568
   199  O   6.0   -0.31    1.29    1.80    10.20641    87.28681   167.85162
   200  C   4.0   -0.04    4.30    4.20     5.38178    83.27143   168.91211
   201  C   4.0   -0.04    4.19    3.99     4.90309    85.52476   170.64143
   202  C   4.0   -0.01    4.19    3.98     2.41015    85.28478   172.07910
   203  N   5.0   -0.14    3.39    2.02     1.88498    82.79643   173.14376
   204  C   4.0    0.10    3.34    3.06     2.64378    81.98413   175.41006
   205  N   5.0   -0.19    3.25    1.97     1.20304    80.27038   176.60302
   206  N   5.0   -0.17    3.26    1.97     4.65345    82.93387   176.55486
   207  H   1.0    0.12    1.12    1.45     6.96279    80.02516   165.97992
   208  H   1.0    0.05    1.05    1.44     6.59877    85.27381   165.56857
   209  H   1.0    0.05    1.03    1.43     3.65238    82.69480   167.95127
   210  H   1.0    0.07    1.03    1.43     6.05798    81.68129   170.03490
   211  H   1.0    0.07    1.04    1.43     6.48068    85.70233   171.94850
   212  H   1.0    0.05    1.03    1.43     4.80284    87.26039   169.53754
   213  H   1.0    0.05    1.03    1.43     2.39713    86.66835   173.61056
   214  H   1.0    0.04    1.03    1.43     0.84879    85.68659   170.79765
   215  H   1.0    0.08    1.07    1.44     0.39205    81.88121   172.38645
   216  H   1.0    0.09    1.03    1.43    -0.46791    79.69324   175.90125
   217  H   1.0    0.09    1.03    1.43     1.75578    79.52534   178.26421
   218  H   1.0    0.13    1.11    1.44     6.26012    83.53565   175.56405
   219  H   1.0    0.10    1.04    1.43     5.12347    82.17101   178.23774
   220  N   5.0   -0.12    3.54    2.10    11.16718    83.40281   169.37218
   221  C   4.0    0.05    4.42    4.42    13.10790    84.17082   171.12547
   222  C   4.0    0.15    3.41    3.08    15.75504    84.46162   170.00146
   223  O   6.0   -0.28    1.23    1.80    17.31045    85.80387   171.06480
   224  C   4.0   -0.02    4.28    4.16    13.22216    82.26344   173.28588
   225  C   4.0    0.26    3.11    3.03    10.71360    82.10653   174.82813
   226  O   6.0   -0.32    1.34    1.80     9.12335    83.81567   174.44923
   227  O   6.0   -0.28    1.16    1.80    10.48226    80.32279   176.33228
   228  H   1.0    0.11    1.11    1.45    10.54462    81.60587   169.58406
   229  H   1.0    0.08    1.06    1.44    12.59665    86.03083   171.89810
   230  H   1.0    0.06    1.03    1.43    13.63000    80.37706   172.55666
   231  H   1.0    0.06    1.02    1.43    14.72835    82.76206   174.60715
   232  N   5.0   -0.13    3.49    2.07    16.19997    83.26323   167.80008
   233  C   4.0    0.04    4.42    4.41    18.74931    83.13105   166.82491
   234  C   4.0    0.16    3.46    3.10    18.94179    83.48704   163.96175
   235  O   6.0   -0.29    1.29    1.80    20.94598    83.09342   162.85606
   236  C   4.0   -0.02    4.34    4.28    20.06773    80.61130   167.46615
   237  C   4.0   -0.01    3.56    3.14    19.92711    79.91812   170.20943
   238  C   4.0   -0.04    3.49    3.11    18.12991    78.18017   171.01485
   239  C   4.0   -0.03    3.46    3.10    21.55767    80.93433   171.99176
   240  C   4.0   -0.03    3.43    3.09    17.92394    77.49079   173.51775
   241  C   4.0   -0.04    3.43    3.09    21.36550    80.26538   174.51628
   242  C   4.0    0.07    3.44    3.09    19.51552    78.57252   175.30712
   243  O   6.0   -0.23    2.11    1.84    19.17185    77.92354   177.77896
   244  H   1.0    0.11    1.09    1.44    15.01807    81.82237   167.34008
   245  H   1.0    0.07    1.07    1.44    19.79644    84.68463   167.71356
   246  H   1.0    0.05    1.04    1.43    19.14800    79.13867   166.35113
   247  H   1.0    0.06    1.03    1.43    22.02737    80.78842   166.84990
   248  H   1.0    0.07    1.05    1.44    16.84012    77.41122   169.64369
   249  H   1.0    0.06    1.03    1.43    22.98246    82.27250   171.40180
   250  H   1.0    0.06    1.03    1.43    16.49880    76.17849   174.15729
   251  H   1.0    0.06    1.03    1.43    22.59184    81.13420   175.90308
   252  H   1.0    0.12    1.03    1.43    20.35448    78.82089   178.84279
   253  N   5.0   -0.12    3.47    2.06    16.85428    84.17912   162.71171
   254  C   4.0    0.04    4.32    4.23    17.04953    84.59910   160.00009
   255  C   4.0    0.09    3.32    3.06    19.21699    86.47599   159.53619
   256  O   6.0   -0.27    1.15    1.80    19.73981    88.18766   160.98860
   257  C   4.0   -0.05    4.23    4.05    14.55646    85.48478   158.80666
   258  C   4.0   -0.04    4.21    4.01    14.22549    88.36579   158.67875
   259  C   4.0   -0.05    4.16    3.91    11.66347    89.25970   159.66251
   260  C   4.0   -0.02    4.16    3.91    11.60195    89.02250   162.53297
   261  N   5.0   -0.12    4.02    2.92     9.25637    90.09636   163.65809
   262  H   1.0    0.11    1.08    1.44    15.17858    84.38019   163.61267
   263  H   1.0    0.04    1.05    1.44    17.63814    82.80117   159.13898
   264  H   1.0    0.04    1.03    1.43    14.46211    84.70166   156.90305
   265  H   1.0    0.06    1.04    1.43    13.02983    84.61573   159.88319
   266  H   1.0    0.06    1.05    1.44    15.70275    89.29095   159.77332
   267  H   1.0    0.04    1.02    1.43    14.47767    88.99694   156.73505
   268  H   1.0    0.04    1.03    1.43    11.42286    91.23031   159.11057
   269  H   1.0    0.04    1.02    1.43    10.17331    88.13344   158.79101
   270  H   1.0    0.07    1.04    1.43    11.71122    87.03776   163.06524
   271  H   1.0    0.06    1.02    1.43    13.22744    89.99406   163.34024
   272  H   1.0    0.09    1.07    1.44     9.22531    89.49118   165.54919
   273  H   1.0    0.06    1.02    1.43     9.26389    92.03686   163.56222
   274  H   1.0    0.06    1.02    1.43     7.69873    89.43696   162.70068
   275  N   5.0   -0.21    3.10    1.94    17.26733    87.63008   147.61819
   276  C   4.0    0.01    4.06    3.73    15.32686    86.22421   148.90492
   277  C   4.0    0.08    3.11    3.02    15.90896    83.45936   149.41077
   278  O   6.0   -0.32    1.20    1.80    14.24301    82.09398   150.29059
   279  H   1.0    0.09    1.02    1.43    17.18066    87.81260   145.72624
   280  H   1.0    0.04    1.03    1.43    15.08230    87.08477   150.77694
   281  H   1.0    0.05    1.02    1.43    13.54150    86.37096   147.88492
   282  N   5.0   -0.19    3.24    1.96    19.18750    77.91000   153.73160
   283  C   4.0    0.03    4.32    4.23    20.20661    77.48067   156.23902
   284  C   4.0    0.08    3.26    3.05    22.32930    75.54284   155.94010
   285  O   6.0   -0.28    1.13    1.80    21.97373    73.47604   154.95862
   286  C   4.0   -0.02    4.25    4.11    18.22024    76.62441   158.16354
   287  C   4.0   -0.06    4.12    3.85    16.70911    74.36507   157.23419
   288  C   4.0   -0.07    4.14    3.88    19.57543    76.02711   160.63551
   289  H   1.0    0.12    1.03    1.43    18.51889    76.39544   152.76888
   290  H   1.0    0.04    1.05    1.44    20.99562    79.29018   156.86814
   291  H   1.0    0.04    1.05    1.44    16.94572    78.22951   158.47009
   292  H   1.0    0.04    1.00    1.43    15.37121    73.78386   158.68157
   293  H   1.0    0.06    1.00    1.43    15.67327    74.81519   155.51729
   294  H   1.0    0.07    1.01    1.43    17.98638    72.80238   156.85850
   295  H   1.0    0.04    1.00    1.43    18.21884    75.49530   162.08404
   296  H   1.0    0.05    1.00    1.43    20.89599    74.46963   160.39201
   297  H   1.0    0.05    1.00    1.43    20.61423    77.66613   161.32405
   298  H   1.0    0.09    1.07    1.44     5.40573    77.73253   138.52027
   299  H   1.0    0.06    1.04    1.44     0.56954    81.37841   136.41549
   300  H   1.0    0.09    1.07    1.44     2.78105    72.12269   150.95586
   301  H   1.0    0.06    1.04    1.44    15.65414    70.84908   149.83019
   302  H   1.0    0.09    1.07    1.44    -0.51733    66.91759   156.36631
   303  H   1.0    0.06    1.05    1.44    -0.19284    60.97339   163.93125
   304  H   1.0    0.10    1.07    1.44     8.16719    62.99036   179.73078
   305  H   1.0    0.06    1.05    1.44    20.27930    86.32685   157.98046
   306  H   1.0    0.09    1.08    1.44    17.28838    89.22916   148.19703
   307  H   1.0    0.06    1.04    1.43    17.62682    82.77035   149.02957
   308  H   1.0    0.10    1.07    1.44    17.87675    78.98938   153.82867
   309  H   1.0    0.06    1.05    1.44    24.07027    75.94613   156.55446

  Z AO/shell   Hii/eV     exponent
  1     Wed Apr 25 08:07:45 CEST 2018   EN: 2.200 GM2: 0.406  GM3: 0.0800  RAES: 1.40
     1s    -10.707211    1.230000
  6     Wed Apr 25 08:07:45 CEST 2018   EN: 2.550 GM2: 0.538  GM3: 0.1500  RAES: 3.00
     2s    -13.970922    2.096432
     2p    -10.063292    1.800000
  7     Wed Apr 25 08:07:45 CEST 2018   EN: 3.040 GM2: 0.461  GM3:-0.0640  RAES: 1.90
     2s    -16.686243    2.339881
     2p    -12.523956    2.014332
  8     Wed Apr 25 08:07:45 CEST 2018   EN: 3.440 GM2: 0.452  GM3:-0.0517  RAES: 1.80
     2s    -20.229985    2.439742
     2p    -15.503117    2.137023
 16     Tue Apr 24 11:44:34 CEST 2018   EN: 2.580 GM2: 0.340  GM3:-0.0502  RAES: 3.10
     3s    -20.029654    1.981333
     3p    -11.377694    2.025643
     3d     -0.420282    1.702555
 no old-style atom pair restraining (fixing) potential

molecular fragmentation (1/2 indicates fragments):
111111111111111111111111222222222222222222222222222222222222222222222222
222222222222222222222222222222222222222222222222222222222222222222222222
222222222222222222222222222222222222222222222222222222222222222222222222
222222222222222222222222222222222222222222222222222222222222222222222222
222222222112222222222
# atoms in fragment 1/2:    26   283
 fragment masses (1/2) :      159.21     1975.30
CMA distance (Bohr)    :  21.444
constraining FC (au)   :  0.0500
           ------------------------------------------------- 
          |        Self-Consistent Charge Iterations        |
           ------------------------------------------------- 

 Ncao       : 762
 Nao        : 761
 Nshell     : 459
 Nel        : 840
 T(el)      :   500.0
 intcut     :    35.0
 scfconv/Eh :  0.100E-06
   qconv/e  :  0.100E-04
 intneglect :  0.100E-08
 broydamp   :      0.400
 iter      E             dE          RMSdq      gap      omega  full diag
   1   -480.8092826 -0.480809E+03  0.469E+00    3.05       0.0  T
   2   -481.9532335 -0.114395E+01  0.220E+00    1.74       1.0  T
   3   -482.0253621 -0.721285E-01  0.124E+00    2.10       1.0  T
   4   -482.1054364 -0.800744E-01  0.265E-01    1.70       1.0  T
   5   -482.1094338 -0.399733E-02  0.138E-01    1.83       1.0  T
   6   -482.1103549 -0.921092E-03  0.613E-02    1.79       1.0  T
   7   -482.1106244 -0.269574E-03  0.285E-02    1.74       1.0  T
   8   -482.1106673 -0.429235E-04  0.143E-02    1.73       1.0  T
   9   -482.1106820 -0.146987E-04  0.618E-03    1.72       1.0  T
  10   -482.1106845 -0.248737E-05  0.247E-03    1.72       2.3  T
  11   -482.1106850 -0.424685E-06  0.106E-03    1.72       5.4  T
  12   -482.1106850 -0.608533E-07  0.465E-04    1.72      12.2  T
  13   -482.1106850 -0.178872E-07  0.215E-04    1.72      26.5  T
  14   -482.1106850 -0.252857E-08  0.922E-05    1.72      61.7  T
  15   -482.1106850 -0.650630E-09  0.389E-05    1.72     146.4  T
speedup  1.88
cpu  time for SCC    4.22 s
wall time for SCC    2.24 s

   *** convergence criteria satisfied after 15 iterations ***

          eigenvalues
 #    :         408        409        410        411        412        413        414        415
 occ. :        2.000      2.000      2.000      2.000      2.000      2.000      2.000      2.000
 eps  :       -10.482    -10.328    -10.270    -10.128    -10.127    -10.057    -10.034     -9.977
 #    :         416        417        418        419        420        421        422        423
 occ. :        2.000      2.000      2.000      2.000      2.000      0.000      0.000      0.000
 eps  :        -9.950     -9.889     -9.886     -9.849     -9.790     -8.074     -7.935     -7.693
 #    :         424        425        426        427        428        429        430        431
 occ. :        0.000      0.000      0.000      0.000      0.000      0.000      0.000      0.000
 eps  :        -7.590     -7.520     -7.485     -6.887     -6.645     -6.506     -6.388     -6.309


   #   Z            q   n(s)   n(p)   n(d)      C6AA      α(0)
   1   7 N     -0.402  1.322  4.080  0.000    30.418     8.191
   2   6 C      0.033  1.057  2.910  0.000    20.044     6.378
   3   6 C      0.198  1.093  2.708  0.000    23.772     7.985
   4   8 O     -0.387  1.757  4.630  0.000    21.427     6.206
   5   6 C     -0.073  1.058  3.015  0.000    21.897     6.662
   6   6 C     -0.085  1.055  3.030  0.000    22.130     6.697
   7   6 C     -0.026  1.053  2.972  0.000    21.121     6.558
   8   7 N     -0.135  1.207  3.928  0.000    23.930     7.265
   9   6 C      0.227  1.018  2.755  0.000    23.226     7.890
  10   7 N     -0.245  1.224  4.021  0.000    26.379     7.628
  11   7 N     -0.250  1.229  4.021  0.000    26.502     7.646
  12   1 H      0.167  0.833  0.000  0.000     1.289     1.778
  13   1 H      0.073  0.927  0.000  0.000     2.053     2.241
  14   1 H      0.065  0.935  0.000  0.000     2.137     2.286
  15   1 H      0.053  0.947  0.000  0.000     2.283     2.363
  16   1 H      0.070  0.930  0.000  0.000     2.087     2.259
  17   1 H      0.086  0.914  0.000  0.000     1.914     2.163
  18   1 H      0.083  0.917  0.000  0.000     1.946     2.181
  19   1 H      0.076  0.924  0.000  0.000     2.024     2.225
  20   1 H      0.232  0.768  0.000  0.000     0.957     1.532
  21   1 H      0.243  0.757  0.000  0.000     0.911     1.495
  22   1 H      0.252  0.748  0.000  0.000     0.876     1.466
  23   1 H      0.233  0.767  0.000  0.000     0.954     1.530
  24   1 H      0.247  0.753  0.000  0.000     0.895     1.482
  25   7 N     -0.385  1.320  4.065  0.000    29.951     8.128
  26   6 C      0.020  1.064  2.916  0.000    20.249     6.409
  27   6 C      0.267  1.046  2.688  0.000    22.500     7.768
  28   8 O     -0.533  1.767  4.767  0.000    24.534     6.641
  29   6 C     -0.023  1.066  2.957  0.000    20.950     6.510
  30   6 C     -0.076  1.056  3.021  0.000    21.952     6.670
  31   6 C     -0.109  1.036  3.072  0.000    22.630     6.783
  32   6 C     -0.107  1.036  3.071  0.000    22.608     6.781
  33   1 H      0.140  0.860  0.000  0.000     1.471     1.900
  34   1 H      0.062  0.938  0.000  0.000     2.179     2.308
  35   1 H      0.023  0.977  0.000  0.000     2.695     2.567
  36   1 H      0.066  0.934  0.000  0.000     2.126     2.280
  37   1 H      0.053  0.947  0.000  0.000     2.287     2.365
  38   1 H      0.034  0.966  0.000  0.000     2.529     2.487
  39   1 H      0.016  0.984  0.000  0.000     2.794     2.614
  40   1 H      0.055  0.945  0.000  0.000     2.259     2.350
  41   1 H      0.042  0.958  0.000  0.000     2.423     2.434
  42   1 H      0.017  0.983  0.000  0.000     2.773     2.604
  43   1 H      0.033  0.967  0.000  0.000     2.543     2.494
  44   7 N     -0.077  1.232  3.845  0.000    22.738     7.082
  45   6 C      0.027  1.060  2.913  0.000    20.102     6.380
  46   6 C      0.202  1.088  2.710  0.000    23.698     7.972
  47   8 O     -0.346  1.746  4.600  0.000    20.632     6.090
  48   6 C     -0.067  1.053  3.014  0.000    21.766     6.638
  49   6 C     -0.076  1.052  3.024  0.000    21.933     6.664
  50   6 C     -0.021  1.058  2.964  0.000    21.000     6.533
  51   1 H      0.062  0.938  0.000  0.000     2.175     2.307
  52   1 H      0.060  0.940  0.000  0.000     2.202     2.320
  53   1 H      0.072  0.928  0.000  0.000     2.058     2.244
  54   1 H      0.081  0.919  0.000  0.000     1.971     2.196
  55   1 H      0.082  0.918  0.000  0.000     1.961     2.190
  56   1 H      0.079  0.921  0.000  0.000     1.991     2.207
  57   1 H      0.082  0.918  0.000  0.000     1.955     2.186
  58   7 N     -0.402  1.324  4.079  0.000    30.441     8.194
  59   6 C      0.028  1.061  2.911  0.000    20.122     6.389
  60   6 C      0.265  1.051  2.683  0.000    22.523     7.772
  61   8 O     -0.513  1.731  4.782  0.000    24.068     6.578
  62   6 C     -0.055  1.056  2.999  0.000    21.549     6.608
  63   6 C     -0.101  1.060  3.040  0.000    22.419     6.741
  64   6 C      0.291  1.036  2.673  0.000    22.063     7.691
  65   8 O     -0.520  1.766  4.754  0.000    24.234     6.600
  66   7 N     -0.292  1.269  4.023  0.000    27.525     7.792
  67   1 H      0.160  0.840  0.000  0.000     1.335     1.810
  68   1 H      0.061  0.939  0.000  0.000     2.188     2.313
  69   1 H      0.059  0.941  0.000  0.000     2.208     2.324
  70   1 H      0.030  0.970  0.000  0.000     2.590     2.517
  71   1 H      0.055  0.945  0.000  0.000     2.255     2.348
  72   1 H      0.074  0.926  0.000  0.000     2.043     2.235
  73   1 H      0.249  0.751  0.000  0.000     0.889     1.477
  74   1 H      0.240  0.760  0.000  0.000     0.922     1.504
  75   7 N     -0.192  1.270  3.922  0.000    25.170     7.451
  76   6 C      0.031  1.057  2.912  0.000    20.067     6.380
  77   6 C      0.198  1.088  2.715  0.000    23.788     7.987
  78   8 O     -0.376  1.762  4.614  0.000    21.202     6.174
  79   6 C     -0.062  1.051  3.011  0.000    21.689     6.631
  80   6 C     -0.092  1.065  3.027  0.000    22.258     6.718
  81   6 C      0.371  1.024  2.605  0.000    20.713     7.448
  82   8 O     -0.613  1.765  4.848  0.000    26.449     6.895
  83   8 O     -0.626  1.776  4.851  0.000    26.772     6.937
  84   1 H      0.247  0.753  0.000  0.000     0.896     1.483
  85   1 H      0.086  0.914  0.000  0.000     1.918     2.166
  86   1 H      0.053  0.947  0.000  0.000     2.288     2.365
  87   1 H      0.051  0.949  0.000  0.000     2.313     2.378
  88   1 H      0.028  0.972  0.000  0.000     2.616     2.529
  89   1 H      0.030  0.970  0.000  0.000     2.594     2.518
  90   7 N     -0.391  1.320  4.071  0.000    30.130     8.152
  91   6 C      0.041  1.052  2.907  0.000    19.892     6.352
  92   6 C      0.274  1.045  2.681  0.000    22.366     7.745
  93   8 O     -0.496  1.746  4.750  0.000    23.699     6.527
  94   6 C     -0.107  1.042  3.065  0.000    22.594     6.776
  95   1 H      0.168  0.832  0.000  0.000     1.285     1.776
  96   1 H      0.023  0.977  0.000  0.000     2.690     2.565
  97   1 H      0.034  0.966  0.000  0.000     2.531     2.488
  98   1 H      0.045  0.955  0.000  0.000     2.380     2.413
  99   1 H      0.053  0.947  0.000  0.000     2.279     2.361
 100   7 N     -0.190  1.245  3.944  0.000    25.112     7.443
 101   6 C      0.014  1.062  2.923  0.000    20.335     6.421
 102   6 C      0.276  1.042  2.681  0.000    22.332     7.739
 103   8 O     -0.484  1.736  4.748  0.000    23.424     6.489
 104   6 C      0.114  1.049  2.836  0.000    18.795     6.188
 105   8 O     -0.481  1.712  4.769  0.000    22.492     6.402
 106   6 C     -0.134  1.043  3.091  0.000    23.139     6.860
 107   1 H      0.219  0.781  0.000  0.000     1.013     1.577
 108   1 H      0.058  0.942  0.000  0.000     2.227     2.334
 109   1 H      0.048  0.952  0.000  0.000     2.339     2.392
 110   1 H      0.325  0.675  0.000  0.000     0.651     1.268
 111   1 H      0.068  0.932  0.000  0.000     2.113     2.273
 112   1 H      0.051  0.949  0.000  0.000     2.311     2.377
 113   1 H      0.057  0.943  0.000  0.000     2.231     2.336
 114   7 N     -0.174  1.246  3.928  0.000    24.776     7.393
 115   6 C      0.023  1.056  2.921  0.000    20.191     6.397
 116   6 C      0.271  1.039  2.690  0.000    22.413     7.753
 117   8 O     -0.483  1.727  4.756  0.000    23.412     6.487
 118   6 C     -0.070  1.050  3.020  0.000    21.802     6.641
 119   6 C     -0.015  1.065  2.950  0.000    20.853     6.502
 120  16 S     -0.217  1.916  4.253  0.048   150.325    20.636
 121   6 C     -0.060  1.053  3.006  0.000    21.718     6.648
 122   1 H      0.202  0.798  0.000  0.000     1.097     1.641
 123   1 H      0.081  0.919  0.000  0.000     1.967     2.193
 124   1 H      0.066  0.934  0.000  0.000     2.129     2.282
 125   1 H      0.085  0.915  0.000  0.000     1.930     2.172
 126   1 H      0.039  0.961  0.000  0.000     2.459     2.452
 127   1 H      0.066  0.934  0.000  0.000     2.130     2.282
 128   1 H      0.067  0.933  0.000  0.000     2.123     2.279
 129   1 H      0.052  0.948  0.000  0.000     2.293     2.368
 130   1 H      0.062  0.938  0.000  0.000     2.172     2.305
 131   7 N     -0.183  1.252  3.931  0.000    24.965     7.421
 132   6 C      0.018  1.061  2.920  0.000    20.267     6.410
 133   6 C      0.275  1.041  2.684  0.000    22.357     7.743
 134   8 O     -0.463  1.719  4.744  0.000    22.981     6.427
 135   6 C     -0.144  1.044  3.100  0.000    23.329     6.886
 136   1 H      0.236  0.764  0.000  0.000     0.939     1.518
 137   1 H      0.096  0.904  0.000  0.000     1.824     2.112
 138   1 H      0.089  0.911  0.000  0.000     1.893     2.152
 139   1 H      0.078  0.922  0.000  0.000     2.002     2.213
 140   1 H      0.057  0.943  0.000  0.000     2.228     2.334
 141   7 N     -0.183  1.247  3.936  0.000    24.961     7.420
 142   6 C      0.030  1.060  2.910  0.000    20.065     6.377
 143   6 C      0.279  1.043  2.679  0.000    22.286     7.731
 144   8 O     -0.496  1.739  4.757  0.000    23.695     6.526
 145   6 C     -0.053  1.048  3.005  0.000    21.520     6.604
 146   6 C     -0.112  1.070  3.042  0.000    22.639     6.775
 147   6 C      0.369  1.026  2.605  0.000    20.741     7.453
 148   8 O     -0.636  1.765  4.871  0.000    27.024     6.970
 149   8 O     -0.614  1.772  4.842  0.000    26.477     6.899
 150   1 H      0.212  0.788  0.000  0.000     1.045     1.601
 151   1 H      0.071  0.929  0.000  0.000     2.080     2.255
 152   1 H      0.047  0.953  0.000  0.000     2.352     2.398
 153   1 H      0.023  0.977  0.000  0.000     2.692     2.566
 154   1 H      0.043  0.957  0.000  0.000     2.404     2.425
 155   1 H      0.052  0.948  0.000  0.000     2.297     2.370
 156   7 N     -0.197  1.255  3.942  0.000    25.288     7.469
 157   6 C      0.040  1.058  2.902  0.000    19.901     6.350
 158   6 C      0.283  1.041  2.676  0.000    22.208     7.717
 159   8 O     -0.502  1.737  4.765  0.000    23.832     6.545
 160   6 C     -0.018  1.063  2.955  0.000    20.866     6.497
 161   6 C     -0.063  1.050  3.013  0.000    21.703     6.632
 162   6 C     -0.111  1.038  3.073  0.000    22.677     6.789
 163   6 C     -0.102  1.033  3.069  0.000    22.508     6.766
 164   1 H      0.223  0.777  0.000  0.000     0.997     1.564
 165   1 H      0.041  0.959  0.000  0.000     2.440     2.443
 166   1 H      0.045  0.955  0.000  0.000     2.385     2.415
 167   1 H      0.036  0.964  0.000  0.000     2.508     2.476
 168   1 H      0.050  0.950  0.000  0.000     2.322     2.383
 169   1 H      0.058  0.942  0.000  0.000     2.224     2.332
 170   1 H      0.041  0.959  0.000  0.000     2.437     2.441
 171   1 H      0.044  0.956  0.000  0.000     2.393     2.419
 172   1 H      0.036  0.964  0.000  0.000     2.503     2.474
 173   1 H      0.045  0.955  0.000  0.000     2.389     2.417
 174   1 H      0.018  0.982  0.000  0.000     2.770     2.603
 175   7 N     -0.195  1.254  3.942  0.000    25.236     7.461
 176   6 C      0.026  1.063  2.911  0.000    20.138     6.390
 177   6 C      0.268  1.045  2.688  0.000    22.482     7.765
 178   8 O     -0.478  1.726  4.752  0.000    23.299     6.472
 179   6 C     -0.084  1.057  3.027  0.000    22.086     6.689
 180   6 C     -0.005  1.076  2.930  0.000    28.153     8.703
 181   6 C     -0.041  1.082  2.959  0.000    29.015     8.833
 182   6 C     -0.050  1.085  2.965  0.000    29.249     8.869
 183   6 C     -0.080  1.080  3.000  0.000    29.990     8.980
 184   6 C     -0.082  1.075  3.007  0.000    30.042     8.988
 185   6 C      0.141  1.046  2.813  0.000    24.924     8.182
 186   8 O     -0.421  1.702  4.720  0.000    21.263     6.225
 187   1 H      0.228  0.772  0.000  0.000     0.974     1.546
 188   1 H      0.067  0.933  0.000  0.000     2.120     2.277
 189   1 H      0.065  0.935  0.000  0.000     2.136     2.286
 190   1 H      0.068  0.932  0.000  0.000     2.105     2.269
 191   1 H      0.026  0.974  0.000  0.000     2.649     2.545
 192   1 H      0.064  0.936  0.000  0.000     2.149     2.292
 193   1 H      0.052  0.948  0.000  0.000     2.291     2.367
 194   1 H      0.086  0.914  0.000  0.000     1.920     2.167
 195   1 H      0.343  0.657  0.000  0.000     0.604     1.221
 196   7 N     -0.174  1.247  3.927  0.000    24.768     7.391
 197   6 C      0.004  1.070  2.926  0.000    20.507     6.448
 198   6 C      0.278  1.041  2.681  0.000    22.293     7.732
 199   8 O     -0.462  1.717  4.746  0.000    22.966     6.425
 200   6 C     -0.085  1.057  3.028  0.000    22.107     6.693
 201   6 C     -0.089  1.052  3.037  0.000    22.200     6.708
 202   6 C     -0.028  1.057  2.971  0.000    21.162     6.564
 203   7 N     -0.154  1.221  3.933  0.000    24.328     7.325
 204   6 C      0.238  1.022  2.740  0.000    23.018     7.855
 205   7 N     -0.269  1.238  4.031  0.000    26.961     7.712
 206   7 N     -0.266  1.274  3.992  0.000    26.886     7.701
 207   1 H      0.229  0.771  0.000  0.000     0.967     1.541
 208   1 H      0.106  0.894  0.000  0.000     1.733     2.059
 209   1 H      0.089  0.911  0.000  0.000     1.890     2.150
 210   1 H      0.047  0.953  0.000  0.000     2.361     2.403
 211   1 H      0.065  0.935  0.000  0.000     2.139     2.287
 212   1 H      0.087  0.913  0.000  0.000     1.910     2.161
 213   1 H      0.085  0.915  0.000  0.000     1.926     2.170
 214   1 H      0.107  0.893  0.000  0.000     1.726     2.055
 215   1 H      0.229  0.771  0.000  0.000     0.969     1.542
 216   1 H      0.242  0.758  0.000  0.000     0.916     1.499
 217   1 H      0.217  0.783  0.000  0.000     1.021     1.583
 218   1 H      0.270  0.730  0.000  0.000     0.809     1.409
 219   1 H      0.204  0.796  0.000  0.000     1.084     1.631
 220   7 N     -0.172  1.245  3.927  0.000    24.720     7.384
 221   6 C      0.036  1.054  2.909  0.000    19.970     6.364
 222   6 C      0.275  1.046  2.679  0.000    22.343     7.741
 223   8 O     -0.498  1.751  4.747  0.000    23.736     6.532
 224   6 C     -0.082  1.063  3.019  0.000    22.061     6.686
 225   6 C      0.373  1.023  2.604  0.000    20.678     7.441
 226   8 O     -0.572  1.739  4.832  0.000    25.431     6.761
 227   8 O     -0.629  1.777  4.852  0.000    26.839     6.946
 228   1 H      0.210  0.790  0.000  0.000     1.057     1.611
 229   1 H      0.077  0.923  0.000  0.000     2.010     2.217
 230   1 H      0.023  0.977  0.000  0.000     2.696     2.568
 231   1 H      0.022  0.978  0.000  0.000     2.707     2.573
 232   7 N     -0.187  1.258  3.929  0.000    25.048     7.433
 233   6 C      0.026  1.059  2.915  0.000    20.145     6.391
 234   6 C      0.271  1.044  2.685  0.000    22.419     7.754
 235   8 O     -0.504  1.750  4.754  0.000    23.871     6.551
 236   6 C     -0.069  1.053  3.017  0.000    21.817     6.648
 237   6 C      0.003  1.078  2.919  0.000    27.952     8.672
 238   6 C     -0.050  1.087  2.963  0.000    29.250     8.869
 239   6 C     -0.039  1.084  2.955  0.000    28.974     8.827
 240   6 C     -0.057  1.070  2.986  0.000    29.407     8.893
 241   6 C     -0.076  1.078  2.998  0.000    29.898     8.966
 242   6 C      0.139  1.047  2.813  0.000    24.954     8.187
 243   8 O     -0.451  1.728  4.723  0.000    21.860     6.312
 244   1 H      0.219  0.781  0.000  0.000     1.014     1.578
 245   1 H      0.079  0.921  0.000  0.000     1.990     2.206
 246   1 H      0.054  0.946  0.000  0.000     2.265     2.353
 247   1 H      0.068  0.932  0.000  0.000     2.105     2.269
 248   1 H      0.058  0.942  0.000  0.000     2.219     2.329
 249   1 H      0.046  0.954  0.000  0.000     2.370     2.408
 250   1 H      0.018  0.982  0.000  0.000     2.764     2.600
 251   1 H      0.041  0.959  0.000  0.000     2.435     2.440
 252   1 H      0.349  0.651  0.000  0.000     0.591     1.208
 253   7 N     -0.162  1.241  3.922  0.000    24.509     7.353
 254   6 C      0.029  1.062  2.909  0.000    20.083     6.381
 255   6 C      0.214  1.082  2.704  0.000    23.473     7.934
 256   8 O     -0.375  1.757  4.618  0.000    21.197     6.173
 257   6 C     -0.089  1.059  3.030  0.000    22.196     6.708
 258   6 C     -0.080  1.049  3.030  0.000    22.016     6.680
 259   6 C     -0.095  1.055  3.039  0.000    22.304     6.724
 260   6 C     -0.053  1.058  2.995  0.000    21.625     6.637
 261   7 N     -0.162  1.238  3.924  0.000    24.492     7.350
 262   1 H      0.227  0.773  0.000  0.000     0.977     1.548
 263   1 H      0.069  0.931  0.000  0.000     2.099     2.266
 264   1 H      0.075  0.925  0.000  0.000     2.027     2.227
 265   1 H      0.099  0.901  0.000  0.000     1.791     2.093
 266   1 H      0.052  0.948  0.000  0.000     2.291     2.367
 267   1 H      0.066  0.934  0.000  0.000     2.130     2.282
 268   1 H      0.086  0.914  0.000  0.000     1.920     2.167
 269   1 H      0.089  0.911  0.000  0.000     1.892     2.151
 270   1 H      0.112  0.888  0.000  0.000     1.678     2.026
 271   1 H      0.097  0.903  0.000  0.000     1.814     2.106
 272   1 H      0.297  0.703  0.000  0.000     0.722     1.332
 273   1 H      0.292  0.708  0.000  0.000     0.738     1.346
 274   1 H      0.289  0.711  0.000  0.000     0.746     1.353
 275   7 N     -0.395  1.306  4.089  0.000    30.229     8.166
 276   6 C     -0.013  1.045  2.968  0.000    20.900     6.525
 277   6 C      0.195  1.095  2.710  0.000    23.836     7.995
 278   8 O     -0.371  1.740  4.631  0.000    21.109     6.160
 279   1 H      0.165  0.835  0.000  0.000     1.306     1.790
 280   1 H      0.102  0.898  0.000  0.000     1.768     2.079
 281   1 H      0.088  0.912  0.000  0.000     1.898     2.154
 282   7 N     -0.380  1.313  4.066  0.000    29.812     8.109
 283   6 C      0.035  1.058  2.907  0.000    19.989     6.368
 284   6 C      0.209  1.086  2.704  0.000    23.564     7.950
 285   8 O     -0.374  1.757  4.617  0.000    21.175     6.169
 286   6 C     -0.011  1.061  2.950  0.000    20.736     6.477
 287   6 C     -0.105  1.033  3.072  0.000    22.567     6.773
 288   6 C     -0.109  1.038  3.071  0.000    22.627     6.782
 289   1 H      0.174  0.826  0.000  0.000     1.247     1.749
 290   1 H      0.046  0.954  0.000  0.000     2.366     2.406
 291   1 H      0.039  0.961  0.000  0.000     2.465     2.455
 292   1 H      0.034  0.966  0.000  0.000     2.526     2.485
 293   1 H      0.056  0.944  0.000  0.000     2.242     2.342
 294   1 H      0.040  0.960  0.000  0.000     2.448     2.447
 295   1 H      0.033  0.967  0.000  0.000     2.543     2.494
 296   1 H      0.028  0.972  0.000  0.000     2.622     2.532
 297   1 H      0.037  0.963  0.000  0.000     2.487     2.466
 298   1 H      0.186  0.814  0.000  0.000     1.181     1.702
 299   1 H      0.066  0.934  0.000  0.000     2.130     2.282
 300   1 H      0.197  0.803  0.000  0.000     1.123     1.660
 301   1 H      0.054  0.946  0.000  0.000     2.268     2.355
 302   1 H      0.191  0.809  0.000  0.000     1.154     1.682
 303   1 H      0.074  0.926  0.000  0.000     2.042     2.234
 304   1 H      0.183  0.817  0.000  0.000     1.199     1.715
 305   1 H      0.078  0.922  0.000  0.000     1.998     2.210
 306   1 H      0.186  0.814  0.000  0.000     1.181     1.702
 307   1 H      0.082  0.918  0.000  0.000     1.960     2.189
 308   1 H      0.184  0.816  0.000  0.000     1.192     1.710
 309   1 H      0.057  0.943  0.000  0.000     2.229     2.334

 Mol. C6AA /au·bohr⁶  :     889396.843447
 Mol. C8AA /au·bohr⁸  :   19962176.146464
 Mol. α(0) /au        :       1415.307176

 
molecular dipole:
                 x           y           z       tot (Debye)
 q only:        0.712      33.768     -29.361
   full:        0.571      30.519     -26.548     102.826
molecular quadrupole (traceless):
                xx          xy          yy          xz          yz          zz
 q only:     1988.551      22.567    9934.988    -199.293    4760.670  -11923.540
  q+dip:     1777.315     -30.856    8961.509    -191.865    4283.851  -10738.823
   full:     1775.928     -33.360    8960.948    -192.250    4284.955  -10736.876
speedup  1.90
cpu  time for grad    5.30 s
wall time for grad    2.78 s

SCC energy    :    -482.1243880
rep           :       5.8330610
ES            :       1.6016324
AES           :      -0.1124679
AXC           :       0.1599897
disp          :      -0.4028465
XB            :       0.0000000
fix           :       0.0000000
Gborn         :       0.0000000
Gsasa         :       0.0000000
Ghb           :       0.0000000
Gshift        :       0.0000000
Gsolv         :      -0.4640332     -291.19
Etot ala COSMO:    -482.1243880
grad norm     :       0.5406253
total E       :    -476.2524159
atomizationE  :      86.3600759    54191.77
(atE without considering molecular charge,
 total energy contains solvation terms)
H-L gap (eV)  :          1.7158

------------------------------------------------------------------------
 * finished run on 2019/05/12 at 13:13:36.238     
------------------------------------------------------------------------
 total:
 * wall-time:     0 d,  0 h,  0 min,  3.195 sec
 *  cpu-time:     0 d,  0 h,  0 min,  5.925 sec
 * ratio c/w:     1.855 speedup
 SCF:
 * wall-time:     0 d,  0 h,  0 min,  2.973 sec
 *  cpu-time:     0 d,  0 h,  0 min,  5.677 sec
 * ratio c/w:     1.910 speedup

