      -----------------------------------------------------------      
     |                   =====================                   |     
     |                           x T B                           |     
     |                   =====================                   |     
     |                         S. Grimme                         |     
     |          Mulliken Center for Theoretical Chemistry        |     
     |                    University of Bonn                     |     
     |                 Version 6.0.1 (SAW181210)                 |     
      -----------------------------------------------------------      

   This program is distributed in the hope that it will be useful,
   but WITHOUT ANY WARRANTY; without even the implied warranty of
   MERCHANTABILITY or FITNESS FOR A PARTICULAR PURPOSE.
   
   FOR NON-COMMERCIAL, ACADEMIA USE ONLY.
   
   Cite this work as:
   S. Grimme, C. Bannwarth, P. Shushkov, J. Comput. Theory Chem., 2017,
   13, 1989-2009.
   C. Bannwarth, S. Ehlert and S. Grimme., ChemRxiv, 2018, preprint.
   http://doi.org/10.26434/chemrxiv.7246238.v1
   
   for sTDA-xTB:
   S. Grimme and C. Bannwarth, J. Chem. Phys., 2016, 145, 054103.
   
   in the mass-spec context:
   V. Asgeirsson, C. Bauer and S. Grimme, Chem. Sci., 2017, 8, 4879.
   
   if GBSA is used:
   P. Shushkov, F. März and S. Grimme, unpublished.
   
   for ANC optimizer:
   S. Grimme, unpublished.
   Rational Function algorithm used in ANCopt:
   F. Eckert, P. Pulay, H.-J. Werner, J. Comput. Chem., 1997, 18, 1473.
   
   with help from (in alphabetical order)
   C. Bannwarth, F. Bohle, G. Brandenburg, E. Caldeweyher, M. Checinski,
   S. Dohm, S. Ehlert, S. Ehrlich, F. März, H. Neugebauer, J. Pisarek,
   P. Pracht, P. Shushkov, and S. Spicher.
   
 * started run on 2019/05/05 at 12:29:10.034     
========================================================================
 # omp threads = 2
========================================================================
number of atoms            : 214
number of electrons        : 574
charge                     : 1
spin                       : .0
first test random number   : .4265

########################################################################
# WARNING! Please study the warnings concerning your input carefully
#  - Process number higher than OMP_NUM_THREADS, I hope you know what you are doing.
########################################################################

           ------------------------------------------------- 
          |                 G F N 2 - x T B                 |
          | Geometry, Frequencies, Noncovalent interactions |
          |            JCTC 2018 parametrisation            |
           ------------------------------------------------- 
 
      method parameters     
 k(s)        :  1.8500
 k(p)        :  2.2300
 k(d)        :  2.2300
 k(f)        :  2.0000
 kEN (H0ij)  : -2.0000
 D4 a1       :  0.5200
 D4 a2       :  5.0000
 D4 s6       :  1.0000
 D4 s8       :  2.7000
 D4 s9       :  5.0000
 alphaj      :  2.0000

 Solvent             : h2o
 Using internal parameter file: .param_gbsa2_h2o
 Gsolv ref. state (COSMO-RS): gsolv [1 M gas/solution]
 temperature (mdtemp)       :    298.150000000000     
 dielectric constant        :    80.2000000000000     
 rho                        :    1.00000000000000     
 mass                       :    18.0000000000000     
 surface tension            :    15.5689454083859     
 probe radius               :   0.975313790000000     
 vdW radii scaling          :    1.00000000000000     
 Gshift (Eh)                :   1.857443126794793E-003
 c1                         :    1.55243817000000     
 soset                      :   0.130326360000000     
 HB correction              :  T

            Z     q(EN)     CN     RAES       Cart. coordinates
     1  N   5.0   -0.20    3.21    1.96    22.65970   102.30031   162.77910
     2  C   4.0    0.03    4.26    4.11    23.37780   102.40614   160.15238
     3  C   4.0    0.09    3.19    3.03    25.04643   104.70971   159.58547
     4  O   6.0   -0.26    1.11    1.80    26.55254   104.67948   157.80534
     5  C   4.0   -0.04    4.32    4.24    21.06666   102.27386   158.47998
     6  C   4.0   -0.05    4.28    4.16    20.38636    99.57155   157.97164
     7  C   4.0   -0.00    4.28    4.15    18.32467    99.38069   156.04790
     8  N   5.0   -0.14    3.43    2.04    15.89448    99.22195   157.30457
     9  C   4.0    0.10    3.36    3.07    15.06301    97.14892   158.44407
    10  N   5.0   -0.17    3.28    1.98    16.48219    95.07778   158.46297
    11  N   5.0   -0.17    3.23    1.96    12.81801    97.14892   159.56279
    12  H   1.0    0.09    1.03    1.43    20.76431   102.29465   163.13437
    13  H   1.0    0.05    1.07    1.44    24.49841   100.74696   159.66861
    14  H   1.0    0.05    1.04    1.43    19.47930   103.19038   159.41917
    15  H   1.0    0.06    1.04    1.43    21.45595   103.20738   156.68474
    16  H   1.0    0.04    1.04    1.43    22.03798    98.57188   157.25543
    17  H   1.0    0.04    1.04    1.43    19.73252    98.69094   159.71397
    18  H   1.0    0.05    1.03    1.43    18.33979   101.05121   154.84414
    19  H   1.0    0.05    1.03    1.43    18.59301    97.68749   154.90651
    20  H   1.0    0.08    1.06    1.44    14.76632   100.78475   157.31213
    21  H   1.0    0.09    1.04    1.43    18.20751    95.08345   157.60314
    22  H   1.0    0.09    1.02    1.43    15.84724    93.48285   159.33791
    23  H   1.0    0.09    1.02    1.43    11.73331    98.74196   159.54578
    24  H   1.0    0.09    1.02    1.43    12.17739    95.55588   160.43962
    25  N   5.0   -0.20    3.18    1.95    26.39191    79.10204   174.45383
    26  C   4.0    0.03    4.15    3.90    27.88291    79.46676   172.16915
    27  C   4.0    0.09    3.19    3.03    29.29264    77.04413   171.41515
    28  O   6.0   -0.29    1.12    1.80    29.22650    76.27879   169.21551
    29  C   4.0   -0.07    4.10    3.80    29.71972    81.64561   172.51686
    30  H   1.0    0.09    1.03    1.43    27.19883    79.78990   176.06388
    31  H   1.0    0.05    1.06    1.44    26.60734    79.95808   170.62714
    32  H   1.0    0.05    1.00    1.43    30.81387    81.88372   170.78776
    33  H   1.0    0.04    1.00    1.43    28.65580    83.36337   172.91559
    34  H   1.0    0.05    1.00    1.43    30.97828    81.21664   174.09100
    35  N   5.0   -0.17    3.21    1.96    32.40313    71.17842   168.90748
    36  C   4.0    0.03    4.30    4.20    31.49984    69.69498   166.74753
    37  C   4.0    0.09    3.24    3.04    29.99184    67.37062   167.46751
    38  O   6.0   -0.25    1.13    1.80    30.43782    66.18954   169.42149
    39  C   4.0   -0.02    4.29    4.18    33.66547    68.70855   165.05433
    40  C   4.0   -0.07    4.11    3.81    32.66391    68.09061   162.41628
    41  C   4.0   -0.07    4.21    4.03    35.82920    70.57748   164.91071
    42  H   1.0    0.09    1.05    1.44    34.24939    71.71132   168.74686
    43  H   1.0    0.04    1.06    1.44    30.27719    71.03858   165.77621
    44  H   1.0    0.06    1.06    1.44    34.41380    66.98323   165.89526
    45  H   1.0    0.05    1.00    1.43    34.21727    67.40086   161.25409
    46  H   1.0    0.05    1.00    1.43    31.20693    66.64308   162.57501
    47  H   1.0    0.05    1.00    1.43    31.86834    69.79892   161.58291
    48  H   1.0    0.05    1.00    1.43    37.30508    69.80270   163.70129
    49  H   1.0    0.03    1.16    1.46    35.13378    72.34816   164.12270
    50  H   1.0    0.05    1.01    1.43    36.56809    70.89496   166.80611
    51  N   5.0   -0.19    3.26    1.97    13.89704    71.78880   163.92995
    52  C   4.0    0.04    4.34    4.28    13.79500    73.29491   166.19951
    53  C   4.0    0.10    3.24    3.04    11.30434    72.75067   167.47696
    54  O   6.0   -0.26    1.12    1.80    11.23631    72.07604   169.66715
    55  C   4.0   -0.04    4.27    4.13    14.02366    76.08037   165.52677
    56  S   6.0   -0.03    2.49    3.10    17.11714    76.97988   164.31923
    57  H   1.0    0.09    1.04    1.43    14.32034    72.76579   162.32179
    58  H   1.0    0.06    1.08    1.44    15.35780    72.85838   167.46940
    59  H   1.0    0.05    1.07    1.44    12.63093    76.52445   164.07546
    60  H   1.0    0.05    1.09    1.44    13.66083    77.19908   167.21807
    61  N   5.0   -0.21    3.28    1.98    19.31111    88.36359   172.97229
    62  C   4.0    0.03    4.43    4.44    21.86980    87.82690   172.15592
    63  C   4.0    0.15    3.46    3.10    22.03798    85.64616   170.29076
    64  O   6.0   -0.31    1.32    1.80    23.33623    85.80490   168.39159
    65  C   4.0   -0.04    4.14    3.89    23.48551    87.22597   174.44816
    66  S   6.0   -0.04    2.41    3.10    23.68205    89.81867   176.54954
    67  H   1.0    0.09    1.04    1.43    18.94639    87.90249   174.80721
    68  H   1.0    0.05    1.07    1.44    22.57089    89.51065   171.19783
    69  H   1.0    0.04    1.08    1.44    22.65781    85.63482   175.46105
    70  H   1.0    0.05    1.08    1.44    25.39225    86.75165   173.82833
    71  H   1.0    0.06    1.00    1.43    24.28151    89.48361   178.71072
    72  N   5.0   -0.15    3.48    2.07    20.78510    83.56935   170.86335
    73  C   4.0    0.04    4.53    4.58    20.82100    81.47175   169.11158
    74  C   4.0    0.17    3.60    3.17    20.10290    82.37504   166.46785
    75  O   6.0   -0.29    1.31    1.80    21.62980    82.31646   164.71985
    76  C   4.0   -0.04    4.14    3.88    19.01253    79.39306   169.96006
    77  S   6.0   -0.00    2.55    3.10    18.83868    76.77012   167.74719
    78  H   1.0    0.08    1.06    1.44    19.76086    83.29156   172.47340
    79  H   1.0    0.06    1.06    1.44    22.72018    80.67618   169.05677
    80  H   1.0    0.05    1.07    1.44    19.65126    78.65228   171.77231
    81  H   1.0    0.04    1.07    1.44    17.12281    80.19052   170.15092
    82  N   5.0   -0.15    3.53    2.10    17.76720    83.22542   166.18439
    83  C   4.0    0.03    4.59    4.65    16.85825    84.01722   163.72964
    84  C   4.0    0.16    3.55    3.14    18.68561    85.80868   162.40872
    85  O   6.0   -0.31    1.34    1.80    19.39993    85.38349   160.23931
    86  C   4.0   -0.03    4.35    4.29    14.26932    85.21152   163.93562
    87  C   4.0   -0.07    4.19    3.98    13.48130    86.24898   161.42606
    88  C   4.0   -0.07    4.17    3.94    12.41739    83.24999   164.80678
    89  H   1.0    0.07    1.07    1.44    16.47463    83.38605   167.60546
    90  H   1.0    0.05    1.07    1.44    16.72785    82.31079   162.58257
    91  H   1.0    0.04    1.06    1.44    14.31089    86.76110   165.29244
    92  H   1.0    0.05    1.00    1.43    11.61426    87.10125   161.60936
    93  H   1.0    0.05    1.01    1.43    14.84758    87.67195   160.82891
    94  H   1.0    0.05    1.00    1.43    13.42272    84.71263   160.05412
    95  H   1.0    0.05    1.00    1.43    10.55034    84.10981   164.95607
    96  H   1.0    0.04    1.00    1.43    12.37582    81.71175   163.43673
    97  H   1.0    0.04    1.01    1.43    13.01076    82.53567   166.64548
    98  N   5.0   -0.14    3.48    2.07    19.46796    87.79478   163.71074
    99  C   4.0    0.04    4.57    4.63    21.25753    89.54466   162.58068
   100  C   4.0    0.16    3.55    3.14    23.58945    88.16894   161.59236
   101  O   6.0   -0.31    1.30    1.80    24.08456    88.17083   159.33035
   102  C   4.0   -0.03    4.35    4.28    22.09657    91.57045   164.42505
   103  C   4.0   -0.07    4.18    3.95    24.17904    93.11625   163.24020
   104  C   4.0   -0.07    4.14    3.87    19.88370    93.22207   165.14693
   105  H   1.0    0.08    1.06    1.44    18.91427    88.23508   165.50409
   106  H   1.0    0.05    1.06    1.44    20.26164    90.42906   161.01032
   107  H   1.0    0.05    1.06    1.44    22.81844    90.70118   166.14660
   108  H   1.0    0.04    1.00    1.43    24.77620    94.56945   164.57245
   109  H   1.0    0.05    1.02    1.43    25.76263    91.87659   162.79422
   110  H   1.0    0.04    1.00    1.43    23.46662    93.99308   161.51866
   111  H   1.0    0.04    1.00    1.43    20.52620    94.66393   166.47163
   112  H   1.0    0.04    1.00    1.43    19.12970    94.11402   163.44996
   113  H   1.0    0.04    1.00    1.43    18.43428    92.05422   166.02943
   114  N   5.0   -0.13    3.48    2.06    25.01619    87.00487   163.29122
   115  C   4.0    0.04    4.36    4.32    27.20261    85.48931   162.57123
   116  C   4.0    0.16    3.51    3.12    26.75663    83.90761   160.20152
   117  O   6.0   -0.33    1.47    1.80    28.10589    84.20052   158.33258
   118  C   4.0   -0.06    4.15    3.90    27.94527    83.77533   164.70662
   119  H   1.0    0.11    1.09    1.44    24.71006    87.07101   165.19228
   120  H   1.0    0.05    1.06    1.44    28.73706    86.80645   162.17817
   121  H   1.0    0.04    1.00    1.43    29.57988    82.66039   164.13404
   122  H   1.0    0.05    1.00    1.43    28.41770    84.92050   166.35258
   123  H   1.0    0.07    1.01    1.43    26.36546    82.53000   165.14693
   124  N   5.0   -0.13    3.49    2.07    24.89147    82.21442   160.29789
   125  C   4.0    0.04    4.42    4.41    24.30377    80.58169   158.14927
   126  C   4.0    0.16    3.52    3.12    24.33778    82.10292   155.72665
   127  O   6.0   -0.29    1.27    1.80    25.73807    81.53034   153.96164
   128  C   4.0    0.04    4.18    3.97    21.71673    79.36093   158.47431
   129  O   6.0   -0.24    2.07    1.83    21.75264    77.67152   160.52277
   130  H   1.0    0.12    1.09    1.44    23.75763    81.92907   161.83046
   131  H   1.0    0.05    1.06    1.44    25.70594    79.07558   158.06424
   132  H   1.0    0.06    1.02    1.43    20.31644    80.82925   158.83336
   133  H   1.0    0.05    1.02    1.43    21.23485    78.33103   156.75655
   134  H   1.0    0.13    1.12    1.45    20.13692    77.73577   161.42606
   135  N   5.0   -0.13    3.58    2.14    22.79765    84.07580   155.69263
   136  C   4.0    0.04    4.49    4.52    22.53120    85.70474   153.50433
   137  C   4.0    0.16    3.48    3.11    25.03320    86.75543   152.61994
   138  O   6.0   -0.28    1.24    1.80    25.48484    87.06534   150.35793
   139  C   4.0   -0.03    4.37    4.33    20.74163    87.82123   154.17140
   140  C   4.0   -0.03    4.35    4.30    18.29822    86.76677   155.09737
   141  C   4.0    0.15    3.26    3.04    16.12503    88.41461   154.40762
   142  O   6.0   -0.29    1.23    1.80    16.20251    90.68417   154.87438
   143  N   5.0   -0.18    3.17    1.95    14.15972    87.30723   153.27189
   144  H   1.0    0.11    1.10    1.44    21.68838    84.60681   157.17796
   145  H   1.0    0.06    1.06    1.44    21.75830    84.61248   151.93775
   146  H   1.0    0.07    1.04    1.43    21.56744    88.98342   155.65862
   147  H   1.0    0.06    1.04    1.43    20.37503    88.97019   152.50088
   148  H   1.0    0.04    1.05    1.44    17.99586    84.91106   154.25455
   149  H   1.0    0.08    1.08    1.44    18.36247    86.60614   157.14961
   150  H   1.0    0.09    1.02    1.43    14.19373    85.41372   152.91473
   151  H   1.0    0.11    1.02    1.43    12.62526    88.35603   152.76167
   152  N   5.0   -0.13    3.58    2.14    26.67915    87.29211   154.41140
   153  C   4.0    0.05    4.50    4.54    29.20382    88.07068   153.75188
   154  C   4.0    0.16    3.46    3.10    30.76285    85.85970   152.77300
   155  O   6.0   -0.26    1.26    1.80    32.21794    86.20552   151.00800
   156  C   4.0   -0.04    4.38    4.35    30.50207    89.27065   156.02333
   157  C   4.0   -0.02    4.21    4.02    29.09611    91.57234   157.04945
   158  C   4.0   -0.07    4.09    3.78    30.74773    92.98774   158.94863
   159  C   4.0   -0.07    4.13    3.87    28.27786    93.28254   154.86304
   160  H   1.0    0.12    1.10    1.44    26.32577    87.20707   156.30490
   161  H   1.0    0.07    1.07    1.44    29.07910    89.48419   152.25900
   162  H   1.0    0.06    1.03    1.43    30.62490    87.87604   157.53322
   163  H   1.0    0.05    1.03    1.43    32.39179    89.87537   155.46775
   164  H   1.0    0.06    1.06    1.44    27.39536    90.97330   158.04345
   165  H   1.0    0.05    1.00    1.43    29.70838    94.62047   159.65539
   166  H   1.0    0.05    1.00    1.43    31.21260    91.72352   160.50576
   167  H   1.0    0.05    1.00    1.43    32.47116    93.60757   158.00755
   168  H   1.0    0.05    1.00    1.43    27.27819    94.91338   155.62649
   169  H   1.0    0.06    1.00    1.43    29.95027    93.90237   153.83503
   170  H   1.0    0.05    1.01    1.43    27.03631    92.22052   153.61015
   171  N   5.0   -0.13    3.54    2.10    30.48128    83.62037   153.92385
   172  C   4.0    0.04    4.39    4.35    32.05353    81.39239   153.30591
   173  C   4.0    0.17    3.38    3.07    31.75118    80.52311   150.56203
   174  O   6.0   -0.26    1.21    1.80    32.83588    78.58236   149.80613
   175  C   4.0   -0.03    4.28    4.17    31.51685    79.14172   155.05390
   176  C   4.0   -0.04    4.28    4.16    30.87434    79.81635   157.75243
   177  C   4.0   -0.00    4.23    4.07    33.08721    80.96342   159.18484
   178  N   5.0   -0.14    3.40    2.02    34.91647    79.04724   159.94829
   179  C   4.0    0.09    3.35    3.07    34.40435    77.15751   161.52622
   180  N   5.0   -0.18    3.28    1.98    32.10077    76.90807   162.50509
   181  N   5.0   -0.18    3.28    1.98    36.19770    75.50022   162.11203
   182  H   1.0    0.12    1.14    1.45    29.17737    83.27644   155.30146
   183  H   1.0    0.06    1.06    1.44    34.00184    81.99899   153.58748
   184  H   1.0    0.06    1.04    1.43    29.92003    78.09104   154.28668
   185  H   1.0    0.06    1.03    1.43    33.19115    77.94364   155.10304
   186  H   1.0    0.07    1.12    1.45    29.33989    81.19019   157.75243
   187  H   1.0    0.05    1.05    1.44    30.29231    78.10993   158.74832
   188  H   1.0    0.05    1.03    1.43    34.04719    82.32591   157.97353
   189  H   1.0    0.05    1.03    1.43    32.38612    81.89883   160.88182
   190  H   1.0    0.08    1.06    1.44    36.70037    79.16251   159.22642
   191  H   1.0    0.08    1.05    1.44    30.71750    78.16851   162.04589
   192  H   1.0    0.09    1.02    1.43    31.71905    75.45487   163.71452
   193  H   1.0    0.09    1.02    1.43    37.96081    75.67974   161.35236
   194  H   1.0    0.08    1.20    1.46    35.81220    74.04891   163.32145
   195  N   5.0   -0.11    3.48    2.07    30.23562    81.94797   149.12583
   196  C   4.0    0.04    4.25    4.09    29.97294    81.69474   146.37817
   197  C   4.0    0.27    3.17    3.03    32.14235    83.03267   144.92308
   198  O   6.0   -0.23    1.17    1.80    34.01696    81.84025   144.11806
   199  C   4.0   -0.05    4.09    3.78    27.38591    82.73598   145.54291
   200  O   6.0   -0.24    1.20    1.80    32.04408    85.32491   144.53569
   201  H   1.0    0.11    1.11    1.44    29.12068    83.35014   149.83826
   202  H   1.0    0.07    1.05    1.44    30.07688    79.69541   145.89062
   203  H   1.0    0.07    1.00    1.43    27.21016    82.53756   143.50012
   204  H   1.0    0.06    1.00    1.43    25.89680    81.66640   146.48211
   205  H   1.0    0.08    1.00    1.43    27.26119    84.72397   146.06826
   206  H   1.0    0.09    1.07    1.44    23.27670   100.87858   163.47950
   207  H   1.0    0.07    1.04    1.43    24.91978   106.25647   160.66370
   208  H   1.0    0.09    1.07    1.44    24.89214    79.88591   174.28416
   209  H   1.0    0.06    1.04    1.43    30.27122    76.07808   172.71138
   210  H   1.0    0.11    1.08    1.44    31.47219    72.59432   169.05287
   211  H   1.0    0.06    1.05    1.44    28.59788    66.76365   166.34522
   212  H   1.0    0.11    1.07    1.44    15.09009    70.58844   164.09833
   213  H   1.0    0.07    1.05    1.44     9.68797    72.94497   166.51745
   214  H   1.0    0.10    1.07    1.44    19.00040    90.02773   172.80910

  Z AO/shell   Hii/eV     exponent
  1     Wed Apr 25 08:07:45 CEST 2018   EN: 2.200 GM2: 0.406  GM3: 0.0800  RAES: 1.40
     1s    -10.707211    1.230000
  6     Wed Apr 25 08:07:45 CEST 2018   EN: 2.550 GM2: 0.538  GM3: 0.1500  RAES: 3.00
     2s    -13.970922    2.096432
     2p    -10.063292    1.800000
  7     Wed Apr 25 08:07:45 CEST 2018   EN: 3.040 GM2: 0.461  GM3:-0.0640  RAES: 1.90
     2s    -16.686243    2.339881
     2p    -12.523956    2.014332
  8     Wed Apr 25 08:07:45 CEST 2018   EN: 3.440 GM2: 0.452  GM3:-0.0517  RAES: 1.80
     2s    -20.229985    2.439742
     2p    -15.503117    2.137023
 16     Tue Apr 24 11:44:34 CEST 2018   EN: 2.580 GM2: 0.340  GM3:-0.0502  RAES: 3.10
     3s    -20.029654    1.981333
     3p    -11.377694    2.025643
     3d     -0.420282    1.702555
 no old-style atom pair restraining (fixing) potential

molecular fragmentation (1/2 indicates fragments):
111111111111111111111111222222222222222222222222222222222222222222222222
222222222222222222222222222222222222222222222222222222222222222222222222
2222222222222222222222222222222222222222222222222222222222222112222222
# atoms in fragment 1/2:    26   188
 fragment masses (1/2) :      159.21     1326.65
CMA distance (Bohr)    :  18.871
constraining FC (au)   :  0.0500
           ------------------------------------------------- 
          |        Self-Consistent Charge Iterations        |
           ------------------------------------------------- 

 Ncao       : 532
 Nao        : 529
 Nshell     : 317
 Nel        : 574
 T(el)      :   500.0
 intcut     :    35.0
 scfconv/Eh :  0.100E-06
   qconv/e  :  0.100E-04
 intneglect :  0.100E-08
 broydamp   :      0.400
 iter      E             dE          RMSdq      gap      omega  full diag
   1   -327.4416108 -0.327442E+03  0.473E+00    3.25       0.0  T
   2   -328.2387969 -0.797186E+00  0.219E+00    2.06       1.0  T
   3   -328.2866097 -0.478128E-01  0.120E+00    2.13       1.0  T
   4   -328.3390766 -0.524669E-01  0.264E-01    1.42       1.0  T
   5   -328.3413921 -0.231552E-02  0.120E-01    1.51       1.0  T
   6   -328.3418920 -0.499919E-03  0.466E-02    1.46       1.0  T
   7   -328.3419649 -0.728873E-04  0.212E-02    1.48       1.0  T
   8   -328.3419768 -0.118748E-04  0.855E-03    1.49       1.0  T
   9   -328.3419793 -0.254354E-05  0.397E-03    1.50       1.7  T
  10   -328.3419797 -0.382664E-06  0.191E-03    1.49       3.6  T
  11   -328.3419798 -0.100716E-06  0.101E-03    1.49       6.8  T
  12   -328.3419798 -0.258931E-07  0.519E-04    1.49      13.2  T
  13   -328.3419798 -0.533873E-08  0.305E-04    1.49      22.4  T
  14   -328.3419798 -0.286440E-08  0.143E-04    1.49      47.7  T
  15   -328.3419798 -0.541888E-09  0.761E-05    1.49      89.8  T
  16   -328.3419798 -0.162402E-09  0.324E-05    1.49     210.9  T
speedup  1.74
cpu  time for SCC    3.31 s
wall time for SCC    1.90 s

   *** convergence criteria satisfied after 16 iterations ***

          eigenvalues
 #    :         275        276        277        278        279        280        281        282
 occ. :        2.000      2.000      2.000      2.000      2.000      2.000      2.000      2.000
 eps  :       -10.824    -10.670    -10.645    -10.426    -10.414    -10.410    -10.402    -10.390
 #    :         283        284        285        286        287        288        289        290
 occ. :        2.000      2.000      2.000      2.000      2.000      0.000      0.000      0.000
 eps  :       -10.359     -9.929     -9.749     -9.705     -9.530     -8.037     -8.014     -7.770
 #    :         291        292        293        294        295        296        297        298
 occ. :        0.000      0.000      0.000      0.000      0.000      0.000      0.000      0.000
 eps  :        -7.674     -7.577     -6.922     -6.752     -6.584     -6.458     -6.166     -6.155


   #   Z            q   n(s)   n(p)   n(d)      C6AA      α(0)
   1   7 N     -0.396  1.324  4.072  0.000    30.270     8.171
   2   6 C      0.036  1.051  2.913  0.000    19.981     6.366
   3   6 C      0.196  1.096  2.708  0.000    23.816     7.992
   4   8 O     -0.399  1.773  4.626  0.000    21.666     6.241
   5   6 C     -0.074  1.053  3.020  0.000    21.900     6.661
   6   6 C     -0.083  1.049  3.035  0.000    22.077     6.687
   7   6 C     -0.029  1.051  2.978  0.000    21.150     6.559
   8   7 N     -0.144  1.209  3.935  0.000    24.116     7.293
   9   6 C      0.230  1.016  2.754  0.000    23.177     7.882
  10   7 N     -0.218  1.218  4.000  0.000    25.771     7.540
  11   7 N     -0.256  1.237  4.019  0.000    26.659     7.668
  12   1 H      0.180  0.820  0.000  0.000     1.216     1.727
  13   1 H      0.063  0.937  0.000  0.000     2.166     2.302
  14   1 H      0.073  0.927  0.000  0.000     2.050     2.239
  15   1 H      0.047  0.953  0.000  0.000     2.355     2.400
  16   1 H      0.058  0.942  0.000  0.000     2.217     2.329
  17   1 H      0.077  0.923  0.000  0.000     2.012     2.218
  18   1 H      0.088  0.912  0.000  0.000     1.901     2.156
  19   1 H      0.082  0.918  0.000  0.000     1.957     2.187
  20   1 H      0.233  0.767  0.000  0.000     0.954     1.530
  21   1 H      0.233  0.767  0.000  0.000     0.951     1.528
  22   1 H      0.233  0.767  0.000  0.000     0.951     1.528
  23   1 H      0.251  0.749  0.000  0.000     0.880     1.469
  24   1 H      0.260  0.740  0.000  0.000     0.846     1.441
  25   7 N     -0.390  1.324  4.066  0.000    30.104     8.149
  26   6 C      0.040  1.053  2.907  0.000    19.923     6.358
  27   6 C      0.195  1.098  2.707  0.000    23.829     7.994
  28   8 O     -0.367  1.752  4.615  0.000    21.033     6.149
  29   6 C     -0.122  1.046  3.077  0.000    22.902     6.824
  30   1 H      0.167  0.833  0.000  0.000     1.292     1.780
  31   1 H      0.057  0.943  0.000  0.000     2.240     2.340
  32   1 H      0.061  0.939  0.000  0.000     2.193     2.316
  33   1 H      0.055  0.945  0.000  0.000     2.254     2.348
  34   1 H      0.056  0.944  0.000  0.000     2.248     2.345
  35   7 N     -0.401  1.329  4.071  0.000    30.390     8.187
  36   6 C      0.033  1.058  2.910  0.000    20.041     6.376
  37   6 C      0.200  1.086  2.714  0.000    23.741     7.980
  38   8 O     -0.385  1.767  4.618  0.000    21.392     6.201
  39   6 C     -0.018  1.059  2.959  0.000    20.853     6.494
  40   6 C     -0.132  1.047  3.085  0.000    23.093     6.852
  41   6 C     -0.150  1.054  3.096  0.000    23.447     6.904
  42   1 H      0.174  0.826  0.000  0.000     1.250     1.751
  43   1 H      0.048  0.952  0.000  0.000     2.340     2.392
  44   1 H      0.045  0.955  0.000  0.000     2.386     2.415
  45   1 H      0.059  0.941  0.000  0.000     2.210     2.325
  46   1 H      0.037  0.963  0.000  0.000     2.485     2.465
  47   1 H      0.063  0.937  0.000  0.000     2.167     2.302
  48   1 H      0.077  0.923  0.000  0.000     2.013     2.219
  49   1 H      0.101  0.899  0.000  0.000     1.773     2.082
  50   1 H      0.070  0.930  0.000  0.000     2.081     2.256
  51   7 N     -0.386  1.319  4.067  0.000    29.975     8.131
  52   6 C      0.042  1.047  2.911  0.000    19.872     6.346
  53   6 C      0.204  1.084  2.712  0.000    23.669     7.968
  54   8 O     -0.367  1.755  4.612  0.000    21.036     6.149
  55   6 C     -0.034  1.079  2.954  0.000    21.162     6.547
  56  16 S     -0.073  1.933  4.053  0.087   144.076    20.202
  57   1 H      0.177  0.823  0.000  0.000     1.229     1.737
  58   1 H      0.055  0.945  0.000  0.000     2.255     2.348
  59   1 H      0.083  0.917  0.000  0.000     1.943     2.180
  60   1 H      0.071  0.929  0.000  0.000     2.073     2.252
  61   7 N     -0.386  1.311  4.075  0.000    29.975     8.131
  62   6 C      0.030  1.053  2.917  0.000    20.040     6.369
  63   6 C      0.268  1.040  2.692  0.000    22.482     7.765
  64   8 O     -0.466  1.734  4.732  0.000    23.046     6.436
  65   6 C      0.018  1.053  2.929  0.000    20.269     6.409
  66  16 S     -0.384  1.890  4.450  0.043   157.945    21.152
  67   1 H      0.167  0.833  0.000  0.000     1.289     1.779
  68   1 H      0.065  0.935  0.000  0.000     2.145     2.290
  69   1 H      0.051  0.949  0.000  0.000     2.309     2.376
  70   1 H      0.044  0.956  0.000  0.000     2.401     2.423
  71   1 H      0.237  0.763  0.000  0.000     0.930     1.508
  72   7 N     -0.171  1.241  3.930  0.000    24.704     7.382
  73   6 C      0.017  1.058  2.925  0.000    20.262     6.405
  74   6 C      0.280  1.034  2.686  0.000    22.255     7.726
  75   8 O     -0.464  1.738  4.726  0.000    23.005     6.431
  76   6 C     -0.042  1.077  2.964  0.000    21.319     6.574
  77  16 S     -0.139  1.936  4.100  0.103   146.891    20.399
  78   1 H      0.219  0.781  0.000  0.000     1.013     1.577
  79   1 H      0.083  0.917  0.000  0.000     1.949     2.183
  80   1 H      0.101  0.899  0.000  0.000     1.773     2.082
  81   1 H      0.071  0.929  0.000  0.000     2.074     2.252
  82   7 N     -0.175  1.241  3.933  0.000    24.779     7.393
  83   6 C      0.008  1.063  2.929  0.000    20.423     6.432
  84   6 C      0.281  1.036  2.683  0.000    22.248     7.725
  85   8 O     -0.488  1.742  4.746  0.000    23.516     6.502
  86   6 C     -0.028  1.053  2.974  0.000    21.023     6.520
  87   6 C     -0.125  1.041  3.084  0.000    22.935     6.826
  88   6 C     -0.127  1.044  3.083  0.000    22.978     6.832
  89   1 H      0.214  0.786  0.000  0.000     1.038     1.596
  90   1 H      0.079  0.921  0.000  0.000     1.992     2.207
  91   1 H      0.059  0.941  0.000  0.000     2.215     2.327
  92   1 H      0.070  0.930  0.000  0.000     2.088     2.260
  93   1 H      0.043  0.957  0.000  0.000     2.416     2.431
  94   1 H      0.051  0.949  0.000  0.000     2.304     2.374
  95   1 H      0.067  0.933  0.000  0.000     2.117     2.276
  96   1 H      0.053  0.947  0.000  0.000     2.283     2.363
  97   1 H      0.042  0.958  0.000  0.000     2.425     2.435
  98   7 N     -0.165  1.239  3.926  0.000    24.571     7.362
  99   6 C      0.010  1.065  2.926  0.000    20.402     6.429
 100   6 C      0.282  1.036  2.682  0.000    22.223     7.720
 101   8 O     -0.493  1.746  4.747  0.000    23.633     6.518
 102   6 C     -0.031  1.056  2.975  0.000    21.079     6.529
 103   6 C     -0.123  1.041  3.082  0.000    22.914     6.824
 104   6 C     -0.134  1.046  3.088  0.000    23.123     6.855
 105   1 H      0.208  0.792  0.000  0.000     1.066     1.617
 106   1 H      0.084  0.916  0.000  0.000     1.942     2.179
 107   1 H      0.048  0.952  0.000  0.000     2.347     2.396
 108   1 H      0.062  0.938  0.000  0.000     2.176     2.307
 109   1 H      0.037  0.963  0.000  0.000     2.494     2.470
 110   1 H      0.055  0.945  0.000  0.000     2.259     2.350
 111   1 H      0.066  0.934  0.000  0.000     2.134     2.285
 112   1 H      0.065  0.935  0.000  0.000     2.144     2.290
 113   1 H      0.052  0.948  0.000  0.000     2.290     2.366
 114   7 N     -0.178  1.247  3.931  0.000    24.846     7.403
 115   6 C      0.022  1.054  2.923  0.000    20.206     6.400
 116   6 C      0.275  1.040  2.685  0.000    22.357     7.743
 117   8 O     -0.489  1.749  4.740  0.000    23.547     6.506
 118   6 C     -0.142  1.046  3.096  0.000    23.276     6.877
 119   1 H      0.239  0.761  0.000  0.000     0.926     1.507
 120   1 H      0.072  0.928  0.000  0.000     2.067     2.249
 121   1 H      0.066  0.934  0.000  0.000     2.131     2.283
 122   1 H      0.082  0.918  0.000  0.000     1.956     2.187
 123   1 H      0.084  0.916  0.000  0.000     1.939     2.178
 124   7 N     -0.172  1.247  3.925  0.000    24.728     7.386
 125   6 C      0.006  1.063  2.932  0.000    20.482     6.444
 126   6 C      0.276  1.034  2.690  0.000    22.324     7.737
 127   8 O     -0.514  1.765  4.749  0.000    24.097     6.582
 128   6 C      0.066  1.037  2.897  0.000    19.671     6.351
 129   8 O     -0.452  1.707  4.745  0.000    21.880     6.314
 130   1 H      0.254  0.746  0.000  0.000     0.870     1.461
 131   1 H      0.090  0.910  0.000  0.000     1.882     2.145
 132   1 H      0.059  0.941  0.000  0.000     2.213     2.326
 133   1 H      0.044  0.956  0.000  0.000     2.390     2.418
 134   1 H      0.323  0.677  0.000  0.000     0.654     1.271
 135   7 N     -0.182  1.247  3.935  0.000    24.945     7.418
 136   6 C      0.025  1.056  2.920  0.000    20.152     6.390
 137   6 C      0.284  1.033  2.684  0.000    22.194     7.716
 138   8 O     -0.546  1.770  4.776  0.000    24.832     6.681
 139   6 C     -0.066  1.044  3.022  0.000    21.752     6.637
 140   6 C     -0.116  1.054  3.062  0.000    22.698     6.780
 141   6 C      0.284  1.035  2.682  0.000    22.194     7.714
 142   8 O     -0.496  1.735  4.760  0.000    23.685     6.525
 143   7 N     -0.289  1.272  4.016  0.000    27.444     7.780
 144   1 H      0.247  0.753  0.000  0.000     0.895     1.482
 145   1 H      0.056  0.944  0.000  0.000     2.241     2.341
 146   1 H      0.086  0.914  0.000  0.000     1.922     2.168
 147   1 H      0.054  0.946  0.000  0.000     2.268     2.355
 148   1 H      0.046  0.954  0.000  0.000     2.366     2.405
 149   1 H      0.121  0.879  0.000  0.000     1.603     1.980
 150   1 H      0.217  0.783  0.000  0.000     1.021     1.583
 151   1 H      0.237  0.763  0.000  0.000     0.937     1.516
 152   7 N     -0.177  1.245  3.932  0.000    24.832     7.401
 153   6 C      0.032  1.054  2.914  0.000    20.038     6.372
 154   6 C      0.281  1.041  2.679  0.000    22.249     7.724
 155   8 O     -0.542  1.775  4.766  0.000    24.728     6.667
 156   6 C     -0.078  1.057  3.021  0.000    21.985     6.674
 157   6 C     -0.019  1.058  2.960  0.000    20.870     6.498
 158   6 C     -0.120  1.046  3.074  0.000    22.863     6.818
 159   6 C     -0.117  1.043  3.074  0.000    22.802     6.809
 160   1 H      0.245  0.755  0.000  0.000     0.902     1.487
 161   1 H      0.060  0.940  0.000  0.000     2.195     2.317
 162   1 H      0.066  0.934  0.000  0.000     2.128     2.281
 163   1 H      0.044  0.956  0.000  0.000     2.391     2.418
 164   1 H      0.054  0.946  0.000  0.000     2.272     2.357
 165   1 H      0.059  0.941  0.000  0.000     2.211     2.325
 166   1 H      0.048  0.952  0.000  0.000     2.341     2.393
 167   1 H      0.037  0.963  0.000  0.000     2.489     2.467
 168   1 H      0.056  0.944  0.000  0.000     2.243     2.342
 169   1 H      0.029  0.971  0.000  0.000     2.595     2.519
 170   1 H      0.030  0.970  0.000  0.000     2.592     2.518
 171   7 N     -0.212  1.262  3.950  0.000    25.617     7.517
 172   6 C      0.028  1.064  2.908  0.000    20.112     6.387
 173   6 C      0.278  1.043  2.679  0.000    22.295     7.732
 174   8 O     -0.530  1.759  4.771  0.000    24.468     6.632
 175   6 C     -0.071  1.049  3.022  0.000    21.859     6.655
 176   6 C     -0.113  1.058  3.055  0.000    22.656     6.776
 177   6 C     -0.025  1.053  2.971  0.000    21.092     6.553
 178   7 N     -0.149  1.215  3.934  0.000    24.225     7.310
 179   6 C      0.228  1.020  2.752  0.000    23.212     7.888
 180   7 N     -0.236  1.223  4.013  0.000    26.171     7.598
 181   7 N     -0.290  1.256  4.034  0.000    27.479     7.785
 182   1 H      0.261  0.739  0.000  0.000     0.843     1.438
 183   1 H      0.059  0.941  0.000  0.000     2.214     2.327
 184   1 H      0.055  0.945  0.000  0.000     2.255     2.348
 185   1 H      0.075  0.925  0.000  0.000     2.033     2.230
 186   1 H      0.100  0.900  0.000  0.000     1.788     2.091
 187   1 H      0.078  0.922  0.000  0.000     2.002     2.213
 188   1 H      0.078  0.922  0.000  0.000     1.996     2.209
 189   1 H      0.083  0.917  0.000  0.000     1.952     2.185
 190   1 H      0.226  0.774  0.000  0.000     0.983     1.553
 191   1 H      0.235  0.765  0.000  0.000     0.945     1.523
 192   1 H      0.238  0.762  0.000  0.000     0.933     1.513
 193   1 H      0.242  0.758  0.000  0.000     0.915     1.499
 194   1 H      0.258  0.742  0.000  0.000     0.853     1.447
 195   7 N     -0.177  1.254  3.923  0.000    24.829     7.400
 196   6 C      0.021  1.072  2.907  0.000    20.232     6.407
 197   6 C      0.370  1.026  2.603  0.000    20.722     7.450
 198   8 O     -0.659  1.773  4.886  0.000    27.625     7.047
 199   6 C     -0.105  1.043  3.062  0.000    22.564     6.774
 200   8 O     -0.627  1.761  4.866  0.000    26.791     6.940
 201   1 H      0.197  0.803  0.000  0.000     1.120     1.658
 202   1 H      0.026  0.974  0.000  0.000     2.649     2.545
 203   1 H      0.040  0.960  0.000  0.000     2.445     2.445
 204   1 H      0.053  0.947  0.000  0.000     2.287     2.365
 205   1 H      0.051  0.949  0.000  0.000     2.312     2.378
 206   1 H      0.184  0.816  0.000  0.000     1.188     1.707
 207   1 H      0.075  0.925  0.000  0.000     2.031     2.228
 208   1 H      0.175  0.825  0.000  0.000     1.240     1.744
 209   1 H      0.079  0.921  0.000  0.000     1.993     2.208
 210   1 H      0.182  0.818  0.000  0.000     1.205     1.719
 211   1 H      0.064  0.936  0.000  0.000     2.156     2.296
 212   1 H      0.187  0.813  0.000  0.000     1.173     1.696
 213   1 H      0.082  0.918  0.000  0.000     1.960     2.189
 214   1 H      0.193  0.807  0.000  0.000     1.141     1.673

 Mol. C6AA /au·bohr⁶  :     426396.045701
 Mol. C8AA /au·bohr⁸  :    9832678.961273
 Mol. α(0) /au        :        980.335402

 
molecular dipole:
                 x           y           z       tot (Debye)
 q only:        5.789      92.746     188.549
   full:        5.120      92.691     189.784     537.010
molecular quadrupole (traceless):
                xx          xy          yy          xz          yz          zz
 q only:   -21750.757     756.842   -8485.987    2734.319   25890.943   30236.744
  q+dip:   -21974.209     674.731   -8707.954    2622.965   26044.178   30682.163
   full:   -21974.176     675.186   -8708.429    2624.680   26045.053   30682.605
speedup  1.77
cpu  time for grad    3.83 s
wall time for grad    2.16 s

SCC energy    :    -328.3544303
rep           :       3.9465842
ES            :       1.1518327
AES           :      -0.0127385
AXC           :       0.1275788
disp          :      -0.2619218
XB            :       0.0000000
fix           :       0.0000000
Gborn         :       0.0000000
Gsasa         :       0.0000000
Ghb           :       0.0000000
Gshift        :       0.0000000
Gsolv         :      -0.4089460     -256.62
Etot ala COSMO:    -328.3544303
grad norm     :       0.5393034
total E       :    -324.3889659
atomizationE  :      57.1854318    35884.40
(atE without considering molecular charge,
 total energy contains solvation terms)
H-L gap (eV)  :          1.4931

------------------------------------------------------------------------
 * finished run on 2019/05/05 at 12:29:12.462     
------------------------------------------------------------------------
 total:
 * wall-time:     0 d,  0 h,  0 min,  2.427 sec
 *  cpu-time:     0 d,  0 h,  0 min,  4.156 sec
 * ratio c/w:     1.713 speedup
 SCF:
 * wall-time:     0 d,  0 h,  0 min,  2.261 sec
 *  cpu-time:     0 d,  0 h,  0 min,  4.034 sec
 * ratio c/w:     1.785 speedup

