      -----------------------------------------------------------      
     |                   =====================                   |     
     |                           x T B                           |     
     |                   =====================                   |     
     |                         S. Grimme                         |     
     |          Mulliken Center for Theoretical Chemistry        |     
     |                    University of Bonn                     |     
     |                 Version 6.0.1 (SAW181210)                 |     
      -----------------------------------------------------------      

   This program is distributed in the hope that it will be useful,
   but WITHOUT ANY WARRANTY; without even the implied warranty of
   MERCHANTABILITY or FITNESS FOR A PARTICULAR PURPOSE.
   
   FOR NON-COMMERCIAL, ACADEMIA USE ONLY.
   
   Cite this work as:
   S. Grimme, C. Bannwarth, P. Shushkov, J. Comput. Theory Chem., 2017,
   13, 1989-2009.
   C. Bannwarth, S. Ehlert and S. Grimme., ChemRxiv, 2018, preprint.
   http://doi.org/10.26434/chemrxiv.7246238.v1
   
   for sTDA-xTB:
   S. Grimme and C. Bannwarth, J. Chem. Phys., 2016, 145, 054103.
   
   in the mass-spec context:
   V. Asgeirsson, C. Bauer and S. Grimme, Chem. Sci., 2017, 8, 4879.
   
   if GBSA is used:
   P. Shushkov, F. März and S. Grimme, unpublished.
   
   for ANC optimizer:
   S. Grimme, unpublished.
   Rational Function algorithm used in ANCopt:
   F. Eckert, P. Pulay, H.-J. Werner, J. Comput. Chem., 1997, 18, 1473.
   
   with help from (in alphabetical order)
   C. Bannwarth, F. Bohle, G. Brandenburg, E. Caldeweyher, M. Checinski,
   S. Dohm, S. Ehlert, S. Ehrlich, F. März, H. Neugebauer, J. Pisarek,
   P. Pracht, P. Shushkov, and S. Spicher.
   
 * started run on 2019/05/10 at 10:20:18.825     
========================================================================
 # omp threads = 2
========================================================================
number of atoms            : 497
number of electrons        : 1252
charge                     : 1
spin                       : .0
first test random number   : .6630

########################################################################
# WARNING! Please study the warnings concerning your input carefully
#  - Process number higher than OMP_NUM_THREADS, I hope you know what you are doing.
########################################################################

           ------------------------------------------------- 
          |                 G F N 2 - x T B                 |
          | Geometry, Frequencies, Noncovalent interactions |
          |            JCTC 2018 parametrisation            |
           ------------------------------------------------- 
 
      method parameters     
 k(s)        :  1.8500
 k(p)        :  2.2300
 k(d)        :  2.2300
 k(f)        :  2.0000
 kEN (H0ij)  : -2.0000
 D4 a1       :  0.5200
 D4 a2       :  5.0000
 D4 s6       :  1.0000
 D4 s8       :  2.7000
 D4 s9       :  5.0000
 alphaj      :  2.0000

 Solvent             : h2o
 Using internal parameter file: .param_gbsa2_h2o
 Gsolv ref. state (COSMO-RS): gsolv [1 M gas/solution]
 temperature (mdtemp)       :    298.150000000000     
 dielectric constant        :    80.2000000000000     
 rho                        :    1.00000000000000     
 mass                       :    18.0000000000000     
 surface tension            :    15.5689454083859     
 probe radius               :   0.975313790000000     
 vdW radii scaling          :    1.00000000000000     
 Gshift (Eh)                :   1.857443126794793E-003
 c1                         :    1.55243817000000     
 soset                      :   0.130326360000000     
 HB correction              :  T

            Z     q(EN)     CN     RAES       Cart. coordinates
     1  N   5.0   -0.21    3.20    1.96    90.78431    19.56795    -5.36980
     2  C   4.0    0.03    4.23    4.07    90.03955    21.19684    -3.29894
     3  C   4.0    0.08    3.22    3.04    91.57573    20.53135    -0.94931
     4  O   6.0   -0.32    1.16    1.80    92.64868    22.12853     0.34341
     5  C   4.0   -0.04    4.33    4.25    87.20936    20.89176    -2.76148
     6  C   4.0   -0.01    3.57    3.15    86.29791    22.88483    -0.95427
     7  C   4.0   -0.04    3.47    3.10    86.08139    25.37939    -1.74675
     8  C   4.0   -0.04    3.46    3.10    85.68229    22.27935     1.52029
     9  C   4.0   -0.04    3.37    3.07    85.27170    27.23384    -0.09269
    10  C   4.0   -0.05    3.38    3.07    84.85708    24.13313     3.17209
    11  C   4.0   -0.04    3.37    3.07    84.65407    26.61546     2.37376
    12  H   1.0    0.08    1.03    1.43    89.39489    18.58282    -6.25485
    13  H   1.0    0.04    1.05    1.44    90.46381    23.17153    -3.78304
    14  H   1.0    0.04    1.03    1.43    86.20087    21.04206    -4.55555
    15  H   1.0    0.04    1.03    1.43    86.87783    19.00545    -1.99742
    16  H   1.0    0.05    1.03    1.43    86.54138    25.86183    -3.67623
    17  H   1.0    0.05    1.03    1.43    85.84661    20.34562     2.15024
    18  H   1.0    0.05    1.03    1.43    85.11506    29.16422    -0.73263
    19  H   1.0    0.04    1.03    1.43    84.37519    23.63297     5.08928
    20  H   1.0    0.04    1.03    1.43    84.01337    28.06272     3.66063
    21  N   5.0   -0.20    3.25    1.97    97.80923    23.50036    -1.10381
    22  C   4.0    0.03    4.38    4.34    97.98547    26.21535    -0.71651
    23  C   4.0    0.15    3.44    3.09    97.83122    26.79358     2.11677
    24  O   6.0   -0.32    1.26    1.80    99.10179    28.48320     3.07351
    25  C   4.0   -0.02    4.30    4.21    96.12377    27.82168    -2.27622
    26  C   4.0   -0.04    4.19    3.98    93.45680    27.89886    -1.15488
    27  C   4.0   -0.07    4.13    3.86    96.13781    26.95011    -5.02455
    28  C   4.0   -0.08    4.02    3.65    91.63391    29.54357    -2.66636
    29  H   1.0    0.09    1.02    1.43    96.45549    22.72483    -2.20927
    30  H   1.0    0.05    1.06    1.44    99.89823    26.79442    -1.29199
    31  H   1.0    0.05    1.06    1.44    96.89534    29.74375    -2.21648
    32  H   1.0    0.06    1.04    1.43    92.71030    25.98710    -1.01255
    33  H   1.0    0.04    1.03    1.43    93.57351    28.66074     0.75965
    34  H   1.0    0.04    1.00    1.43    95.05056    28.26187    -6.16571
    35  H   1.0    0.05    1.00    1.43    98.05975    26.90414    -5.74634
    36  H   1.0    0.04    1.00    1.43    95.32108    25.07611    -5.23310
    37  H   1.0    0.04    1.00    1.43    89.88464    29.74542    -1.61163
    38  H   1.0    0.04    1.00    1.43    92.43009    31.41379    -2.97172
    39  H   1.0    0.04    1.00    1.43    91.19496    28.70724    -4.49017
    40  N   5.0   -0.15    3.49    2.07    96.22830    25.36821     3.44641
    41  C   4.0    0.03    4.41    4.40    95.94360    25.70075     6.15190
    42  C   4.0    0.08    3.28    3.05    98.42932    24.99367     7.43313
    43  O   6.0   -0.32    1.15    1.80    99.55908    26.42923     8.86263
    44  C   4.0   -0.03    4.32    4.23    93.75466    24.10262     7.18371
    45  C   4.0   -0.05    4.17    3.95    91.19842    24.87896     6.04688
    46  C   4.0   -0.08    4.13    3.87    93.73179    24.23276    10.06930
    47  C   4.0   -0.08    4.01    3.64    90.38546    27.59003     6.58283
    48  H   1.0    0.10    1.09    1.44    95.12896    24.06465     2.57985
    49  H   1.0    0.05    1.05    1.44    95.64045    27.71293     6.55262
    50  H   1.0    0.04    1.06    1.44    94.11016    22.14296     6.61726
    51  H   1.0    0.06    1.03    1.43    91.23651    24.58213     4.00688
    52  H   1.0    0.03    1.03    1.43    89.77682    23.59622     6.81113
    53  H   1.0    0.04    1.00    1.43    92.11373    23.21064    10.80882
    54  H   1.0    0.04    1.00    1.43    95.43315    23.38142    10.84516
    55  H   1.0    0.04    1.00    1.43    93.64146    26.17991    10.71311
    56  H   1.0    0.04    1.00    1.43    88.52802    27.91890     5.77142
    57  H   1.0    0.04    1.00    1.43    90.28029    27.95313     8.59995
    58  H   1.0    0.04    1.00    1.43    91.67589    28.94685     5.74011
    59  N   5.0   -0.19    3.25    1.97   103.21012    30.10558     6.54612
    60  C   4.0    0.03    4.32    4.23   102.69797    32.21268     8.21952
    61  C   4.0    0.15    3.44    3.09   103.91287    31.76131    10.79528
    62  O   6.0   -0.31    1.27    1.80   105.11736    33.43416    11.87365
    63  C   4.0   -0.04    4.37    4.33    99.82554    32.51614     8.41669
    64  C   4.0   -0.03    4.18    3.95    98.90996    34.59038    10.21571
    65  C   4.0   -0.08    4.10    3.81    99.92781    37.18480     9.47363
    66  C   4.0   -0.08    4.11    3.81    96.02242    34.61161    10.22404
    67  H   1.0    0.12    1.05    1.44   101.71199    29.32624     5.63330
    68  H   1.0    0.04    1.05    1.44   103.56443    33.92989     7.44093
    69  H   1.0    0.05    1.03    1.43    99.12489    32.90224     6.51535
    70  H   1.0    0.06    1.04    1.43    99.04909    30.70765     9.03319
    71  H   1.0    0.04    1.06    1.44    99.56495    34.12887    12.12132
    72  H   1.0    0.04    1.00    1.43    99.07311    38.64762    10.63481
    73  H   1.0    0.05    1.00    1.43   101.96111    37.26682     9.73755
    74  H   1.0    0.04    1.00    1.43    99.49853    37.58320     7.50326
    75  H   1.0    0.04    1.00    1.43    95.30046    35.97936    11.57643
    76  H   1.0    0.04    1.00    1.43    95.32413    35.11267     8.35764
    77  H   1.0    0.04    1.00    1.43    95.27328    32.76315    10.72122
    78  N   5.0   -0.15    3.48    2.07   103.51121    29.50934    11.84642
    79  C   4.0    0.04    4.41    4.39   104.40883    29.05340    14.39447
    80  C   4.0    0.09    3.23    3.04   107.28936    28.78081    14.45536
    81  O   6.0   -0.28    1.11    1.80   108.57717    29.89528    16.03426
    82  C   4.0   -0.03    4.23    4.06   103.05878    26.85874    15.76381
    83  C   4.0   -0.08    4.15    3.89   100.26938    26.84552    15.03148
    84  C   4.0   -0.07    4.11    3.81   104.23139    24.26183    15.32474
    85  H   1.0    0.10    1.08    1.44   102.54765    28.15847    10.89816
    86  H   1.0    0.05    1.07    1.44   103.99013    30.79208    15.44158
    87  H   1.0    0.04    1.06    1.44   103.21720    27.27264    17.78666
    88  H   1.0    0.03    1.00    1.43    99.20416    25.71095    16.36661
    89  H   1.0    0.04    1.00    1.43    99.51903    28.75246    15.02484
    90  H   1.0    0.06    1.01    1.43    99.99929    26.04930    13.15874
    91  H   1.0    0.04    1.00    1.43   103.09408    22.83512    16.26925
    92  H   1.0    0.05    1.00    1.43   104.29428    23.82224    13.32203
    93  H   1.0    0.05    1.00    1.43   106.13658    24.15863    16.09127
    94  N   5.0   -0.19    3.20    1.96   106.64455    36.22347    16.41341
    95  C   4.0    0.04    4.30    4.21   105.56098    36.12246    18.93232
    96  C   4.0    0.09    3.24    3.04   107.55581    35.36418    20.87516
    97  O   6.0   -0.28    1.12    1.80   107.81362    36.57284    22.83830
    98  C   4.0   -0.02    4.31    4.22   103.26169    34.36731    19.14131
    99  C   4.0   -0.05    4.18    3.95   101.17238    35.07064    17.25067
   100  C   4.0   -0.07    4.14    3.88   102.27264    34.35713    21.85663
   101  C   4.0   -0.08    4.02    3.65    99.97344    37.65878    17.65188
   102  H   1.0    0.12    1.05    1.44   105.87884    35.21509    14.97710
   103  H   1.0    0.05    1.06    1.44   104.98209    38.04335    19.47200
   104  H   1.0    0.04    1.06    1.44   103.91004    32.45069    18.69851
   105  H   1.0    0.05    1.03    1.43   101.93985    34.99202    15.33816
   106  H   1.0    0.03    1.03    1.43    99.69395    33.63730    17.38677
   107  H   1.0    0.04    1.00    1.43   100.49542    33.33387    21.94955
   108  H   1.0    0.05    1.00    1.43   103.61463    33.44659    23.11645
   109  H   1.0    0.05    1.00    1.43   101.96856    36.26915    22.53980
   110  H   1.0    0.03    1.00    1.43    98.49142    37.94304    16.25836
   111  H   1.0    0.04    1.00    1.43    99.12465    37.80227    19.51405
   112  H   1.0    0.04    1.00    1.43   101.34621    39.16862    17.43121
   113  N   5.0   -0.22    3.24    1.96    97.61401    14.50726    26.85677
   114  C   4.0    0.02    4.32    4.23    94.97537    14.31903    26.13057
   115  C   4.0    0.15    3.45    3.09    93.55226    16.71445    26.90710
   116  O   6.0   -0.32    1.27    1.80    92.09498    17.80262    25.46659
   117  C   4.0   -0.04    4.34    4.27    93.86525    11.96353    27.40620
   118  C   4.0   -0.01    3.56    3.14    91.12076    11.54189    26.81705
   119  C   4.0   -0.04    3.46    3.10    90.40303     9.87891    24.91929
   120  C   4.0   -0.03    3.47    3.10    89.25634    12.76750    28.20213
   121  C   4.0   -0.03    3.38    3.07    87.87264     9.46198    24.40037
   122  C   4.0   -0.04    3.37    3.07    86.72695    12.34075    27.69750
   123  C   4.0   -0.04    3.37    3.07    86.02713    10.68516    25.79487
   124  H   1.0    0.08    1.03    1.43    98.43238    12.96480    27.65047
   125  H   1.0    0.04    1.05    1.44    94.82664    14.16913    24.06197
   126  H   1.0    0.04    1.03    1.43    94.99727    10.35594    26.77551
   127  H   1.0    0.04    1.03    1.43    94.12699    12.19492    29.43837
   128  H   1.0    0.06    1.03    1.43    91.84770     8.89112    23.86622
   129  H   1.0    0.05    1.03    1.43    89.80713    14.03818    29.70127
   130  H   1.0    0.07    1.03    1.43    87.35911     8.18064    22.90040
   131  H   1.0    0.05    1.03    1.43    85.30819    13.29386    28.80911
   132  H   1.0    0.05    1.03    1.43    84.05455    10.33659    25.41429
   133  N   5.0   -0.15    3.51    2.08    93.91440    17.46065    29.27996
   134  C   4.0    0.03    4.52    4.56    92.64341    19.68049    30.25369
   135  C   4.0    0.15    3.51    3.12    93.30803    22.01838    28.69310
   136  O   6.0   -0.32    1.27    1.80    91.66526    23.45307    27.90181
   137  C   4.0   -0.03    4.34    4.27    93.28465    20.07873    33.05889
   138  C   4.0   -0.05    4.19    3.98    92.23472    17.86782    34.61436
   139  C   4.0   -0.07    4.14    3.87    92.23659    22.60845    33.97160
   140  C   4.0   -0.07    4.01    3.64    93.05208    17.92893    37.37661
   141  H   1.0    0.07    1.07    1.44    95.21627    16.58141    30.37272
   142  H   1.0    0.05    1.05    1.44    90.59454    19.40833    30.03105
   143  H   1.0    0.04    1.05    1.44    95.34944    20.09387    33.20804
   144  H   1.0    0.04    1.03    1.43    90.17492    17.89153    34.50741
   145  H   1.0    0.04    1.03    1.43    92.90274    16.10453    33.78031
   146  H   1.0    0.04    1.00    1.43    92.76131    22.92277    35.92787
   147  H   1.0    0.05    1.01    1.43    92.99010    24.15658    32.85084
   148  H   1.0    0.05    1.00    1.43    90.18846    22.63679    33.81014
   149  H   1.0    0.04    1.00    1.43    92.42339    16.21564    38.31718
   150  H   1.0    0.04    1.00    1.43    95.10187    18.02876    37.51303
   151  H   1.0    0.04    1.00    1.43    92.25170    19.54075    38.36120
   152  N   5.0   -0.15    3.51    2.08    95.76784    22.46453    28.33164
   153  C   4.0    0.03    4.52    4.57    96.51059    24.79353    27.11623
   154  C   4.0    0.15    3.47    3.10    95.85655    24.81126    24.30224
   155  O   6.0   -0.33    1.29    1.80    95.55457    26.83893    23.20625
   156  C   4.0   -0.03    4.32    4.23    99.28952    25.53916    27.55681
   157  C   4.0   -0.05    4.20    3.99   101.07657    23.89989    25.98141
   158  C   4.0   -0.08    4.12    3.84    99.89992    25.45303    30.37655
   159  C   4.0   -0.08    4.01    3.64   103.83746    24.68486    26.21701
   160  H   1.0    0.07    1.06    1.44    97.10322    21.24824    28.95194
   161  H   1.0    0.05    1.06    1.44    95.33087    26.29504    27.94796
   162  H   1.0    0.04    1.06    1.44    99.47645    27.49082    26.88718
   163  H   1.0    0.04    1.03    1.43   100.87061    21.92377    26.53193
   164  H   1.0    0.04    1.03    1.43   100.52846    24.03847    23.99430
   165  H   1.0    0.04    1.00    1.43   101.71473    26.33596    30.74725
   166  H   1.0    0.04    1.00    1.43    98.46208    26.45048    31.45162
   167  H   1.0    0.04    1.00    1.43    99.99015    23.50790    31.03296
   168  H   1.0    0.04    1.00    1.43   104.98227    23.62817    24.87305
   169  H   1.0    0.04    1.00    1.43   104.04837    26.69259    25.82848
   170  H   1.0    0.04    1.00    1.43   104.57641    24.28520    28.09305
   171  N   5.0   -0.14    3.51    2.08    95.55936    22.58793    23.15960
   172  C   4.0    0.03    4.51    4.54    94.85757    22.49973    20.51237
   173  C   4.0    0.15    3.47    3.10    92.04225    23.14679    20.26293
   174  O   6.0   -0.32    1.27    1.80    91.25792    24.38709    18.46914
   175  C   4.0   -0.03    4.31    4.21    95.62712    19.99892    19.23355
   176  C   4.0   -0.05    4.18    3.96    96.10892    20.45495    16.41107
   177  C   4.0   -0.07    4.15    3.90    93.64920    17.94301    19.62146
   178  C   4.0   -0.08    4.01    3.65    97.09370    18.12427    15.03158
   179  H   1.0    0.08    1.07    1.44    96.09208    20.97230    24.03218
   180  H   1.0    0.05    1.07    1.44    95.85525    24.05844    19.56567
   181  H   1.0    0.04    1.05    1.44    97.39627    19.39845    20.13667
   182  H   1.0    0.04    1.03    1.43    94.35044    21.09633    15.54528
   183  H   1.0    0.03    1.03    1.43    97.49705    21.96874    16.21283
   184  H   1.0    0.04    1.00    1.43    94.37941    16.13362    18.98682
   185  H   1.0    0.06    1.02    1.43    93.17624    17.77331    21.60878
   186  H   1.0    0.05    1.01    1.43    91.94267    18.38047    18.56219
   187  H   1.0    0.04    1.00    1.43    97.64996    18.62776    13.12007
   188  H   1.0    0.04    1.00    1.43    98.73268    17.35743    16.01142
   189  H   1.0    0.04    1.00    1.43    95.65733    16.66423    14.91586
   190  N   5.0   -0.14    3.53    2.10    90.55775    22.39692    22.15761
   191  C   4.0    0.04    4.36    4.31    87.92439    23.16089    22.24577
   192  C   4.0    0.16    3.49    3.11    87.81293    26.04979    22.35192
   193  O   6.0   -0.31    1.28    1.80    86.46602    27.30324    20.94547
   194  C   4.0   -0.07    4.12    3.83    86.64046    22.01179    24.54714
   195  H   1.0    0.11    1.08    1.44    91.16832    21.17789    23.49840
   196  H   1.0    0.05    1.05    1.44    86.98664    22.55987    20.49575
   197  H   1.0    0.04    1.00    1.43    84.68353    22.62265    24.64402
   198  H   1.0    0.05    1.00    1.43    86.70157    19.96673    24.40821
   199  H   1.0    0.06    1.01    1.43    87.61461    22.58574    26.26214
   200  N   5.0   -0.14    3.50    2.08    89.30632    27.08980    24.10400
   201  C   4.0    0.04    4.45    4.46    89.47905    29.81089    24.35650
   202  C   4.0    0.17    3.58    3.15    90.08967    31.00772    21.79425
   203  O   6.0   -0.32    1.32    1.80    88.89606    32.81875    20.97896
   204  C   4.0   -0.04    4.34    4.27    91.54673    30.56631    26.24073
   205  C   4.0   -0.01    3.63    3.18    92.19307    33.31355    25.87744
   206  C   4.0   -0.04    3.47    3.10    90.51804    35.19417    26.61283
   207  C   4.0   -0.04    3.48    3.10    94.43401    33.99144    24.69307
   208  C   4.0   -0.04    3.37    3.07    91.06746    37.70779    26.15151
   209  C   4.0   -0.04    3.37    3.07    94.99184    36.50651    24.24774
   210  C   4.0   -0.04    3.37    3.07    93.30265    38.37083    24.96328
   211  H   1.0    0.11    1.08    1.44    90.27991    25.97904    25.32603
   212  H   1.0    0.05    1.05    1.44    87.63952    30.57103    24.94580
   213  H   1.0    0.04    1.02    1.43    90.89464    30.19888    28.16181
   214  H   1.0    0.06    1.04    1.43    93.21704    29.42365    25.85436
   215  H   1.0    0.05    1.03    1.43    88.78499    34.67758    27.55929
   216  H   1.0    0.05    1.03    1.43    95.74679    32.53231    24.12850
   217  H   1.0    0.05    1.03    1.43    89.75762    39.14998    26.74979
   218  H   1.0    0.04    1.03    1.43    96.75618    37.00322    23.35103
   219  H   1.0    0.05    1.03    1.43    93.74641    40.32985    24.61350
   220  N   5.0   -0.13    3.53    2.10    92.02253    29.98533    20.55907
   221  C   4.0    0.04    4.36    4.32    92.83148    31.01032    18.15224
   222  C   4.0    0.16    3.51    3.12    90.58357    31.21030    16.35049
   223  O   6.0   -0.32    1.30    1.80    90.16537    33.12391    15.11381
   224  C   4.0   -0.08    4.13    3.86    94.85029    29.32601    17.00502
   225  H   1.0    0.11    1.10    1.44    93.10858    28.62214    21.36147
   226  H   1.0    0.04    1.05    1.44    93.57269    32.92987    18.42546
   227  H   1.0    0.04    1.00    1.43    95.45785    30.10649    15.20664
   228  H   1.0    0.04    1.00    1.43    96.45104    29.22491    18.28660
   229  H   1.0    0.06    1.01    1.43    94.09813    27.43818    16.70112
   230  N   5.0   -0.14    3.52    2.09    89.17456    29.13154    16.15542
   231  C   4.0    0.03    4.45    4.45    87.00497    29.10228    14.48520
   232  C   4.0    0.16    3.49    3.11    85.21761    31.27408    15.16763
   233  O   6.0   -0.32    1.30    1.80    84.39807    32.73191    13.55797
   234  C   4.0   -0.05    4.36    4.31    85.68151    26.54493    14.64357
   235  C   4.0   -0.02    4.19    3.98    83.36214    26.33965    12.92245
   236  C   4.0   -0.08    4.11    3.81    84.06092    26.61948    10.13624
   237  C   4.0   -0.08    4.11    3.82    82.08210    23.79208    13.36377
   238  H   1.0    0.11    1.09    1.44    89.59322    27.54222    17.14014
   239  H   1.0    0.05    1.05    1.44    87.65627    29.46866    12.54863
   240  H   1.0    0.04    1.03    1.43    87.05128    25.08411    14.14364
   241  H   1.0    0.06    1.03    1.43    85.11093    26.22687    16.60063
   242  H   1.0    0.04    1.05    1.44    82.03561    27.84649    13.42765
   243  H   1.0    0.04    1.00    1.43    82.41621    26.26438     8.95703
   244  H   1.0    0.04    1.00    1.43    84.73280    28.51326     9.71376
   245  H   1.0    0.03    1.00    1.43    85.53608    25.27848     9.63975
   246  H   1.0    0.03    1.00    1.43    80.43409    23.61449    12.15120
   247  H   1.0    0.04    1.00    1.43    83.38877    22.26296    12.93755
   248  H   1.0    0.04    1.00    1.43    81.48732    23.61087    15.32176
   249  N   5.0   -0.14    3.50    2.08    84.60640    31.43386    17.59985
   250  C   4.0    0.04    4.41    4.40    82.92294    33.36538    18.57864
   251  C   4.0    0.17    3.50    3.12    83.64324    36.00330    17.62253
   252  O   6.0   -0.31    1.25    1.80    82.08617    37.38856    16.60615
   253  C   4.0   -0.03    4.35    4.29    83.02304    33.26970    21.47630
   254  C   4.0   -0.01    3.57    3.15    81.81635    35.50960    22.73620
   255  C   4.0   -0.04    3.46    3.10    79.21491    35.85829    22.67472
   256  C   4.0   -0.04    3.47    3.10    83.29503    37.22133    24.06856
   257  C   4.0   -0.04    3.37    3.07    78.10964    37.86830    23.92949
   258  C   4.0   -0.04    3.37    3.07    82.18625    39.21114    25.35732
   259  C   4.0   -0.04    3.37    3.07    79.58898    39.54194    25.29457
   260  H   1.0    0.11    1.10    1.44    85.33393    30.17012    18.84507
   261  H   1.0    0.05    1.05    1.44    80.99467    33.00977    17.89171
   262  H   1.0    0.05    1.03    1.43    82.09749    31.52540    22.08069
   263  H   1.0    0.07    1.05    1.44    85.00840    33.17804    22.01809
   264  H   1.0    0.05    1.03    1.43    78.04418    34.52422    21.66761
   265  H   1.0    0.05    1.03    1.43    85.31756    36.94975    24.12683
   266  H   1.0    0.05    1.03    1.43    76.08309    38.09428    23.87270
   267  H   1.0    0.05    1.03    1.43    83.35571    40.42741    26.50653
   268  H   1.0    0.05    1.03    1.43    78.69855    41.05216    26.33592
   269  N   5.0   -0.14    3.49    2.07    86.00681    36.72733    18.13353
   270  C   4.0    0.03    4.49    4.53    86.84801    39.22626    17.39120
   271  C   4.0    0.16    3.50    3.11    86.74892    39.51622    14.50429
   272  O   6.0   -0.31    1.29    1.80    85.75133    41.37169    13.53292
   273  C   4.0   -0.03    4.30    4.20    89.42056    39.99017    18.54083
   274  C   4.0   -0.05    4.21    4.03    90.30124    42.47862    17.33300
   275  C   4.0   -0.07    4.13    3.85    91.44295    37.96054    18.27133
   276  C   4.0   -0.08    4.01    3.64    92.47040    43.72637    18.76307
   277  H   1.0    0.11    1.09    1.44    87.25790    35.46742    18.84435
   278  H   1.0    0.05    1.06    1.44    85.40920    40.55455    18.08325
   279  H   1.0    0.04    1.05    1.44    89.11935    40.28807    20.56674
   280  H   1.0    0.04    1.03    1.43    90.89492    42.09473    15.39543
   281  H   1.0    0.04    1.03    1.43    88.71850    43.79477    17.21650
   282  H   1.0    0.04    1.00    1.43    93.20668    38.63955    19.07040
   283  H   1.0    0.06    1.01    1.43    90.92086    36.26233    19.29633
   284  H   1.0    0.05    1.00    1.43    91.76158    37.47334    16.30286
   285  H   1.0    0.04    1.00    1.43    92.88246    45.56301    17.94248
   286  H   1.0    0.04    1.00    1.43    91.99365    43.97814    20.74314
   287  H   1.0    0.04    1.00    1.43    94.18263    42.60052    18.64427
   288  N   5.0   -0.14    3.49    2.07    87.76752    37.64470    13.16007
   289  C   4.0    0.04    4.44    4.45    87.64623    37.65302    10.42221
   290  C   4.0    0.17    3.53    3.13    84.99927    38.43686     9.54121
   291  O   6.0   -0.31    1.26    1.80    84.67570    40.13694     7.99896
   292  C   4.0   -0.04    4.34    4.28    88.30343    35.01498     9.41226
   293  C   4.0   -0.02    3.57    3.15    87.96145    34.86713     6.59573
   294  C   4.0   -0.04    3.46    3.10    89.88360    35.61060     4.97037
   295  C   4.0   -0.04    3.47    3.10    85.69941    34.02585     5.56279
   296  C   4.0   -0.04    3.37    3.07    89.55639    35.51223     2.37835
   297  C   4.0   -0.04    3.37    3.07    85.35831    33.94756     2.97135
   298  C   4.0   -0.04    3.37    3.07    87.28910    34.68656     1.36875
   299  H   1.0    0.11    1.10    1.44    88.48212    36.07650    14.00298
   300  H   1.0    0.05    1.05    1.44    88.96733    39.06099     9.65288
   301  H   1.0    0.04    1.03    1.43    90.25523    34.59846     9.93326
   302  H   1.0    0.06    1.04    1.43    87.07130    33.65559    10.34976
   303  H   1.0    0.04    1.03    1.43    91.65660    36.26751     5.74128
   304  H   1.0    0.05    1.03    1.43    84.18948    33.42831     6.79921
   305  H   1.0    0.05    1.03    1.43    91.07489    36.08261     1.13875
   306  H   1.0    0.05    1.03    1.43    83.57699    33.31445     2.20180
   307  H   1.0    0.05    1.03    1.43    87.03471    34.62483    -0.65545
   308  N   5.0   -0.14    3.52    2.09    83.13335    37.05820    10.52666
   309  C   4.0    0.04    4.50    4.54    80.52962    37.37770     9.75717
   310  C   4.0    0.16    3.54    3.13    79.67996    40.09473    10.19100
   311  O   6.0   -0.30    1.32    1.80    78.72955    41.36251     8.49762
   312  C   4.0   -0.02    4.28    4.15    78.79203    35.53233    11.17969
   313  C   4.0   -0.07    4.14    3.88    76.02320    36.25111    10.78208
   314  C   4.0   -0.08    4.11    3.82    79.24873    32.82808    10.28423
   315  H   1.0    0.11    1.11    1.44    83.52123    35.67808    11.79822
   316  H   1.0    0.05    1.05    1.44    80.37617    37.05597     7.70833
   317  H   1.0    0.06    1.05    1.44    79.26247    35.66506    13.19082
   318  H   1.0    0.04    1.00    1.43    74.80252    34.81781    11.60172
   319  H   1.0    0.05    1.00    1.43    75.58781    38.06073    11.65134
   320  H   1.0    0.06    1.00    1.43    75.62061    36.40523     8.77094
   321  H   1.0    0.04    1.00    1.43    77.98634    31.54288    11.27062
   322  H   1.0    0.04    1.00    1.43    78.88573    32.67226     8.26746
   323  H   1.0    0.05    1.01    1.43    81.18031    32.25107    10.66618
   324  N   5.0   -0.14    3.50    2.08    79.91994    40.98596    12.54371
   325  C   4.0    0.04    4.43    4.44    78.70905    43.38125    13.11459
   326  C   4.0    0.17    3.48    3.11    79.74218    45.45330    11.36735
   327  O   6.0   -0.28    1.23    1.80    78.33765    47.00590    10.38236
   328  C   4.0   -0.05    4.25    4.10    78.85163    44.01078    15.92997
   329  C   4.0   -0.04    4.18    3.96    81.47101    44.71899    16.91566
   330  C   4.0   -0.05    4.18    3.96    81.43672    44.72504    19.80894
   331  C   4.0   -0.04    4.12    3.84    83.92087    45.68492    20.90890
   332  N   5.0   -0.12    4.01    2.90    83.77693    45.72585    23.71861
   333  H   1.0    0.11    1.07    1.44    80.63720    39.92158    13.96731
   334  H   1.0    0.06    1.06    1.44    76.70016    43.21791    12.59472
   335  H   1.0    0.05    1.03    1.43    77.54183    45.56320    16.28491
   336  H   1.0    0.05    1.03    1.43    78.16278    42.35048    16.94581
   337  H   1.0    0.06    1.03    1.43    82.86084    43.37033    16.21721
   338  H   1.0    0.04    1.03    1.43    81.97858    46.58619    16.20862
   339  H   1.0    0.04    1.03    1.43    79.88477    45.93377    20.42554
   340  H   1.0    0.05    1.03    1.43    81.06615    42.80359    20.46692
   341  H   1.0    0.04    1.02    1.43    85.47440    44.45605    20.33942
   342  H   1.0    0.04    1.02    1.43    84.30383    47.59258    20.22888
   343  H   1.0    0.05    1.02    1.43    85.47104    46.30811    24.48851
   344  H   1.0    0.06    1.02    1.43    82.37851    46.95278    24.29818
   345  H   1.0    0.05    1.02    1.43    83.34648    43.94484    24.39756
   346  N   5.0   -0.14    3.50    2.08    82.25706    45.47333    11.07371
   347  C   4.0    0.04    4.51    4.55    83.45160    47.31056     9.42527
   348  C   4.0    0.16    3.50    3.12    82.40682    47.07366     6.73400
   349  O   6.0   -0.26    1.25    1.80    81.49116    48.88213     5.60092
   350  C   4.0   -0.02    4.34    4.27    86.34276    47.01476     9.47856
   351  C   4.0   -0.05    4.19    3.98    87.33618    47.58742    12.14208
   352  C   4.0   -0.07    4.14    3.88    87.55350    48.73908     7.50527
   353  C   4.0   -0.08    4.02    3.66    90.20080    47.36118    12.35462
   354  H   1.0    0.11    1.08    1.44    83.31807    44.01178    11.70863
   355  H   1.0    0.06    1.05    1.44    82.91593    49.20900    10.07332
   356  H   1.0    0.05    1.05    1.44    86.77969    45.04554     9.01243
   357  H   1.0    0.04    1.03    1.43    86.76717    49.49655    12.67678
   358  H   1.0    0.05    1.03    1.43    86.46719    46.25647    13.45157
   359  H   1.0    0.04    1.00    1.43    89.55120    48.32001     7.30756
   360  H   1.0    0.06    1.01    1.43    86.66900    48.48628     5.66761
   361  H   1.0    0.05    1.00    1.43    87.34305    50.70887     8.05346
   362  H   1.0    0.04    1.00    1.43    90.77350    47.59665    14.31089
   363  H   1.0    0.04    1.00    1.43    90.82756    45.51668    11.70349
   364  H   1.0    0.04    1.00    1.43    91.14931    48.80152    11.24298
   365  N   5.0   -0.14    3.50    2.08    82.64329    44.78753     5.69879
   366  C   4.0    0.04    4.36    4.30    81.89115    44.33379     3.10456
   367  C   4.0    0.17    3.49    3.11    79.22765    45.36431     2.62781
   368  O   6.0   -0.26    1.24    1.80    78.75555    46.77608     0.85241
   369  C   4.0   -0.06    4.12    3.84    81.97214    41.51728     2.52984
   370  H   1.0    0.11    1.09    1.44    83.31476    43.29020     6.68896
   371  H   1.0    0.06    1.05    1.44    83.16360    45.38554     1.84096
   372  H   1.0    0.05    1.00    1.43    81.50660    41.19843     0.55831
   373  H   1.0    0.06    1.00    1.43    83.84640    40.77520     2.92570
   374  H   1.0    0.06    1.00    1.43    80.60641    40.54044     3.71257
   375  N   5.0   -0.12    3.50    2.08    77.49204    44.53338     4.25692
   376  C   4.0    0.05    4.34    4.27    74.82679    45.01227     3.89947
   377  C   4.0    0.11    3.26    3.05    74.34425    47.79661     3.29331
   378  O   6.0   -0.25    1.11    1.80    72.94945    48.45250     1.57031
   379  C   4.0   -0.03    4.31    4.21    73.35791    44.24014     6.26286
   380  C   4.0    0.16    3.22    3.04    73.08764    41.37013     6.44552
   381  O   6.0   -0.29    1.22    1.80    74.20447    39.89783     5.09078
   382  N   5.0   -0.19    3.18    1.95    71.48878    40.61237     8.27345
   383  H   1.0    0.12    1.11    1.44    77.96518    43.28597     5.63224
   384  H   1.0    0.07    1.05    1.44    74.13521    43.92060     2.26836
   385  H   1.0    0.06    1.03    1.43    74.35698    44.93489     7.93139
   386  H   1.0    0.05    1.03    1.43    71.48268    45.09420     6.21399
   387  H   1.0    0.09    1.03    1.43    71.10345    38.75621     8.45678
   388  H   1.0    0.08    1.03    1.43    70.47053    41.85424     9.28655
   389  N   5.0   -0.21    3.19    1.95    69.63630    24.43312     2.48909
   390  C   4.0    0.03    4.22    4.04    70.79283    24.66521     4.96255
   391  C   4.0    0.08    3.22    3.04    71.10604    22.09665     6.24335
   392  O   6.0   -0.32    1.17    1.80    73.17465    21.42298     7.04462
   393  C   4.0   -0.05    4.36    4.31    69.13626    26.37408     6.61555
   394  C   4.0   -0.02    4.18    3.97    70.15647    26.79974     9.29513
   395  C   4.0   -0.08    4.10    3.80    72.61327    28.31252     9.27635
   396  C   4.0   -0.08    4.10    3.81    68.14382    28.16253    10.85741
   397  H   1.0    0.08    1.03    1.43    68.46472    25.88463     1.99421
   398  H   1.0    0.05    1.05    1.44    72.69583    25.46152     4.74952
   399  H   1.0    0.04    1.03    1.43    68.91175    28.18975     5.65923
   400  H   1.0    0.04    1.03    1.43    67.27754    25.48795     6.78082
   401  H   1.0    0.04    1.05    1.44    70.50923    24.94702    10.15387
   402  H   1.0    0.04    1.00    1.43    73.17820    28.76066    11.20000
   403  H   1.0    0.04    1.00    1.43    74.12700    27.22637     8.41491
   404  H   1.0    0.04    1.00    1.43    72.35470    30.06581     8.23853
   405  H   1.0    0.04    1.00    1.43    68.80305    28.46045    12.77979
   406  H   1.0    0.04    1.00    1.43    67.70641    29.98728    10.02065
   407  H   1.0    0.04    1.00    1.43    66.41891    27.04593    10.94443
   408  N   5.0   -0.21    3.22    1.96    77.31472    18.12031     8.14860
   409  C   4.0    0.03    4.30    4.19    77.94434    17.36626    10.70723
   410  C   4.0    0.08    3.25    3.04    78.61163    14.55653    10.69610
   411  O   6.0   -0.32    1.17    1.80    80.53389    13.72275    11.69492
   412  C   4.0   -0.02    4.33    4.25    75.76963    17.87435    12.57037
   413  C   4.0   -0.05    4.19    3.97    75.27632    20.71862    12.81783
   414  C   4.0   -0.07    4.15    3.89    76.41013    16.72040    15.13840
   415  C   4.0   -0.08    4.02    3.65    72.96674    21.31938    14.43535
   416  H   1.0    0.12    1.06    1.44    75.66461    19.04219     7.83430
   417  H   1.0    0.04    1.05    1.44    79.64186    18.39704    11.32186
   418  H   1.0    0.05    1.05    1.44    74.06727    16.95829    11.82544
   419  H   1.0    0.03    1.03    1.43    76.93604    21.61880    13.64410
   420  H   1.0    0.06    1.04    1.43    74.97954    21.51647    10.94198
   421  H   1.0    0.04    1.00    1.43    74.82276    16.92592    16.41972
   422  H   1.0    0.05    1.01    1.43    76.81751    14.71442    14.96071
   423  H   1.0    0.04    1.00    1.43    78.05455    17.65452    15.94273
   424  H   1.0    0.04    1.00    1.43    72.50861    23.31485    14.27549
   425  H   1.0    0.04    1.00    1.43    71.33859    20.21970    13.81849
   426  H   1.0    0.04    1.00    1.43    73.30370    20.89689    16.41464
   427  N   5.0   -0.19    3.23    1.96    85.22189    12.98703     7.89819
   428  C   4.0    0.03    4.41    4.40    87.32570    14.09703     9.27073
   429  C   4.0    0.15    3.46    3.10    87.62104    12.83247    11.84226
   430  O   6.0   -0.29    1.22    1.80    89.58764    11.84478    12.56329
   431  C   4.0   -0.03    4.29    4.18    86.93345    16.94993     9.61548
   432  C   4.0   -0.08    4.13    3.87    89.03175    18.04816    11.26210
   433  C   4.0   -0.08    4.12    3.84    86.88570    18.26461     7.05251
   434  H   1.0    0.09    1.02    1.43    83.69286    14.07489     7.52836
   435  H   1.0    0.05    1.05    1.44    89.08194    13.75387     8.21833
   436  H   1.0    0.04    1.05    1.44    85.10309    17.23328    10.54475
   437  H   1.0    0.03    1.00    1.43    88.78851    20.07921    11.45300
   438  H   1.0    0.05    1.00    1.43    89.02366    17.23134    13.14759
   439  H   1.0    0.04    1.00    1.43    90.85948    17.67976    10.39783
   440  H   1.0    0.03    1.00    1.43    86.76858    20.29819     7.31314
   441  H   1.0    0.04    1.00    1.43    88.60760    17.84183     6.01463
   442  H   1.0    0.04    1.00    1.43    85.26035    17.65866     5.95640
   443  N   5.0   -0.15    3.51    2.09    85.55925    12.97679    13.29505
   444  C   4.0    0.04    4.42    4.41    85.60380    12.01801    15.84193
   445  C   4.0    0.10    3.22    3.04    85.65743     9.13951    15.89280
   446  O   6.0   -0.28    1.12    1.80    86.63731     8.00597    17.66355
   447  C   4.0   -0.04    4.32    4.23    83.41381    13.07565    17.39333
   448  C   4.0   -0.04    4.06    3.73    83.59880    15.93727    17.68770
   449  S   6.0   -0.05    2.57    3.10    86.70517    17.07127    18.66889
   450  C   4.0   -0.06    3.89    3.45    87.01830    15.46224    21.68583
   451  H   1.0    0.11    1.11    1.44    83.88100    13.56481    12.58475
   452  H   1.0    0.06    1.10    1.44    87.39285    12.63672    16.70033
   453  H   1.0    0.05    1.03    1.43    81.63565    12.63188    16.44475
   454  H   1.0    0.05    1.03    1.43    83.42559    12.16219    19.24085
   455  H   1.0    0.04    1.08    1.44    83.25991    16.86710    15.88330
   456  H   1.0    0.04    1.06    1.44    82.21997    16.60641    19.06248
   457  H   1.0    0.06    1.05    1.44    88.68148    16.22896    22.60664
   458  H   1.0    0.04    1.04    1.43    85.34469    15.81028    22.81896
   459  H   1.0    0.05    1.04    1.43    87.27623    13.45055    21.38533
   460  N   5.0   -0.20    3.19    1.95   109.29968    35.75295    -0.69718
   461  C   4.0    0.03    4.24    4.07   106.57837    35.53455    -0.39037
   462  C   4.0    0.09    3.23    3.04   105.20599    36.16912    -2.85996
   463  O   6.0   -0.28    1.11    1.80   103.70554    34.69890    -3.84477
   464  C   4.0   -0.04    4.32    4.23   105.67521    37.25120     1.75506
   465  C   4.0   -0.01    3.58    3.15   102.83217    37.39680     1.85048
   466  C   4.0   -0.03    3.48    3.11   101.36916    35.22027     1.99155
   467  C   4.0   -0.04    3.46    3.10   101.62714    39.72710     1.78084
   468  C   4.0   -0.04    3.38    3.07    98.75909    35.37267     2.03568
   469  C   4.0   -0.04    3.37    3.07    99.01708    39.88446     1.86043
   470  C   4.0   -0.04    3.37    3.07    97.57454    37.70541     1.98099
   471  H   1.0    0.09    1.02    1.43   110.24840    36.94514     0.47222
   472  H   1.0    0.05    1.05    1.44   106.12470    33.56274     0.05113
   473  H   1.0    0.04    1.03    1.43   106.42586    36.49143     3.52231
   474  H   1.0    0.04    1.03    1.43   106.45854    39.14032     1.49731
   475  H   1.0    0.06    1.03    1.43   102.25953    33.38823     2.06016
   476  H   1.0    0.05    1.03    1.43   102.74101    41.43328     1.67675
   477  H   1.0    0.06    1.03    1.43    97.65766    33.65713     2.10743
   478  H   1.0    0.05    1.03    1.43    98.11521    41.71380     1.81824
   479  H   1.0    0.05    1.03    1.43    95.53970    37.83027     2.03894
   480  H   1.0    0.09    1.07    1.44    91.52550    20.49813    -6.58551
   481  H   1.0    0.05    1.05    1.44    91.73922    18.72862    -0.40662
   482  H   1.0    0.09    1.07    1.44    99.24904    22.93285    -1.80911
   483  H   1.0    0.05    1.05    1.44    99.20422    23.29855     7.12146
   484  H   1.0    0.10    1.07    1.44   104.28037    30.60094     5.32067
   485  H   1.0    0.06    1.04    1.44   108.16094    27.67759    13.19270
   486  H   1.0    0.10    1.07    1.44   106.60443    37.82482    15.84192
   487  H   1.0    0.07    1.04    1.44   108.66755    33.87018    20.55412
   488  H   1.0    0.09    1.07    1.44    98.55689    14.85611    25.48497
   489  H   1.0    0.08    1.05    1.44    75.18026    49.14560     4.31917
   490  H   1.0    0.10    1.07    1.44    70.84967    24.36166     1.29947
   491  H   1.0    0.05    1.04    1.44    69.61745    20.94833     6.43445
   492  H   1.0    0.09    1.07    1.44    78.51193    19.17301     7.55611
   493  H   1.0    0.06    1.05    1.44    77.46282    13.31589     9.85226
   494  H   1.0    0.09    1.07    1.44    85.75513    12.45894     6.37198
   495  H   1.0    0.07    1.05    1.44    84.88946     8.15496    14.47437
   496  H   1.0    0.10    1.07    1.44   110.02208    34.23229    -0.45575
   497  H   1.0    0.06    1.05    1.44   105.52164    37.82278    -3.71834

  Z AO/shell   Hii/eV     exponent
  1     Wed Apr 25 08:07:45 CEST 2018   EN: 2.200 GM2: 0.406  GM3: 0.0800  RAES: 1.40
     1s    -10.707211    1.230000
  6     Wed Apr 25 08:07:45 CEST 2018   EN: 2.550 GM2: 0.538  GM3: 0.1500  RAES: 3.00
     2s    -13.970922    2.096432
     2p    -10.063292    1.800000
  7     Wed Apr 25 08:07:45 CEST 2018   EN: 3.040 GM2: 0.461  GM3:-0.0640  RAES: 1.90
     2s    -16.686243    2.339881
     2p    -12.523956    2.014332
  8     Wed Apr 25 08:07:45 CEST 2018   EN: 3.440 GM2: 0.452  GM3:-0.0517  RAES: 1.80
     2s    -20.229985    2.439742
     2p    -15.503117    2.137023
 16     Tue Apr 24 11:44:34 CEST 2018   EN: 2.580 GM2: 0.340  GM3:-0.0502  RAES: 3.10
     3s    -20.029654    1.981333
     3p    -11.377694    2.025643
     3d     -0.420282    1.702555
 no old-style atom pair restraining (fixing) potential

molecular fragmentation (1/2 indicates fragments):
111111111111111111112222222222222222222222222222222222222222222222222222
222222222222222222222222222222222222222222222222222222222222222222222222
222222222222222222222222222222222222222222222222222222222222222222222222
222222222222222222222222222222222222222222222222222222222222222222222222
222222222222222222222222222222222222222222222222222222222222222222222222
222222222222222222222222222222222222222222222222222222222222222222222222
22222222222222222222222222222222222222222222222112222222222222222
# atoms in fragment 1/2:    22   475
 fragment masses (1/2) :      149.19     2995.03
CMA distance (Bohr)    :  16.745
constraining FC (au)   :  0.0500
           ------------------------------------------------- 
          |        Self-Consistent Charge Iterations        |
           ------------------------------------------------- 

 Ncao       : 1172
 Nao        : 1171
 Nshell     : 721
 Nel        : 1252
 T(el)      :   500.0
 intcut     :    35.0
 scfconv/Eh :  0.100E-06
   qconv/e  :  0.100E-04
 intneglect :  0.100E-08
 broydamp   :      0.400
 iter      E             dE          RMSdq      gap      omega  full diag
   1   -702.9595941 -0.702960E+03  0.417E+00    2.69       0.0  T
   2   -704.2421168 -0.128252E+01  0.205E+00    1.73       1.0  T
   3   -704.3048277 -0.627109E-01  0.114E+00    2.05       1.0  T
   4   -704.4184984 -0.113671E+00  0.215E-01    1.48       1.0  T
   5   -704.4243972 -0.589881E-02  0.102E-01    1.64       1.0  T
   6   -704.4255913 -0.119402E-02  0.466E-02    1.63       1.0  T
   7   -704.4258840 -0.292775E-03  0.192E-02    1.60       1.0  T
   8   -704.4259146 -0.305537E-04  0.893E-03    1.60       1.0  T
   9   -704.4259226 -0.802218E-05  0.408E-03    1.59       1.1  T
  10   -704.4259243 -0.172435E-05  0.174E-03    1.59       2.6  T
  11   -704.4259246 -0.282324E-06  0.812E-04    1.59       5.5  T
  12   -704.4259247 -0.592438E-07  0.353E-04    1.59      12.7  T
  13   -704.4259247 -0.237004E-07  0.161E-04    1.59      27.8  T
  14   -704.4259247 -0.159434E-08  0.806E-05    1.59      55.6  T
  15   -704.4259247 -0.619934E-09  0.317E-05    1.59     141.7  T
speedup  1.95
cpu  time for SCC   22.27 s
wall time for SCC   11.43 s

   *** convergence criteria satisfied after 15 iterations ***

          eigenvalues
 #    :         614        615        616        617        618        619        620        621
 occ. :        2.000      2.000      2.000      2.000      2.000      2.000      2.000      2.000
 eps  :       -10.594    -10.550    -10.471    -10.420    -10.240    -10.198    -10.116     -9.957
 #    :         622        623        624        625        626        627        628        629
 occ. :        2.000      2.000      2.000      2.000      2.000      0.000      0.000      0.000
 eps  :        -9.856     -9.844     -9.759     -9.708     -9.542     -7.951     -7.896     -7.882
 #    :         630        631        632        633        634        635        636        637
 occ. :        0.000      0.000      0.000      0.000      0.000      0.000      0.000      0.000
 eps  :        -7.878     -7.868     -7.824     -7.737     -7.634     -7.486     -6.739     -6.587


   #   Z            q   n(s)   n(p)   n(d)      C6AA      α(0)
   1   7 N     -0.391  1.314  4.077  0.000    30.128     8.152
   2   6 C      0.047  1.054  2.899  0.000    19.810     6.340
   3   6 C      0.197  1.094  2.709  0.000    23.805     7.990
   4   8 O     -0.361  1.747  4.615  0.000    20.925     6.133
   5   6 C     -0.073  1.058  3.015  0.000    21.889     6.659
   6   6 C      0.006  1.081  2.912  0.000    27.874     8.660
   7   6 C     -0.039  1.079  2.959  0.000    28.958     8.825
   8   6 C     -0.043  1.082  2.962  0.000    29.079     8.843
   9   6 C     -0.031  1.080  2.951  0.000    28.767     8.795
  10   6 C     -0.033  1.081  2.952  0.000    28.813     8.803
  11   6 C     -0.034  1.079  2.954  0.000    28.839     8.806
  12   1 H      0.171  0.829  0.000  0.000     1.266     1.763
  13   1 H      0.045  0.955  0.000  0.000     2.379     2.412
  14   1 H      0.061  0.939  0.000  0.000     2.193     2.316
  15   1 H      0.056  0.944  0.000  0.000     2.242     2.342
  16   1 H      0.032  0.968  0.000  0.000     2.554     2.499
  17   1 H      0.039  0.961  0.000  0.000     2.459     2.452
  18   1 H      0.029  0.971  0.000  0.000     2.601     2.522
  19   1 H      0.046  0.954  0.000  0.000     2.375     2.410
  20   1 H      0.036  0.964  0.000  0.000     2.497     2.471
  21   7 N     -0.389  1.302  4.087  0.000    30.080     8.146
  22   6 C      0.033  1.063  2.904  0.000    20.039     6.376
  23   6 C      0.268  1.050  2.681  0.000    22.472     7.763
  24   8 O     -0.510  1.747  4.763  0.000    23.997     6.568
  25   6 C     -0.015  1.062  2.952  0.000    20.805     6.488
  26   6 C     -0.065  1.049  3.016  0.000    21.749     6.640
  27   6 C     -0.106  1.036  3.070  0.000    22.576     6.775
  28   6 C     -0.103  1.035  3.068  0.000    22.524     6.768
  29   1 H      0.156  0.844  0.000  0.000     1.358     1.826
  30   1 H      0.025  0.975  0.000  0.000     2.657     2.549
  31   1 H      0.023  0.977  0.000  0.000     2.688     2.564
  32   1 H      0.058  0.942  0.000  0.000     2.226     2.333
  33   1 H      0.023  0.977  0.000  0.000     2.689     2.564
  34   1 H      0.047  0.953  0.000  0.000     2.356     2.400
  35   1 H      0.032  0.968  0.000  0.000     2.554     2.499
  36   1 H      0.038  0.962  0.000  0.000     2.474     2.460
  37   1 H      0.043  0.957  0.000  0.000     2.411     2.428
  38   1 H      0.029  0.971  0.000  0.000     2.606     2.524
  39   1 H      0.036  0.964  0.000  0.000     2.504     2.474
  40   7 N     -0.171  1.246  3.925  0.000    24.691     7.380
  41   6 C      0.027  1.060  2.913  0.000    20.120     6.387
  42   6 C      0.202  1.087  2.711  0.000    23.705     7.974
  43   8 O     -0.354  1.743  4.611  0.000    20.792     6.114
  44   6 C     -0.025  1.067  2.958  0.000    20.987     6.516
  45   6 C     -0.064  1.050  3.014  0.000    21.737     6.638
  46   6 C     -0.117  1.038  3.078  0.000    22.786     6.806
  47   6 C     -0.107  1.033  3.074  0.000    22.616     6.782
  48   1 H      0.235  0.765  0.000  0.000     0.942     1.521
  49   1 H      0.080  0.920  0.000  0.000     1.981     2.201
  50   1 H      0.055  0.945  0.000  0.000     2.257     2.350
  51   1 H      0.046  0.954  0.000  0.000     2.370     2.407
  52   1 H      0.054  0.946  0.000  0.000     2.276     2.359
  53   1 H      0.061  0.939  0.000  0.000     2.183     2.311
  54   1 H      0.042  0.958  0.000  0.000     2.418     2.432
  55   1 H      0.052  0.948  0.000  0.000     2.299     2.371
  56   1 H      0.043  0.957  0.000  0.000     2.414     2.430
  57   1 H      0.045  0.955  0.000  0.000     2.384     2.414
  58   1 H      0.027  0.973  0.000  0.000     2.626     2.534
  59   7 N     -0.401  1.313  4.088  0.000    30.411     8.190
  60   6 C      0.044  1.054  2.902  0.000    19.851     6.346
  61   6 C      0.269  1.051  2.680  0.000    22.466     7.762
  62   8 O     -0.517  1.751  4.766  0.000    24.163     6.591
  63   6 C     -0.074  1.061  3.013  0.000    21.905     6.662
  64   6 C     -0.010  1.056  2.954  0.000    20.718     6.474
  65   6 C     -0.108  1.037  3.071  0.000    22.615     6.781
  66   6 C     -0.106  1.040  3.066  0.000    22.583     6.775
  67   1 H      0.177  0.823  0.000  0.000     1.234     1.740
  68   1 H      0.017  0.983  0.000  0.000     2.786     2.610
  69   1 H      0.042  0.958  0.000  0.000     2.417     2.431
  70   1 H      0.061  0.939  0.000  0.000     2.189     2.314
  71   1 H      0.027  0.973  0.000  0.000     2.630     2.536
  72   1 H      0.044  0.956  0.000  0.000     2.401     2.423
  73   1 H      0.030  0.970  0.000  0.000     2.585     2.514
  74   1 H      0.030  0.970  0.000  0.000     2.583     2.513
  75   1 H      0.042  0.958  0.000  0.000     2.423     2.434
  76   1 H      0.033  0.967  0.000  0.000     2.537     2.491
  77   1 H      0.035  0.965  0.000  0.000     2.515     2.480
  78   7 N     -0.166  1.241  3.925  0.000    24.585     7.364
  79   6 C      0.021  1.062  2.917  0.000    20.217     6.402
  80   6 C      0.205  1.085  2.710  0.000    23.639     7.962
  81   8 O     -0.369  1.761  4.608  0.000    21.077     6.155
  82   6 C     -0.017  1.062  2.955  0.000    20.845     6.494
  83   6 C     -0.129  1.043  3.086  0.000    23.021     6.841
  84   6 C     -0.124  1.040  3.084  0.000    22.941     6.830
  85   1 H      0.234  0.766  0.000  0.000     0.950     1.526
  86   1 H      0.084  0.916  0.000  0.000     1.940     2.178
  87   1 H      0.056  0.944  0.000  0.000     2.253     2.347
  88   1 H      0.056  0.944  0.000  0.000     2.246     2.344
  89   1 H      0.053  0.947  0.000  0.000     2.282     2.362
  90   1 H      0.064  0.936  0.000  0.000     2.152     2.294
  91   1 H      0.065  0.935  0.000  0.000     2.144     2.290
  92   1 H      0.052  0.948  0.000  0.000     2.295     2.369
  93   1 H      0.037  0.963  0.000  0.000     2.495     2.470
  94   7 N     -0.402  1.311  4.090  0.000    30.420     8.191
  95   6 C      0.043  1.057  2.900  0.000    19.862     6.348
  96   6 C      0.204  1.092  2.703  0.000    23.656     7.965
  97   8 O     -0.388  1.757  4.631  0.000    21.445     6.209
  98   6 C     -0.017  1.065  2.952  0.000    20.846     6.494
  99   6 C     -0.055  1.048  3.007  0.000    21.570     6.612
 100   6 C     -0.112  1.039  3.073  0.000    22.694     6.793
 101   6 C     -0.106  1.034  3.072  0.000    22.591     6.778
 102   1 H      0.179  0.821  0.000  0.000     1.221     1.731
 103   1 H      0.044  0.956  0.000  0.000     2.401     2.423
 104   1 H      0.034  0.966  0.000  0.000     2.537     2.491
 105   1 H      0.033  0.967  0.000  0.000     2.546     2.495
 106   1 H      0.041  0.959  0.000  0.000     2.430     2.438
 107   1 H      0.056  0.944  0.000  0.000     2.245     2.343
 108   1 H      0.029  0.971  0.000  0.000     2.597     2.520
 109   1 H      0.048  0.952  0.000  0.000     2.345     2.395
 110   1 H      0.042  0.958  0.000  0.000     2.427     2.436
 111   1 H      0.047  0.953  0.000  0.000     2.353     2.399
 112   1 H      0.032  0.968  0.000  0.000     2.559     2.502
 113   7 N     -0.397  1.310  4.086  0.000    30.284     8.173
 114   6 C      0.034  1.059  2.908  0.000    20.024     6.374
 115   6 C      0.266  1.048  2.687  0.000    22.515     7.770
 116   8 O     -0.495  1.744  4.751  0.000    23.666     6.522
 117   6 C     -0.074  1.059  3.015  0.000    21.900     6.661
 118   6 C      0.007  1.082  2.911  0.000    27.859     8.658
 119   6 C     -0.039  1.081  2.958  0.000    28.961     8.825
 120   6 C     -0.041  1.080  2.961  0.000    29.020     8.834
 121   6 C     -0.031  1.081  2.950  0.000    28.778     8.797
 122   6 C     -0.035  1.081  2.954  0.000    28.859     8.809
 123   6 C     -0.035  1.079  2.956  0.000    28.872     8.811
 124   1 H      0.169  0.831  0.000  0.000     1.279     1.771
 125   1 H      0.033  0.967  0.000  0.000     2.545     2.495
 126   1 H      0.053  0.947  0.000  0.000     2.282     2.362
 127   1 H      0.057  0.943  0.000  0.000     2.237     2.339
 128   1 H      0.031  0.969  0.000  0.000     2.578     2.511
 129   1 H      0.036  0.964  0.000  0.000     2.499     2.472
 130   1 H      0.033  0.967  0.000  0.000     2.539     2.492
 131   1 H      0.041  0.959  0.000  0.000     2.434     2.440
 132   1 H      0.032  0.968  0.000  0.000     2.556     2.500
 133   7 N     -0.172  1.244  3.928  0.000    24.716     7.384
 134   6 C      0.014  1.066  2.920  0.000    20.344     6.421
 135   6 C      0.275  1.044  2.681  0.000    22.354     7.743
 136   8 O     -0.479  1.739  4.740  0.000    23.331     6.476
 137   6 C     -0.028  1.069  2.958  0.000    21.028     6.522
 138   6 C     -0.064  1.051  3.012  0.000    21.717     6.634
 139   6 C     -0.117  1.037  3.080  0.000    22.799     6.808
 140   6 C     -0.114  1.037  3.077  0.000    22.735     6.800
 141   1 H      0.217  0.783  0.000  0.000     1.023     1.584
 142   1 H      0.080  0.920  0.000  0.000     1.979     2.200
 143   1 H      0.051  0.949  0.000  0.000     2.308     2.376
 144   1 H      0.045  0.955  0.000  0.000     2.378     2.411
 145   1 H      0.039  0.961  0.000  0.000     2.464     2.455
 146   1 H      0.062  0.938  0.000  0.000     2.172     2.305
 147   1 H      0.039  0.961  0.000  0.000     2.456     2.451
 148   1 H      0.051  0.949  0.000  0.000     2.306     2.374
 149   1 H      0.042  0.958  0.000  0.000     2.428     2.437
 150   1 H      0.043  0.957  0.000  0.000     2.408     2.427
 151   1 H      0.045  0.955  0.000  0.000     2.377     2.411
 152   7 N     -0.177  1.238  3.939  0.000    24.834     7.401
 153   6 C      0.015  1.064  2.920  0.000    20.314     6.416
 154   6 C      0.269  1.044  2.686  0.000    22.457     7.760
 155   8 O     -0.484  1.737  4.747  0.000    23.432     6.490
 156   6 C     -0.025  1.066  2.960  0.000    20.988     6.516
 157   6 C     -0.063  1.049  3.014  0.000    21.705     6.633
 158   6 C     -0.123  1.040  3.083  0.000    22.924     6.827
 159   6 C     -0.113  1.037  3.076  0.000    22.725     6.798
 160   1 H      0.209  0.791  0.000  0.000     1.063     1.615
 161   1 H      0.082  0.918  0.000  0.000     1.956     2.187
 162   1 H      0.061  0.939  0.000  0.000     2.192     2.315
 163   1 H      0.041  0.959  0.000  0.000     2.441     2.443
 164   1 H      0.032  0.968  0.000  0.000     2.562     2.503
 165   1 H      0.061  0.939  0.000  0.000     2.185     2.312
 166   1 H      0.052  0.948  0.000  0.000     2.300     2.371
 167   1 H      0.051  0.949  0.000  0.000     2.311     2.377
 168   1 H      0.042  0.958  0.000  0.000     2.419     2.432
 169   1 H      0.040  0.960  0.000  0.000     2.442     2.444
 170   1 H      0.048  0.952  0.000  0.000     2.347     2.396
 171   7 N     -0.173  1.243  3.930  0.000    24.735     7.387
 172   6 C      0.012  1.069  2.918  0.000    20.368     6.425
 173   6 C      0.275  1.042  2.684  0.000    22.357     7.743
 174   8 O     -0.486  1.738  4.749  0.000    23.487     6.498
 175   6 C     -0.023  1.068  2.955  0.000    20.952     6.510
 176   6 C     -0.064  1.052  3.013  0.000    21.730     6.636
 177   6 C     -0.122  1.037  3.085  0.000    22.898     6.823
 178   6 C     -0.111  1.037  3.075  0.000    22.693     6.794
 179   1 H      0.196  0.804  0.000  0.000     1.125     1.662
 180   1 H      0.080  0.920  0.000  0.000     1.984     2.203
 181   1 H      0.047  0.953  0.000  0.000     2.360     2.402
 182   1 H      0.047  0.953  0.000  0.000     2.354     2.399
 183   1 H      0.042  0.958  0.000  0.000     2.418     2.432
 184   1 H      0.047  0.953  0.000  0.000     2.355     2.400
 185   1 H      0.056  0.944  0.000  0.000     2.250     2.346
 186   1 H      0.043  0.957  0.000  0.000     2.403     2.424
 187   1 H      0.044  0.956  0.000  0.000     2.403     2.424
 188   1 H      0.041  0.959  0.000  0.000     2.441     2.443
 189   1 H      0.041  0.959  0.000  0.000     2.433     2.439
 190   7 N     -0.174  1.246  3.928  0.000    24.759     7.390
 191   6 C      0.024  1.059  2.917  0.000    20.177     6.396
 192   6 C      0.277  1.044  2.679  0.000    22.314     7.736
 193   8 O     -0.489  1.736  4.753  0.000    23.548     6.506
 194   6 C     -0.135  1.042  3.093  0.000    23.154     6.861
 195   1 H      0.220  0.780  0.000  0.000     1.009     1.574
 196   1 H      0.079  0.921  0.000  0.000     1.985     2.203
 197   1 H      0.067  0.933  0.000  0.000     2.122     2.278
 198   1 H      0.072  0.928  0.000  0.000     2.060     2.245
 199   1 H      0.074  0.926  0.000  0.000     2.040     2.234
 200   7 N     -0.186  1.249  3.937  0.000    25.033     7.431
 201   6 C      0.027  1.061  2.912  0.000    20.117     6.386
 202   6 C      0.282  1.040  2.678  0.000    22.231     7.721
 203   8 O     -0.492  1.732  4.761  0.000    23.616     6.515
 204   6 C     -0.082  1.056  3.026  0.000    22.062     6.685
 205   6 C      0.005  1.081  2.913  0.000    27.895     8.663
 206   6 C     -0.041  1.080  2.961  0.000    29.018     8.834
 207   6 C     -0.042  1.082  2.961  0.000    29.055     8.840
 208   6 C     -0.036  1.081  2.955  0.000    28.891     8.814
 209   6 C     -0.032  1.080  2.952  0.000    28.791     8.799
 210   6 C     -0.036  1.081  2.955  0.000    28.890     8.814
 211   1 H      0.221  0.779  0.000  0.000     1.004     1.569
 212   1 H      0.070  0.930  0.000  0.000     2.084     2.258
 213   1 H      0.066  0.934  0.000  0.000     2.136     2.285
 214   1 H      0.062  0.938  0.000  0.000     2.181     2.310
 215   1 H      0.042  0.958  0.000  0.000     2.420     2.433
 216   1 H      0.030  0.970  0.000  0.000     2.588     2.516
 217   1 H      0.059  0.941  0.000  0.000     2.216     2.328
 218   1 H      0.032  0.968  0.000  0.000     2.562     2.503
 219   1 H      0.050  0.950  0.000  0.000     2.323     2.383
 220   7 N     -0.184  1.251  3.932  0.000    24.982     7.423
 221   6 C      0.028  1.056  2.916  0.000    20.105     6.384
 222   6 C      0.279  1.041  2.681  0.000    22.284     7.731
 223   8 O     -0.491  1.733  4.758  0.000    23.588     6.512
 224   6 C     -0.133  1.044  3.089  0.000    23.107     6.853
 225   1 H      0.227  0.773  0.000  0.000     0.979     1.550
 226   1 H      0.071  0.929  0.000  0.000     2.078     2.254
 227   1 H      0.062  0.938  0.000  0.000     2.180     2.309
 228   1 H      0.072  0.928  0.000  0.000     2.061     2.245
 229   1 H      0.072  0.928  0.000  0.000     2.065     2.247
 230   7 N     -0.180  1.247  3.933  0.000    24.905     7.412
 231   6 C      0.027  1.060  2.914  0.000    20.126     6.387
 232   6 C      0.281  1.041  2.678  0.000    22.248     7.724
 233   8 O     -0.501  1.735  4.765  0.000    23.797     6.540
 234   6 C     -0.080  1.060  3.021  0.000    22.025     6.680
 235   6 C     -0.009  1.055  2.955  0.000    20.711     6.473
 236   6 C     -0.113  1.039  3.074  0.000    22.720     6.796
 237   6 C     -0.115  1.042  3.073  0.000    22.748     6.800
 238   1 H      0.223  0.777  0.000  0.000     0.994     1.562
 239   1 H      0.065  0.935  0.000  0.000     2.138     2.287
 240   1 H      0.061  0.939  0.000  0.000     2.190     2.314
 241   1 H      0.061  0.939  0.000  0.000     2.188     2.313
 242   1 H      0.028  0.972  0.000  0.000     2.609     2.526
 243   1 H      0.046  0.954  0.000  0.000     2.374     2.409
 244   1 H      0.033  0.967  0.000  0.000     2.547     2.496
 245   1 H      0.046  0.954  0.000  0.000     2.377     2.411
 246   1 H      0.047  0.953  0.000  0.000     2.361     2.403
 247   1 H      0.042  0.958  0.000  0.000     2.417     2.431
 248   1 H      0.041  0.959  0.000  0.000     2.437     2.441
 249   7 N     -0.180  1.250  3.931  0.000    24.908     7.412
 250   6 C      0.030  1.062  2.909  0.000    20.081     6.381
 251   6 C      0.278  1.042  2.680  0.000    22.295     7.732
 252   8 O     -0.495  1.737  4.757  0.000    23.666     6.522
 253   6 C     -0.087  1.057  3.030  0.000    22.142     6.697
 254   6 C      0.008  1.082  2.909  0.000    27.833     8.654
 255   6 C     -0.036  1.081  2.956  0.000    28.905     8.817
 256   6 C     -0.045  1.084  2.961  0.000    29.126     8.850
 257   6 C     -0.033  1.081  2.952  0.000    28.823     8.804
 258   6 C     -0.048  1.080  2.968  0.000    29.185     8.859
 259   6 C     -0.044  1.082  2.962  0.000    29.089     8.844
 260   1 H      0.227  0.773  0.000  0.000     0.979     1.550
 261   1 H      0.060  0.940  0.000  0.000     2.196     2.317
 262   1 H      0.057  0.943  0.000  0.000     2.230     2.335
 263   1 H      0.076  0.924  0.000  0.000     2.021     2.223
 264   1 H      0.026  0.974  0.000  0.000     2.645     2.543
 265   1 H      0.049  0.951  0.000  0.000     2.335     2.389
 266   1 H      0.037  0.963  0.000  0.000     2.485     2.465
 267   1 H      0.063  0.937  0.000  0.000     2.166     2.301
 268   1 H      0.059  0.941  0.000  0.000     2.216     2.328
 269   7 N     -0.177  1.245  3.933  0.000    24.839     7.402
 270   6 C      0.010  1.070  2.920  0.000    20.409     6.432
 271   6 C      0.277  1.043  2.680  0.000    22.312     7.735
 272   8 O     -0.496  1.742  4.754  0.000    23.696     6.527
 273   6 C     -0.033  1.070  2.963  0.000    21.124     6.537
 274   6 C     -0.065  1.050  3.015  0.000    21.742     6.638
 275   6 C     -0.122  1.036  3.086  0.000    22.889     6.822
 276   6 C     -0.117  1.039  3.079  0.000    22.805     6.810
 277   1 H      0.226  0.774  0.000  0.000     0.981     1.552
 278   1 H      0.085  0.915  0.000  0.000     1.924     2.169
 279   1 H      0.071  0.929  0.000  0.000     2.075     2.253
 280   1 H      0.029  0.971  0.000  0.000     2.606     2.524
 281   1 H      0.051  0.949  0.000  0.000     2.309     2.376
 282   1 H      0.057  0.943  0.000  0.000     2.235     2.338
 283   1 H      0.048  0.952  0.000  0.000     2.341     2.393
 284   1 H      0.039  0.961  0.000  0.000     2.466     2.456
 285   1 H      0.044  0.956  0.000  0.000     2.396     2.421
 286   1 H      0.059  0.941  0.000  0.000     2.215     2.327
 287   1 H      0.039  0.961  0.000  0.000     2.468     2.457
 288   7 N     -0.188  1.253  3.936  0.000    25.086     7.439
 289   6 C      0.034  1.060  2.906  0.000    20.010     6.369
 290   6 C      0.287  1.039  2.673  0.000    22.129     7.703
 291   8 O     -0.510  1.744  4.766  0.000    24.014     6.570
 292   6 C     -0.082  1.056  3.026  0.000    22.051     6.684
 293   6 C      0.011  1.082  2.907  0.000    27.764     8.643
 294   6 C     -0.039  1.079  2.959  0.000    28.964     8.826
 295   6 C     -0.041  1.081  2.960  0.000    29.011     8.833
 296   6 C     -0.031  1.079  2.952  0.000    28.764     8.795
 297   6 C     -0.032  1.079  2.953  0.000    28.795     8.800
 298   6 C     -0.035  1.079  2.955  0.000    28.863     8.810
 299   1 H      0.234  0.766  0.000  0.000     0.949     1.526
 300   1 H      0.054  0.946  0.000  0.000     2.275     2.359
 301   1 H      0.067  0.933  0.000  0.000     2.123     2.279
 302   1 H      0.071  0.929  0.000  0.000     2.079     2.255
 303   1 H      0.033  0.967  0.000  0.000     2.542     2.493
 304   1 H      0.036  0.964  0.000  0.000     2.505     2.475
 305   1 H      0.029  0.971  0.000  0.000     2.599     2.521
 306   1 H      0.037  0.963  0.000  0.000     2.493     2.469
 307   1 H      0.033  0.967  0.000  0.000     2.549     2.497
 308   7 N     -0.188  1.249  3.939  0.000    25.068     7.436
 309   6 C      0.029  1.060  2.911  0.000    20.090     6.382
 310   6 C      0.283  1.042  2.675  0.000    22.209     7.718
 311   8 O     -0.506  1.747  4.759  0.000    23.911     6.556
 312   6 C     -0.021  1.063  2.958  0.000    20.911     6.504
 313   6 C     -0.119  1.040  3.079  0.000    22.835     6.813
 314   6 C     -0.119  1.040  3.078  0.000    22.826     6.812
 315   1 H      0.235  0.765  0.000  0.000     0.944     1.522
 316   1 H      0.052  0.948  0.000  0.000     2.298     2.371
 317   1 H      0.057  0.943  0.000  0.000     2.232     2.336
 318   1 H      0.065  0.935  0.000  0.000     2.146     2.291
 319   1 H      0.034  0.966  0.000  0.000     2.531     2.488
 320   1 H      0.045  0.955  0.000  0.000     2.389     2.417
 321   1 H      0.056  0.944  0.000  0.000     2.247     2.344
 322   1 H      0.042  0.958  0.000  0.000     2.419     2.432
 323   1 H      0.055  0.945  0.000  0.000     2.263     2.352
 324   7 N     -0.185  1.252  3.933  0.000    25.002     7.426
 325   6 C      0.023  1.062  2.915  0.000    20.185     6.396
 326   6 C      0.284  1.040  2.676  0.000    22.184     7.713
 327   8 O     -0.507  1.756  4.751  0.000    23.950     6.561
 328   6 C     -0.085  1.058  3.027  0.000    22.109     6.694
 329   6 C     -0.081  1.050  3.031  0.000    22.051     6.686
 330   6 C     -0.095  1.055  3.040  0.000    22.316     6.725
 331   6 C     -0.052  1.060  2.992  0.000    21.605     6.635
 332   7 N     -0.140  1.227  3.913  0.000    24.026     7.280
 333   1 H      0.233  0.767  0.000  0.000     0.953     1.529
 334   1 H      0.058  0.942  0.000  0.000     2.228     2.334
 335   1 H      0.070  0.930  0.000  0.000     2.086     2.259
 336   1 H      0.078  0.922  0.000  0.000     1.996     2.209
 337   1 H      0.062  0.938  0.000  0.000     2.171     2.304
 338   1 H      0.053  0.947  0.000  0.000     2.287     2.365
 339   1 H      0.086  0.914  0.000  0.000     1.923     2.168
 340   1 H      0.075  0.925  0.000  0.000     2.035     2.231
 341   1 H      0.109  0.891  0.000  0.000     1.703     2.041
 342   1 H      0.124  0.876  0.000  0.000     1.578     1.965
 343   1 H      0.308  0.692  0.000  0.000     0.689     1.300
 344   1 H      0.301  0.699  0.000  0.000     0.710     1.320
 345   1 H      0.280  0.720  0.000  0.000     0.777     1.381
 346   7 N     -0.184  1.248  3.936  0.000    24.989     7.424
 347   6 C      0.021  1.066  2.913  0.000    20.226     6.403
 348   6 C      0.286  1.041  2.674  0.000    22.157     7.708
 349   8 O     -0.517  1.762  4.755  0.000    24.153     6.589
 350   6 C     -0.023  1.066  2.957  0.000    20.954     6.511
 351   6 C     -0.070  1.053  3.017  0.000    21.839     6.653
 352   6 C     -0.112  1.037  3.075  0.000    22.703     6.794
 353   6 C     -0.112  1.037  3.075  0.000    22.711     6.796
 354   1 H      0.224  0.776  0.000  0.000     0.989     1.558
 355   1 H      0.067  0.933  0.000  0.000     2.117     2.275
 356   1 H      0.043  0.957  0.000  0.000     2.405     2.425
 357   1 H      0.047  0.953  0.000  0.000     2.356     2.400
 358   1 H      0.061  0.939  0.000  0.000     2.189     2.314
 359   1 H      0.060  0.940  0.000  0.000     2.202     2.320
 360   1 H      0.018  0.982  0.000  0.000     2.769     2.602
 361   1 H      0.048  0.952  0.000  0.000     2.342     2.393
 362   1 H      0.059  0.941  0.000  0.000     2.212     2.326
 363   1 H      0.035  0.965  0.000  0.000     2.516     2.480
 364   1 H      0.040  0.960  0.000  0.000     2.443     2.444
 365   7 N     -0.190  1.251  3.940  0.000    25.126     7.445
 366   6 C      0.034  1.057  2.909  0.000    20.005     6.368
 367   6 C      0.287  1.039  2.673  0.000    22.129     7.703
 368   8 O     -0.510  1.756  4.755  0.000    24.017     6.571
 369   6 C     -0.125  1.042  3.084  0.000    22.960     6.832
 370   1 H      0.231  0.769  0.000  0.000     0.962     1.537
 371   1 H      0.053  0.947  0.000  0.000     2.286     2.364
 372   1 H      0.062  0.938  0.000  0.000     2.179     2.308
 373   1 H      0.074  0.926  0.000  0.000     2.039     2.233
 374   1 H      0.065  0.935  0.000  0.000     2.143     2.289
 375   7 N     -0.178  1.247  3.931  0.000    24.864     7.406
 376   6 C      0.044  1.051  2.905  0.000    19.839     6.343
 377   6 C      0.215  1.082  2.704  0.000    23.459     7.932
 378   8 O     -0.373  1.751  4.623  0.000    21.158     6.167
 379   6 C     -0.107  1.063  3.044  0.000    22.531     6.757
 380   6 C      0.296  1.032  2.672  0.000    21.970     7.675
 381   8 O     -0.476  1.746  4.730  0.000    23.258     6.466
 382   7 N     -0.289  1.263  4.026  0.000    27.463     7.783
 383   1 H      0.239  0.761  0.000  0.000     0.927     1.508
 384   1 H      0.076  0.924  0.000  0.000     2.025     2.226
 385   1 H      0.096  0.904  0.000  0.000     1.820     2.110
 386   1 H      0.084  0.916  0.000  0.000     1.937     2.176
 387   1 H      0.235  0.765  0.000  0.000     0.942     1.520
 388   1 H      0.233  0.767  0.000  0.000     0.954     1.530
 389   7 N     -0.393  1.321  4.072  0.000    30.181     8.159
 390   6 C      0.043  1.053  2.904  0.000    19.874     6.351
 391   6 C      0.202  1.094  2.703  0.000    23.698     7.972
 392   8 O     -0.369  1.745  4.624  0.000    21.070     6.154
 393   6 C     -0.073  1.064  3.009  0.000    21.892     6.660
 394   6 C     -0.010  1.057  2.954  0.000    20.730     6.476
 395   6 C     -0.114  1.040  3.075  0.000    22.742     6.800
 396   6 C     -0.117  1.043  3.074  0.000    22.794     6.807
 397   1 H      0.168  0.832  0.000  0.000     1.284     1.775
 398   1 H      0.039  0.961  0.000  0.000     2.464     2.455
 399   1 H      0.053  0.947  0.000  0.000     2.280     2.361
 400   1 H      0.053  0.947  0.000  0.000     2.285     2.364
 401   1 H      0.026  0.974  0.000  0.000     2.642     2.542
 402   1 H      0.044  0.956  0.000  0.000     2.397     2.421
 403   1 H      0.038  0.962  0.000  0.000     2.469     2.457
 404   1 H      0.044  0.956  0.000  0.000     2.398     2.421
 405   1 H      0.045  0.955  0.000  0.000     2.382     2.413
 406   1 H      0.044  0.956  0.000  0.000     2.394     2.420
 407   1 H      0.037  0.963  0.000  0.000     2.493     2.469
 408   7 N     -0.403  1.313  4.090  0.000    30.462     8.197
 409   6 C      0.039  1.059  2.901  0.000    19.928     6.358
 410   6 C      0.200  1.097  2.703  0.000    23.740     7.980
 411   8 O     -0.378  1.743  4.634  0.000    21.241     6.179
 412   6 C     -0.020  1.068  2.952  0.000    20.901     6.502
 413   6 C     -0.063  1.050  3.013  0.000    21.701     6.632
 414   6 C     -0.116  1.039  3.077  0.000    22.776     6.805
 415   6 C     -0.108  1.037  3.071  0.000    22.618     6.782
 416   1 H      0.188  0.812  0.000  0.000     1.169     1.693
 417   1 H      0.044  0.956  0.000  0.000     2.400     2.423
 418   1 H      0.041  0.959  0.000  0.000     2.436     2.441
 419   1 H      0.045  0.955  0.000  0.000     2.384     2.415
 420   1 H      0.049  0.951  0.000  0.000     2.334     2.389
 421   1 H      0.054  0.946  0.000  0.000     2.273     2.358
 422   1 H      0.027  0.973  0.000  0.000     2.636     2.539
 423   1 H      0.049  0.951  0.000  0.000     2.335     2.390
 424   1 H      0.040  0.960  0.000  0.000     2.444     2.445
 425   1 H      0.032  0.968  0.000  0.000     2.563     2.504
 426   1 H      0.042  0.958  0.000  0.000     2.422     2.434
 427   7 N     -0.395  1.316  4.080  0.000    30.245     8.168
 428   6 C      0.029  1.062  2.909  0.000    20.093     6.383
 429   6 C      0.277  1.046  2.677  0.000    22.321     7.737
 430   8 O     -0.519  1.757  4.761  0.000    24.200     6.596
 431   6 C     -0.019  1.064  2.955  0.000    20.880     6.499
 432   6 C     -0.111  1.039  3.072  0.000    22.679     6.790
 433   6 C     -0.109  1.039  3.070  0.000    22.632     6.783
 434   1 H      0.156  0.844  0.000  0.000     1.360     1.827
 435   1 H      0.034  0.966  0.000  0.000     2.530     2.487
 436   1 H      0.035  0.965  0.000  0.000     2.520     2.482
 437   1 H      0.048  0.952  0.000  0.000     2.342     2.393
 438   1 H      0.034  0.966  0.000  0.000     2.527     2.486
 439   1 H      0.044  0.956  0.000  0.000     2.401     2.423
 440   1 H      0.051  0.949  0.000  0.000     2.312     2.378
 441   1 H      0.041  0.959  0.000  0.000     2.439     2.442
 442   1 H      0.039  0.961  0.000  0.000     2.466     2.456
 443   7 N     -0.184  1.246  3.938  0.000    24.977     7.423
 444   6 C      0.036  1.052  2.912  0.000    19.971     6.363
 445   6 C      0.204  1.087  2.709  0.000    23.666     7.967
 446   8 O     -0.379  1.756  4.624  0.000    21.274     6.184
 447   6 C     -0.064  1.052  3.012  0.000    21.711     6.631
 448   6 C     -0.017  1.066  2.951  0.000    20.890     6.508
 449  16 S     -0.210  1.916  4.242  0.051   149.982    20.612
 450   6 C     -0.057  1.052  3.005  0.000    21.674     6.641
 451   1 H      0.237  0.763  0.000  0.000     0.935     1.515
 452   1 H      0.092  0.908  0.000  0.000     1.857     2.131
 453   1 H      0.069  0.931  0.000  0.000     2.098     2.265
 454   1 H      0.062  0.938  0.000  0.000     2.177     2.307
 455   1 H      0.068  0.932  0.000  0.000     2.106     2.270
 456   1 H      0.068  0.932  0.000  0.000     2.113     2.273
 457   1 H      0.069  0.931  0.000  0.000     2.096     2.264
 458   1 H      0.055  0.945  0.000  0.000     2.259     2.350
 459   1 H      0.044  0.956  0.000  0.000     2.395     2.420
 460   7 N     -0.393  1.316  4.078  0.000    30.183     8.159
 461   6 C      0.047  1.054  2.899  0.000    19.804     6.339
 462   6 C      0.204  1.092  2.703  0.000    23.656     7.965
 463   8 O     -0.381  1.762  4.619  0.000    21.304     6.188
 464   6 C     -0.071  1.056  3.015  0.000    21.850     6.654
 465   6 C      0.005  1.084  2.912  0.000    27.914     8.666
 466   6 C     -0.033  1.078  2.955  0.000    28.814     8.803
 467   6 C     -0.044  1.082  2.962  0.000    29.082     8.844
 468   6 C     -0.026  1.078  2.948  0.000    28.651     8.778
 469   6 C     -0.034  1.081  2.953  0.000    28.853     8.809
 470   6 C     -0.035  1.078  2.956  0.000    28.861     8.810
 471   1 H      0.174  0.826  0.000  0.000     1.251     1.752
 472   1 H      0.042  0.958  0.000  0.000     2.427     2.436
 473   1 H      0.056  0.944  0.000  0.000     2.242     2.342
 474   1 H      0.059  0.941  0.000  0.000     2.214     2.327
 475   1 H      0.029  0.971  0.000  0.000     2.599     2.521
 476   1 H      0.038  0.962  0.000  0.000     2.479     2.462
 477   1 H      0.031  0.969  0.000  0.000     2.570     2.507
 478   1 H      0.040  0.960  0.000  0.000     2.453     2.449
 479   1 H      0.034  0.966  0.000  0.000     2.533     2.489
 480   1 H      0.180  0.820  0.000  0.000     1.215     1.726
 481   1 H      0.079  0.921  0.000  0.000     1.991     2.207
 482   1 H      0.176  0.824  0.000  0.000     1.236     1.741
 483   1 H      0.071  0.929  0.000  0.000     2.074     2.252
 484   1 H      0.160  0.840  0.000  0.000     1.335     1.810
 485   1 H      0.070  0.930  0.000  0.000     2.084     2.257
 486   1 H      0.172  0.828  0.000  0.000     1.258     1.757
 487   1 H      0.064  0.936  0.000  0.000     2.149     2.292
 488   1 H      0.180  0.820  0.000  0.000     1.214     1.726
 489   1 H      0.068  0.932  0.000  0.000     2.107     2.270
 490   1 H      0.180  0.820  0.000  0.000     1.211     1.724
 491   1 H      0.073  0.927  0.000  0.000     2.051     2.239
 492   1 H      0.177  0.823  0.000  0.000     1.229     1.736
 493   1 H      0.070  0.930  0.000  0.000     2.081     2.256
 494   1 H      0.181  0.819  0.000  0.000     1.210     1.723
 495   1 H      0.067  0.933  0.000  0.000     2.114     2.273
 496   1 H      0.186  0.814  0.000  0.000     1.182     1.703
 497   1 H      0.075  0.925  0.000  0.000     2.026     2.226

 Mol. C6AA /au·bohr⁶  :    2204368.556415
 Mol. C8AA /au·bohr⁸  :   49442037.925011
 Mol. α(0) /au        :       2246.129327

 
molecular dipole:
                 x           y           z       tot (Debye)
 q only:       83.492      26.926      37.651
   full:       84.457      23.712      36.720     241.720
molecular quadrupole (traceless):
                xx          xy          yy          xz          yz          zz
 q only:     6046.563    3333.444   -3240.052    4803.383    2026.153   -2806.511
  q+dip:     6323.140    2952.211   -3524.426    4680.794    1904.169   -2798.713
   full:     6323.056    2953.821   -3531.212    4678.011    1904.087   -2791.845
speedup  1.95
cpu  time for grad   25.21 s
wall time for grad   12.90 s

SCC energy    :    -704.4538404
rep           :       9.5367718
ES            :       1.4098419
AES           :      -0.0347449
AXC           :       0.3099149
disp          :      -0.6585861
XB            :       0.0000000
fix           :       0.0000000
Gborn         :       0.0000000
Gsasa         :       0.0000000
Ghb           :       0.0000000
Gshift        :       0.0000000
Gsolv         :      -0.3064280     -192.29
Etot ala COSMO:    -704.4538404
grad norm     :       0.6641790
total E       :    -694.8502787
atomizationE  :     137.2844323    86147.28
(atE without considering molecular charge,
 total energy contains solvation terms)
H-L gap (eV)  :          1.5908

------------------------------------------------------------------------
 * finished run on 2019/05/10 at 10:20:32.563     
------------------------------------------------------------------------
 total:
 * wall-time:     0 d,  0 h,  0 min, 13.736 sec
 *  cpu-time:     0 d,  0 h,  0 min, 26.722 sec
 * ratio c/w:     1.945 speedup
 SCF:
 * wall-time:     0 d,  0 h,  0 min, 13.420 sec
 *  cpu-time:     0 d,  0 h,  0 min, 26.250 sec
 * ratio c/w:     1.956 speedup

