      -----------------------------------------------------------      
     |                   =====================                   |     
     |                           x T B                           |     
     |                   =====================                   |     
     |                         S. Grimme                         |     
     |          Mulliken Center for Theoretical Chemistry        |     
     |                    University of Bonn                     |     
     |                 Version 6.0.1 (SAW181210)                 |     
      -----------------------------------------------------------      

   This program is distributed in the hope that it will be useful,
   but WITHOUT ANY WARRANTY; without even the implied warranty of
   MERCHANTABILITY or FITNESS FOR A PARTICULAR PURPOSE.
   
   FOR NON-COMMERCIAL, ACADEMIA USE ONLY.
   
   Cite this work as:
   S. Grimme, C. Bannwarth, P. Shushkov, J. Comput. Theory Chem., 2017,
   13, 1989-2009.
   C. Bannwarth, S. Ehlert and S. Grimme., ChemRxiv, 2018, preprint.
   http://doi.org/10.26434/chemrxiv.7246238.v1
   
   for sTDA-xTB:
   S. Grimme and C. Bannwarth, J. Chem. Phys., 2016, 145, 054103.
   
   in the mass-spec context:
   V. Asgeirsson, C. Bauer and S. Grimme, Chem. Sci., 2017, 8, 4879.
   
   if GBSA is used:
   P. Shushkov, F. März and S. Grimme, unpublished.
   
   for ANC optimizer:
   S. Grimme, unpublished.
   Rational Function algorithm used in ANCopt:
   F. Eckert, P. Pulay, H.-J. Werner, J. Comput. Chem., 1997, 18, 1473.
   
   with help from (in alphabetical order)
   C. Bannwarth, F. Bohle, G. Brandenburg, E. Caldeweyher, M. Checinski,
   S. Dohm, S. Ehlert, S. Ehrlich, F. März, H. Neugebauer, J. Pisarek,
   P. Pracht, P. Shushkov, and S. Spicher.
   
 * started run on 2019/05/05 at 21:57:03.407     
========================================================================
 # omp threads = 2
========================================================================
number of atoms            : 998
number of electrons        : 2710
charge                     : -4
spin                       : .0
first test random number   : .6132

########################################################################
# WARNING! Please study the warnings concerning your input carefully
#  - Process number higher than OMP_NUM_THREADS, I hope you know what you are doing.
########################################################################

           ------------------------------------------------- 
          |                 G F N 2 - x T B                 |
          | Geometry, Frequencies, Noncovalent interactions |
          |            JCTC 2018 parametrisation            |
           ------------------------------------------------- 
 
      method parameters     
 k(s)        :  1.8500
 k(p)        :  2.2300
 k(d)        :  2.2300
 k(f)        :  2.0000
 kEN (H0ij)  : -2.0000
 D4 a1       :  0.5200
 D4 a2       :  5.0000
 D4 s6       :  1.0000
 D4 s8       :  2.7000
 D4 s9       :  5.0000
 alphaj      :  2.0000

 Solvent             : h2o
 Using internal parameter file: .param_gbsa2_h2o
 Gsolv ref. state (COSMO-RS): gsolv [1 M gas/solution]
 temperature (mdtemp)       :    298.150000000000     
 dielectric constant        :    80.2000000000000     
 rho                        :    1.00000000000000     
 mass                       :    18.0000000000000     
 surface tension            :    15.5689454083859     
 probe radius               :   0.975313790000000     
 vdW radii scaling          :    1.00000000000000     
 Gshift (Eh)                :   1.857443126794793E-003
 c1                         :    1.55243817000000     
 soset                      :   0.130326360000000     
 HB correction              :  T

            Z     q(EN)     CN     RAES       Cart. coordinates
     1  N   5.0   -0.22    3.23    1.96   127.70579   104.43193   398.42226
     2  C   4.0    0.03    4.40    4.38   125.41355   105.76229   397.62669
     3  C   4.0    0.14    3.47    3.10   123.34619   103.86123   397.05977
     4  O   6.0   -0.32    1.28    1.80   121.13710   104.32232   397.63991
     5  C   4.0   -0.03    4.29    4.17   125.86142   107.44604   395.28909
     6  C   4.0   -0.07    4.15    3.90   123.40288   108.51184   394.28943
     7  C   4.0   -0.08    4.11    3.83   127.64532   109.61922   395.89192
     8  H   1.0    0.07    1.03    1.43   129.16466   104.57365   397.16937
     9  H   1.0    0.05    1.06    1.44   124.86175   106.99250   399.18382
    10  H   1.0    0.03    1.06    1.44   126.71746   106.25740   393.83967
    11  H   1.0    0.04    1.00    1.43   123.79973   109.68536   392.64348
    12  H   1.0    0.05    1.01    1.43   122.16322   106.95471   393.75842
    13  H   1.0    0.06    1.00    1.43   122.51471   109.64568   395.76342
    14  H   1.0    0.04    1.00    1.43   127.91177   110.75873   394.19683
    15  H   1.0    0.05    1.00    1.43   126.81951   110.77007   397.38858
    16  H   1.0    0.04    1.00    1.43   129.45190   108.85010   396.51364
    17  N   5.0   -0.15    3.45    2.04   124.05106   101.71261   395.96751
    18  C   4.0    0.03    4.40    4.38   122.21992    99.65659   395.64247
    19  C   4.0    0.08    3.26    3.05   121.09175    98.88936   398.21061
    20  O   6.0   -0.32    1.17    1.80   118.77872    98.62669   398.41848
    21  C   4.0   -0.03    4.32    4.23   123.35375    97.31900   394.30266
    22  C   4.0   -0.06    4.20    4.00   124.13421    97.95961   391.58712
    23  C   4.0   -0.08    4.15    3.89   121.42056    95.18739   394.25352
    24  C   4.0   -0.09    4.01    3.63   125.67433    95.93950   390.24542
    25  H   1.0    0.07    1.06    1.44   125.81984   101.33655   395.30232
    26  H   1.0    0.05    1.06    1.44   120.73648   100.39736   394.42171
    27  H   1.0    0.03    1.06    1.44   125.02427    96.73318   395.35335
    28  H   1.0    0.03    1.03    1.43   122.42779    98.27142   390.47596
    29  H   1.0    0.03    1.03    1.43   125.27182    99.67548   391.62492
    30  H   1.0    0.03    1.00    1.43   122.24448    93.55655   393.30488
    31  H   1.0    0.04    1.01    1.43   120.91789    94.69417   396.18860
    32  H   1.0    0.04    1.00    1.43   119.74815    95.82233   393.23307
    33  H   1.0    0.03    1.00    1.43   126.12031    96.58956   388.34246
    34  H   1.0    0.03    1.00    1.43   127.41288    95.60879   391.30177
    35  H   1.0    0.03    1.00    1.43   124.56884    94.20473   390.15282
    36  N   5.0   -0.20    3.27    1.97   120.53239   102.22473   403.33744
    37  C   4.0    0.03    4.45    4.46   119.03951   104.19571   404.51663
    38  C   4.0    0.14    3.51    3.12   116.42035   104.28453   403.34878
    39  O   6.0   -0.32    1.26    1.80   114.44936   104.47161   404.64324
    40  C   4.0   -0.02    4.33    4.25   120.33586   106.74306   404.17081
    41  C   4.0   -0.06    4.14    3.87   118.56141   108.92569   404.84166
    42  C   4.0   -0.07    4.13    3.86   122.70935   106.81676   405.76951
    43  H   1.0    0.09    1.03    1.43   122.02338   102.86723   402.29809
    44  H   1.0    0.05    1.06    1.44   118.87321   103.77052   406.52541
    45  H   1.0    0.05    1.06    1.44   120.85175   106.98306   402.19037
    46  H   1.0    0.05    1.00    1.43   119.55729   110.70771   404.56954
    47  H   1.0    0.05    1.01    1.43   116.90979   108.85010   403.61145
    48  H   1.0    0.05    1.00    1.43   117.98126   108.73861   406.80886
    49  H   1.0    0.06    1.00    1.43   123.63154   108.64034   405.51629
    50  H   1.0    0.05    1.00    1.43   122.19346   106.55787   407.74617
    51  H   1.0    0.04    1.00    1.43   123.96980   105.30309   405.16858
    52  N   5.0   -0.14    3.60    2.16   116.46192   104.17681   400.86001
    53  C   4.0    0.04    4.61    4.68   114.20559   104.25051   399.41626
    54  C   4.0    0.16    3.56    3.14   112.61255   101.96394   399.96617
    55  O   6.0   -0.32    1.32    1.80   110.33921   102.17181   400.23451
    56  C   4.0   -0.02    4.42    4.41   114.86699   104.42626   396.63269
    57  C   4.0   -0.05    4.24    4.08   115.51895   107.17203   396.07711
    58  C   4.0   -0.08    4.17    3.94   112.70515   103.47194   394.98863
    59  C   4.0   -0.08    4.04    3.68   116.36554   107.60289   393.39748
    60  H   1.0    0.11    1.10    1.44   118.06630   104.03697   399.79987
    61  H   1.0    0.05    1.07    1.44   113.11522   105.91725   399.94160
    62  H   1.0    0.06    1.06    1.44   116.48271   103.22439   396.19616
    63  H   1.0    0.03    1.03    1.43   113.85032   108.33421   396.40970
    64  H   1.0    0.05    1.03    1.43   117.04774   107.75973   397.32622
    65  H   1.0    0.03    1.00    1.43   113.24939   103.62690   393.00820
    66  H   1.0    0.05    1.01    1.43   112.32153   101.50285   395.46106
    67  H   1.0    0.04    1.00    1.43   111.03274   104.61901   395.34768
    68  H   1.0    0.03    1.00    1.43   116.79640   109.60033   393.14426
    69  H   1.0    0.04    1.00    1.43   118.04740   106.46905   393.03465
    70  H   1.0    0.03    1.00    1.43   114.85187   107.04353   392.11813
    71  N   5.0   -0.15    3.53    2.10   113.82197    99.78887   400.13813
    72  C   4.0    0.04    4.39    4.37   112.49728    97.47017   400.75607
    73  C   4.0    0.16    3.40    3.08   111.21226    97.64214   403.39035
    74  O   6.0   -0.29    1.20    1.80   109.13545    96.61413   403.81176
    75  C   4.0    0.03    4.16    3.93   114.34543    95.26109   400.57844
    76  O   6.0   -0.25    2.05    1.83   113.00561    92.98586   400.55009
    77  H   1.0    0.11    1.11    1.44   115.71548    99.56399   399.86223
    78  H   1.0    0.06    1.06    1.44   110.98927    97.11869   399.39736
    79  H   1.0    0.05    1.02    1.43   115.44147    95.42738   398.84178
    80  H   1.0    0.04    1.02    1.43   115.60210    95.29132   402.21116
    81  H   1.0    0.11    1.01    1.43   114.18102    91.55911   400.43482
    82  N   5.0   -0.14    3.47    2.06   112.45570    98.97818   405.12134
    83  C   4.0    0.04    4.39    4.37   111.40123    99.51297   407.60822
    84  C   4.0    0.18    3.48    3.11   109.08632   101.20616   407.43058
    85  O   6.0   -0.30    1.27    1.80   107.14746   100.73940   408.64379
    86  C   4.0    0.03    4.15    3.90   113.40623   100.70539   409.34110
    87  O   6.0   -0.24    2.06    1.83   112.34421   102.58944   410.91902
    88  H   1.0    0.08    1.07    1.44   114.21315    99.72273   404.85678
    89  H   1.0    0.05    1.06    1.44   110.82298    97.72529   408.45104
    90  H   1.0    0.03    1.01    1.43   114.22449    99.23140   410.52407
    91  H   1.0    0.05    1.02    1.43   114.86888   101.56332   408.17325
    92  H   1.0    0.12    1.01    1.43   113.65568   103.31888   412.00372
    93  N   5.0   -0.13    3.51    2.09   109.31687   103.20171   405.95093
    94  C   4.0    0.04    4.39    4.35   107.24384   104.97995   405.66558
    95  C   4.0    0.16    3.45    3.10   104.92703   103.71194   404.55253
    96  O   6.0   -0.33    1.34    1.80   102.83133   104.21083   405.37834
    97  C   4.0   -0.07    4.13    3.86   108.02996   107.17581   404.03097
    98  H   1.0    0.11    1.09    1.44   110.89290   103.64202   404.93237
    99  H   1.0    0.05    1.06    1.44   106.76007   105.70749   407.53074
   100  H   1.0    0.04    1.00    1.43   106.44448   108.47783   403.84766
   101  H   1.0    0.05    1.00    1.43   109.62489   108.13201   404.91536
   102  H   1.0    0.05    1.00    1.43   108.57609   106.46905   402.17526
   103  N   5.0   -0.13    3.51    2.08   105.29175   102.03764   402.71950
   104  C   4.0    0.04    4.49    4.53   103.14880   100.74885   401.52708
   105  C   4.0    0.08    3.31    3.06   101.80332    98.94794   403.31287
   106  O   6.0   -0.31    1.53    1.80    99.50541    98.91582   403.45649
   107  C   4.0   -0.04    4.12    3.85   103.97650    99.34100   399.17248
   108  S   6.0   -0.07    2.39    3.10   105.20860   101.51608   396.86324
   109  H   1.0    0.11    1.09    1.44   107.01518   101.53120   402.02030
   110  H   1.0    0.05    1.09    1.44   101.80710   102.21150   400.97528
   111  H   1.0    0.06    1.07    1.44   105.45427    97.98985   399.66003
   112  H   1.0    0.04    1.09    1.44   102.36268    98.35646   398.35423
   113  H   1.0    0.07    1.00    1.43   107.13990   102.69338   397.82322
   114  N   5.0   -0.18    3.24    1.97   101.11546    99.60179   409.06520
   115  C   4.0    0.03    4.41    4.39    99.72084   101.19671   410.80563
   116  C   4.0    0.15    3.44    3.09    97.62324   102.67448   409.55653
   117  O   6.0   -0.30    1.25    1.80    95.48596   102.47039   410.31997
   118  C   4.0    0.05    4.27    4.15   101.45939   103.09778   412.11144
   119  O   6.0   -0.25    2.11    1.84   103.75918   101.87135   412.81819
   120  C   4.0   -0.07    4.09    3.78   100.17248   104.22028   414.40934
   121  H   1.0    0.11    1.04    1.43   102.71983   100.42004   408.38112
   122  H   1.0    0.05    1.06    1.44    98.90826    99.90603   412.19080
   123  H   1.0    0.05    1.05    1.44   101.90158   104.64735   410.82831
   124  H   1.0    0.14    1.05    1.44   104.60767   101.20049   411.31397
   125  H   1.0    0.05    1.00    1.43   101.42537   105.57332   415.32775
   126  H   1.0    0.05    1.00    1.43    98.44149   105.18593   413.84620
   127  H   1.0    0.04    1.00    1.43    99.70005   102.72928   415.75105
   128  N   5.0   -0.14    3.56    2.12    98.23551   104.20516   407.68003
   129  C   4.0    0.04    4.45    4.47    96.33823   105.77741   406.40446
   130  C   4.0    0.15    3.43    3.09    95.32534   104.55665   404.01963
   131  O   6.0   -0.30    1.26    1.80    93.62458   105.53741   402.80831
   132  C   4.0   -0.03    4.36    4.32    97.43805   108.35878   405.80164
   133  C   4.0   -0.01    3.60    3.17    98.40559   109.64946   408.12222
   134  C   4.0   -0.04    3.50    3.12    96.79932   110.97794   409.68881
   135  C   4.0   -0.04    3.51    3.12   100.90570   109.47938   408.79875
   136  C   4.0   -0.02    3.47    3.10    97.67993   112.12122   411.84309
   137  C   4.0   -0.05    3.46    3.10   101.80332   110.60755   410.97949
   138  C   4.0    0.07    3.46    3.10   100.17626   111.93036   412.50639
   139  O   6.0   -0.25    2.10    1.84   101.07010   113.10766   414.64934
   140  H   1.0    0.11    1.12    1.45   100.02319   104.41114   406.98839
   141  H   1.0    0.06    1.07    1.44    94.74708   106.07032   407.68003
   142  H   1.0    0.05    1.04    1.43    99.00463   108.13768   404.48261
   143  H   1.0    0.05    1.04    1.43    95.97351   109.54174   404.96449
   144  H   1.0    0.06    1.03    1.43    94.82078   111.11967   409.21260
   145  H   1.0    0.06    1.03    1.43   102.19638   108.44381   407.60444
   146  H   1.0    0.08    1.07    1.44    96.39681   113.17947   413.02417
   147  H   1.0    0.05    1.03    1.43   103.77619   110.44881   411.47838
   148  H   1.0    0.11    1.02    1.43   102.88235   112.78073   414.84209
   149  N   5.0   -0.13    3.56    2.12    96.34579   102.39102   403.33366
   150  C   4.0    0.05    4.48    4.51    95.48407   101.13624   401.04331
   151  C   4.0    0.08    3.24    3.04    93.26742    99.44683   401.70471
   152  O   6.0   -0.29    1.13    1.80    93.57734    97.16404   402.21872
   153  C   4.0   -0.01    4.36    4.30    97.61757    99.64525   399.84333
   154  S   6.0   -0.07    2.40    3.10    97.70072    99.85879   396.54576
   155  H   1.0    0.12    1.14    1.45    97.74041   101.47261   404.29553
   156  H   1.0    0.05    1.09    1.44    94.84535   102.56299   399.70160
   157  H   1.0    0.07    1.26    1.48    99.41092   100.35768   400.56521
   158  H   1.0    0.08    1.11    1.45    97.39837    97.65915   400.34033
   159  H   1.0    0.05    0.98    1.43    95.58990    98.99518   395.63491
   160  N   5.0   -0.15    3.45    2.04   102.38724    92.61736   392.26175
   161  C   4.0    0.02    4.41    4.39   104.10311    91.60636   390.37203
   162  C   4.0    0.06    3.21    3.04   106.41047    90.26465   391.43216
   163  O   6.0   -0.30    1.13    1.80   107.02652    90.51976   393.65448
   164  C   4.0   -0.05    4.37    4.33   104.96105    93.95717   388.93962
   165  C   4.0   -0.05    4.30    4.20   104.54153    96.11335   390.68950
   166  C   4.0   -0.00    4.25    4.11   103.22439    95.15337   393.01953
   167  H   1.0    0.02    1.05    1.44   103.05431    90.29866   389.17583
   168  H   1.0    0.03    1.03    1.43   106.95660    93.78521   388.45585
   169  H   1.0    0.03    1.03    1.43   103.83666    94.17638   387.22752
   170  H   1.0    0.04    1.03    1.43   106.36323    96.93160   391.19406
   171  H   1.0    0.03    1.03    1.43   103.37368    97.52309   389.74653
   172  H   1.0    0.05    1.02    1.43   104.52641    95.05322   394.61257
   173  H   1.0    0.03    1.02    1.43   101.61623    96.34579   393.49952
   174  N   5.0   -0.23    3.19    1.95   114.48716    94.45039   385.15449
   175  C   4.0    0.02    4.29    4.18   115.26383    96.99018   385.97841
   176  C   4.0    0.07    3.24    3.04   117.84709    97.66293   384.92395
   177  O   6.0   -0.33    1.16    1.80   118.22315    99.74918   383.97720
   178  C   4.0   -0.03    4.31    4.22   115.30352    97.17727   388.89804
   179  C   4.0   -0.06    4.18    3.96   112.58798    96.86168   389.95629
   180  C   4.0   -0.08    4.12    3.84   116.45814    99.67737   389.76165
   181  C   4.0   -0.08    4.00    3.61   112.41224    96.13981   392.72852
   182  H   1.0    0.07    1.03    1.43   114.44936    93.18050   386.60391
   183  H   1.0    0.04    1.06    1.44   113.87300    98.32055   385.24331
   184  H   1.0    0.03    1.06    1.44   116.48271    95.65604   389.62937
   185  H   1.0    0.03    1.03    1.43   111.59210    98.64936   389.72574
   186  H   1.0    0.03    1.03    1.43   111.64123    95.38392   388.87725
   187  H   1.0    0.04    1.00    1.43   116.45436    99.74163   391.81956
   188  H   1.0    0.04    1.01    1.43   118.38944    99.80210   389.05867
   189  H   1.0    0.04    1.00    1.43   115.33564   101.23073   389.00765
   190  H   1.0    0.04    1.00    1.43   110.42803    95.97351   393.25386
   191  H   1.0    0.04    1.00    1.43   113.36655    94.33701   393.01386
   192  H   1.0    0.04    1.00    1.43   113.31931    97.60246   393.86046
   193  N   5.0   -0.21    3.20    1.96   117.31041    98.80621   377.77134
   194  C   4.0    0.03    4.32    4.23   116.47893   101.42726   377.48032
   195  C   4.0    0.15    3.44    3.09   118.68802   103.25085   377.78078
   196  O   6.0   -0.32    1.25    1.80   119.22659   104.75318   376.06680
   197  C   4.0   -0.05    4.35    4.30   114.41724   102.08678   379.38894
   198  C   4.0   -0.04    4.08    3.76   113.49883   104.81365   379.18296
   199  S   6.0   -0.06    2.52    3.10   111.23872   105.70371   381.56779
   200  C   4.0   -0.07    3.89    3.45   113.26261   105.96260   384.24932
   201  H   1.0    0.08    1.03    1.43   116.32019    97.83489   379.10926
   202  H   1.0    0.04    1.06    1.44   115.66824   101.60301   375.59437
   203  H   1.0    0.04    1.03    1.43   112.79963   100.84900   379.07714
   204  H   1.0    0.05    1.04    1.43   115.15801   101.81088   381.29000
   205  H   1.0    0.04    1.08    1.44   115.12022   106.07221   379.35870
   206  H   1.0    0.04    1.07    1.44   112.60310   105.07065   377.34615
   207  H   1.0    0.03    1.04    1.43   112.13823   106.50495   385.88771
   208  H   1.0    0.04    1.04    1.43   114.16401   104.14280   384.58758
   209  H   1.0    0.03    1.04    1.43   114.69314   107.39691   383.87326
   210  N   5.0   -0.15    3.46    2.05   119.96169   103.07321   379.94074
   211  C   4.0    0.03    4.36    4.31   122.06874   104.74373   380.51900
   212  C   4.0    0.08    3.27    3.05   124.16066   104.63224   378.59904
   213  O   6.0   -0.30    1.12    1.80   125.18867   106.60889   377.89795
   214  C   4.0   -0.05    4.41    4.40   123.21202   104.09744   383.05879
   215  C   4.0   -0.03    4.20    4.00   121.86465   105.17459   385.35481
   216  C   4.0   -0.08    4.10    3.79   122.98336   104.10122   387.79255
   217  C   4.0   -0.08    4.12    3.84   122.05551   108.04319   385.33402
   218  H   1.0    0.10    1.09    1.44   119.57997   101.79198   381.32969
   219  H   1.0    0.05    1.07    1.44   121.27694   106.64479   380.54167
   220  H   1.0    0.04    1.04    1.43   123.21580   102.04709   383.25910
   221  H   1.0    0.04    1.04    1.44   125.14332   104.81176   383.09469
   222  H   1.0    0.04    1.06    1.44   119.87477   104.64357   385.29244
   223  H   1.0    0.03    1.00    1.43   121.98181   104.90814   389.40260
   224  H   1.0    0.04    1.00    1.43   122.76605   102.05276   387.78499
   225  H   1.0    0.03    1.00    1.43   124.98081   104.59633   387.88893
   226  H   1.0    0.04    1.00    1.43   121.08230   108.79152   386.98753
   227  H   1.0    0.04    1.00    1.43   124.04350   108.58365   385.38315
   228  H   1.0    0.03    1.00    1.43   121.17490   108.76129   383.61626
   229  N   5.0   -0.20    3.20    1.96   122.43534   107.78241   372.57081
   230  C   4.0    0.03    4.21    4.02   122.44101   110.49606   372.91663
   231  C   4.0    0.07    3.18    3.03   125.09797   111.64879   372.90718
   232  O   6.0   -0.30    1.12    1.80   125.40221   113.81064   372.00956
   233  C   4.0   -0.04    4.34    4.26   121.01427   111.18203   375.32792
   234  C   4.0   -0.02    4.18    3.96   118.12110   110.76440   375.35060
   235  C   4.0   -0.08    4.11    3.82   117.04585   110.97983   378.00566
   236  C   4.0   -0.08    4.10    3.81   116.69625   112.61255   373.66685
   237  H   1.0    0.12    1.05    1.44   121.61520   106.79219   374.00700
   238  H   1.0    0.04    1.06    1.44   121.44891   111.34076   371.32170
   239  H   1.0    0.06    1.03    1.43   121.79095   110.05008   376.86238
   240  H   1.0    0.04    1.03    1.43   121.32985   113.18325   375.69831
   241  H   1.0    0.05    1.06    1.44   117.83386   108.86144   374.61927
   242  H   1.0    0.03    1.00    1.43   115.01061   110.67369   377.93196
   243  H   1.0    0.04    1.00    1.43   117.92646   109.55497   379.20375
   244  H   1.0    0.03    1.00    1.43   117.44647   112.86199   378.74076
   245  H   1.0    0.03    1.00    1.43   114.67991   112.20437   373.77834
   246  H   1.0    0.04    1.00    1.43   117.06285   114.53251   374.31881
   247  H   1.0    0.04    1.00    1.43   117.35009   112.39334   371.72610
   248  N   5.0   -0.20    3.19    1.95   125.61575   118.82408   375.43185
   249  C   4.0    0.03    4.25    4.10   126.82518   118.83164   377.92629
   250  C   4.0    0.08    3.24    3.04   129.68622   118.81463   377.81291
   251  O   6.0   -0.29    1.13    1.80   130.81250   117.01939   376.83592
   252  C   4.0   -0.04    4.47    4.50   126.09952   116.51672   379.39461
   253  C   4.0   -0.03    4.22    4.05   123.41800   116.30507   380.31113
   254  C   4.0   -0.08    4.14    3.88   123.25926   113.89756   381.85503
   255  C   4.0   -0.08    4.13    3.86   122.66211   118.57463   381.88527
   256  H   1.0    0.10    1.03    1.43   125.21702   117.06096   374.76289
   257  H   1.0    0.03    1.06    1.44   126.20157   120.58341   378.81446
   258  H   1.0    0.06    1.04    1.43   126.44534   114.88022   378.19274
   259  H   1.0    0.05    1.05    1.44   127.30328   116.43168   381.06324
   260  H   1.0    0.03    1.06    1.44   122.10275   116.24838   378.72754
   261  H   1.0    0.03    1.00    1.43   121.33552   113.67646   382.55612
   262  H   1.0    0.04    1.00    1.43   123.75815   112.29885   380.65695
   263  H   1.0    0.04    1.00    1.43   124.57262   114.02795   383.43673
   264  H   1.0    0.04    1.00    1.43   120.71191   118.34031   382.50699
   265  H   1.0    0.05    1.00    1.43   123.90933   118.70314   383.51988
   266  H   1.0    0.04    1.00    1.43   122.83408   120.27539   380.73632
   267  N   5.0   -0.19    3.26    1.97   133.21245   119.53839   383.26855
   268  C   4.0    0.03    4.29    4.17   133.71701   118.04551   385.51732
   269  C   4.0    0.14    3.51    3.12   131.18289   116.96459   386.37715
   270  O   6.0   -0.30    1.33    1.80   129.26670   118.20992   386.20518
   271  C   4.0    0.02    4.11    3.81   135.05115   119.67823   387.55445
   272  O   6.0   -0.24    2.04    1.83   135.44233   122.24070   386.76454
   273  H   1.0    0.12    1.04    1.44   131.72713   120.74782   383.48020
   274  H   1.0    0.03    1.06    1.44   134.99635   116.46759   385.18095
   275  H   1.0    0.05    1.02    1.43   133.88141   119.68957   389.24953
   276  H   1.0    0.02    1.01    1.43   136.88419   118.83542   387.96830
   277  H   1.0    0.11    1.00    1.43   136.28704   123.19501   388.10814
   278  N   5.0   -0.11    3.63    2.19   131.12997   114.63267   387.25965
   279  C   4.0    0.03    4.55    4.60   128.60341   113.55552   387.80011
   280  C   4.0    0.15    3.37    3.07   127.05006   114.78951   389.94306
   281  O   6.0   -0.32    1.23    1.80   124.77671   114.40023   390.03944
   282  C   4.0   -0.05    4.31    4.22   129.12686   110.74550   388.39915
   283  C   4.0   -0.05    4.27    4.14   131.91043   110.36944   388.20073
   284  C   4.0   -0.03    4.31    4.21   133.20867   112.88089   387.79255
   285  H   1.0    0.05    1.06    1.44   127.51304   113.72749   386.06156
   286  H   1.0    0.04    1.03    1.43   128.47491   110.31842   390.30589
   287  H   1.0    0.03    1.02    1.43   128.13854   109.55875   387.03477
   288  H   1.0    0.03    1.03    1.43   132.58506   109.51151   389.94873
   289  H   1.0    0.03    1.03    1.43   132.29404   109.12034   386.60958
   290  H   1.0    0.03    1.02    1.43   134.22723   113.45726   389.48764
   291  H   1.0    0.03    1.02    1.43   134.50124   112.77884   386.19195
   292  N   5.0   -0.14    3.44    2.04   128.24814   116.21248   391.64381
   293  C   4.0    0.04    4.38    4.34   126.86864   117.71859   393.51653
   294  C   4.0    0.16    3.45    3.09   125.38899   119.93524   392.37514
   295  O   6.0   -0.31    1.28    1.80   123.56351   120.78750   393.50519
   296  C   4.0    0.02    4.17    3.93   128.68656   118.81085   395.44972
   297  O   6.0   -0.24    2.04    1.83   130.31361   120.66467   394.34801
   298  H   1.0    0.08    1.06    1.44   130.16432   116.36743   391.77987
   299  H   1.0    0.05    1.06    1.44   125.53638   116.42980   394.41415
   300  H   1.0    0.04    1.02    1.43   127.59808   119.69524   396.95961
   301  H   1.0    0.03    1.02    1.43   129.83929   117.28395   396.21317
   302  H   1.0    0.11    1.00    1.43   131.46634   121.33930   395.63114
   303  N   5.0   -0.12    3.48    2.06   126.16944   120.88955   390.17361
   304  C   4.0    0.04    4.41    4.40   124.84286   123.00982   388.93773
   305  C   4.0    0.15    3.39    3.08   122.02338   122.47314   388.45018
   306  O   6.0   -0.29    1.19    1.80   120.53617   124.23436   387.87192
   307  C   4.0   -0.03    4.30    4.21   126.04283   123.65044   386.37148
   308  C   4.0    0.25    3.15    3.03   128.76593   124.39877   386.54344
   309  O   6.0   -0.28    1.20    1.80   129.63142   125.03750   388.64482
   310  O   6.0   -0.30    1.19    1.80   130.02070   124.30995   384.52711
   311  H   1.0    0.11    1.08    1.44   127.70201   120.25082   389.19284
   312  H   1.0    0.07    1.05    1.44   125.02994   124.61987   390.20762
   313  H   1.0    0.05    1.03    1.43   125.92189   121.99504   385.15071
   314  H   1.0    0.05    1.03    1.43   125.01104   125.22269   385.53055
   315  N   5.0   -0.14    3.50    2.08   121.35253   120.04295   388.57301
   316  C   4.0    0.03    4.42    4.41   118.76928   119.14155   388.21018
   317  C   4.0    0.16    3.46    3.10   117.01372   119.77272   390.37392
   318  O   6.0   -0.31    1.29    1.80   114.75928   119.94280   390.02432
   319  C   4.0   -0.05    4.42    4.41   118.81652   116.29940   387.81145
   320  C   4.0   -0.02    4.24    4.08   116.30696   114.97849   387.41839
   321  C   4.0   -0.09    4.15    3.89   116.50349   112.90735   385.47764
   322  C   4.0   -0.08    4.16    3.92   115.42635   113.78229   389.84479
   323  H   1.0    0.09    1.08    1.44   122.59219   118.61054   388.93206
   324  H   1.0    0.06    1.06    1.44   118.00961   120.07697   386.53966
   325  H   1.0    0.04    1.04    1.43   119.95980   115.91768   386.14093
   326  H   1.0    0.05    1.05    1.44   119.68579   115.44525   389.47063
   327  H   1.0    0.05    1.06    1.44   114.96337   116.39956   386.77399
   328  H   1.0    0.03    1.00    1.43   114.65912   112.01540   385.26032
   329  H   1.0    0.03    1.00    1.43   117.10443   113.72371   383.68429
   330  H   1.0    0.03    1.00    1.43   117.88488   111.51840   386.11636
   331  H   1.0    0.03    1.00    1.43   113.62166   112.84499   389.51409
   332  H   1.0    0.03    1.00    1.43   116.82853   112.40657   390.46273
   333  H   1.0    0.05    1.00    1.43   115.20525   115.24872   391.27343
   334  N   5.0   -0.14    3.51    2.09   118.02283   120.05996   392.62647
   335  C   4.0    0.04    4.42    4.41   116.51105   120.95002   394.75241
   336  C   4.0    0.16    3.42    3.08   115.61343   123.70335   394.42171
   337  O   6.0   -0.30    1.23    1.80   113.64623   124.40822   395.41760
   338  C   4.0   -0.03    4.34    4.28   118.04362   120.85931   397.19961
   339  C   4.0   -0.01    3.54    3.13   119.27383   118.37621   397.86668
   340  C   4.0   -0.05    3.48    3.11   117.99638   116.10098   397.60023
   341  C   4.0   -0.03    3.48    3.10   121.71536   118.31952   398.82477
   342  C   4.0   -0.05    3.42    3.09   119.13588   113.81441   398.26919
   343  C   4.0   -0.05    3.44    3.09   122.87565   116.06886   399.47862
   344  C   4.0    0.07    3.45    3.09   121.58308   113.82575   399.21595
   345  O   6.0   -0.25    2.14    1.85   122.72636   111.60910   399.88491
   346  H   1.0    0.10    1.09    1.44   119.86721   119.70091   393.05922
   347  H   1.0    0.05    1.06    1.44   114.88211   119.69524   394.87524
   348  H   1.0    0.06    1.04    1.43   119.55162   122.25582   397.05599
   349  H   1.0    0.05    1.03    1.43   116.78317   121.34119   398.75674
   350  H   1.0    0.04    1.03    1.43   116.09342   116.09720   396.86513
   351  H   1.0    0.06    1.03    1.43   122.73203   120.07319   399.06477
   352  H   1.0    0.05    1.03    1.43   118.12299   112.05508   398.05187
   353  H   1.0    0.05    1.03    1.43   124.78805   116.07264   400.19293
   354  H   1.0    0.14    1.11    1.45   124.43656   111.94359   400.51230
   355  N   5.0   -0.11    3.47    2.06   117.10065   125.26426   393.11591
   356  C   4.0    0.05    4.40    4.37   116.49594   127.92689   392.85135
   357  C   4.0    0.15    3.49    3.11   114.22637   128.14043   391.08634
   358  O   6.0   -0.30    1.36    1.80   114.21693   126.93856   389.11536
   359  C   4.0    0.03    4.13    3.85   118.76361   129.44623   391.84601
   360  O   6.0   -0.24    2.01    1.83   120.80262   129.53127   393.61480
   361  H   1.0    0.10    1.06    1.44   118.72770   124.73514   392.22774
   362  H   1.0    0.07    1.07    1.44   116.03295   128.74703   394.68438
   363  H   1.0    0.06    1.01    1.43   119.43257   128.55995   390.11125
   364  H   1.0    0.04    1.01    1.43   118.14567   131.37375   391.46051
   365  H   1.0    0.11    1.00    1.43   122.20858   130.51014   392.91371
   366  N   5.0   -0.10    3.67    2.24   112.28374   129.64654   391.77798
   367  C   4.0    0.04    4.60    4.66   110.03685   129.75425   390.16605
   368  C   4.0    0.15    3.43    3.09   110.43747   131.04683   387.62437
   369  O   6.0   -0.31    1.30    1.80   109.03152   130.49314   385.86503
   370  C   4.0   -0.05    4.39    4.37   108.13390   131.23013   391.76476
   371  C   4.0   -0.04    4.32    4.23   109.21671   131.26981   394.37258
   372  C   4.0   -0.01    4.37    4.33   111.99650   131.38131   393.92660
   373  H   1.0    0.06    1.07    1.44   109.35466   127.83807   389.84290
   374  H   1.0    0.04    1.03    1.43   107.93359   133.14253   391.02398
   375  H   1.0    0.04    1.03    1.43   106.31031   130.27204   391.74208
   376  H   1.0    0.04    1.03    1.43   108.55531   132.93088   395.39681
   377  H   1.0    0.05    1.03    1.43   108.69137   129.55961   395.39114
   378  H   1.0    0.04    1.02    1.43   112.59743   133.28804   393.43338
   379  H   1.0    0.06    1.02    1.43   113.04341   130.71612   395.57066
   380  N   5.0   -0.15    3.36    2.00   112.35177   132.68144   387.40138
   381  C   4.0    0.01    4.23    4.07   113.10577   133.70756   384.93151
   382  C   4.0    0.16    3.34    3.06   113.11333   131.76492   382.78856
   383  O   6.0   -0.31    1.21    1.80   112.45759   132.31672   380.59648
   384  H   1.0    0.07    1.05    1.44   113.41001   133.32772   388.87725
   385  H   1.0    0.05    1.03    1.43   111.80375   135.21745   384.41183
   386  H   1.0    0.03    1.02    1.43   115.00683   134.48613   385.08646
   387  N   5.0   -0.14    3.53    2.10   113.83898   129.46135   383.44807
   388  C   4.0    0.03    4.41    4.40   114.18669   127.47146   381.61504
   389  C   4.0    0.15    3.42    3.08   111.79619   126.02582   380.90261
   390  O   6.0   -0.32    1.28    1.80   111.80375   124.65010   379.04879
   391  C   4.0    0.03    4.17    3.95   116.18602   125.64599   382.61848
   392  O   6.0   -0.23    2.08    1.84   115.43769   124.68223   384.98442
   393  H   1.0    0.09    1.09    1.44   114.20181   128.91899   385.26221
   394  H   1.0    0.05    1.07    1.44   114.84620   128.31995   379.85759
   395  H   1.0    0.05    1.02    1.43   116.40523   124.08696   381.29189
   396  H   1.0    0.04    1.01    1.43   117.97370   126.64943   382.83013
   397  H   1.0    0.16    1.10    1.44   115.22793   126.06740   386.19573
   398  N   5.0   -0.14    3.48    2.07   109.72883   126.35275   382.27644
   399  C   4.0    0.03    4.48    4.51   107.61044   124.57451   382.02511
   400  C   4.0    0.16    3.43    3.09   106.19504   124.86931   379.56657
   401  O   6.0   -0.32    1.29    1.80   105.76418   122.98903   378.27022
   402  C   4.0   -0.04    4.29    4.19   105.83410   124.79183   384.26443
   403  C   4.0   -0.02    3.68    3.22   107.07943   124.11531   386.73808
   404  C   4.0    0.00    3.62    3.18   109.37356   122.94179   387.09146
   405  C   4.0   -0.00    3.89    3.45   106.06087   124.50081   389.20040
   406  N   5.0   -0.11    3.48    2.06   109.83843   122.60731   389.61992
   407  C   4.0    0.03    3.90    3.46   107.83910   123.54083   390.95784
   408  C   4.0   -0.05    3.40    3.08   103.81587   125.57040   390.10558
   409  C   4.0   -0.05    3.40    3.08   107.42903   123.61075   393.54488
   410  C   4.0   -0.05    3.37    3.07   103.40013   125.62709   392.67749
   411  C   4.0   -0.05    3.38    3.07   105.19159   124.64443   394.37258
   412  H   1.0    0.11    1.09    1.44   109.45104   127.77760   383.54445
   413  H   1.0    0.05    1.07    1.44   108.40980   122.67534   382.02511
   414  H   1.0    0.05    1.03    1.43   105.16325   126.73447   384.40049
   415  H   1.0    0.04    1.03    1.43   104.24295   123.51438   383.98286
   416  H   1.0    0.06    1.01    1.43   110.63023   122.36542   385.59102
   417  H   1.0    0.11    1.06    1.44   111.41635   121.79662   390.37581
   418  H   1.0    0.05    1.03    1.43   102.43448   126.33763   388.81300
   419  H   1.0    0.06    1.03    1.43   108.81042   122.88321   394.85824
   420  H   1.0    0.05    1.03    1.43   101.67293   126.43778   393.39937
   421  H   1.0    0.05    1.03    1.43   104.80231   124.70113   396.37569
   422  N   5.0   -0.14    3.45    2.04   105.51474   127.20501   378.90895
   423  C   4.0    0.04    4.44    4.44   104.21461   127.69634   376.50900
   424  C   4.0    0.15    3.45    3.10   105.75095   126.77227   374.22243
   425  O   6.0   -0.29    1.23    1.80   104.79475   125.23781   372.77679
   426  C   4.0   -0.04    4.25    4.10   103.35856   130.46668   376.29735
   427  C   4.0    0.24    3.12    3.03   100.85845   130.95234   377.64661
   428  O   6.0   -0.29    1.20    1.80    99.51864   129.11553   378.31558
   429  O   6.0   -0.30    1.17    1.80   100.19705   133.18033   378.03023
   430  H   1.0    0.08    1.06    1.44   105.82843   128.77915   379.97476
   431  H   1.0    0.07    1.08    1.44   102.46283   126.61353   376.53167
   432  H   1.0    0.05    1.03    1.43   104.78908   131.67988   377.14584
   433  H   1.0    0.04    1.03    1.43   103.11668   130.94667   374.30936
   434  N   5.0   -0.10    3.63    2.19   108.14146   127.60563   373.95409
   435  C   4.0    0.03    4.57    4.63   109.88189   126.65888   371.99633
   436  C   4.0    0.16    3.43    3.09   109.98394   123.79217   371.63728
   437  O   6.0   -0.29    1.22    1.80   109.93103   122.84541   369.51134
   438  C   4.0   -0.05    4.41    4.39   112.45381   127.55839   372.96387
   439  C   4.0   -0.04    4.30    4.20   111.88878   130.00181   374.19786
   440  C   4.0   -0.01    4.37    4.34   109.34143   129.65977   375.42052
   441  H   1.0    0.05    1.05    1.44   109.31876   127.55272   370.22755
   442  H   1.0    0.05    1.03    1.43   113.22104   126.20157   374.31125
   443  H   1.0    0.03    1.03    1.43   113.75961   127.80217   371.38973
   444  H   1.0    0.05    1.03    1.43   113.32875   130.42133   375.60949
   445  H   1.0    0.03    1.03    1.43   111.82831   131.50036   372.78624
   446  H   1.0    0.06    1.03    1.43   109.55308   129.11364   377.39528
   447  H   1.0    0.04    1.02    1.43   108.23405   131.39076   375.28446
   448  N   5.0   -0.14    3.54    2.11   110.17858   122.46369   373.73677
   449  C   4.0    0.04    4.56    4.61   110.34110   119.75004   373.75567
   450  C   4.0    0.16    3.58    3.16   107.97516   118.68613   372.65207
   451  O   6.0   -0.31    1.32    1.80   108.06587   117.12332   370.95698
   452  C   4.0   -0.02    4.40    4.38   110.60566   118.75227   376.47876
   453  C   4.0   -0.05    4.22    4.04   113.29852   119.18124   377.40662
   454  C   4.0   -0.08    4.15    3.91   109.94992   115.94414   376.67151
   455  C   4.0   -0.07    4.02    3.66   113.53285   119.20013   380.25255
   456  H   1.0    0.10    1.08    1.44   110.22960   123.23848   375.49988
   457  H   1.0    0.05    1.06    1.44   111.99272   119.19635   372.65585
   458  H   1.0    0.06    1.06    1.44   109.27151   119.79351   377.65417
   459  H   1.0    0.03    1.03    1.43   114.49850   117.67135   376.68474
   460  H   1.0    0.05    1.04    1.43   113.95992   121.00293   376.70742
   461  H   1.0    0.04    1.00    1.43   110.16724   115.33753   378.62738
   462  H   1.0    0.05    1.01    1.43   108.00162   115.66635   376.06113
   463  H   1.0    0.04    1.00    1.43   111.22549   114.87266   375.45831
   464  H   1.0    0.04    1.00    1.43   115.50383   119.51383   380.76088
   465  H   1.0    0.06    1.01    1.43   112.36122   120.71380   381.01222
   466  H   1.0    0.04    1.00    1.43   112.89790   117.38411   380.98954
   467  N   5.0   -0.14    3.51    2.09   105.84355   119.48359   373.68764
   468  C   4.0    0.04    4.40    4.38   103.42659   118.54818   372.81647
   469  C   4.0    0.09    3.26    3.05   103.23762   118.77872   369.90630
   470  O   6.0   -0.30    1.10    1.80   102.75763   116.90790   368.56081
   471  C   4.0    0.05    4.26    4.12   101.25530   119.99949   374.09015
   472  O   6.0   -0.26    2.16    1.85   101.46506   119.80674   376.76411
   473  C   4.0   -0.07    4.15    3.90    98.81377   118.89589   373.35316
   474  H   1.0    0.11    1.09    1.44   105.73017   120.76672   375.12194
   475  H   1.0    0.05    1.06    1.44   103.24707   116.56586   373.34560
   476  H   1.0    0.06    1.05    1.44   101.33844   121.97425   373.51378
   477  H   1.0    0.14    1.04    1.43   103.07699   120.52294   377.32536
   478  H   1.0    0.04    1.00    1.43    97.27364   119.92579   374.25456
   479  H   1.0    0.04    1.01    1.43    98.58133   119.00171   371.30847
   480  H   1.0    0.05    1.03    1.43    98.72873   116.92112   373.93519
   481  N   5.0   -0.20    3.21    1.96   107.99028   114.12244   366.46699
   482  C   4.0    0.03    4.23    4.06   107.18715   111.49950   366.57471
   483  C   4.0    0.07    3.20    3.04   104.73806   111.06108   365.13285
   484  O   6.0   -0.31    1.12    1.80   104.25618   108.94837   364.30704
   485  C   4.0   -0.04    4.36    4.32   106.89991   110.63779   369.30536
   486  C   4.0   -0.03    4.19    3.98   109.34332   110.24094   370.81525
   487  C   4.0   -0.08    4.11    3.82   108.72916   109.70237   373.56669
   488  C   4.0   -0.08    4.10    3.81   110.93636   108.09043   369.73622
   489  H   1.0    0.12    1.07    1.44   107.89012   115.06541   368.14507
   490  H   1.0    0.04    1.06    1.44   108.65357   110.34677   365.70166
   491  H   1.0    0.05    1.04    1.43   105.79631   112.05886   370.30692
   492  H   1.0    0.04    1.04    1.43   105.89457   108.83877   369.30158
   493  H   1.0    0.04    1.06    1.44   110.45826   111.96815   370.68864
   494  H   1.0    0.04    1.00    1.43   110.48661   109.42647   374.60415
   495  H   1.0    0.04    1.00    1.43   107.69548   111.30297   374.34904
   496  H   1.0    0.04    1.00    1.43   107.57454   107.99973   373.67441
   497  H   1.0    0.04    1.00    1.43   112.64467   107.88634   370.87006
   498  H   1.0    0.04    1.00    1.43   109.84032   106.34811   369.79669
   499  H   1.0    0.04    1.00    1.43   111.43525   108.53830   367.78791
   500  N   5.0   -0.21    3.25    1.97   107.01140    97.95205   371.26690
   501  C   4.0    0.03    4.31    4.22   108.28319    99.69627   372.94497
   502  C   4.0    0.15    3.43    3.09   106.50118   101.85245   373.67441
   503  O   6.0   -0.32    1.31    1.80   106.38401   102.62535   375.83815
   504  C   4.0   -0.05    4.28    4.16   110.67936   100.74885   371.69776
   505  C   4.0   -0.04    4.18    3.96   112.58042    98.79298   370.74533
   506  C   4.0    0.24    3.13    3.03   112.15712    98.00119   368.01279
   507  O   6.0   -0.31    1.20    1.80   110.74550    99.21439   366.56337
   508  O   6.0   -0.31    1.20    1.80   113.22104    96.07745   367.27580
   509  H   1.0    0.10    1.04    1.43   107.53297    98.14103   369.42064
   510  H   1.0    0.04    1.06    1.44   108.87278    98.69661   374.64762
   511  H   1.0    0.05    1.04    1.43   110.11433   101.88646   370.07637
   512  H   1.0    0.04    1.03    1.43   111.65824   101.92615   373.07726
   513  H   1.0    0.04    1.03    1.43   114.47582    99.58856   370.88139
   514  H   1.0    0.04    1.03    1.43   112.43869    97.10546   371.91696
   515  N   5.0   -0.15    3.47    2.06   105.10278   102.82377   371.86027
   516  C   4.0    0.03    4.33    4.25   103.09211   104.59822   372.43286
   517  C   4.0    0.08    3.26    3.04   101.27986   103.65714   374.48510
   518  O   6.0   -0.32    1.14    1.80   100.49185   105.13490   376.11782
   519  C   4.0   -0.05    4.38    4.34   101.57466   105.14057   370.04614
   520  C   4.0   -0.02    4.20    4.00    99.34289   106.99061   370.18409
   521  C   4.0   -0.07    4.10    3.81   100.11201   109.72883   370.60171
   522  C   4.0   -0.08    4.13    3.87    97.91237   106.80731   367.71988
   523  H   1.0    0.07    1.06    1.44   105.30498   102.42882   369.98377
   524  H   1.0    0.05    1.06    1.44   103.98595   106.31976   373.12450
   525  H   1.0    0.05    1.04    1.43   102.87857   105.90591   368.64774
   526  H   1.0    0.04    1.04    1.43   100.80365   103.34911   369.38473
   527  H   1.0    0.04    1.06    1.44    98.19016   106.47094   371.80925
   528  H   1.0    0.04    1.00    1.43    98.41693   110.89857   370.67352
   529  H   1.0    0.04    1.00    1.43   101.14191   109.87245   372.37995
   530  H   1.0    0.05    1.00    1.43   101.31577   110.33165   369.04269
   531  H   1.0    0.03    1.00    1.43    96.31555   108.10744   367.77280
   532  H   1.0    0.05    1.00    1.43    99.17471   107.30998   366.17220
   533  H   1.0    0.03    1.00    1.43    97.23963   104.87601   367.47800
   534  N   5.0   -0.19    3.21    1.96   102.44015    99.59423   379.02233
   535  C   4.0    0.03    4.36    4.30   103.94627    99.84178   381.32024
   536  C   4.0    0.15    3.44    3.09   103.85934   102.56110   382.28589
   537  O   6.0   -0.33    1.29    1.80   103.23951   103.04676   384.48553
   538  C   4.0    0.05    4.23    4.06   106.76574    99.09534   380.94796
   539  O   6.0   -0.27    2.09    1.84   107.00384    96.71806   379.67429
   540  C   4.0   -0.08    4.11    3.81   108.04130    98.83078   383.47075
   541  H   1.0    0.10    1.03    1.43   103.43982    98.86290   377.54457
   542  H   1.0    0.04    1.06    1.44   103.13746    98.52653   382.68462
   543  H   1.0    0.05    1.05    1.44   107.66525   100.56744   379.82358
   544  H   1.0    0.11    1.01    1.43   108.79341    96.28910   379.46264
   545  H   1.0    0.03    1.00    1.43   110.01607    98.30921   383.20997
   546  H   1.0    0.04    1.00    1.43   107.95059   100.61468   384.49687
   547  H   1.0    0.04    1.00    1.43   107.10589    97.37191   384.58380
   548  N   5.0   -0.14    3.50    2.08   104.44515   104.33366   380.63049
   549  C   4.0    0.04    4.47    4.50   104.55098   106.98683   381.38638
   550  C   4.0    0.16    3.48    3.11   102.06599   107.94871   382.43707
   551  O   6.0   -0.32    1.33    1.80   102.04709   109.44159   384.22475
   552  C   4.0   -0.04    4.35    4.30   105.36734   108.61389   379.17351
   553  C   4.0   -0.02    3.78    3.31   105.11223   111.34643   379.57980
   554  C   4.0   -0.01    3.66    3.21   103.72328   112.95270   378.18519
   555  C   4.0    0.01    3.95    3.54   106.28953   112.81475   381.47709
   556  N   5.0   -0.12    3.52    2.09   103.96516   115.35643   379.06202
   557  C   4.0    0.03    3.94    3.53   105.52986   115.32431   381.10670
   558  C   4.0   -0.05    3.42    3.08   107.94682   112.26106   383.44618
   559  C   4.0   -0.06    3.41    3.08   106.33299   117.28773   382.63738
   560  C   4.0   -0.05    3.37    3.07   108.75562   114.20181   384.98631
   561  C   4.0   -0.05    3.39    3.07   107.92225   116.69247   384.58947
   562  H   1.0    0.11    1.09    1.44   104.85333   104.01619   378.77289
   563  H   1.0    0.05    1.07    1.44   105.95315   107.13990   382.88682
   564  H   1.0    0.04    1.05    1.44   107.35155   108.23027   378.77667
   565  H   1.0    0.05    1.04    1.43   104.21461   108.12067   377.53890
   566  H   1.0    0.05    1.02    1.43   102.57432   112.40846   376.58837
   567  H   1.0    0.09    1.07    1.44   103.11857   116.91923   378.31558
   568  H   1.0    0.05    1.03    1.43   108.58554   110.34866   383.75988
   569  H   1.0    0.05    1.03    1.43   105.73017   119.20958   382.30479
   570  H   1.0    0.04    1.03    1.43   110.04630   113.80308   386.51699
   571  H   1.0    0.05    1.03    1.43   108.54964   118.16834   385.85180
   572  N   5.0   -0.14    3.39    2.02    99.98540   107.06809   381.32780
   573  C   4.0    0.02    4.26    4.12    97.45317   107.74461   382.19707
   574  C   4.0    0.17    3.35    3.06    97.02609   106.95282   384.90883
   575  O   6.0   -0.30    1.25    1.80    96.37413   108.52129   386.46974
   576  H   1.0    0.10    1.08    1.44    99.98351   105.87568   379.81413
   577  H   1.0    0.05    1.03    1.43    97.20183   109.78363   382.06101
   578  H   1.0    0.05    1.03    1.43    96.04721   106.81487   381.01222
   579  N   5.0   -0.13    3.45    2.05    97.46262   104.53586   385.46063
   580  C   4.0    0.03    4.42    4.42    97.45317   103.57777   388.07034
   581  C   4.0    0.16    3.45    3.09    99.08778   105.13679   389.84479
   582  O   6.0   -0.29    1.20    1.80    98.22795   105.94938   391.90271
   583  C   4.0   -0.05    4.44    4.45    98.47929   100.90759   388.14782
   584  C   4.0   -0.03    4.20    4.01    96.71806    98.89314   387.13871
   585  C   4.0   -0.08    4.11    3.83    98.34134    96.65759   386.32612
   586  C   4.0   -0.08    4.09    3.78    94.74330    98.13725   389.12292
   587  H   1.0    0.08    1.06    1.44    97.83300   103.17526   384.14538
   588  H   1.0    0.05    1.06    1.44    95.49163   103.64580   388.69395
   589  H   1.0    0.05    1.05    1.44   100.20083   100.84145   387.01965
   590  H   1.0    0.04    1.04    1.43    98.90259   100.43138   390.10747
   591  H   1.0    0.04    1.06    1.44    95.64281    99.58667   385.52299
   592  H   1.0    0.03    1.00    1.43    97.11869    95.17227   385.58913
   593  H   1.0    0.04    1.00    1.43    99.65281    97.27742   384.86348
   594  H   1.0    0.03    1.00    1.43    99.38825    95.96028   387.95696
   595  H   1.0    0.03    1.00    1.43    93.51498    96.68783   388.32734
   596  H   1.0    0.04    1.00    1.43    95.71084    97.40403   390.78588
   597  H   1.0    0.04    1.00    1.43    93.63403    99.79643   389.63126
   598  N   5.0   -0.14    3.50    2.08   101.44616   105.50907   389.01143
   599  C   4.0    0.04    4.54    4.59   103.37557   106.76763   390.51754
   600  C   4.0    0.16    3.55    3.14   102.69527   109.45671   391.07501
   601  O   6.0   -0.32    1.29    1.80   102.84078   110.23716   393.24063
   602  C   4.0   -0.02    4.32    4.24   105.95126   106.74117   389.20607
   603  C   4.0   -0.08    4.15    3.90   107.78052   108.62712   390.40604
   604  C   4.0   -0.08    4.13    3.85   107.04731   104.09933   389.33268
   605  H   1.0    0.11    1.10    1.44   102.07733   104.94971   387.27855
   606  H   1.0    0.05    1.07    1.44   103.47194   105.69804   392.27498
   607  H   1.0    0.05    1.06    1.44   105.69615   107.30053   387.24075
   608  H   1.0    0.03    1.00    1.43   109.58143   108.54019   389.41205
   609  H   1.0    0.05    1.01    1.43   106.98494   110.52062   390.25486
   610  H   1.0    0.04    1.00    1.43   108.04697   108.13390   392.38837
   611  H   1.0    0.03    1.00    1.43   108.88223   104.08988   388.39726
   612  H   1.0    0.04    1.00    1.43   107.26273   103.55698   391.30744
   613  H   1.0    0.05    1.00    1.43   105.76607   102.79542   388.38215
   614  N   5.0   -0.14    3.52    2.09   101.99040   110.87400   389.13426
   615  C   4.0    0.03    4.43    4.43   101.35734   113.51773   389.51787
   616  C   4.0    0.15    3.47    3.10    99.14258   113.84654   391.32634
   617  O   6.0   -0.32    1.26    1.80    99.06888   115.70414   392.80599
   618  C   4.0   -0.04    4.34    4.28   100.78286   114.84809   387.02343
   619  C   4.0   -0.02    4.20    4.00    99.94950   117.65245   387.16705
   620  C   4.0   -0.07    4.12    3.84   101.84489   119.34753   388.47852
   621  C   4.0   -0.08    4.12    3.85    99.53187   118.68991   384.53655
   622  H   1.0    0.12    1.13    1.45   101.84111   110.26173   387.31256
   623  H   1.0    0.05    1.06    1.44   103.01841   114.41535   390.34179
   624  H   1.0    0.05    1.03    1.43   102.48551   114.78762   385.86692
   625  H   1.0    0.06    1.03    1.43    99.26163   113.81819   386.09180
   626  H   1.0    0.05    1.06    1.44    98.21095   117.67701   388.27254
   627  H   1.0    0.04    1.00    1.43   101.11924   121.27505   388.49742
   628  H   1.0    0.05    1.00    1.43   102.11890   118.68046   390.40793
   629  H   1.0    0.04    1.00    1.43   103.62879   119.27950   387.45240
   630  H   1.0    0.04    1.00    1.43    98.94794   120.66089   384.67828
   631  H   1.0    0.05    1.00    1.43   101.29120   118.55385   383.47453
   632  H   1.0    0.04    1.00    1.43    98.06166   117.58631   383.60681
   633  N   5.0   -0.13    3.39    2.02    97.34923   112.08154   391.20918
   634  C   4.0    0.02    4.27    4.14    95.20439   112.11555   392.95528
   635  C   4.0    0.16    3.34    3.06    96.03587   112.18358   395.68972
   636  O   6.0   -0.31    1.23    1.80    94.95306   113.56119   397.25252
   637  H   1.0    0.11    1.06    1.44    97.32278   110.62267   389.94873
   638  H   1.0    0.05    1.03    1.43    94.04977   113.78040   392.58490
   639  H   1.0    0.05    1.03    1.43    94.06111   110.42803   392.66427
   640  N   5.0   -0.13    3.51    2.08    97.99552   110.68314   396.19427
   641  C   4.0    0.04    4.38    4.35    99.15392   110.44692   398.67737
   642  C   4.0    0.16    3.50    3.11   100.50318   112.80152   399.44271
   643  O   6.0   -0.32    1.30    1.80   100.29720   113.62733   401.55354
   644  C   4.0   -0.07    4.14    3.89   101.01908   108.27185   398.70194
   645  H   1.0    0.11    1.08    1.44    98.85156   109.56820   394.87524
   646  H   1.0    0.06    1.06    1.44    97.64592   110.07276   400.02853
   647  H   1.0    0.05    1.00    1.43   101.86001   108.13201   400.57655
   648  H   1.0    0.05    1.00    1.43   100.02130   106.52763   398.24652
   649  H   1.0    0.06    1.01    1.43   102.48551   108.62901   397.29976
   650  N   5.0   -0.14    3.54    2.11   101.93560   113.86733   397.73062
   651  C   4.0    0.03    4.44    4.45   103.23762   116.20303   398.29376
   652  C   4.0    0.16    3.44    3.09   101.37624   118.33086   399.02130
   653  O   6.0   -0.32    1.28    1.80   101.75796   119.70658   400.87512
   654  C   4.0   -0.05    4.39    4.37   104.79664   117.01561   396.02042
   655  C   4.0   -0.03    4.21    4.02   106.78085   115.15423   395.05855
   656  C   4.0   -0.08    4.10    3.81   107.97516   116.14067   392.63403
   657  C   4.0   -0.08    4.13    3.86   108.75562   114.71392   397.06922
   658  H   1.0    0.10    1.08    1.44   102.23795   113.17947   395.95617
   659  H   1.0    0.05    1.06    1.44   104.49240   115.87044   399.89247
   660  H   1.0    0.05    1.04    1.43   103.50218   117.37277   394.45950
   661  H   1.0    0.04    1.04    1.43   105.79064   118.74849   396.52120
   662  H   1.0    0.05    1.06    1.44   105.89268   113.34576   394.62958
   663  H   1.0    0.04    1.00    1.43   109.38301   114.78573   391.98018
   664  H   1.0    0.04    1.00    1.43   106.50684   116.36932   391.20729
   665  H   1.0    0.04    1.00    1.43   108.87089   117.95480   393.01764
   666  H   1.0    0.03    1.00    1.43   110.15591   113.38167   396.35490
   667  H   1.0    0.04    1.00    1.43   109.66080   116.50727   397.52464
   668  H   1.0    0.04    1.00    1.43   107.84477   113.94103   398.74729
   669  N   5.0   -0.14    3.52    2.09    99.34478   118.57652   397.58511
   670  C   4.0    0.04    4.47    4.49    97.55521   120.60231   398.05376
   671  C   4.0    0.16    3.47    3.10    96.19272   120.18468   400.52741
   672  O   6.0   -0.31    1.27    1.80    95.81477   121.94968   402.00518
   673  C   4.0   -0.05    4.29    4.19    95.66738   120.74971   395.89381
   674  C   4.0   -0.05    4.20    3.99    96.88625   121.58308   393.43149
   675  C   4.0   -0.05    4.16    3.92    95.05510   122.18779   391.29043
   676  C   4.0   -0.05    4.12    3.84    94.58645   125.03750   390.98619
   677  N   5.0   -0.12    4.01    2.88    93.89292   125.59875   388.32545
   678  H   1.0    0.11    1.09    1.44    98.88936   117.42568   396.10735
   679  H   1.0    0.05    1.06    1.44    98.56622   122.39566   398.15203
   680  H   1.0    0.05    1.03    1.43    94.83401   118.88833   395.59901
   681  H   1.0    0.04    1.03    1.43    94.19906   122.11031   396.37569
   682  H   1.0    0.04    1.04    1.43    97.98796   123.28572   393.79432
   683  H   1.0    0.05    1.04    1.43    98.12024   120.07130   392.77198
   684  H   1.0    0.04    1.03    1.43    95.83367   121.47914   389.51976
   685  H   1.0    0.04    1.03    1.43    93.24475   121.28261   391.67783
   686  H   1.0    0.03    1.02    1.43    93.04066   125.62520   392.21451
   687  H   1.0    0.03    1.02    1.43    96.29854   126.08063   391.46051
   688  H   1.0    0.05    1.01    1.43    93.57356   127.52627   388.10625
   689  H   1.0    0.05    1.02    1.43    95.34801   125.05261   387.12170
   690  H   1.0    0.04    1.02    1.43    92.26020   124.62176   387.83602
   691  N   5.0   -0.14    3.52    2.09    95.44439   117.82819   400.94693
   692  C   4.0    0.04    4.37    4.33    94.29166   117.03829   403.32421
   693  C   4.0    0.17    3.49    3.11    95.83178   118.02472   405.53141
   694  O   6.0   -0.32    1.29    1.80    94.92282   119.30785   407.23027
   695  C   4.0   -0.07    4.13    3.86    94.15749   114.16023   403.42625
   696  H   1.0    0.11    1.09    1.44    95.60879   116.39767   399.66570
   697  H   1.0    0.05    1.05    1.44    92.37547   117.78284   403.44515
   698  H   1.0    0.05    1.00    1.43    93.29388   113.59143   405.20827
   699  H   1.0    0.06    1.00    1.43    93.01987   113.48560   401.84644
   700  H   1.0    0.06    1.00    1.43    96.06611   113.39490   403.29586
   701  N   5.0   -0.13    3.59    2.15    98.24307   117.44080   405.35378
   702  C   4.0    0.04    4.40    4.39   100.03264   117.82063   407.33421
   703  C   4.0    0.16    3.46    3.10   100.46539   120.58530   407.74617
   704  O   6.0   -0.30    1.25    1.80   100.52019   121.39977   409.89101
   705  C   4.0   -0.07    4.14    3.88   102.49496   116.50349   406.65013
   706  H   1.0    0.11    1.10    1.44    99.03865   116.66412   403.77963
   707  H   1.0    0.06    1.06    1.44    99.32211   117.00427   409.08598
   708  H   1.0    0.04    1.00    1.43   103.85745   116.79829   408.16758
   709  H   1.0    0.05    1.00    1.43   102.13402   114.48905   406.41013
   710  H   1.0    0.06    1.00    1.43   103.21683   117.30096   404.89457
   711  N   5.0   -0.14    3.46    2.05   100.79420   121.99882   405.69204
   712  C   4.0    0.04    4.34    4.27   100.99262   124.77482   405.81109
   713  C   4.0    0.16    3.36    3.07    98.67582   126.00693   407.16602
   714  O   6.0   -0.26    1.21    1.80    99.02542   127.70579   408.78174
   715  C   4.0   -0.05    4.23    4.06   101.47828   125.87842   403.15602
   716  C   4.0   -0.05    4.15    3.89   101.71450   128.74892   403.05209
   717  C   4.0   -0.01    4.12    3.84   103.53431   129.77882   401.01874
   718  N   5.0   -0.14    3.29    1.98   102.57999   131.02226   398.67359
   719  C   4.0    0.09    3.29    3.05   100.52019   130.44967   397.26386
   720  N   5.0   -0.19    3.20    1.96    98.86101   128.59207   397.82322
   721  N   5.0   -0.19    3.22    1.96   100.09311   131.81972   395.17760
   722  H   1.0    0.11    1.10    1.44   100.93404   121.29584   403.90247
   723  H   1.0    0.06    1.06    1.44   102.63291   125.26993   406.95437
   724  H   1.0    0.04    1.03    1.43   103.23762   125.08852   402.43415
   725  H   1.0    0.05    1.03    1.43    99.90981   125.34363   401.93148
   726  H   1.0    0.05    1.03    1.43    99.85312   129.54260   402.66658
   727  H   1.0    0.05    1.03    1.43   102.39858   129.41221   404.87756
   728  H   1.0    0.06    1.03    1.43   104.73050   131.17911   401.94093
   729  H   1.0    0.04    1.03    1.43   104.67570   128.18956   400.37813
   730  H   1.0    0.08    1.06    1.44   103.62501   132.51325   398.04243
   731  H   1.0    0.08    1.04    1.43    99.11991   127.51115   399.39925
   732  H   1.0    0.08    1.02    1.43    97.35112   128.27082   396.67048
   733  H   1.0    0.08    1.02    1.43   101.30065   133.24269   394.69383
   734  H   1.0    0.08    1.02    1.43    98.56055   131.43989   394.07211
   735  N   5.0   -0.13    3.43    2.03    96.36657   125.10553   406.59721
   736  C   4.0    0.05    4.44    4.44    94.07245   126.25826   407.65735
   737  C   4.0    0.16    3.46    3.10    93.78521   125.53449   410.40501
   738  O   6.0   -0.26    1.22    1.80    93.50175   127.13320   412.09443
   739  C   4.0   -0.04    4.30    4.19    91.65738   125.46080   406.19281
   740  C   4.0   -0.04    4.21    4.02    89.28010   126.70235   407.19437
   741  C   4.0    0.25    3.14    3.03    89.37459   129.55772   406.96004
   742  O   6.0   -0.29    1.22    1.80    90.94306   130.48558   405.46716
   743  O   6.0   -0.29    1.17    1.80    87.92895   130.89187   408.26584
   744  H   1.0    0.11    1.08    1.44    96.03209   123.60886   405.43125
   745  H   1.0    0.08    1.06    1.44    94.26142   128.30105   407.46649
   746  H   1.0    0.06    1.03    1.43    91.86903   125.99559   404.21427
   747  H   1.0    0.05    1.03    1.43    91.42305   123.41989   406.34966
   748  H   1.0    0.04    1.03    1.43    87.65872   126.02204   406.12100
   749  H   1.0    0.05    1.03    1.43    89.05711   126.22802   409.18614
   750  N   5.0   -0.14    3.51    2.08    93.86458   123.06651   410.78485
   751  C   4.0    0.04    4.39    4.36    93.47718   121.94213   413.23204
   752  C   4.0    0.16    3.37    3.07    95.36880   122.67345   415.34098
   753  O   6.0   -0.30    1.26    1.80    94.67338   122.51660   417.52550
   754  C   4.0   -0.04    4.29    4.17    93.33356   119.06785   412.93536
   755  C   4.0   -0.03    4.17    3.95    92.60035   117.61087   415.30696
   756  C   4.0    0.22    3.12    3.03    92.48319   114.77440   414.82319
   757  O   6.0   -0.30    1.15    1.80    90.91283   113.88055   413.31897
   758  O   6.0   -0.29    1.15    1.80    94.16693   113.32875   416.07797
   759  H   1.0    0.11    1.13    1.45    94.20095   121.77205   409.39779
   760  H   1.0    0.06    1.07    1.44    91.68194   122.67156   413.92935
   761  H   1.0    0.06    1.03    1.43    91.92950   118.63511   411.49160
   762  H   1.0    0.06    1.03    1.43    95.18550   118.38377   412.34387
   763  H   1.0    0.06    1.03    1.43    94.00064   117.95858   416.77717
   764  H   1.0    0.05    1.03    1.43    90.74275   118.23448   415.94002
   765  N   5.0   -0.11    3.40    2.02    97.68938   123.47280   414.77406
   766  C   4.0    0.04    4.28    4.16    99.54698   124.14933   416.79229
   767  C   4.0    0.07    3.20    3.04   100.60334   126.82707   416.52395
   768  O   6.0   -0.25    1.15    1.80   100.19894   128.09507   414.59642
   769  C   4.0   -0.04    4.26    4.12   101.83166   122.36542   416.85465
   770  C   4.0   -0.03    4.22    4.04   101.27608   119.53650   416.93402
   771  C   4.0    0.15    3.22    3.04   100.15359   118.58786   419.39255
   772  O   6.0   -0.30    1.22    1.80   100.81310   119.52706   421.41456
   773  N   5.0   -0.18    3.18    1.95    98.53976   116.69058   419.25649
   774  H   1.0    0.12    1.05    1.44    98.35835   123.67878   412.97882
   775  H   1.0    0.07    1.07    1.44    98.46795   124.02460   418.54217
   776  H   1.0    0.05    1.03    1.43   102.95416   122.70935   415.16145
   777  H   1.0    0.05    1.03    1.43   102.93715   122.80762   418.53461
   778  H   1.0    0.05    1.04    1.43    99.93627   119.09242   415.43357
   779  H   1.0    0.05    1.03    1.43   103.03920   118.51605   416.62788
   780  H   1.0    0.10    1.03    1.43    98.09567   115.92524   417.54440
   781  H   1.0    0.10    1.02    1.43    97.73663   115.99138   420.86276
   782  N   5.0   -0.22    3.21    1.96   107.10589   130.06228   415.73215
   783  C   4.0    0.04    4.27    4.14   109.33198   129.10986   414.49060
   784  C   4.0    0.07    3.23    3.04   111.64690   129.17789   416.21970
   785  O   6.0   -0.30    1.12    1.80   112.86955   127.27493   416.60331
   786  C   4.0    0.05    4.21    4.01   109.73261   130.59896   412.02073
   787  O   6.0   -0.24    2.09    1.84   109.92158   128.82829   410.03652
   788  C   4.0   -0.07    4.05    3.71   112.08532   132.41688   412.02451
   789  H   1.0    0.08    1.04    1.43   106.41236   131.66855   414.92146
   790  H   1.0    0.06    1.07    1.44   109.06553   127.12753   413.99927
   791  H   1.0    0.04    1.05    1.44   108.13201   131.86886   411.75995
   792  H   1.0    0.12    1.01    1.43   110.18047   129.70701   408.42647
   793  H   1.0    0.04    1.00    1.43   112.22704   133.39009   410.21415
   794  H   1.0    0.03    0.99    1.43   111.89256   133.81716   413.52306
   795  H   1.0    0.05    1.00    1.43   113.81064   131.33595   412.33820
   796  O   6.0   -0.39    2.12    1.84   125.99370   112.38578   403.21838
   797  H   1.0    0.17    1.03    1.43   127.50359   112.86955   403.13713
   798  H   1.0    0.18    1.04    1.43   125.36064   113.07364   404.50151
   799  O   6.0   -0.29    2.03    1.83    97.07333   131.00714   412.22671
   800  H   1.0    0.16    1.02    1.43    98.34701   131.95389   412.22671
   801  H   1.0    0.15    1.02    1.43    95.79777   131.95200   412.22671
   802  N   5.0   -0.22    3.23    1.96    90.85235   106.81109   375.01753
   803  C   4.0    0.03    4.29    4.17    92.03721   107.21738   377.43071
   804  C   4.0    0.07    3.23    3.04    90.32323   106.55787   379.59823
   805  O   6.0   -0.30    1.12    1.80    90.94684   104.93270   381.14024
   806  C   4.0   -0.05    4.44    4.45    92.90271   109.92725   377.62157
   807  C   4.0   -0.05    4.14    3.88    95.16471   110.33354   375.92649
   808  S   6.0   -0.05    2.58    3.10    96.74452   113.17002   376.77876
   809  C   4.0   -0.08    3.93    3.51    94.25575   115.22037   375.70350
   810  H   1.0    0.07    1.03    1.43    90.09268   108.38901   374.21062
   811  H   1.0    0.05    1.07    1.44    93.69072   105.99284   377.54410
   812  H   1.0    0.03    1.04    1.43    91.38715   111.18581   377.02064
   813  H   1.0    0.04    1.05    1.44    93.44128   110.35055   379.56421
   814  H   1.0    0.05    1.08    1.44    96.47618   108.75940   376.13058
   815  H   1.0    0.03    1.08    1.44    94.54488   110.48472   373.96873
   816  H   1.0    0.04    1.04    1.43    94.80566   117.17624   376.03987
   817  H   1.0    0.03    1.04    1.43    93.95528   114.91235   373.68905
   818  H   1.0    0.03    1.04    1.43    92.53232   114.78573   376.74474
   819  N   5.0   -0.23    3.22    1.96   130.20023   112.29319   412.11521
   820  C   4.0    0.03    4.33    4.26   128.88876   112.02484   409.67936
   821  C   4.0    0.15    3.44    3.09   126.11275   112.60688   409.95148
   822  O   6.0   -0.32    1.28    1.80   124.96569   113.76339   408.32064
   823  C   4.0   -0.05    4.29    4.17   129.21001   109.33954   408.59843
   824  C   4.0   -0.04    4.19    3.98   131.88397   108.75751   407.67058
   825  C   4.0    0.24    3.14    3.03   132.67577   110.44503   405.50306
   826  O   6.0   -0.32    1.22    1.80   131.00903   111.17258   403.99317
   827  O   6.0   -0.32    1.17    1.80   134.93966   111.06486   405.33677
   828  H   1.0    0.07    1.03    1.43   130.87108   110.63023   412.82386
   829  H   1.0    0.05    1.06    1.44   129.74480   113.34954   408.35466
   830  H   1.0    0.03    1.03    1.43   128.74703   107.97516   410.07053
   831  H   1.0    0.06    1.03    1.43   127.92878   109.11278   407.00162
   832  H   1.0    0.04    1.03    1.43   133.21245   109.03908   409.22015
   833  H   1.0    0.03    1.03    1.43   131.96334   106.80353   407.02240
   834  N   5.0   -0.15    3.55    2.11   125.05639   111.79619   412.06230
   835  C   4.0    0.03    4.44    4.44   122.39755   112.16279   412.56119
   836  C   4.0    0.15    3.43    3.09   121.94968   114.99360   412.97504
   837  O   6.0   -0.32    1.27    1.80   120.14878   116.04807   411.99427
   838  C   4.0   -0.05    4.29    4.18   121.61142   110.55275   414.80618
   839  C   4.0   -0.04    4.23    4.05   118.79762   110.16913   415.14067
   840  C   4.0    0.15    3.21    3.04   117.52206   108.47783   413.22826
   841  O   6.0   -0.31    1.21    1.80   118.64455   106.66936   412.33253
   842  N   5.0   -0.19    3.16    1.95   115.08998   109.01451   412.66323
   843  H   1.0    0.07    1.07    1.44   125.99748   110.87400   413.47015
   844  H   1.0    0.06    1.06    1.44   121.21458   111.53918   410.99461
   845  H   1.0    0.05    1.04    1.43   122.45991   108.68759   414.59076
   846  H   1.0    0.03    1.03    1.43   122.31251   111.45226   416.52206
   847  H   1.0    0.03    1.03    1.43   118.47826   109.33387   416.99638
   848  H   1.0    0.04    1.04    1.43   117.87921   112.00973   415.02917
   849  H   1.0    0.07    1.02    1.43   114.20748   110.50172   413.51550
   850  H   1.0    0.10    1.02    1.43   114.13756   107.93359   411.38389
   851  N   5.0   -0.15    3.47    2.06   123.67689   116.24649   414.29029
   852  C   4.0    0.03    4.36    4.30   123.53894   119.01305   414.60020
   853  C   4.0    0.15    3.44    3.09   123.77705   120.45302   412.12277
   854  O   6.0   -0.30    1.24    1.80   122.44857   122.29739   411.69003
   855  C   4.0   -0.09    4.12    3.85   125.58174   119.91256   416.38411
   856  H   1.0    0.07    1.06    1.44   125.18867   115.43202   415.16523
   857  H   1.0    0.05    1.06    1.44   121.68134   119.42123   415.39389
   858  H   1.0    0.04    1.00    1.43   125.44379   121.95724   416.58442
   859  H   1.0    0.03    1.00    1.43   125.31907   119.00738   418.21525
   860  H   1.0    0.03    1.00    1.43   127.42044   119.40422   415.60743
   861  N   5.0   -0.14    3.49    2.07   125.54016   119.63666   410.53918
   862  C   4.0    0.03    4.39    4.37   125.94268   120.79506   408.05608
   863  C   4.0    0.16    3.47    3.10   123.45580   120.77050   406.56131
   864  O   6.0   -0.31    1.25    1.80   122.78872   122.58274   405.22716
   865  C   4.0   -0.05    4.28    4.17   127.99870   119.34753   406.62178
   866  C   4.0   -0.05    4.17    3.94   128.82640   120.47759   404.10467
   867  C   4.0   -0.05    4.17    3.94   130.34952   118.61999   402.50029
   868  C   4.0   -0.04    4.14    3.88   132.83451   117.86410   403.73617
   869  N   5.0   -0.12    4.00    2.87   134.36140   116.21248   402.06187
   870  H   1.0    0.08    1.06    1.44   126.73447   118.17023   410.90768
   871  H   1.0    0.05    1.05    1.44   126.58140   122.74148   408.27718
   872  H   1.0    0.03    1.03    1.43   129.66922   119.24927   407.82176
   873  H   1.0    0.05    1.04    1.43   127.29572   117.45025   406.23439
   874  H   1.0    0.05    1.03    1.43   127.15588   121.02561   403.03130
   875  H   1.0    0.03    1.03    1.43   130.00748   122.12732   404.46371
   876  H   1.0    0.04    1.03    1.43   129.23647   116.91168   402.21116
   877  H   1.0    0.03    1.03    1.43   130.78037   119.49493   400.68615
   878  H   1.0    0.03    1.02    1.43   133.93244   119.55729   404.15002
   879  H   1.0    0.04    1.02    1.43   132.44333   116.83609   405.47661
   880  H   1.0    0.06    1.01    1.43   136.04515   115.72682   402.95193
   881  H   1.0    0.07    1.02    1.43   133.36363   114.57219   401.64424
   882  H   1.0    0.04    1.02    1.43   134.77336   117.15167   400.38569
   883  N   5.0   -0.13    3.54    2.11   122.09330   118.69180   406.81453
   884  C   4.0    0.04    4.48    4.51   119.69146   118.41590   405.55598
   885  C   4.0    0.17    3.52    3.12   117.88299   120.41523   406.45737
   886  O   6.0   -0.30    1.27    1.80   116.81719   121.77961   404.93993
   887  C   4.0   -0.04    4.41    4.39   118.69936   115.76083   406.00951
   888  C   4.0   -0.01    3.64    3.19   115.93280   115.46415   405.69959
   889  C   4.0   -0.04    3.54    3.13   114.90101   115.30730   403.36578
   890  C   4.0   -0.03    3.52    3.13   114.40023   115.19391   407.75940
   891  C   4.0   -0.05    3.42    3.08   112.34988   114.93691   403.03886
   892  C   4.0   -0.04    3.41    3.08   111.83398   114.80085   407.47405
   893  C   4.0   -0.05    3.40    3.08   110.79652   114.69314   405.09488
   894  H   1.0    0.11    1.08    1.44   122.60542   117.16868   407.87845
   895  H   1.0    0.06    1.07    1.44   119.89933   118.65211   403.52074
   896  H   1.0    0.04    1.04    1.43   119.61020   114.48716   404.67158
   897  H   1.0    0.06    1.05    1.44   119.16801   115.21092   407.93892
   898  H   1.0    0.05    1.05    1.44   116.10476   115.47548   401.72739
   899  H   1.0    0.06    1.03    1.43   115.20336   115.28840   409.63400
   900  H   1.0    0.04    1.03    1.43   111.56942   114.83865   401.15669
   901  H   1.0    0.05    1.03    1.43   110.64534   114.57786   409.11811
   902  H   1.0    0.04    1.03    1.43   108.78774   114.42102   404.85111
   903  N   5.0   -0.13    3.48    2.06   117.61465   120.66278   408.93103
   904  C   4.0    0.04    4.42    4.41   115.79107   122.46747   409.95526
   905  C   4.0    0.10    3.26    3.04   116.43168   125.12820   409.19748
   906  O   6.0   -0.29    1.15    1.80   114.83487   126.39432   408.22049
   907  C   4.0   -0.03    4.34    4.27   115.48493   122.22747   412.80874
   908  C   4.0   -0.02    3.75    3.29   114.19047   119.90122   413.40968
   909  C   4.0   -0.01    3.62    3.18   115.23549   117.70158   414.25438
   910  C   4.0    0.01    3.90    3.46   111.58265   119.43068   413.06575
   911  N   5.0   -0.13    3.46    2.05   113.40623   115.87044   414.53406
   912  C   4.0    0.03    3.88    3.43   111.13289   116.88522   413.79707
   913  C   4.0   -0.05    3.39    3.08   109.54741   120.92545   412.27206
   914  C   4.0   -0.06    3.37    3.07   108.70837   115.80430   413.75928
   915  C   4.0   -0.04    3.35    3.07   107.16069   119.86343   412.21537
   916  C   4.0   -0.05    3.36    3.07   106.75440   117.31797   412.95425
   917  H   1.0    0.10    1.07    1.44   118.60298   119.67068   410.25572
   918  H   1.0    0.06    1.08    1.44   113.95425   121.99504   409.15401
   919  H   1.0    0.05    1.04    1.43   117.33875   122.20669   413.70636
   920  H   1.0    0.06    1.04    1.43   114.37377   123.80918   413.52306
   921  H   1.0    0.06    1.02    1.43   117.21970   117.43324   414.64934
   922  H   1.0    0.07    1.04    1.43   113.68969   114.07520   415.17657
   923  H   1.0    0.06    1.02    1.43   109.83654   122.86809   411.71648
   924  H   1.0    0.05    1.02    1.43   108.39279   113.87300   414.33564
   925  H   1.0    0.06    1.03    1.43   105.57710   120.99159   411.59743
   926  H   1.0    0.05    1.03    1.43   104.86467   116.55074   412.88244
   927  N   5.0   -0.19    3.13    1.94   119.48737   127.01226   404.31065
   928  C   4.0    0.02    4.16    3.92   119.10376   127.15777   401.58566
   929  C   4.0    0.16    3.30    3.05   116.43546   127.87964   400.84678
   930  O   6.0   -0.30    1.22    1.80   116.10854   129.45190   399.16492
   931  H   1.0    0.12    1.04    1.43   120.03917   125.26804   404.91914
   932  H   1.0    0.05    1.03    1.43   120.38688   128.56373   400.79954
   933  H   1.0    0.05    1.03    1.43   119.52517   125.32285   400.74851
   934  N   5.0   -0.13    3.46    2.05   114.56464   126.77416   402.14691
   935  C   4.0    0.03    4.43    4.44   111.87367   127.40343   401.77274
   936  C   4.0    0.15    3.45    3.09   111.11400   130.08307   402.47005
   937  O   6.0   -0.31    1.22    1.80   109.23939   131.10163   401.49306
   938  C   4.0   -0.04    4.46    4.48   110.26362   125.73103   403.40169
   939  C   4.0   -0.02    4.24    4.08   110.20693   122.98903   402.64391
   940  C   4.0   -0.07    4.13    3.87   108.95593   121.42056   404.66403
   941  C   4.0   -0.07    4.14    3.88   108.79530   122.67156   400.17593
   942  H   1.0    0.11    1.07    1.44   114.84243   125.41922   403.49051
   943  H   1.0    0.06    1.06    1.44   111.55619   127.13131   399.75641
   944  H   1.0    0.06    1.04    1.43   110.97794   125.82362   405.33110
   945  H   1.0    0.04    1.05    1.44   108.32665   126.43022   403.33366
   946  H   1.0    0.05    1.06    1.44   112.14201   122.32763   402.39824
   947  H   1.0    0.04    1.00    1.43   108.94081   119.44958   404.06876
   948  H   1.0    0.05    1.00    1.43   110.01796   121.61520   406.41769
   949  H   1.0    0.04    1.00    1.43   107.02652   122.08763   404.93237
   950  H   1.0    0.04    1.00    1.43   108.77829   120.67601   399.66570
   951  H   1.0    0.04    1.00    1.43   106.86589   123.35186   400.41403
   952  H   1.0    0.05    1.00    1.43   109.74961   123.76193   398.71328
   953  N   5.0   -0.14    3.40    2.02   112.53885   131.16021   404.22939
   954  C   4.0    0.02    4.28    4.16   112.01917   133.59796   405.28952
   955  C   4.0    0.17    3.35    3.06   111.79241   135.75413   403.45649
   956  O   6.0   -0.28    1.24    1.80   110.37889   137.51347   403.99128
   957  H   1.0    0.09    1.07    1.44   114.12055   130.34574   404.97394
   958  H   1.0    0.05    1.04    1.43   110.24283   133.48646   406.32698
   959  H   1.0    0.04    1.03    1.43   113.53474   134.06850   406.60288
   960  N   5.0   -0.13    3.35    2.00   113.18325   135.67854   401.34945
   961  C   4.0    0.01    4.18    3.95   113.34954   137.85551   399.64113
   962  C   4.0    0.25    3.12    3.03   114.47960   140.19877   400.95638
   963  O   6.0   -0.27    1.22    1.80   115.01628   140.24223   403.24295
   964  O   6.0   -0.30    1.19    1.80   114.93124   142.18487   399.80554
   965  H   1.0    0.09    1.05    1.44   114.20937   134.14976   400.77686
   966  H   1.0    0.04    1.02    1.43   114.54196   137.37174   398.03298
   967  H   1.0    0.05    1.02    1.43   111.46549   138.33550   398.95894
   968  H   1.0    0.09    1.07    1.44   128.24885   105.07147   399.90166
   969  H   1.0    0.04    1.04    1.43   122.22683    98.60727   399.69489
   970  H   1.0    0.08    1.07    1.44   121.16976   101.20096   404.53670
   971  H   1.0    0.07    1.05    1.44   102.80505    97.76475   404.39345
   972  H   1.0    0.10    1.07    1.44   101.57612    98.16739   409.85441
   973  H   1.0    0.06    1.04    1.43    91.51574   100.15515   401.73542
   974  H   1.0    0.08    1.09    1.44   100.85470    91.90340   392.07698
   975  H   1.0    0.04    1.04    1.44   107.45351    89.15325   390.31507
   976  H   1.0    0.08    1.07    1.44   112.92577    94.52372   384.48422
   977  H   1.0    0.04    1.04    1.44   119.25477    96.40433   384.99772
   978  H   1.0    0.09    1.07    1.44   117.11884    97.98266   376.29565
   979  H   1.0    0.05    1.04    1.44   124.71183   102.96621   377.89787
   980  H   1.0    0.09    1.07    1.44   121.58078   107.39257   371.15296
   981  H   1.0    0.06    1.04    1.43   126.55409   110.67230   373.61232
   982  H   1.0    0.08    1.07    1.44   124.14604   119.67628   375.51092
   983  H   1.0    0.05    1.04    1.43   130.66888   120.26040   378.53068
   984  H   1.0    0.10    1.08    1.44   134.58321   120.46965   382.88598
   985  H   1.0    0.06    1.04    1.43   103.50283   120.45341   369.07194
   986  H   1.0    0.09    1.07    1.44   109.61082   114.19948   365.95664
   987  H   1.0    0.06    1.04    1.44   103.53176   112.49041   364.86280
   988  H   1.0    0.09    1.07    1.44   107.36469    96.35527   371.73384
   989  H   1.0    0.05    1.04    1.43   100.73321   101.84832   374.50584
   990  H   1.0    0.09    1.07    1.44   101.12142    98.56125   379.31640
   991  H   1.0    0.05    1.04    1.43   101.63709   127.57887   417.91578
   992  H   1.0    0.10    1.07    1.44   105.87756   128.88731   415.67536
   993  H   1.0    0.04    1.05    1.44   112.16334   130.79809   417.04388
   994  H   1.0    0.08    1.07    1.44    91.99839   106.20364   373.91746
   995  H   1.0    0.04    1.05    1.44    88.66445   107.44174   379.79388
   996  H   1.0    0.08    1.07    1.44   131.53042   113.33699   411.93185
   997  H   1.0    0.06    1.05    1.44   118.16617   125.80881   409.51273
   998  H   1.0    0.10    1.07    1.44   120.69457   128.11711   404.77382

  Z AO/shell   Hii/eV     exponent
  1     Wed Apr 25 08:07:45 CEST 2018   EN: 2.200 GM2: 0.406  GM3: 0.0800  RAES: 1.40
     1s    -10.707211    1.230000
  6     Wed Apr 25 08:07:45 CEST 2018   EN: 2.550 GM2: 0.538  GM3: 0.1500  RAES: 3.00
     2s    -13.970922    2.096432
[...]
 712   6 C      0.023  1.068  2.909  0.000    20.209     6.403
 713   6 C      0.269  1.051  2.680  0.000    22.451     7.758
 714   8 O     -0.492  1.777  4.715  0.000    23.603     6.514
 715   6 C     -0.082  1.060  3.022  0.000    22.069     6.688
 716   6 C     -0.082  1.049  3.033  0.000    22.068     6.689
 717   6 C     -0.029  1.061  2.969  0.000    21.197     6.573
 718   7 N     -0.143  1.223  3.920  0.000    24.105     7.292
 719   6 C      0.218  1.030  2.752  0.000    23.392     7.918
 720   7 N     -0.233  1.225  4.008  0.000    26.118     7.590
 721   7 N     -0.247  1.238  4.009  0.000    26.447     7.638
 722   1 H      0.243  0.757  0.000  0.000     0.909     1.494
 723   1 H      0.072  0.928  0.000  0.000     2.069     2.249
 724   1 H      0.083  0.917  0.000  0.000     1.952     2.185
 725   1 H      0.068  0.932  0.000  0.000     2.111     2.272
 726   1 H      0.068  0.932  0.000  0.000     2.106     2.270
 727   1 H      0.059  0.941  0.000  0.000     2.213     2.326
 728   1 H      0.096  0.904  0.000  0.000     1.818     2.108
 729   1 H      0.089  0.911  0.000  0.000     1.888     2.149
 730   1 H      0.230  0.770  0.000  0.000     0.965     1.539
 731   1 H      0.218  0.782  0.000  0.000     1.019     1.581
 732   1 H      0.256  0.744  0.000  0.000     0.860     1.453
 733   1 H      0.246  0.754  0.000  0.000     0.898     1.485
 734   1 H      0.270  0.730  0.000  0.000     0.810     1.410
 735   7 N     -0.190  1.255  3.935  0.000    25.117     7.443
 736   6 C      0.035  1.059  2.906  0.000    19.987     6.366
 737   6 C      0.290  1.035  2.676  0.000    22.085     7.696
 738   8 O     -0.519  1.764  4.755  0.000    24.215     6.598
 739   6 C     -0.059  1.056  3.003  0.000    21.631     6.621
 740   6 C     -0.084  1.057  3.027  0.000    22.105     6.693
 741   6 C      0.371  1.022  2.606  0.000    20.704     7.447
 742   8 O     -0.635  1.758  4.877  0.000    26.990     6.965
 743   8 O     -0.669  1.774  4.895  0.000    27.871     7.078
 744   1 H      0.222  0.778  0.000  0.000     1.000     1.567
 745   1 H      0.071  0.929  0.000  0.000     2.076     2.253
 746   1 H      0.075  0.925  0.000  0.000     2.036     2.231
 747   1 H      0.033  0.967  0.000  0.000     2.543     2.494
 748   1 H      0.040  0.960  0.000  0.000     2.453     2.449
 749   1 H     -0.001  1.001  0.000  0.000     3.074     2.742
 750   7 N     -0.204  1.253  3.951  0.000    25.432     7.490
 751   6 C      0.037  1.056  2.907  0.000    19.960     6.362
 752   6 C      0.283  1.044  2.673  0.000    22.205     7.716
 753   8 O     -0.500  1.736  4.764  0.000    23.783     6.539
 754   6 C     -0.037  1.046  2.991  0.000    21.234     6.559
 755   6 C     -0.079  1.057  3.023  0.000    22.016     6.680
 756   6 C      0.350  1.043  2.607  0.000    21.053     7.509
 757   8 O     -0.604  1.769  4.836  0.000    26.227     6.866
 758   8 O     -0.686  1.811  4.874  0.000    28.327     7.136
 759   1 H      0.235  0.765  0.000  0.000     0.942     1.521
 760   1 H      0.046  0.954  0.000  0.000     2.365     2.405
 761   1 H      0.047  0.953  0.000  0.000     2.354     2.400
 762   1 H      0.026  0.974  0.000  0.000     2.641     2.542
 763   1 H      0.034  0.966  0.000  0.000     2.530     2.487
 764   1 H      0.028  0.972  0.000  0.000     2.612     2.528
 765   7 N     -0.157  1.239  3.919  0.000    24.406     7.337
 766   6 C      0.028  1.062  2.910  0.000    20.123     6.390
 767   6 C      0.183  1.086  2.731  0.000    24.070     8.035
 768   8 O     -0.343  1.773  4.570  0.000    20.571     6.081
 769   6 C     -0.064  1.050  3.014  0.000    21.719     6.634
 770   6 C     -0.087  1.052  3.035  0.000    22.162     6.702
 771   6 C      0.290  1.035  2.675  0.000    22.082     7.694
 772   8 O     -0.509  1.741  4.767  0.000    23.973     6.565
 773   7 N     -0.264  1.262  4.002  0.000    26.838     7.694
 774   1 H      0.197  0.803  0.000  0.000     1.121     1.659
 775   1 H      0.098  0.902  0.000  0.000     1.800     2.098
 776   1 H      0.065  0.935  0.000  0.000     2.141     2.288
 777   1 H      0.089  0.911  0.000  0.000     1.884     2.147
 778   1 H      0.041  0.959  0.000  0.000     2.438     2.442
 779   1 H      0.092  0.908  0.000  0.000     1.857     2.131
 780   1 H      0.203  0.797  0.000  0.000     1.093     1.638
 781   1 H      0.229  0.771  0.000  0.000     0.969     1.542
 782   7 N     -0.380  1.313  4.067  0.000    29.825     8.111
 783   6 C      0.031  1.055  2.914  0.000    20.071     6.382
 784   6 C      0.203  1.089  2.708  0.000    23.684     7.970
 785   8 O     -0.354  1.743  4.611  0.000    20.791     6.113
 786   6 C      0.110  1.058  2.832  0.000    18.878     6.205
 787   8 O     -0.460  1.722  4.738  0.000    22.044     6.338
 788   6 C     -0.141  1.053  3.088  0.000    23.298     6.886
 789   1 H      0.168  0.832  0.000  0.000     1.285     1.776
 790   1 H      0.064  0.936  0.000  0.000     2.152     2.294
 791   1 H      0.028  0.972  0.000  0.000     2.618     2.530
 792   1 H      0.309  0.691  0.000  0.000     0.695     1.310
 793   1 H      0.053  0.947  0.000  0.000     2.289     2.366
 794   1 H      0.059  0.941  0.000  0.000     2.210     2.325
 795   1 H      0.048  0.952  0.000  0.000     2.344     2.394
 796   8 O     -0.610  1.655  4.956  0.000    25.431     6.807
 797   1 H      0.324  0.676  0.000  0.000     0.653     1.269
 798   1 H      0.318  0.682  0.000  0.000     0.667     1.283
 799   8 O     -0.647  1.699  4.948  0.000    26.340     6.927
 800   1 H      0.335  0.665  0.000  0.000     0.625     1.241
 801   1 H      0.314  0.686  0.000  0.000     0.678     1.293
 802   7 N     -0.387  1.319  4.069  0.000    30.015     8.137
 803   6 C      0.039  1.047  2.914  0.000    19.928     6.357
 804   6 C      0.198  1.088  2.714  0.000    23.776     7.986
 805   8 O     -0.380  1.762  4.618  0.000    21.277     6.184
 806   6 C     -0.075  1.055  3.020  0.000    21.875     6.650
 807   6 C     -0.010  1.056  2.954  0.000    20.753     6.485
 808  16 S     -0.205  1.917  4.236  0.052   149.779    20.598
 809   6 C     -0.070  1.057  3.013  0.000    21.919     6.679
 810   1 H      0.171  0.829  0.000  0.000     1.268     1.764
 811   1 H      0.052  0.948  0.000  0.000     2.293     2.368
 812   1 H      0.061  0.939  0.000  0.000     2.190     2.314
 813   1 H      0.051  0.949  0.000  0.000     2.307     2.375
 814   1 H      0.055  0.945  0.000  0.000     2.259     2.350
 815   1 H      0.052  0.948  0.000  0.000     2.301     2.372
 816   1 H      0.067  0.933  0.000  0.000     2.113     2.273
 817   1 H      0.054  0.946  0.000  0.000     2.277     2.360
 818   1 H      0.063  0.937  0.000  0.000     2.169     2.303
 819   7 N     -0.400  1.325  4.075  0.000    30.382     8.186
 820   6 C      0.028  1.057  2.915  0.000    20.121     6.388
 821   6 C      0.271  1.040  2.689  0.000    22.424     7.755
 822   8 O     -0.504  1.739  4.766  0.000    23.882     6.552
 823   6 C     -0.057  1.054  3.004  0.000    21.603     6.617
 824   6 C     -0.088  1.058  3.030  0.000    22.177     6.705
 825   6 C      0.362  1.023  2.615  0.000    20.857     7.474
 826   8 O     -0.636  1.759  4.877  0.000    27.027     6.970
 827   8 O     -0.650  1.768  4.881  0.000    27.370     7.014
 828   1 H      0.162  0.838  0.000  0.000     1.325     1.803
 829   1 H      0.043  0.957  0.000  0.000     2.409     2.427
 830   1 H      0.031  0.969  0.000  0.000     2.567     2.506
 831   1 H      0.051  0.949  0.000  0.000     2.307     2.375
 832   1 H      0.021  0.979  0.000  0.000     2.719     2.579
 833   1 H      0.024  0.976  0.000  0.000     2.668     2.554
 834   7 N     -0.170  1.242  3.928  0.000    24.682     7.379
 835   6 C      0.014  1.056  2.930  0.000    20.335     6.420
 836   6 C      0.272  1.040  2.689  0.000    22.411     7.752
 837   8 O     -0.483  1.745  4.738  0.000    23.411     6.487
 838   6 C     -0.078  1.050  3.027  0.000    21.975     6.673
 839   6 C     -0.102  1.052  3.050  0.000    22.441     6.744
 840   6 C      0.283  1.039  2.678  0.000    22.207     7.716
 841   8 O     -0.492  1.746  4.746  0.000    23.606     6.514
 842   7 N     -0.276  1.264  4.012  0.000    27.136     7.737
 843   1 H      0.224  0.776  0.000  0.000     0.992     1.560
 844   1 H      0.082  0.918  0.000  0.000     1.955     2.187
 845   1 H      0.085  0.915  0.000  0.000     1.927     2.171
 846   1 H      0.071  0.929  0.000  0.000     2.072     2.251
 847   1 H      0.095  0.905  0.000  0.000     1.829     2.115
 848   1 H      0.060  0.940  0.000  0.000     2.200     2.319
 849   1 H      0.206  0.794  0.000  0.000     1.075     1.625
 850   1 H      0.218  0.782  0.000  0.000     1.018     1.581
 851   7 N     -0.185  1.249  3.936  0.000    25.013     7.428
 852   6 C      0.017  1.061  2.922  0.000    20.293     6.415
 853   6 C      0.279  1.035  2.686  0.000    22.270     7.728
 854   8 O     -0.494  1.761  4.734  0.000    23.658     6.521
 855   6 C     -0.141  1.046  3.095  0.000    23.267     6.877
 856   1 H      0.225  0.775  0.000  0.000     0.989     1.558
 857   1 H      0.079  0.921  0.000  0.000     1.994     2.208
 858   1 H      0.075  0.925  0.000  0.000     2.037     2.232
 859   1 H      0.089  0.911  0.000  0.000     1.891     2.150
 860   1 H      0.075  0.925  0.000  0.000     2.029     2.228
 861   7 N     -0.179  1.244  3.935  0.000    24.880     7.408
 862   6 C      0.014  1.064  2.922  0.000    20.341     6.422
 863   6 C      0.280  1.038  2.682  0.000    22.261     7.726
 864   8 O     -0.515  1.764  4.750  0.000    24.114     6.584
 865   6 C     -0.089  1.057  3.031  0.000    22.187     6.706
 866   6 C     -0.072  1.047  3.026  0.000    21.883     6.660
 867   6 C     -0.090  1.054  3.036  0.000    22.218     6.711
 868   6 C     -0.044  1.053  2.991  0.000    21.464     6.613
 869   7 N     -0.136  1.230  3.906  0.000    23.944     7.268
 870   1 H      0.211  0.789  0.000  0.000     1.052     1.607
 871   1 H      0.079  0.921  0.000  0.000     1.991     2.206
 872   1 H      0.075  0.925  0.000  0.000     2.029     2.227
 873   1 H      0.068  0.932  0.000  0.000     2.108     2.270
 874   1 H      0.048  0.952  0.000  0.000     2.339     2.392
 875   1 H      0.067  0.933  0.000  0.000     2.121     2.277
 876   1 H      0.068  0.932  0.000  0.000     2.103     2.268
 877   1 H      0.073  0.927  0.000  0.000     2.058     2.243
 878   1 H      0.123  0.877  0.000  0.000     1.593     1.974
 879   1 H      0.104  0.896  0.000  0.000     1.749     2.068
 880   1 H      0.301  0.699  0.000  0.000     0.710     1.320
 881   1 H      0.289  0.711  0.000  0.000     0.748     1.354
 882   1 H      0.294  0.706  0.000  0.000     0.732     1.341
 883   7 N     -0.172  1.244  3.928  0.000    24.720     7.384
 884   6 C      0.032  1.049  2.918  0.000    20.028     6.371
 885   6 C      0.288  1.031  2.682  0.000    22.124     7.703
 886   8 O     -0.498  1.745  4.753  0.000    23.728     6.531
 887   6 C     -0.087  1.054  3.033  0.000    22.134     6.695
 888   6 C      0.011  1.066  2.923  0.000    27.773     8.645
 889   6 C     -0.043  1.073  2.970  0.000    29.068     8.843
 890   6 C     -0.047  1.078  2.969  0.000    29.168     8.858
 891   6 C     -0.037  1.077  2.960  0.000    28.931     8.821
 892   6 C     -0.037  1.079  2.958  0.000    28.921     8.820
 893   6 C     -0.036  1.076  2.960  0.000    28.896     8.816
 894   1 H      0.223  0.777  0.000  0.000     0.996     1.563
 895   1 H      0.064  0.936  0.000  0.000     2.149     2.292
 896   1 H      0.064  0.936  0.000  0.000     2.150     2.293
 897   1 H      0.076  0.924  0.000  0.000     2.017     2.221
 898   1 H      0.036  0.964  0.000  0.000     2.498     2.472
 899   1 H      0.042  0.958  0.000  0.000     2.427     2.436
 900   1 H      0.048  0.952  0.000  0.000     2.340     2.392
 901   1 H      0.035  0.965  0.000  0.000     2.511     2.478
 902   1 H      0.033  0.967  0.000  0.000     2.538     2.491
 903   7 N     -0.173  1.244  3.929  0.000    24.744     7.388
 904   6 C      0.034  1.054  2.912  0.000    19.993     6.365
 905   6 C      0.212  1.072  2.716  0.000    23.505     7.940
 906   8 O     -0.346  1.732  4.615  0.000    20.639     6.091
 907   6 C     -0.066  1.041  3.025  0.000    21.751     6.638
 908   6 C     -0.026  1.054  2.972  0.000    28.588     8.768
 909   6 C     -0.014  1.069  2.945  0.000    28.330     8.730
 910   6 C     -0.019  1.072  2.947  0.000    28.301     8.713
 911   7 N     -0.103  1.223  3.879  0.000    23.254     7.162
 912   6 C      0.042  1.066  2.893  0.000    26.977     8.515
 913   6 C     -0.037  1.080  2.957  0.000    28.918     8.818
 914   6 C     -0.060  1.072  2.988  0.000    29.485     8.903
 915   6 C     -0.043  1.080  2.963  0.000    29.062     8.840
 916   6 C     -0.043  1.080  2.962  0.000    29.061     8.840
 917   1 H      0.220  0.780  0.000  0.000     1.010     1.574
 918   1 H      0.076  0.924  0.000  0.000     2.023     2.224
 919   1 H      0.063  0.937  0.000  0.000     2.160     2.298
 920   1 H      0.068  0.932  0.000  0.000     2.109     2.271
 921   1 H      0.061  0.939  0.000  0.000     2.186     2.312
 922   1 H      0.185  0.815  0.000  0.000     1.186     1.706
 923   1 H      0.024  0.976  0.000  0.000     2.675     2.558
 924   1 H      0.040  0.960  0.000  0.000     2.455     2.450
 925   1 H      0.012  0.988  0.000  0.000     2.866     2.647
 926   1 H      0.019  0.981  0.000  0.000     2.743     2.590
 927   7 N     -0.393  1.320  4.073  0.000    30.191     8.161
 928   6 C     -0.002  1.042  2.960  0.000    20.701     6.493
 929   6 C      0.270  1.046  2.684  0.000    22.439     7.757
 930   8 O     -0.524  1.748  4.776  0.000    24.314     6.611
 931   1 H      0.168  0.832  0.000  0.000     1.287     1.777
 932   1 H      0.039  0.961  0.000  0.000     2.460     2.453
 933   1 H      0.042  0.958  0.000  0.000     2.419     2.432
 934   7 N     -0.177  1.252  3.925  0.000    24.842     7.403
 935   6 C      0.019  1.059  2.923  0.000    20.264     6.410
 936   6 C      0.267  1.043  2.690  0.000    22.495     7.768
 937   8 O     -0.476  1.743  4.733  0.000    23.255     6.465
 938   6 C     -0.082  1.053  3.029  0.000    22.040     6.679
 939   6 C     -0.012  1.047  2.965  0.000    20.751     6.479
 940   6 C     -0.112  1.041  3.071  0.000    22.694     6.791
 941   6 C     -0.120  1.044  3.076  0.000    22.839     6.812
 942   1 H      0.224  0.776  0.000  0.000     0.993     1.561
 943   1 H      0.090  0.910  0.000  0.000     1.879     2.144
 944   1 H      0.064  0.936  0.000  0.000     2.158     2.297
 945   1 H      0.067  0.933  0.000  0.000     2.124     2.279
 946   1 H      0.033  0.967  0.000  0.000     2.543     2.494
 947   1 H      0.050  0.950  0.000  0.000     2.324     2.384
 948   1 H      0.028  0.972  0.000  0.000     2.612     2.527
 949   1 H      0.041  0.959  0.000  0.000     2.436     2.441
 950   1 H      0.046  0.954  0.000  0.000     2.366     2.405
 951   1 H      0.047  0.953  0.000  0.000     2.362     2.404
 952   1 H      0.052  0.948  0.000  0.000     2.299     2.371
 953   7 N     -0.173  1.232  3.940  0.000    24.737     7.387
 954   6 C     -0.022  1.045  2.977  0.000    21.023     6.539
 955   6 C      0.295  1.028  2.677  0.000    21.995     7.680
 956   8 O     -0.503  1.752  4.751  0.000    23.854     6.548
 957   1 H      0.212  0.788  0.000  0.000     1.049     1.604
 958   1 H      0.083  0.917  0.000  0.000     1.952     2.185
 959   1 H      0.081  0.919  0.000  0.000     1.972     2.196
 960   7 N     -0.169  1.240  3.929  0.000    24.656     7.375
 961   6 C     -0.028  1.062  2.967  0.000    21.162     6.564
 962   6 C      0.374  1.022  2.604  0.000    20.662     7.439
 963   8 O     -0.642  1.768  4.874  0.000    27.183     6.990
 964   8 O     -0.648  1.762  4.886  0.000    27.326     7.009
 965   1 H      0.195  0.805  0.000  0.000     1.131     1.666
 966   1 H      0.052  0.948  0.000  0.000     2.297     2.370
 967   1 H      0.061  0.939  0.000  0.000     2.192     2.315
 968   1 H      0.175  0.825  0.000  0.000     1.241     1.745
 969   1 H      0.083  0.917  0.000  0.000     1.947     2.182
 970   1 H      0.186  0.814  0.000  0.000     1.183     1.703
 971   1 H      0.087  0.913  0.000  0.000     1.911     2.162
 972   1 H      0.195  0.805  0.000  0.000     1.130     1.665
 973   1 H      0.080  0.920  0.000  0.000     1.981     2.201
 974   1 H      0.167  0.833  0.000  0.000     1.290     1.779
 975   1 H      0.062  0.938  0.000  0.000     2.169     2.303
 976   1 H      0.174  0.826  0.000  0.000     1.248     1.750
 977   1 H      0.082  0.918  0.000  0.000     1.954     2.186
 978   1 H      0.173  0.827  0.000  0.000     1.256     1.756
 979   1 H      0.074  0.926  0.000  0.000     2.047     2.237
 980   1 H      0.172  0.828  0.000  0.000     1.260     1.759
 981   1 H      0.080  0.920  0.000  0.000     1.982     2.201
 982   1 H      0.182  0.818  0.000  0.000     1.202     1.717
 983   1 H      0.061  0.939  0.000  0.000     2.182     2.310
 984   1 H      0.186  0.814  0.000  0.000     1.181     1.702
 985   1 H      0.065  0.935  0.000  0.000     2.138     2.286
 986   1 H      0.169  0.831  0.000  0.000     1.278     1.771
 987   1 H      0.076  0.924  0.000  0.000     2.018     2.221
 988   1 H      0.180  0.820  0.000  0.000     1.216     1.727
 989   1 H      0.086  0.914  0.000  0.000     1.915     2.164
 990   1 H      0.189  0.811  0.000  0.000     1.165     1.691
 991   1 H      0.096  0.904  0.000  0.000     1.817     2.108
 992   1 H      0.175  0.825  0.000  0.000     1.244     1.747
 993   1 H      0.083  0.917  0.000  0.000     1.950     2.183
 994   1 H      0.187  0.813  0.000  0.000     1.176     1.698
 995   1 H      0.080  0.920  0.000  0.000     1.982     2.202
 996   1 H      0.184  0.816  0.000  0.000     1.191     1.709
 997   1 H      0.061  0.939  0.000  0.000     2.182     2.310
 998   1 H      0.180  0.820  0.000  0.000     1.216     1.727

 Mol. C6AA /au·bohr⁶  :    9365594.164120
 Mol. C8AA /au·bohr⁸  :  210979363.564709
 Mol. α(0) /au        :       4590.591438

 
molecular dipole:
                 x           y           z       tot (Debye)
 q only:     -407.663    -496.906   -1578.884
   full:     -400.925    -498.112   -1579.512    4331.301
molecular quadrupole (traceless):
                xx          xy          yy          xz          yz          zz
 q only:   302044.230  -76680.604  271086.355 -239381.797 -294856.780 -573130.585
  q+dip:   303993.757  -75681.645  270288.667 -235443.791 -295726.169 -574282.424
   full:   303985.535  -75678.125  270290.205 -235448.581 -295725.364 -574275.741
speedup  1.34
cpu  time for grad    2 m 30.8 s
wall time for grad    1 m 52.2 s

SCC energy    :   -1553.2878417
rep           :      18.8686897
ES            :       5.1575699
AES           :      -0.1216763
AXC           :       0.4854364
disp          :      -1.4522819
XB            :       0.0000000
fix           :       0.0000000
Gborn         :       0.0000000
Gsasa         :       0.0000000
Ghb           :       0.0000000
Gshift        :       0.0000000
Gsolv         :      -1.3956369     -875.78
Etot ala COSMO:   -1553.2878417
grad norm     :       1.1019996
total E       :   -1534.2319768
atomizationE  :     280.6921074   176136.96
(atE without considering molecular charge,
 total energy contains solvation terms)
H-L gap (eV)  :          0.6012

------------------------------------------------------------------------
 * finished run on 2019/05/05 at 21:59:03.351     
------------------------------------------------------------------------
 total:
 * wall-time:     0 d,  0 h,  1 min, 59.943 sec
 *  cpu-time:     0 d,  0 h,  2 min, 37.088 sec
 * ratio c/w:     1.310 speedup
 SCF:
 * wall-time:     0 d,  0 h,  1 min, 57.019 sec
 *  cpu-time:     0 d,  0 h,  2 min, 35.526 sec
 * ratio c/w:     1.329 speedup

