      -----------------------------------------------------------      
     |                   =====================                   |     
     |                           x T B                           |     
     |                   =====================                   |     
     |                         S. Grimme                         |     
     |          Mulliken Center for Theoretical Chemistry        |     
     |                    University of Bonn                     |     
     |                 Version 6.0.1 (SAW181210)                 |     
      -----------------------------------------------------------      

   This program is distributed in the hope that it will be useful,
   but WITHOUT ANY WARRANTY; without even the implied warranty of
   MERCHANTABILITY or FITNESS FOR A PARTICULAR PURPOSE.
   
   FOR NON-COMMERCIAL, ACADEMIA USE ONLY.
   
   Cite this work as:
   S. Grimme, C. Bannwarth, P. Shushkov, J. Comput. Theory Chem., 2017,
   13, 1989-2009.
   C. Bannwarth, S. Ehlert and S. Grimme., ChemRxiv, 2018, preprint.
   http://doi.org/10.26434/chemrxiv.7246238.v1
   
   for sTDA-xTB:
   S. Grimme and C. Bannwarth, J. Chem. Phys., 2016, 145, 054103.
   
   in the mass-spec context:
   V. Asgeirsson, C. Bauer and S. Grimme, Chem. Sci., 2017, 8, 4879.
   
   if GBSA is used:
   P. Shushkov, F. März and S. Grimme, unpublished.
   
   for ANC optimizer:
   S. Grimme, unpublished.
   Rational Function algorithm used in ANCopt:
   F. Eckert, P. Pulay, H.-J. Werner, J. Comput. Chem., 1997, 18, 1473.
   
   with help from (in alphabetical order)
   C. Bannwarth, F. Bohle, G. Brandenburg, E. Caldeweyher, M. Checinski,
   S. Dohm, S. Ehlert, S. Ehrlich, F. März, H. Neugebauer, J. Pisarek,
   P. Pracht, P. Shushkov, and S. Spicher.
   
 * started run on 2019/05/06 at 00:09:45.975     
========================================================================
 # omp threads = 2
========================================================================
number of atoms            : 639
number of electrons        : 1702
charge                     : 4
spin                       : .0
first test random number   : .4480

########################################################################
# WARNING! Please study the warnings concerning your input carefully
#  - Process number higher than OMP_NUM_THREADS, I hope you know what you are doing.
########################################################################

           ------------------------------------------------- 
          |                 G F N 2 - x T B                 |
          | Geometry, Frequencies, Noncovalent interactions |
          |            JCTC 2018 parametrisation            |
           ------------------------------------------------- 
 
      method parameters     
 k(s)        :  1.8500
 k(p)        :  2.2300
 k(d)        :  2.2300
 k(f)        :  2.0000
 kEN (H0ij)  : -2.0000
 D4 a1       :  0.5200
 D4 a2       :  5.0000
 D4 s6       :  1.0000
 D4 s8       :  2.7000
 D4 s9       :  5.0000
 alphaj      :  2.0000

 Solvent             : h2o
 Using internal parameter file: .param_gbsa2_h2o
 Gsolv ref. state (COSMO-RS): gsolv [1 M gas/solution]
 temperature (mdtemp)       :    298.150000000000     
 dielectric constant        :    80.2000000000000     
 rho                        :    1.00000000000000     
 mass                       :    18.0000000000000     
 surface tension            :    15.5689454083859     
 probe radius               :   0.975313790000000     
 vdW radii scaling          :    1.00000000000000     
 Gshift (Eh)                :   1.857443126794793E-003
 c1                         :    1.55243817000000     
 soset                      :   0.130326360000000     
 HB correction              :  T

            Z     q(EN)     CN     RAES       Cart. coordinates
     1  N   5.0   -0.15    3.31    1.99    68.60272    44.14211   163.63704
     2  C   4.0    0.03    4.35    4.29    66.19899    44.04762   162.35580
     3  C   4.0    0.10    3.32    3.06    66.64874    45.41011   159.95396
     4  O   6.0   -0.23    1.19    1.80    68.37028    46.94268   159.85381
     5  C   4.0   -0.04    4.43    4.43    64.19777    45.53106   163.75798
     6  C   4.0   -0.04    4.06    3.73    62.82016    44.02495   165.75731
     7  S   6.0   -0.03    2.62    3.10    61.45200    41.21114   164.42694
     8  C   4.0   -0.06    3.88    3.44    58.66276    42.36388   162.87548
     9  H   1.0    0.10    1.03    1.43    68.67075    45.23815   165.22063
    10  H   1.0    0.05    1.10    1.44    65.52625    42.11065   162.16872
    11  H   1.0    0.06    1.04    1.43    65.09539    47.13354   164.68962
    12  H   1.0    0.04    1.05    1.44    62.79937    46.19813   162.40116
    13  H   1.0    0.06    1.07    1.44    64.14486    43.47315   167.23508
    14  H   1.0    0.05    1.07    1.44    61.30838    45.17012   166.56045
    15  H   1.0    0.04    1.04    1.43    57.68199    40.78029   161.99676
    16  H   1.0    0.05    1.04    1.43    57.44011    43.25961   164.27010
    17  H   1.0    0.05    1.04    1.43    59.21267    43.73393   161.43929
    18  N   5.0   -0.16    3.25    1.97    38.51639    61.34995   152.88828
    19  C   4.0    0.03    4.28    4.17    40.25305    60.06305   154.62872
    20  C   4.0    0.09    3.29    3.05    41.82152    62.03970   155.87404
    21  O   6.0   -0.24    1.16    1.80    42.23726    64.05982   154.81769
    22  C   4.0   -0.04    4.32    4.23    42.04829    58.32261   153.24166
    23  C   4.0   -0.05    4.24    4.09    43.58842    56.68233   155.00666
    24  C   4.0   -0.00    4.19    3.99    43.90211    53.95168   154.08258
    25  N   5.0   -0.13    3.37    2.01    45.59342    53.61341   151.91507
    26  C   4.0    0.11    3.34    3.06    47.88566    54.63765   151.66374
    27  N   5.0   -0.16    3.30    1.98    48.83997    56.15321   153.44575
    28  N   5.0   -0.16    3.23    1.96    49.22169    54.17466   149.57937
    29  H   1.0    0.09    1.02    1.43    38.63167    60.74146   151.06280
    30  H   1.0    0.05    1.08    1.44    39.17024    58.93866   155.97231
    31  H   1.0    0.04    1.04    1.43    40.95981    57.08295   152.00767
    32  H   1.0    0.06    1.04    1.43    43.35409    59.45834   152.12483
    33  H   1.0    0.04    1.08    1.44    45.46870    57.49869   155.20130
    34  H   1.0    0.05    1.03    1.43    42.65489    56.61997   156.84158
    35  H   1.0    0.05    1.03    1.43    44.65989    52.82540   155.63216
    36  H   1.0    0.05    1.03    1.43    42.05018    53.23547   153.53078
    37  H   1.0    0.08    1.06    1.44    44.96414    52.49848   150.47321
    38  H   1.0    0.08    1.08    1.44    47.81385    56.54438   155.02934
    39  H   1.0    0.11    1.02    1.43    50.59552    56.91855   153.22087
    40  H   1.0    0.09    1.03    1.43    48.49037    53.04839   148.19609
    41  H   1.0    0.10    1.02    1.43    50.97536    54.94756   149.36772
    42  N   5.0   -0.18    3.18    1.95    52.18289    59.09173   160.26199
    43  C   4.0    0.03    4.34    4.27    51.54039    56.49714   160.95930
    44  C   4.0    0.16    3.77    3.30    52.46068    54.28994   159.40594
    45  O   6.0   -0.29    1.37    1.80    52.17911    54.31072   157.15906
    46  C   4.0   -0.02    4.52    4.57    48.79461    55.97179   160.22608
    47  C   4.0   -0.03    4.37    4.33    48.09542    53.17311   160.12593
    48  C   4.0    0.23    3.15    3.03    48.12943    51.90699   162.72808
    49  O   6.0   -0.32    1.28    1.80    48.58863    49.56184   162.87170
    50  O   6.0   -0.31    1.28    1.80    47.70991    53.28271   164.63481
    51  H   1.0    0.10    1.03    1.43    50.65788    60.11407   159.67806
    52  H   1.0    0.05    1.05    1.44    52.25659    56.50659   162.89060
    53  H   1.0    0.05    1.03    1.43    47.56251    56.87130   161.60936
    54  H   1.0    0.05    1.04    1.43    48.45257    56.76548   158.35714
    55  H   1.0    0.04    1.03    1.43    46.19624    52.98414   159.35303
    56  H   1.0    0.07    1.12    1.45    49.44657    52.18856   158.92217
    57  N   5.0   -0.15    3.52    2.09    53.50948    52.36053   160.60025
    58  C   4.0    0.04    4.41    4.39    55.07984    50.43490   159.40405
    59  C   4.0    0.16    3.41    3.08    54.02915    47.72125   159.39271
    60  O   6.0   -0.28    1.25    1.80    54.46001    46.35876   157.59370
    61  C   4.0    0.05    4.18    3.96    57.74625    50.36687   160.59458
    62  O   6.0   -0.25    2.09    1.84    57.88609    48.44501   162.54289
    63  C   4.0   -0.06    4.05    3.71    58.57206    53.04461   161.54700
    64  H   1.0    0.09    1.06    1.44    53.29972    52.05817   162.49187
    65  H   1.0    0.07    1.07    1.44    55.22535    51.01126   157.43118
    66  H   1.0    0.05    1.04    1.43    59.12952    49.84341   159.16028
    67  H   1.0    0.11    1.00    1.43    59.58306    48.41478   163.28177
    68  H   1.0    0.06    0.99    1.43    60.45422    52.94823   162.37659
    69  H   1.0    0.06    0.99    1.43    58.60229    54.37308   159.97286
    70  H   1.0    0.06    1.00    1.43    57.24925    53.72491   162.97186
    71  N   5.0   -0.13    3.46    2.05    52.74981    46.87465   161.38638
    72  C   4.0    0.04    4.38    4.35    51.70290    44.28762   161.33913
    73  C   4.0    0.16    3.43    3.09    49.23303    44.18179   159.82924
    74  O   6.0   -0.30    1.27    1.80    48.39777    42.17679   159.04312
    75  C   4.0   -0.04    4.24    4.08    51.43267    43.14622   164.04333
    76  C   4.0   -0.00    3.49    3.11    50.29128    40.47793   164.13782
    77  C   4.0   -0.04    3.46    3.10    51.67645    38.33876   163.38760
    78  C   4.0   -0.03    3.44    3.09    47.83841    40.10376   165.04677
    79  C   4.0   -0.04    3.37    3.07    50.60875    35.92180   163.48775
    80  C   4.0   -0.04    3.35    3.06    46.77828    37.69625   165.17339
    81  C   4.0   -0.03    3.35    3.06    48.15967    35.60622   164.38915
    82  H   1.0    0.10    1.06    1.44    52.41155    47.87432   162.99831
    83  H   1.0    0.06    1.06    1.44    53.04461    43.02339   160.41884
    84  H   1.0    0.04    1.03    1.43    53.30350    43.04796   164.90127
    85  H   1.0    0.05    1.03    1.43    50.21191    44.38021   165.15260
    86  H   1.0    0.04    1.03    1.43    53.59263    38.56364   162.72430
    87  H   1.0    0.05    1.03    1.43    46.74426    41.71192   165.66283
    88  H   1.0    0.05    1.03    1.43    51.68400    34.30231   162.86603
    89  H   1.0    0.05    1.03    1.43    44.87910    37.45437   165.88203
    90  H   1.0    0.05    1.03    1.43    47.33386    33.74106   164.47986
    91  N   5.0   -0.12    3.53    2.10    48.05951    46.32663   159.35492
    92  C   4.0    0.04    4.51    4.55    45.61420    46.20758   158.15494
    93  C   4.0    0.14    3.46    3.10    45.73326    46.67623   155.31658
    94  O   6.0   -0.28    1.20    1.80    47.12221    48.35809   154.41518
    95  C   4.0   -0.04    4.38    4.34    43.78684    48.05006   159.43429
    96  C   4.0   -0.02    4.19    3.97    42.29585    47.26583   161.78511
    97  C   4.0   -0.07    4.13    3.85    41.89711    49.44657   163.61625
    98  C   4.0   -0.08    4.15    3.90    39.76739    46.30962   160.88560
    99  H   1.0    0.11    1.11    1.45    48.72280    48.09164   159.75932
   100  H   1.0    0.05    1.13    1.45    44.85831    44.30274   158.36281
   101  H   1.0    0.05    1.06    1.44    44.88666    49.70168   159.98798
   102  H   1.0    0.04    1.05    1.44    42.38088    48.57918   158.02455
   103  H   1.0    0.04    1.06    1.44    43.34086    45.82396   162.82068
   104  H   1.0    0.04    1.00    1.43    40.82942    48.77005   165.24142
   105  H   1.0    0.05    1.01    1.43    43.73204    50.15333   164.22663
   106  H   1.0    0.04    1.00    1.43    40.85021    50.94134   162.66005
   107  H   1.0    0.04    1.00    1.43    38.65056    45.73326   162.51643
   108  H   1.0    0.04    1.00    1.43    38.80174    47.81952   159.87082
   109  H   1.0    0.04    1.00    1.43    40.06597    44.70147   159.63460
   110  N   5.0   -0.09    3.63    2.19    44.25360    45.18902   153.89550
   111  C   4.0    0.03    4.52    4.57    43.52417    45.48381   151.18563
   112  C   4.0    0.15    3.63    3.19    41.60988    47.45669   150.45998
   113  O   6.0   -0.30    1.33    1.80    39.69936    47.63999   151.69586
   114  C   4.0   -0.03    4.52    4.56    41.74972    43.25016   150.70942
   115  C   4.0   -0.04    4.31    4.22    41.25461    42.11254   153.26811
   116  C   4.0   -0.01    4.44    4.44    43.46559    42.74182   154.92540
   117  H   1.0    0.05    1.04    1.44    45.36854    45.68412   150.29179
   118  H   1.0    0.06    1.08    1.44    39.99983    43.92101   149.85338
   119  H   1.0    0.04    1.02    1.43    42.66434    41.88767   149.46598
   120  H   1.0    0.05    1.03    1.43    39.52551    42.91568   154.04668
   121  H   1.0    0.04    1.03    1.43    41.05997    40.07164   153.07914
   122  H   1.0    0.04    1.05    1.44    42.89678    42.91001   156.89828
   123  H   1.0    0.05    1.02    1.43    44.96036    41.33776   154.74021
   124  N   5.0   -0.09    3.69    2.26    42.06341    48.91934   148.45687
   125  C   4.0    0.03    4.58    4.64    40.41368    51.12276   148.03546
   126  C   4.0    0.16    3.51    3.12    38.38600    50.53505   146.06637
   127  O   6.0   -0.27    1.26    1.80    38.66001    48.69257   144.65852
   128  C   4.0   -0.04    4.41    4.40    42.04640    52.90099   146.40085
   129  C   4.0   -0.03    4.29    4.18    44.29329    51.31740   145.59205
   130  C   4.0   -0.00    4.34    4.28    43.80007    48.59808   146.33093
   131  H   1.0    0.06    1.06    1.44    39.80330    51.80495   149.88172
   132  H   1.0    0.06    1.05    1.44    40.96737    53.53783   144.76624
   133  H   1.0    0.04    1.02    1.43    42.65111    54.52048   147.51957
   134  H   1.0    0.06    1.03    1.43    44.52005    51.46669   143.55114
   135  H   1.0    0.04    1.04    1.43    45.98270    52.01471   146.54258
   136  H   1.0    0.07    1.02    1.43    42.91568    47.55306   144.79269
   137  H   1.0    0.05    1.02    1.43    45.53484    47.65511   146.91674
   138  N   5.0   -0.13    3.47    2.06    36.38100    52.03927   145.95865
   139  C   4.0    0.04    4.33    4.25    33.91113    51.29283   145.03836
   140  C   4.0    0.10    3.22    3.04    33.80153    51.48558   142.20755
   141  O   6.0   -0.24    1.13    1.80    35.03741    53.07673   141.02269
   142  C   4.0   -0.04    4.44    4.45    31.87590    52.67233   146.46321
   143  C   4.0   -0.02    4.22    4.04    31.28252    51.82951   149.10883
   144  C   4.0   -0.07    4.14    3.88    31.05009    54.21246   150.68864
   145  C   4.0   -0.08    4.13    3.86    28.85612    50.29695   149.04269
   146  H   1.0    0.08    1.06    1.44    36.41502    53.88176   146.52557
   147  H   1.0    0.05    1.08    1.44    33.50862    49.30673   145.40496
   148  H   1.0    0.05    1.06    1.44    32.43337    54.65087   146.58604
   149  H   1.0    0.05    1.05    1.44    30.12979    52.49659   145.38418
   150  H   1.0    0.05    1.06    1.44    32.72816    50.62387   149.94408
   151  H   1.0    0.04    1.00    1.43    30.61734    53.68900   152.63316
   152  H   1.0    0.04    1.00    1.43    32.83399    55.24047   150.61872
   153  H   1.0    0.05    1.00    1.43    29.53642    55.38031   149.92141
   154  H   1.0    0.04    1.00    1.43    28.40447    49.67523   150.95320
   155  H   1.0    0.04    1.00    1.43    27.33678    51.47802   148.31136
   156  H   1.0    0.04    1.00    1.43    29.12824    48.66422   147.81814
   157  N   5.0   -0.20    3.21    1.96    17.55555    52.70824   164.51198
   158  C   4.0    0.02    4.29    4.17    19.95362    51.42511   164.85402
   159  C   4.0    0.15    3.44    3.09    19.74197    48.77572   163.70885
   160  O   6.0   -0.33    1.38    1.80    21.23863    48.11620   162.03644
   161  C   4.0   -0.05    4.31    4.22    20.78699    51.32307   167.61680
   162  C   4.0   -0.02    4.15    3.90    23.61213    50.97914   168.27632
   163  C   4.0   -0.06    4.08    3.77    23.98629    50.95646   171.15248
   164  C   4.0   -0.07    4.08    3.76    24.92926    48.66044   167.13114
   165  H   1.0    0.09    1.02    1.43    16.88659    53.61153   166.07857
   166  H   1.0    0.04    1.06    1.44    21.43516    52.50037   163.91105
   167  H   1.0    0.05    1.04    1.43    20.20495    53.09374   168.49363
   168  H   1.0    0.05    1.04    1.43    19.79677    49.74326   168.49363
   169  H   1.0    0.04    1.06    1.44    24.53998    52.59863   167.40704
   170  H   1.0    0.06    1.00    1.43    25.98940    50.71269   171.56633
   171  H   1.0    0.05    1.00    1.43    23.32111    52.74414   171.92916
   172  H   1.0    0.05    1.00    1.43    22.90726    49.39744   171.95750
   173  H   1.0    0.05    1.00    1.43    26.89836    48.63966   167.73774
   174  H   1.0    0.05    1.00    1.43    23.97495    46.95591   167.78499
   175  H   1.0    0.05    1.00    1.43    24.82911    48.77761   165.07701
   176  N   5.0   -0.15    3.42    2.03    17.87303    47.28472   164.48931
   177  C   4.0    0.05    4.33    4.26    17.72185    44.72036   163.48019
   178  C   4.0    0.11    3.30    3.05    17.80122    44.68824   160.58324
   179  O   6.0   -0.30    1.28    1.80    19.44717    43.41834   159.44941
   180  C   4.0    0.04    4.15    3.90    15.39749    43.33142   164.40049
   181  O   6.0   -0.22    2.06    1.83    15.26521    40.99194   163.09847
   182  H   1.0    0.08    1.05    1.44    16.50298    47.77038   165.75353
   183  H   1.0    0.06    1.06    1.44    19.36780    43.71503   164.20396
   184  H   1.0    0.05    1.01    1.43    15.54678    42.99127   166.42627
   185  H   1.0    0.06    1.01    1.43    13.71374    44.44824   163.99609
   186  H   1.0    0.14    1.01    1.43    13.77610    40.04140   163.65405
   187  N   5.0   -0.19    3.27    1.97    20.01220    48.39588   157.05890
   188  C   4.0    0.04    4.51    4.55    22.54443    48.67745   156.15561
   189  C   4.0    0.15    3.60    3.16    24.28109    46.44379   156.56002
   190  O   6.0   -0.32    1.31    1.80    25.38469    45.57263   154.74210
   191  C   4.0   -0.02    4.48    4.51    23.86157    50.91111   157.30457
   192  C   4.0   -0.05    4.28    4.17    23.06788    53.23169   155.86082
   193  C   4.0   -0.08    4.27    4.15    26.66403    50.62009   157.09103
   194  C   4.0   -0.07    4.04    3.69    22.07578    55.24047   157.59936
   195  H   1.0    0.11    1.05    1.44    19.60213    49.14421   158.78611
   196  H   1.0    0.04    1.08    1.44    22.21940    48.90800   154.13550
   197  H   1.0    0.05    1.07    1.44    23.35512    51.05851   159.29634
   198  H   1.0    0.04    1.04    1.43    24.69116    53.99325   154.84792
   199  H   1.0    0.04    1.05    1.44    21.57878    52.73091   154.53045
   200  H   1.0    0.03    1.00    1.43    27.57488    52.26226   157.93574
   201  H   1.0    0.04    1.04    1.43    27.23851    48.90989   158.08502
   202  H   1.0    0.04    1.01    1.43    27.17426    50.48025   155.10115
   203  H   1.0    0.05    1.00    1.43    21.52398    56.88075   156.48254
   204  H   1.0    0.05    1.00    1.43    20.44306    54.50159   158.61604
   205  H   1.0    0.04    1.00    1.43    23.55543    55.76392   158.93351
   206  N   5.0   -0.14    3.51    2.08    24.48518    45.47437   158.86926
   207  C   4.0    0.03    4.41    4.40    25.90625    43.13866   159.32279
   208  C   4.0    0.16    3.48    3.11    25.11635    41.04674   157.48976
   209  O   6.0   -0.30    1.24    1.80    26.61679    39.42346   156.78489
   210  C   4.0   -0.04    4.30    4.20    25.57555    42.17679   162.02510
   211  C   4.0   -0.04    4.21    4.02    26.93615    39.65023   162.51643
   212  C   4.0   -0.01    4.23    4.05    27.09678    38.90946   165.28488
   213  N   5.0   -0.13    3.45    2.05    27.62401    41.12044   166.84201
   214  C   4.0    0.10    3.34    3.06    28.19093    41.03351   169.27976
   215  N   5.0   -0.16    3.26    1.97    28.33455    38.77907   170.39092
   216  N   5.0   -0.19    3.23    1.96    28.61612    43.18402   170.56855
   217  H   1.0    0.11    1.10    1.44    23.70283    46.24348   160.45474
   218  H   1.0    0.04    1.06    1.44    27.89991    43.58464   159.06012
   219  H   1.0    0.04    1.05    1.44    26.34278    43.57519   163.32901
   220  H   1.0    0.06    1.03    1.43    23.56866    41.89711   162.39360
   221  H   1.0    0.06    1.03    1.43    25.92137    38.15357   161.52999
   222  H   1.0    0.05    1.03    1.43    28.86178    39.78818   161.79834
   223  H   1.0    0.05    1.03    1.43    25.30343    38.09310   165.88581
   224  H   1.0    0.06    1.03    1.43    28.61612    37.54319   165.54755
   225  H   1.0    0.07    1.10    1.44    27.55220    42.85143   165.99731
   226  H   1.0    0.09    1.05    1.44    28.01141    37.17847   169.36669
   227  H   1.0    0.10    1.02    1.43    28.76730    38.65434   172.26553
   228  H   1.0    0.08    1.02    1.43    28.50274    44.88477   169.66904
   229  H   1.0    0.08    1.03    1.43    29.05265    43.11221   172.44505
   230  N   5.0   -0.13    3.54    2.11    22.73340    41.10910   156.72820
   231  C   4.0    0.05    4.39    4.37    21.73185    39.41212   154.82903
   232  C   4.0    0.18    3.46    3.10    23.05844    39.32898   152.24010
   233  O   6.0   -0.25    1.24    1.80    22.96584    37.35988   151.01745
   234  C   4.0    0.04    4.18    3.96    18.97285    40.03951   154.36415
   235  O   6.0   -0.22    2.11    1.84    18.56845    40.32486   151.72043
   236  H   1.0    0.12    1.18    1.46    21.41815    42.34309   157.40661
   237  H   1.0    0.07    1.06    1.44    22.01153    37.53941   155.63972
   238  H   1.0    0.06    1.01    1.43    17.79177    38.50884   155.07658
   239  H   1.0    0.06    1.03    1.43    18.49853    41.79885   155.32413
   240  H   1.0    0.13    1.01    1.43    16.79210    40.72926   151.39161
   241  N   5.0   -0.14    3.51    2.08    24.15448    41.42279   151.33681
   242  C   4.0    0.04    4.43    4.43    25.35634    41.46626   148.81403
   243  C   4.0    0.16    3.36    3.07    28.21928    41.11666   148.83482
   244  O   6.0   -0.27    1.20    1.80    29.44949    41.29618   146.84304
   245  C   4.0   -0.04    4.35    4.29    24.68549    43.88511   147.42130
   246  C   4.0   -0.04    4.24    4.09    22.01153    44.70903   147.92019
   247  C   4.0   -0.01    4.25    4.10    21.77720    47.38866   147.00556
   248  N   5.0   -0.13    3.37    2.01    20.43361    47.67590   144.58860
   249  C   4.0    0.11    3.33    3.06    21.52587    47.78361   142.31337
   250  N   5.0   -0.17    3.26    1.97    24.00141    47.56251   142.07527
   251  N   5.0   -0.16    3.23    1.96    20.13881    48.10675   140.23845
   252  H   1.0    0.11    1.08    1.44    24.24329    43.09898   152.28546
   253  H   1.0    0.08    1.07    1.44    24.58156    39.87133   147.76712
   254  H   1.0    0.04    1.04    1.43    25.94783    45.39122   148.03924
   255  H   1.0    0.06    1.03    1.43    24.89525    43.57708   145.39551
   256  H   1.0    0.06    1.03    1.43    20.68872    43.51472   146.88840
   257  H   1.0    0.05    1.04    1.43    21.60335    44.63533   149.93842
   258  H   1.0    0.05    1.03    1.43    20.74730    48.47714   148.41908
   259  H   1.0    0.04    1.05    1.44    23.66882    48.16533   146.75801
   260  H   1.0    0.09    1.06    1.44    18.51176    47.80251   144.65474
   261  H   1.0    0.08    1.04    1.43    25.10123    47.30740   143.63807
   262  H   1.0    0.10    1.03    1.43    24.81399    47.64755   140.32916
   263  H   1.0    0.11    1.02    1.43    18.22263    48.27494   140.37640
   264  H   1.0    0.11    1.02    1.43    20.99108    48.18612   138.51124
   265  N   5.0   -0.11    3.64    2.19    29.17737    40.59131   151.10060
   266  C   4.0    0.03    4.39    4.36    31.78141    40.22849   151.79791
   267  C   4.0    0.15    3.48    3.11    31.97227    37.34287   151.93208
   268  O   6.0   -0.26    1.35    1.80    30.12223    36.09943   151.37839
   269  C   4.0   -0.04    4.39    4.36    32.07054    41.44736   154.37738
   270  C   4.0   -0.04    4.06    3.73    31.64913    44.31029   154.44919
   271  S   6.0   -0.03    2.52    3.10    34.56876    46.00916   154.97265
   272  C   4.0   -0.07    3.90    3.46    33.55208    48.29951   157.24599
   273  H   1.0    0.11    1.10    1.44    28.04920    40.38722   152.65017
   274  H   1.0    0.05    1.04    1.44    33.20248    41.03540   150.54502
   275  H   1.0    0.06    1.04    1.43    30.70049    40.59320   155.65673
   276  H   1.0    0.04    1.06    1.44    33.98294    41.09020   155.05390
   277  H   1.0    0.05    1.07    1.44    30.85734    44.92634   152.65017
   278  H   1.0    0.05    1.07    1.44    30.35278    44.76761   155.98176
   279  H   1.0    0.04    1.07    1.44    35.15079    49.49192   157.75810
   280  H   1.0    0.04    1.04    1.43    32.05542    49.44846   156.41829
   281  H   1.0    0.04    1.04    1.43    32.84533    47.32063   158.91461
   282  N   5.0   -0.15    3.40    2.02    34.10199    36.21849   152.61805
   283  C   4.0    0.03    4.60    4.66    34.48183    33.58043   151.80358
   284  C   4.0    0.14    3.54    3.13    35.12245    31.58488   153.73110
   285  O   6.0   -0.34    1.74    1.81    37.31642    31.36378   154.44919
   286  C   4.0   -0.01    4.37    4.33    36.63423    33.32721   149.90818
   287  C   4.0   -0.06    4.33    4.26    39.09654    33.69003   151.32358
   288  C   4.0   -0.07    4.16    3.93    36.57754    30.68348   148.73655
   289  H   1.0    0.07    1.04    1.44    35.51173    37.01217   153.66496
   290  H   1.0    0.07    1.12    1.45    32.55620    33.18170   151.18941
   291  H   1.0    0.05    1.05    1.44    36.45848    34.72371   148.40396
   292  H   1.0    0.04    1.00    1.43    40.66312    33.51618   149.99889
   293  H   1.0    0.04    1.00    1.43    39.10788    35.56275   152.18152
   294  H   1.0    0.09    1.27    1.48    39.24772    32.24628   152.78623
   295  H   1.0    0.05    1.00    1.43    38.12144    30.51529   147.38351
   296  H   1.0    0.05    1.02    1.43    36.79863    29.28319   150.23132
   297  H   1.0    0.05    1.00    1.43    34.77285    30.41325   147.78035
   298  N   5.0   -0.14    3.35    2.00    33.23650    29.98050   154.24132
   299  C   4.0    0.03    4.21    4.03    33.09477    27.98495   156.24443
   300  C   4.0    0.15    3.33    3.06    33.39524    28.86367   159.04878
   301  O   6.0   -0.28    1.24    1.80    34.42892    27.49173   160.64371
   302  C   4.0   -0.03    4.18    3.96    34.49884    25.42059   155.57358
   303  C   4.0   -0.02    4.10    3.81    36.08054    24.33400   153.30591
   304  C   4.0   -0.06    4.05    3.72    34.92025    24.61179   150.65840
   305  C   4.0   -0.07    4.06    3.73    38.88111    25.05021   153.28701
   306  H   1.0    0.08    1.06    1.44    31.60189    29.98806   153.21898
   307  H   1.0    0.05    1.07    1.44    31.09544    27.49173   156.22175
   308  H   1.0    0.06    1.05    1.44    35.82542    25.20139   157.13260
   309  H   1.0    0.05    1.04    1.43    32.99650    24.02031   155.72476
   310  H   1.0    0.05    1.07    1.44    35.99172    22.31766   153.72165
   311  H   1.0    0.06    1.00    1.43    36.20148    23.78598   149.27512
   312  H   1.0    0.06    1.00    1.43    33.10989    23.62913   150.61305
   313  H   1.0    0.05    1.01    1.43    34.64435    26.61301   150.25400
   314  H   1.0    0.05    1.00    1.43    39.78062    24.19794   151.64106
   315  H   1.0    0.05    1.00    1.43    39.04741    27.10056   153.19441
   316  H   1.0    0.05    1.00    1.43    39.76361    24.35101   155.01233
   317  N   5.0   -0.14    3.39    2.02    32.31998    31.09544   159.61948
   318  C   4.0    0.03    4.35    4.29    33.22894    32.73194   161.67550
   319  C   4.0    0.14    3.40    3.08    32.19715    33.57854   164.30411
   320  O   6.0   -0.30    1.33    1.80    32.80753    35.64023   165.21874
   321  C   4.0   -0.03    4.27    4.14    34.55742    35.03174   160.46986
   322  C   4.0   -0.04    4.21    4.01    37.11800    35.75739   161.55645
   323  C   4.0   -0.01    4.21    4.02    39.36866    34.33443   160.45096
   324  N   5.0   -0.12    3.48    2.06    39.95070    32.00629   161.82290
   325  C   4.0    0.12    3.40    3.08    39.72771    29.69137   160.86481
   326  N   5.0   -0.17    3.35    2.00    38.97371    29.36634   158.49887
   327  N   5.0   -0.16    3.27    1.97    40.27006    27.68637   162.27077
   328  H   1.0    0.09    1.05    1.44    30.80253    31.82298   158.67840
   329  H   1.0    0.09    1.21    1.47    34.03963    31.07843   162.59958
   330  H   1.0    0.05    1.04    1.43    34.84466    34.62734   158.47053
   331  H   1.0    0.05    1.03    1.43    33.32532    36.66824   160.68907
   332  H   1.0    0.04    1.03    1.43    37.42980    37.76428   161.20874
   333  H   1.0    0.05    1.15    1.45    37.09532    35.38890   163.58224
   334  H   1.0    0.05    1.05    1.44    38.95103    33.83176   158.49698
   335  H   1.0    0.04    1.03    1.43    41.03162    35.54763   160.52655
   336  H   1.0    0.08    1.08    1.44    40.57053    32.16880   163.64082
   337  H   1.0    0.11    1.11    1.45    38.55986    30.89513   157.40094
   338  H   1.0    0.09    1.03    1.43    38.80741    27.58811   157.77700
   339  H   1.0    0.10    1.03    1.43    40.85965    27.91692   164.09057
   340  H   1.0    0.09    1.03    1.43    40.09621    25.91570   161.52999
   341  N   5.0   -0.13    3.40    2.02    30.69293    31.97038   165.54188
   342  C   4.0    0.03    4.31    4.21    29.09989    32.73950   167.70751
   343  C   4.0    0.15    3.39    3.08    29.80476    31.67748   170.32856
   344  O   6.0   -0.27    1.22    1.80    28.56510    32.28597   172.21262
   345  C   4.0   -0.06    4.14    3.89    26.38246    31.83243   167.39003
   346  H   1.0    0.09    1.05    1.44    30.52474    30.10333   165.09591
   347  H   1.0    0.06    1.08    1.44    29.29831    34.78985   167.69239
   348  H   1.0    0.07    1.01    1.43    25.27886    32.43715   169.02087
   349  H   1.0    0.05    1.00    1.43    25.59823    32.65068   165.67038
   350  H   1.0    0.06    1.00    1.43    26.37302    29.77641   167.25775
   351  N   5.0   -0.12    3.57    2.13    31.77952    30.10711   170.43438
   352  C   4.0    0.06    4.40    4.37    33.36311    29.52130   172.68316
   353  C   4.0    0.18    3.34    3.06    35.10355    31.77385   173.45794
   354  O   6.0   -0.25    1.20    1.80    36.39612    31.75118   175.40247
   355  C   4.0    0.06    4.14    3.88    34.46671    26.79253   172.49796
   356  O   6.0   -0.20    2.07    1.84    36.74005    26.58089   173.96817
   357  C   4.0   -0.05    4.12    3.85    35.00339    26.01208   169.69739
   358  H   1.0    0.10    1.13    1.45    32.39746    29.12635   168.89426
   359  H   1.0    0.07    1.07    1.44    32.27274    29.29642   174.41604
   360  H   1.0    0.06    1.04    1.43    33.06453    25.48106   173.24630
   361  H   1.0    0.13    1.01    1.43    37.41657    24.86123   173.84345
   362  H   1.0    0.06    0.99    1.43    35.77062    24.10156   169.63314
   363  H   1.0    0.06    1.01    1.43    33.25918    26.06877   168.60324
   364  H   1.0    0.09    1.04    1.43    36.36400    27.30843   168.85268
   365  N   5.0   -0.11    3.59    2.15    35.08276    33.71838   171.86680
   366  C   4.0    0.04    4.36    4.30    36.94414    35.74228   171.60979
   367  C   4.0    0.14    3.40    3.08    35.40024    38.12522   171.09768
   368  O   6.0   -0.28    1.23    1.80    33.93003    38.24994   169.24197
   369  C   4.0   -0.03    4.21    4.01    38.87355    35.17347   169.48574
   370  C   4.0   -0.03    4.28    4.16    37.80019    34.36656   166.88548
   371  C   4.0    0.25    3.16    3.03    36.73060    31.65102   166.73430
   372  O   6.0   -0.29    1.40    1.80    36.92336    30.35845   164.75765
   373  O   6.0   -0.31    1.60    1.81    35.62511    30.74773   168.57489
   374  H   1.0    0.11    1.11    1.45    33.65413    33.97349   170.59879
   375  H   1.0    0.06    1.06    1.44    38.06097    35.99550   173.32188
   376  H   1.0    0.04    1.03    1.43    39.98849    36.87611   169.17016
   377  H   1.0    0.06    1.03    1.43    40.09243    33.64279   170.13014
   378  H   1.0    0.08    1.08    1.44    36.26762    35.65157   166.39226
   379  H   1.0    0.04    1.06    1.44    39.31197    34.50451   165.49275
   380  N   5.0   -0.13    3.42    2.03    35.64212    39.91479   172.86835
   381  C   4.0    0.03    4.35    4.30    34.12467    42.24860   172.94394
   382  C   4.0    0.15    3.47    3.10    35.68181    44.47092   172.14648
   383  O   6.0   -0.29    1.27    1.80    37.99294    44.39722   172.17293
   384  C   4.0   -0.07    4.10    3.80    32.99273    42.73426   175.56499
   385  H   1.0    0.09    1.06    1.44    36.90824    39.80330   174.31777
   386  H   1.0    0.06    1.09    1.44    32.55809    42.03884   171.62302
   387  H   1.0    0.05    1.00    1.43    31.89479    44.47659   175.50830
   388  H   1.0    0.06    1.00    1.43    31.77574    41.15256   176.07333
   389  H   1.0    0.06    1.00    1.43    34.52151    42.91190   176.93315
   390  N   5.0   -0.14    3.61    2.17    34.39868    46.45135   171.39625
   391  C   4.0    0.04    4.52    4.57    35.71582    48.68123   170.65737
   392  C   4.0    0.16    3.55    3.14    33.91680    50.74481   171.31878
   393  O   6.0   -0.30    1.29    1.80    31.62267    50.40844   171.12980
   394  C   4.0   -0.03    4.34    4.28    36.32998    48.65099   167.84168
   395  C   4.0   -0.01    3.56    3.14    34.04341    48.66422   166.14282
   396  C   4.0   -0.04    3.45    3.10    32.52029    46.51182   165.88203
   397  C   4.0   -0.03    3.45    3.10    33.41602    50.82040   164.77087
   398  C   4.0   -0.05    3.36    3.07    30.41325    46.54395   164.30600
   399  C   4.0   -0.05    3.36    3.07    31.30520    50.85253   163.19862
   400  C   4.0   -0.05    3.36    3.07    29.81043    48.72469   162.95485
   401  H   1.0    0.09    1.09    1.44    32.47683    46.55340   171.28665
   402  H   1.0    0.06    1.07    1.44    37.52240    48.93823   171.61357
   403  H   1.0    0.05    1.04    1.43    37.44870    50.32151   167.39381
   404  H   1.0    0.05    1.03    1.43    37.40901    46.94646   167.42216
   405  H   1.0    0.06    1.03    1.43    32.98517    44.81296   166.91382
   406  H   1.0    0.06    1.03    1.43    34.58010    52.48903   164.92772
   407  H   1.0    0.04    1.04    1.43    29.24540    44.87910   164.13026
   408  H   1.0    0.04    1.03    1.43    30.83466    52.54761   162.16494
   409  H   1.0    0.04    1.03    1.43    28.18337    48.75115   161.72275
   410  N   5.0   -0.12    3.57    2.13    34.95993    52.83674   172.20128
   411  C   4.0    0.04    4.48    4.50    33.46894    54.95512   172.99685
   412  C   4.0    0.15    3.47    3.10    32.58832    56.29872   170.64603
   413  O   6.0   -0.30    1.27    1.80    33.75051    56.04360   168.64481
   414  C   4.0   -0.03    4.37    4.33    35.13190    56.67477   174.54832
   415  C   4.0   -0.01    3.56    3.14    36.58698    55.33118   176.62702
   416  C   4.0   -0.03    3.46    3.10    35.34732    54.38820   178.74162
   417  C   4.0   -0.03    3.46    3.10    39.20048    55.05528   176.50607
   418  C   4.0   -0.03    3.41    3.08    36.66068    53.19012   180.68237
   419  C   4.0   -0.02    3.43    3.09    40.53840    53.87798   178.43548
   420  C   4.0    0.08    3.43    3.09    39.26473    52.93689   180.51985
   421  O   6.0   -0.26    2.24    1.87    40.58753    51.76148   182.43981
   422  H   1.0    0.09    1.08    1.44    36.85910    53.10886   172.38458
   423  H   1.0    0.05    1.06    1.44    31.83810    54.41277   174.13258
   424  H   1.0    0.06    1.04    1.43    36.50573    57.56861   173.29921
   425  H   1.0    0.06    1.03    1.43    33.95082    58.10907   175.43649
   426  H   1.0    0.06    1.03    1.43    33.32154    54.58851   178.88335
   427  H   1.0    0.07    1.03    1.43    40.20770    55.76959   174.88091
   428  H   1.0    0.06    1.03    1.43    35.65724    52.46257   182.30375
   429  H   1.0    0.07    1.03    1.43    42.56797    53.69656   178.31076
   430  H   1.0    0.13    1.02    1.43    42.39600    51.73503   182.03919
   431  N   5.0   -0.14    3.44    2.04    30.49451    57.67066   170.85201
   432  C   4.0    0.04    4.41    4.39    29.64224    59.26370   168.76576
   433  C   4.0    0.08    3.25    3.04    29.26997    61.93010   169.77298
   434  O   6.0   -0.25    1.12    1.80    27.45961    62.44032   171.21106
   435  C   4.0   -0.04    4.41    4.39    27.19883    58.26592   167.64893
   436  C   4.0   -0.02    4.25    4.11    26.40703    59.87408   165.41527
   437  C   4.0   -0.07    4.21    4.02    28.61990    59.90242   163.60113
   438  C   4.0   -0.07    4.10    3.81    24.05999    58.83473   164.11703
   439  H   1.0    0.09    1.05    1.44    29.36634    57.71790   172.41482
   440  H   1.0    0.05    1.09    1.44    31.08221    59.30149   167.29366
   441  H   1.0    0.04    1.03    1.43    27.47473    56.32895   167.00642
   442  H   1.0    0.06    1.03    1.43    25.71161    58.33206   169.07189
   443  H   1.0    0.06    1.06    1.44    25.91759    61.77703   166.03132
   444  H   1.0    0.05    1.00    1.43    28.12668    61.04382   161.95896
   445  H   1.0    0.04    1.02    1.43    30.25640    60.71123   164.55356
   446  H   1.0    0.04    1.01    1.43    29.03186    57.97112   163.01532
   447  H   1.0    0.05    1.00    1.43    23.57433    60.05549   162.52966
   448  H   1.0    0.03    1.00    1.43    24.45494    56.92988   163.44240
   449  H   1.0    0.05    1.00    1.43    22.50853    58.79315   165.47007
   450  N   5.0   -0.18    3.37    2.01    35.85944    61.39531   161.40527
   451  C   4.0    0.03    4.42    4.42    35.70826    59.29582   163.04555
   452  C   4.0    0.15    3.52    3.13    38.34443    58.35096   163.23831
   453  O   6.0   -0.30    1.28    1.80    39.65212    58.25836   161.30701
   454  C   4.0   -0.04    4.42    4.41    34.03207    57.32484   161.89471
   455  C   4.0   -0.01    3.65    3.20    35.04686    56.30627   159.46263
   456  C   4.0   -0.04    3.51    3.12    34.76718    57.66499   157.24977
   457  C   4.0   -0.04    3.49    3.11    36.30919    53.97435   159.38516
   458  C   4.0   -0.05    3.52    3.12    35.67236    56.73713   155.00666
   459  C   4.0   -0.04    3.46    3.10    37.24083    53.03705   157.15717
   460  C   4.0    0.06    3.49    3.11    36.91013    54.43734   154.98587
   461  O   6.0   -0.25    2.15    1.85    37.81153    53.56428   152.73521
   462  H   1.0    0.10    1.04    1.43    36.97438    61.22712   159.84247
   463  H   1.0    0.05    1.06    1.44    34.96749    59.74558   164.91449
   464  H   1.0    0.04    1.04    1.43    33.84310    55.75447   163.21374
   465  H   1.0    0.03    1.05    1.44    32.18581    58.15443   161.51677
   466  H   1.0    0.05    1.03    1.43    33.82609    59.47534   157.28756
   467  H   1.0    0.05    1.03    1.43    36.54919    52.90288   161.10481
   468  H   1.0    0.05    1.04    1.43    35.42102    57.78971   153.27756
   469  H   1.0    0.05    1.03    1.43    38.21215    51.24181   157.10426
   470  H   1.0    0.11    1.03    1.43    37.43547    54.77749   151.38784
   471  N   5.0   -0.14    3.43    2.04    39.07764    57.64420   165.54944
   472  C   4.0    0.03    4.32    4.23    41.65145    56.84485   166.21085
   473  C   4.0    0.14    3.41    3.08    41.75538    54.57529   167.99664
   474  O   6.0   -0.30    1.26    1.80    39.97148    54.12175   169.40637
   475  C   4.0   -0.05    4.12    3.84    43.03095    59.02559   167.43161
   476  H   1.0    0.10    1.06    1.44    37.88712    57.60263   167.06500
   477  H   1.0    0.05    1.06    1.44    42.55474    56.20612   164.47419
   478  H   1.0    0.06    1.00    1.43    44.93957    58.42277   167.91916
   479  H   1.0    0.06    1.00    1.43    43.10843    60.59784   166.10313
   480  H   1.0    0.06    1.00    1.43    42.01617    59.59251   169.13236
   481  N   5.0   -0.15    3.44    2.04    43.84920    53.17311   167.98341
   482  C   4.0    0.05    4.30    4.19    44.10998    51.08307   169.76353
   483  C   4.0    0.11    3.21    3.04    45.15878    52.04116   172.29387
   484  O   6.0   -0.27    1.11    1.80    44.95847    50.76182   174.22328
   485  C   4.0    0.04    4.13    3.86    45.66712    48.87776   168.68828
   486  O   6.0   -0.22    2.04    1.83    48.27494    49.18201   169.20795
   487  H   1.0    0.12    1.13    1.45    45.34775    53.43200   166.79855
   488  H   1.0    0.06    1.07    1.44    42.27317    50.21380   170.10179
   489  H   1.0    0.05    1.01    1.43    45.01705    47.12221   169.54810
   490  H   1.0    0.05    1.03    1.43    45.39878    48.80595   166.64737
   491  H   1.0    0.12    1.01    1.43    49.23114    47.75715   168.51064
   492  N   5.0   -0.19    3.21    1.96    63.41731    21.82208   164.31860
   493  C   4.0    0.04    4.26    4.13    61.47845    20.99627   162.57627
   494  C   4.0    0.10    3.25    3.04    59.10874    20.41045   164.02380
   495  O   6.0   -0.30    1.29    1.80    57.07350    20.49738   162.98445
   496  C   4.0   -0.04    4.27    4.15    62.28537    18.69647   161.04559
   497  C   4.0   -0.04    4.18    3.95    62.80882    19.30685   158.27904
   498  C   4.0    0.00    4.18    3.96    60.52792    20.36699   156.82773
   499  N   5.0   -0.12    3.37    2.01    60.71878    19.75283   154.11597
   500  C   4.0    0.12    3.32    3.06    59.26559    20.65612   152.25459
   501  N   5.0   -0.15    3.30    1.98    57.43822    22.30207   152.71568
   502  N   5.0   -0.16    3.23    1.96    59.66432    19.90590   149.88109
   503  H   1.0    0.10    1.03    1.43    64.97634    20.69202   164.39608
   504  H   1.0    0.05    1.07    1.44    61.14019    22.48159   161.18921
   505  H   1.0    0.06    1.03    1.43    64.01069    17.92357   161.86196
   506  H   1.0    0.07    1.04    1.43    60.78304    17.29052   161.11174
   507  H   1.0    0.06    1.03    1.43    64.31115    20.71470   158.18833
   508  H   1.0    0.06    1.03    1.43    63.40220    17.57964   157.32472
   509  H   1.0    0.07    1.02    1.43    58.79315    19.53740   157.56850
   510  H   1.0    0.06    1.02    1.43    60.47123    22.41545   157.03371
   511  H   1.0    0.09    1.06    1.44    62.10206    18.51128   153.60763
   512  H   1.0    0.11    1.08    1.44    57.11697    22.90489   154.51848
   513  H   1.0    0.09    1.03    1.43    56.35163    22.96725   151.26815
   514  H   1.0    0.11    1.02    1.43    61.07216    18.64923   149.49181
   515  H   1.0    0.10    1.02    1.43    58.56072    20.58998   148.45624
   516  N   5.0   -0.18    3.38    2.01    55.99069    28.06384   166.69210
   517  C   4.0    0.02    4.28    4.15    55.03827    29.69468   164.63796
   518  C   4.0    0.15    3.63    3.19    55.69778    27.60275   162.68399
   519  O   6.0   -0.31    1.29    1.80    57.66877    27.75015   161.52559
   520  C   4.0   -0.03    4.35    4.28    56.91288    31.87164   164.13152
   521  C   4.0   -0.02    3.50    3.12    57.40987    33.59885   166.38218
   522  C   4.0   -0.04    3.45    3.10    55.89809    35.70779   166.84327
   523  C   4.0   -0.03    3.44    3.09    59.47912    33.19823   167.96388
   524  C   4.0   -0.03    3.36    3.07    56.37619    37.32728   168.87473
   525  C   4.0   -0.02    3.36    3.07    59.97801    34.82339   169.99534
   526  C   4.0   -0.03    3.35    3.06    58.41521    36.87942   170.46588
   527  H   1.0    0.10    1.04    1.43    57.71979    27.28150   166.35572
   528  H   1.0    0.04    1.03    1.43    53.15232    30.50726   164.79103
   529  H   1.0    0.06    1.05    1.44    58.71945    31.05906   163.56649
   530  H   1.0    0.04    1.03    1.43    56.16077    33.03949   162.61218
   531  H   1.0    0.05    1.08    1.44    54.32395    36.09896   165.60361
   532  H   1.0    0.06    1.03    1.43    60.71689    31.61275   167.61806
   533  H   1.0    0.06    1.03    1.43    55.15732    38.92977   169.20732
   534  H   1.0    0.07    1.03    1.43    61.58617    34.47568   171.20098
   535  H   1.0    0.07    1.03    1.43    58.78182    38.11341   172.04947
   536  N   5.0   -0.10    3.69    2.26    53.90821    25.91523   162.05282
   537  C   4.0    0.05    4.76    4.81    54.29750    23.72125   160.45600
   538  C   4.0    0.14    3.42    3.08    53.97246    23.82897   157.65921
   539  O   6.0   -0.30    1.33    1.80    54.34285    21.90712   156.44033
   540  C   4.0   -0.01    4.51    4.55    52.67800    21.82397   161.79393
   541  C   4.0   -0.04    4.38    4.35    50.31773    23.33575   162.01691
   542  C   4.0   -0.01    4.40    4.38    51.23614    25.90011   162.84272
   543  H   1.0    0.08    1.11    1.45    56.27982    23.17134   160.56749
   544  H   1.0    0.07    1.03    1.43    52.41533    20.12700   160.65820
   545  H   1.0    0.08    1.05    1.44    53.46602    21.32697   163.63074
   546  H   1.0    0.05    1.03    1.43    49.35964    23.43591   160.19522
   547  H   1.0    0.05    1.03    1.43    49.06673    22.50238   163.42476
   548  H   1.0    0.05    1.02    1.43    50.18356    27.39488   161.89408
   549  H   1.0    0.05    1.02    1.43    51.07551    26.11176   164.88552
   550  N   5.0   -0.14    3.61    2.17    53.09185    25.93223   156.67466
   551  C   4.0    0.04    4.43    4.42    52.01093    26.22514   154.14243
   552  C   4.0    0.15    3.42    3.09    53.67956    28.23581   152.91788
   553  O   6.0   -0.29    1.20    1.80    52.87642    29.75704   151.31918
   554  C   4.0   -0.03    4.33    4.25    49.24815    27.03583   154.31061
   555  C   4.0    0.16    3.27    3.05    48.92500    29.70224   155.33295
   556  O   6.0   -0.30    1.24    1.80    50.40277    30.67545   156.85796
   557  N   5.0   -0.18    3.20    1.96    46.96536    30.90410   154.46179
   558  H   1.0    0.10    1.08    1.44    53.08996    27.60275   157.63653
   559  H   1.0    0.06    1.05    1.44    51.96935    24.49226   153.02938
   560  H   1.0    0.05    1.03    1.43    48.41478    26.97158   152.42844
   561  H   1.0    0.05    1.03    1.43    48.24659    25.74704   155.56728
   562  H   1.0    0.10    1.03    1.43    46.60064    32.70501   155.04572
   563  H   1.0    0.08    1.03    1.43    45.79373    30.04617   153.19567
   564  N   5.0   -0.13    3.53    2.10    56.05116    28.14510   153.80039
   565  C   4.0    0.03    4.25    4.09    58.15065    29.89310   153.24859
   566  C   4.0    0.08    3.20    3.04    60.64131    28.43612   152.77049
   567  O   6.0   -0.27    1.13    1.80    61.09862    26.41411   153.87031
   568  C   4.0   -0.04    4.28    4.15    58.62497    31.62220   155.51248
   569  C   4.0   -0.04    4.20    4.00    56.32895    33.00359   156.56883
   570  C   4.0   -0.04    4.15    3.91    55.98502    35.63976   155.48413
   571  C   4.0   -0.04    4.13    3.87    57.76892    37.51247   156.78615
   572  N   5.0   -0.11    3.98    2.82    56.73713    40.08439   157.28693
   573  H   1.0    0.10    1.10    1.44    56.63509    26.76182   155.00981
   574  H   1.0    0.05    1.05    1.44    57.67066    30.95701   151.55161
   575  H   1.0    0.06    1.03    1.43    59.39976    30.47891   157.04127
   576  H   1.0    0.05    1.04    1.43    59.98746    33.05839   154.94745
   577  H   1.0    0.07    1.04    1.43    54.63576    31.91511   156.13042
   578  H   1.0    0.04    1.03    1.43    56.54060    33.18500   158.60974
   579  H   1.0    0.05    1.03    1.43    56.41210    35.61897   153.46968
   580  H   1.0    0.05    1.03    1.43    54.04427    36.26337   155.78649
   581  H   1.0    0.04    1.03    1.43    58.31694    36.71690   158.60596
   582  H   1.0    0.05    1.02    1.43    59.42999    37.75058   155.59185
   583  H   1.0    0.06    1.02    1.43    58.09773    41.19366   158.16943
   584  H   1.0    0.07    1.01    1.43    56.21557    40.94044   155.59563
   585  H   1.0    0.06    1.01    1.43    55.15921    39.95967   158.45289
   586  N   5.0   -0.19    3.20    1.96    56.05116    34.04483   144.58041
   587  C   4.0    0.04    4.22    4.03    56.03037    31.91511   142.90045
   588  C   4.0    0.10    3.16    3.03    56.90154    32.72013   140.23971
   589  O   6.0   -0.23    1.11    1.80    57.97868    31.19701   138.85076
   590  C   4.0   -0.04    4.26    4.11    53.58129    30.38443   143.31241
   591  C   4.0   -0.02    4.23    4.06    53.76081    27.67267   142.43557
   592  C   4.0    0.16    3.23    3.04    52.29061    25.90011   144.15144
   593  O   6.0   -0.26    1.20    1.80    49.96813    25.82830   144.09097
   594  N   5.0   -0.17    3.17    1.95    53.64554    24.47525   145.70858
   595  H   1.0    0.09    1.03    1.43    54.39576    34.32451   145.52717
   596  H   1.0    0.06    1.09    1.44    57.40987    30.43923   143.30485
   597  H   1.0    0.06    1.04    1.43    53.14098    30.36742   145.32496
   598  H   1.0    0.06    1.03    1.43    52.05250    31.28394   142.26550
   599  H   1.0    0.08    1.03    1.43    52.98603    27.52149   140.53262
   600  H   1.0    0.06    1.04    1.43    55.73558    27.08686   142.44124
   601  H   1.0    0.09    1.03    1.43    55.56928    24.60754   145.70858
   602  H   1.0    0.11    1.02    1.43    52.76304    23.24882   146.90478
   603  N   5.0   -0.19    3.15    1.95    44.58747    43.93012   181.51007
   604  C   4.0    0.04    4.19    3.98    43.01226    42.52753   183.36200
   605  C   4.0    0.10    3.16    3.03    43.81754    39.76081   183.53018
   606  O   6.0   -0.24    1.12    1.80    42.44795    38.13435   184.46182
   607  C   4.0   -0.03    4.24    4.09    40.13396    42.98889   183.01240
   608  C   4.0   -0.03    4.01    3.63    39.22256    45.68997   183.56798
   609  S   6.0    0.01    2.44    3.10    39.72096    46.93565   186.75028
   610  C   4.0   -0.04    3.90    3.46    38.60535    50.17563   186.70114
   611  H   1.0    0.09    1.02    1.43    44.00572    43.66407   179.69215
   612  H   1.0    0.06    1.08    1.44    43.29650    43.33534   185.23472
   613  H   1.0    0.05    1.03    1.43    39.64455    42.56668   181.05653
   614  H   1.0    0.07    1.03    1.43    39.11763    41.72567   184.28230
   615  H   1.0    0.05    1.07    1.44    40.19854    46.96262   182.27541
   616  H   1.0    0.05    1.07    1.44    37.19360    45.75360   183.22027
   617  H   1.0    0.07    1.04    1.43    38.86560    51.00233   188.57008
   618  H   1.0    0.08    1.14    1.45    39.68798    51.23710   185.30653
   619  H   1.0    0.06    1.04    1.43    36.60732    50.18947   186.20037
   620  H   1.0    0.11    1.07    1.44    69.04681    42.57521   164.12712
   621  H   1.0    0.06    1.05    1.44    65.55218    45.06738   158.45359
   622  H   1.0    0.09    1.07    1.44    36.91309    61.09856   153.39699
   623  H   1.0    0.06    1.05    1.44    42.54847    61.72683   157.59007
   624  H   1.0    0.11    1.07    1.44    52.85608    59.89022   161.60430
   625  H   1.0    0.07    1.05    1.44    32.70410    50.30443   141.22185
   626  H   1.0    0.10    1.07    1.44    17.71146    53.88876   163.29764
   627  H   1.0    0.06    1.04    1.43    16.53653    45.68305   159.59229
   628  H   1.0    0.09    1.08    1.44    18.93627    49.14427   155.97499
   629  H   1.0    0.07    1.04    1.43    30.47786    63.30031   169.28864
   630  H   1.0    0.09    1.09    1.44    34.30902    61.76496   160.81189
   631  H   1.0    0.07    1.04    1.44    46.01613    53.72272   172.38538
   632  H   1.0    0.11    1.07    1.44    63.96007    23.37068   163.87161
   633  H   1.0    0.07    1.05    1.44    59.20917    19.94658   165.85295
   634  H   1.0    0.10    1.07    1.44    56.13050    28.97465   168.12159
   635  H   1.0    0.07    1.04    1.43    61.91807    29.12018   151.55681
   636  H   1.0    0.10    1.07    1.44    57.26430    33.83107   145.75309
   637  H   1.0    0.08    1.04    1.43    56.59196    34.48443   139.63765
   638  H   1.0    0.10    1.06    1.44    44.50947    45.59579   181.84479
   639  H   1.0    0.08    1.05    1.44    45.50566    39.22628   182.87019

  Z AO/shell   Hii/eV     exponent
  1     Wed Apr 25 08:07:45 CEST 2018   EN: 2.200 GM2: 0.406  GM3: 0.0800  RAES: 1.40
     1s    -10.707211    1.230000
  6     Wed Apr 25 08:07:45 CEST 2018   EN: 2.550 GM2: 0.538  GM3: 0.1500  RAES: 3.00
     2s    -13.970922    2.096432
     2p    -10.063292    1.800000
  7     Wed Apr 25 08:07:45 CEST 2018   EN: 3.040 GM2: 0.461  GM3:-0.0640  RAES: 1.90
     2s    -16.686243    2.339881
     2p    -12.523956    2.014332
  8     Wed Apr 25 08:07:45 CEST 2018   EN: 3.440 GM2: 0.452  GM3:-0.0517  RAES: 1.80
     2s    -20.229985    2.439742
     2p    -15.503117    2.137023
 16     Tue Apr 24 11:44:34 CEST 2018   EN: 2.580 GM2: 0.340  GM3:-0.0502  RAES: 3.10
     3s    -20.029654    1.981333
     3p    -11.377694    2.025643
     3d     -0.420282    1.702555
 no old-style atom pair restraining (fixing) potential

molecular fragmentation (1/2 indicates fragments):
111111111111111112222222222222222222222222222222222222222222222222222222
222222222222222222222222222222222222222222222222222222222222222222222222
222222222222222222222222222222222222222222222222222222222222222222222222
222222222222222222222222222222222222222222222222222222222222222222222222
222222222222222222222222222222222222222222222222222222222222222222222222
222222222222222222222222222222222222222222222222222222222222222222222222
222222222222222222222222222222222222222222222222222222222222222222222222
222222222222222222222222222222222222222222222222222222222222222222222222
222222222222222222222222222222222222222222211222222222222222222
# atoms in fragment 1/2:    19   620
 fragment masses (1/2) :      133.21     4208.13
CMA distance (Bohr)    :  24.917
constraining FC (au)   :  0.0500
           ------------------------------------------------- 
          |        Self-Consistent Charge Iterations        |
           ------------------------------------------------- 

 Ncao       : 1566
 Nao        : 1563
 Nshell     : 945
 Nel        : 1702
 T(el)      :   500.0
 intcut     :    35.0
 scfconv/Eh :  0.100E-06
   qconv/e  :  0.100E-04
 intneglect :  0.100E-08
 broydamp   :      0.400
 iter      E             dE          RMSdq      gap      omega  full diag
   1   -968.0605147 -0.968061E+03  0.460E+00    2.46       0.0  T
   2   -970.2437425 -0.218323E+01  0.217E+00    0.95       1.0  T
   3   -970.3746582 -0.130916E+00  0.119E+00    1.23       1.0  T
   4   -970.5285333 -0.153875E+00  0.268E-01    0.42       1.0  T
   5   -970.5377234 -0.919009E-02  0.133E-01    0.72       1.0  T
   6   -970.5401276 -0.240416E-02  0.579E-02    0.63       1.0  T
   7   -970.5406117 -0.484100E-03  0.289E-02    0.62       1.0  T
   8   -970.5406859 -0.742785E-04  0.154E-02    0.60       1.0  T
   9   -970.5407191 -0.331375E-04  0.759E-03    0.60       1.0  T
  10   -970.5407264 -0.732908E-05  0.383E-03    0.59       1.0  T
  11   -970.5407283 -0.184689E-05  0.182E-03    0.59       2.2  T
  12   -970.5407286 -0.391021E-06  0.839E-04    0.59       4.7  T
  13   -970.5407287 -0.910578E-07  0.376E-04    0.59      10.5  T
  14   -970.5407287 -0.931595E-08  0.187E-04    0.59      21.1  T
  15   -970.5407287 -0.522186E-08  0.789E-05    0.59      50.1  T
  16   -970.5407287 -0.713953E-09  0.371E-05    0.59     106.5  T
speedup  1.59
cpu  time for SCC    1 m 11.2 s
wall time for SCC    0 m 44.8 s

   *** convergence criteria satisfied after 16 iterations ***

          eigenvalues
 #    :         839        840        841        842        843        844        845        846
 occ. :        2.000      2.000      2.000      2.000      2.000      2.000      2.000      2.000
 eps  :        -9.999     -9.992     -9.972     -9.962     -9.945     -9.879     -9.868     -9.786
 #    :         847        848        849        850        851        852        853        854
 occ. :        2.000      2.000      2.000      1.999      1.998      0.003      0.000      0.000
 eps  :        -9.744     -9.510     -9.260     -9.194     -9.161     -8.570     -8.306     -8.270
 #    :         855        856        857        858        859        860        861        862
 occ. :        0.000      0.000      0.000      0.000      0.000      0.000      0.000      0.000
 eps  :        -8.135     -7.860     -7.711     -7.643     -7.557     -7.519     -7.443     -6.620


   #   Z            q   n(s)   n(p)   n(d)      C6AA      α(0)
   1   7 N     -0.382  1.324  4.059  0.000    29.881     8.119
   2   6 C      0.039  1.043  2.918  0.000    19.936     6.359
   3   6 C      0.199  1.077  2.724  0.000    23.765     7.986
   4   8 O     -0.375  1.765  4.610  0.000    21.180     6.170
   5   6 C     -0.059  1.051  3.008  0.000    21.595     6.608
   6   6 C     -0.009  1.059  2.950  0.000    20.742     6.485
   7  16 S     -0.204  1.911  4.236  0.057   149.743    20.596
   8   6 C     -0.079  1.059  3.020  0.000    22.085     6.704
   9   1 H      0.148  0.852  0.000  0.000     1.412     1.861
  10   1 H      0.076  0.924  0.000  0.000     2.020     2.222
  11   1 H      0.044  0.956  0.000  0.000     2.395     2.420
  12   1 H      0.048  0.952  0.000  0.000     2.349     2.397
  13   1 H      0.040  0.960  0.000  0.000     2.451     2.448
  14   1 H      0.046  0.954  0.000  0.000     2.372     2.408
  15   1 H      0.093  0.907  0.000  0.000     1.848     2.126
  16   1 H      0.063  0.937  0.000  0.000     2.166     2.302
  17   1 H      0.072  0.928  0.000  0.000     2.066     2.248
  18   7 N     -0.391  1.337  4.055  0.000    30.127     8.152
  19   6 C      0.034  1.049  2.917  0.000    20.011     6.371
  20   6 C      0.203  1.078  2.720  0.000    23.688     7.972
  21   8 O     -0.374  1.762  4.613  0.000    21.176     6.170
  22   6 C     -0.078  1.055  3.023  0.000    21.980     6.672
  23   6 C     -0.093  1.055  3.039  0.000    22.281     6.720
  24   6 C     -0.023  1.054  2.969  0.000    21.063     6.550
  25   7 N     -0.141  1.209  3.932  0.000    24.055     7.284
  26   6 C      0.232  1.022  2.746  0.000    23.124     7.873
  27   7 N     -0.246  1.237  4.008  0.000    26.404     7.632
  28   7 N     -0.255  1.239  4.016  0.000    26.626     7.664
  29   1 H      0.169  0.831  0.000  0.000     1.281     1.773
  30   1 H      0.056  0.944  0.000  0.000     2.249     2.345
  31   1 H      0.077  0.923  0.000  0.000     2.014     2.220
  32   1 H      0.066  0.934  0.000  0.000     2.126     2.280
  33   1 H      0.068  0.932  0.000  0.000     2.112     2.273
  34   1 H      0.066  0.934  0.000  0.000     2.135     2.285
  35   1 H      0.066  0.934  0.000  0.000     2.125     2.280
  36   1 H      0.100  0.900  0.000  0.000     1.786     2.090
  37   1 H      0.224  0.776  0.000  0.000     0.993     1.561
  38   1 H      0.226  0.774  0.000  0.000     0.984     1.554
  39   1 H      0.242  0.758  0.000  0.000     0.913     1.497
  40   1 H      0.239  0.761  0.000  0.000     0.929     1.510
  41   1 H      0.256  0.744  0.000  0.000     0.862     1.455
  42   7 N     -0.396  1.324  4.073  0.000    30.275     8.172
  43   6 C      0.032  1.043  2.925  0.000    20.046     6.377
  44   6 C      0.296  1.038  2.666  0.000    22.002     7.693
  45   8 O     -0.466  1.715  4.751  0.000    23.047     6.437
  46   6 C     -0.050  1.055  2.995  0.000    21.392     6.571
  47   6 C     -0.098  1.062  3.036  0.000    22.353     6.729
  48   6 C      0.354  1.031  2.616  0.000    20.997     7.499
  49   8 O     -0.602  1.768  4.834  0.000    26.171     6.859
  50   8 O     -0.624  1.772  4.852  0.000    26.705     6.928
  51   1 H      0.168  0.832  0.000  0.000     1.286     1.777
  52   1 H      0.012  0.988  0.000  0.000     2.861     2.645
  53   1 H      0.037  0.963  0.000  0.000     2.494     2.470
  54   1 H      0.053  0.947  0.000  0.000     2.285     2.364
  55   1 H      0.038  0.962  0.000  0.000     2.474     2.460
  56   1 H      0.051  0.949  0.000  0.000     2.303     2.373
  57   7 N     -0.196  1.235  3.961  0.000    25.249     7.463
  58   6 C      0.012  1.066  2.922  0.000    20.391     6.431
  59   6 C      0.277  1.039  2.684  0.000    22.318     7.736
  60   8 O     -0.469  1.723  4.746  0.000    23.107     6.445
  61   6 C      0.101  1.059  2.839  0.000    19.023     6.230
  62   8 O     -0.475  1.727  4.748  0.000    22.374     6.385
  63   6 C     -0.133  1.050  3.083  0.000    23.136     6.861
  64   1 H      0.175  0.825  0.000  0.000     1.243     1.747
  65   1 H      0.094  0.906  0.000  0.000     1.836     2.119
  66   1 H      0.052  0.948  0.000  0.000     2.297     2.370
  67   1 H      0.315  0.685  0.000  0.000     0.678     1.294
  68   1 H      0.060  0.940  0.000  0.000     2.197     2.318
  69   1 H      0.057  0.943  0.000  0.000     2.240     2.340
  70   1 H      0.045  0.955  0.000  0.000     2.384     2.414
  71   7 N     -0.160  1.241  3.919  0.000    24.461     7.346
  72   6 C      0.014  1.071  2.915  0.000    20.357     6.425
  73   6 C      0.275  1.036  2.689  0.000    22.351     7.743
  74   8 O     -0.490  1.732  4.758  0.000    23.563     6.508
  75   6 C     -0.073  1.058  3.014  0.000    21.894     6.662
  76   6 C      0.012  1.089  2.899  0.000    27.753     8.641
  77   6 C     -0.044  1.084  2.960  0.000    29.090     8.844
  78   6 C     -0.033  1.083  2.951  0.000    28.832     8.805
  79   6 C     -0.033  1.084  2.948  0.000    28.813     8.802
  80   6 C     -0.032  1.082  2.949  0.000    28.792     8.799
  81   6 C     -0.036  1.083  2.953  0.000    28.891     8.814
  82   1 H      0.197  0.803  0.000  0.000     1.122     1.659
  83   1 H      0.090  0.910  0.000  0.000     1.881     2.145
  84   1 H      0.066  0.934  0.000  0.000     2.132     2.283
  85   1 H      0.037  0.963  0.000  0.000     2.492     2.468
  86   1 H      0.058  0.942  0.000  0.000     2.221     2.330
  87   1 H      0.015  0.985  0.000  0.000     2.811     2.622
  88   1 H      0.064  0.936  0.000  0.000     2.154     2.295
  89   1 H      0.031  0.969  0.000  0.000     2.575     2.509
  90   1 H      0.047  0.953  0.000  0.000     2.357     2.401
  91   7 N     -0.169  1.245  3.924  0.000    24.663     7.376
  92   6 C      0.013  1.056  2.931  0.000    20.346     6.420
  93   6 C      0.251  1.053  2.696  0.000    22.778     7.816
  94   8 O     -0.516  1.759  4.757  0.000    24.145     6.588
  95   6 C     -0.072  1.056  3.016  0.000    21.865     6.655
  96   6 C     -0.009  1.051  2.957  0.000    20.694     6.470
  97   6 C     -0.110  1.044  3.066  0.000    22.660     6.787
  98   6 C     -0.119  1.047  3.073  0.000    22.829     6.810
  99   1 H      0.210  0.790  0.000  0.000     1.058     1.611
 100   1 H      0.092  0.908  0.000  0.000     1.859     2.132
 101   1 H      0.039  0.961  0.000  0.000     2.458     2.452
 102   1 H      0.047  0.953  0.000  0.000     2.363     2.404
 103   1 H      0.027  0.973  0.000  0.000     2.628     2.535
 104   1 H      0.036  0.964  0.000  0.000     2.504     2.475
 105   1 H      0.029  0.971  0.000  0.000     2.594     2.519
 106   1 H      0.029  0.971  0.000  0.000     2.594     2.519
 107   1 H      0.045  0.955  0.000  0.000     2.380     2.413
 108   1 H      0.047  0.953  0.000  0.000     2.359     2.402
 109   1 H      0.055  0.945  0.000  0.000     2.260     2.351
 110   7 N     -0.087  1.241  3.846  0.000    22.935     7.113
 111   6 C      0.009  1.063  2.928  0.000    20.425     6.433
 112   6 C      0.273  1.035  2.692  0.000    22.400     7.758
 113   8 O     -0.466  1.737  4.729  0.000    23.033     6.435
 114   6 C     -0.064  1.055  3.010  0.000    21.669     6.615
 115   6 C     -0.073  1.045  3.028  0.000    21.869     6.652
 116   6 C     -0.023  1.057  2.966  0.000    21.025     6.535
 117   1 H      0.065  0.935  0.000  0.000     2.146     2.291
 118   1 H      0.068  0.932  0.000  0.000     2.107     2.270
 119   1 H      0.066  0.934  0.000  0.000     2.127     2.280
 120   1 H      0.074  0.926  0.000  0.000     2.042     2.235
 121   1 H      0.075  0.925  0.000  0.000     2.035     2.231
 122   1 H      0.075  0.925  0.000  0.000     2.033     2.230
 123   1 H      0.083  0.917  0.000  0.000     1.951     2.184
 124   7 N     -0.102  1.232  3.870  0.000    23.235     7.159
 125   6 C     -0.007  1.074  2.933  0.000    20.683     6.472
 126   6 C      0.286  1.041  2.673  0.000    22.155     7.711
 127   8 O     -0.490  1.759  4.730  0.000    23.555     6.507
 128   6 C     -0.083  1.059  3.024  0.000    22.046     6.677
 129   6 C     -0.075  1.050  3.025  0.000    21.897     6.657
 130   6 C     -0.015  1.053  2.961  0.000    20.891     6.517
 131   1 H      0.101  0.899  0.000  0.000     1.779     2.086
 132   1 H      0.062  0.938  0.000  0.000     2.171     2.304
 133   1 H      0.073  0.927  0.000  0.000     2.052     2.240
 134   1 H      0.073  0.927  0.000  0.000     2.052     2.240
 135   1 H      0.057  0.943  0.000  0.000     2.232     2.336
 136   1 H      0.082  0.918  0.000  0.000     1.959     2.189
 137   1 H      0.068  0.932  0.000  0.000     2.106     2.270
 138   7 N     -0.173  1.228  3.945  0.000    24.740     7.387
 139   6 C      0.028  1.047  2.925  0.000    20.103     6.385
 140   6 C      0.197  1.084  2.719  0.000    23.795     7.989
 141   8 O     -0.385  1.768  4.617  0.000    21.377     6.199
 142   6 C     -0.086  1.059  3.027  0.000    22.110     6.690
 143   6 C     -0.019  1.050  2.969  0.000    20.869     6.497
 144   6 C     -0.117  1.047  3.071  0.000    22.790     6.804
 145   6 C     -0.120  1.045  3.075  0.000    22.850     6.815
 146   1 H      0.206  0.794  0.000  0.000     1.076     1.625
 147   1 H      0.091  0.909  0.000  0.000     1.873     2.140
 148   1 H      0.068  0.932  0.000  0.000     2.107     2.270
 149   1 H      0.077  0.923  0.000  0.000     2.010     2.217
 150   1 H      0.048  0.952  0.000  0.000     2.344     2.394
 151   1 H      0.044  0.956  0.000  0.000     2.398     2.422
 152   1 H      0.038  0.962  0.000  0.000     2.481     2.463
 153   1 H      0.050  0.950  0.000  0.000     2.324     2.384
 154   1 H      0.044  0.956  0.000  0.000     2.393     2.419
 155   1 H      0.052  0.948  0.000  0.000     2.297     2.370
 156   1 H      0.039  0.961  0.000  0.000     2.460     2.453
 157   7 N     -0.393  1.321  4.072  0.000    30.188     8.160
 158   6 C      0.033  1.052  2.915  0.000    20.037     6.376
 159   6 C      0.267  1.050  2.683  0.000    22.486     7.766
 160   8 O     -0.470  1.738  4.732  0.000    23.132     6.448
 161   6 C     -0.082  1.063  3.019  0.000    22.066     6.688
 162   6 C     -0.019  1.061  2.958  0.000    20.878     6.500
 163   6 C     -0.123  1.046  3.077  0.000    22.917     6.826
 164   6 C     -0.128  1.047  3.081  0.000    23.026     6.843
 165   1 H      0.162  0.838  0.000  0.000     1.323     1.802
 166   1 H      0.045  0.955  0.000  0.000     2.383     2.414
 167   1 H      0.047  0.953  0.000  0.000     2.354     2.399
 168   1 H      0.045  0.955  0.000  0.000     2.378     2.412
 169   1 H      0.032  0.968  0.000  0.000     2.560     2.502
 170   1 H      0.054  0.946  0.000  0.000     2.268     2.355
 171   1 H      0.031  0.969  0.000  0.000     2.573     2.508
 172   1 H      0.048  0.952  0.000  0.000     2.343     2.394
 173   1 H      0.046  0.954  0.000  0.000     2.364     2.405
 174   1 H      0.046  0.954  0.000  0.000     2.374     2.409
 175   1 H      0.048  0.952  0.000  0.000     2.341     2.393
 176   7 N     -0.158  1.241  3.916  0.000    24.411     7.338
 177   6 C      0.023  1.057  2.921  0.000    20.196     6.399
 178   6 C      0.212  1.092  2.696  0.000    23.514     7.941
 179   8 O     -0.343  1.745  4.598  0.000    20.582     6.083
 180   6 C      0.067  1.038  2.895  0.000    19.660     6.350
 181   8 O     -0.486  1.729  4.756  0.000    22.583     6.415
 182   1 H      0.222  0.778  0.000  0.000     1.002     1.568
 183   1 H      0.105  0.895  0.000  0.000     1.739     2.062
 184   1 H      0.063  0.937  0.000  0.000     2.160     2.299
 185   1 H      0.052  0.948  0.000  0.000     2.290     2.367
 186   1 H      0.350  0.650  0.000  0.000     0.589     1.205
 187   7 N     -0.393  1.311  4.082  0.000    30.170     8.158
 188   6 C      0.031  1.053  2.916  0.000    20.051     6.374
 189   6 C      0.277  1.045  2.678  0.000    22.320     7.737
 190   8 O     -0.500  1.734  4.766  0.000    23.778     6.538
 191   6 C     -0.031  1.056  2.974  0.000    21.069     6.526
 192   6 C     -0.066  1.050  3.017  0.000    21.753     6.637
 193   6 C     -0.110  1.042  3.069  0.000    22.648     6.782
 194   6 C     -0.107  1.038  3.069  0.000    22.602     6.779
 195   1 H      0.152  0.848  0.000  0.000     1.391     1.847
 196   1 H      0.048  0.952  0.000  0.000     2.350     2.397
 197   1 H      0.049  0.951  0.000  0.000     2.327     2.385
 198   1 H      0.047  0.953  0.000  0.000     2.355     2.400
 199   1 H      0.035  0.965  0.000  0.000     2.523     2.484
 200   1 H      0.042  0.958  0.000  0.000     2.424     2.435
 201   1 H      0.037  0.963  0.000  0.000     2.492     2.469
 202   1 H      0.042  0.958  0.000  0.000     2.424     2.435
 203   1 H      0.034  0.966  0.000  0.000     2.526     2.485
 204   1 H      0.029  0.971  0.000  0.000     2.607     2.525
 205   1 H      0.038  0.962  0.000  0.000     2.471     2.458
 206   7 N     -0.193  1.251  3.942  0.000    25.199     7.455
 207   6 C      0.017  1.062  2.921  0.000    20.287     6.413
 208   6 C      0.281  1.036  2.683  0.000    22.246     7.724
 209   8 O     -0.511  1.749  4.762  0.000    24.028     6.572
 210   6 C     -0.093  1.060  3.033  0.000    22.271     6.718
 211   6 C     -0.081  1.049  3.032  0.000    22.045     6.685
 212   6 C     -0.031  1.056  2.975  0.000    21.209     6.571
 213   7 N     -0.141  1.212  3.929  0.000    24.044     7.283
 214   6 C      0.226  1.021  2.753  0.000    23.253     7.895
 215   7 N     -0.227  1.225  4.002  0.000    25.967     7.568
 216   7 N     -0.252  1.228  4.023  0.000    26.550     7.653
 217   1 H      0.235  0.765  0.000  0.000     0.945     1.523
 218   1 H      0.071  0.929  0.000  0.000     2.071     2.251
 219   1 H      0.071  0.929  0.000  0.000     2.074     2.252
 220   1 H      0.078  0.922  0.000  0.000     1.997     2.210
 221   1 H      0.072  0.928  0.000  0.000     2.061     2.245
 222   1 H      0.076  0.924  0.000  0.000     2.019     2.222
 223   1 H      0.086  0.914  0.000  0.000     1.918     2.166
 224   1 H      0.089  0.911  0.000  0.000     1.887     2.148
 225   1 H      0.225  0.775  0.000  0.000     0.988     1.557
 226   1 H      0.228  0.772  0.000  0.000     0.972     1.545
 227   1 H      0.229  0.771  0.000  0.000     0.967     1.541
 228   1 H      0.238  0.762  0.000  0.000     0.932     1.513
 229   1 H      0.238  0.762  0.000  0.000     0.933     1.513
 230   7 N     -0.209  1.260  3.949  0.000    25.558     7.508
 231   6 C      0.021  1.058  2.921  0.000    20.224     6.404
 232   6 C      0.298  1.038  2.664  0.000    21.948     7.672
 233   8 O     -0.499  1.757  4.742  0.000    23.768     6.536
 234   6 C      0.066  1.042  2.891  0.000    19.659     6.348
 235   8 O     -0.489  1.735  4.754  0.000    22.648     6.424
 236   1 H      0.257  0.743  0.000  0.000     0.856     1.449
 237   1 H      0.067  0.933  0.000  0.000     2.118     2.276
 238   1 H      0.045  0.955  0.000  0.000     2.380     2.413
 239   1 H      0.064  0.936  0.000  0.000     2.154     2.295
 240   1 H      0.349  0.651  0.000  0.000     0.590     1.207
 241   7 N     -0.183  1.248  3.935  0.000    24.955     7.419
 242   6 C      0.013  1.061  2.925  0.000    20.354     6.424
 243   6 C      0.271  1.041  2.688  0.000    22.416     7.753
 244   8 O     -0.512  1.755  4.757  0.000    24.043     6.574
 245   6 C     -0.081  1.055  3.025  0.000    22.020     6.678
 246   6 C     -0.090  1.050  3.040  0.000    22.208     6.708
 247   6 C     -0.029  1.058  2.971  0.000    21.164     6.561
 248   7 N     -0.148  1.214  3.934  0.000    24.211     7.308
 249   6 C      0.232  1.018  2.750  0.000    23.139     7.876
 250   7 N     -0.241  1.228  4.013  0.000    26.303     7.617
 251   7 N     -0.259  1.239  4.019  0.000    26.712     7.676
 252   1 H      0.225  0.775  0.000  0.000     0.986     1.556
 253   1 H      0.084  0.916  0.000  0.000     1.935     2.175
 254   1 H      0.061  0.939  0.000  0.000     2.187     2.312
 255   1 H      0.078  0.922  0.000  0.000     1.997     2.210
 256   1 H      0.077  0.923  0.000  0.000     2.006     2.215
 257   1 H      0.072  0.928  0.000  0.000     2.067     2.248
 258   1 H      0.094  0.906  0.000  0.000     1.843     2.123
 259   1 H      0.087  0.913  0.000  0.000     1.913     2.163
 260   1 H      0.232  0.768  0.000  0.000     0.955     1.531
 261   1 H      0.238  0.762  0.000  0.000     0.931     1.511
 262   1 H      0.253  0.747  0.000  0.000     0.873     1.464
 263   1 H      0.247  0.753  0.000  0.000     0.896     1.483
 264   1 H      0.254  0.746  0.000  0.000     0.869     1.460
 265   7 N     -0.148  1.232  3.916  0.000    24.207     7.307
 266   6 C      0.016  1.058  2.927  0.000    20.320     6.420
 267   6 C      0.279  1.040  2.681  0.000    22.276     7.731
 268   8 O     -0.485  1.753  4.731  0.000    23.443     6.492
 269   6 C     -0.088  1.057  3.031  0.000    22.141     6.693
 270   6 C     -0.015  1.064  2.951  0.000    20.852     6.503
 271  16 S     -0.194  1.912  4.232  0.050   149.284    20.564
 272   6 C     -0.065  1.054  3.011  0.000    21.818     6.663
 273   1 H      0.209  0.791  0.000  0.000     1.062     1.615
 274   1 H      0.088  0.912  0.000  0.000     1.901     2.156
 275   1 H      0.070  0.930  0.000  0.000     2.087     2.259
 276   1 H      0.077  0.923  0.000  0.000     2.010     2.217
 277   1 H      0.048  0.952  0.000  0.000     2.341     2.392
 278   1 H      0.054  0.946  0.000  0.000     2.269     2.356
 279   1 H      0.066  0.934  0.000  0.000     2.126     2.280
 280   1 H      0.046  0.954  0.000  0.000     2.372     2.409
 281   1 H      0.047  0.953  0.000  0.000     2.353     2.399
 282   7 N     -0.179  1.241  3.939  0.000    24.885     7.409
 283   6 C      0.001  1.062  2.937  0.000    20.553     6.452
 284   6 C      0.267  1.038  2.695  0.000    22.489     7.767
 285   8 O     -0.432  1.718  4.714  0.000    22.297     6.333
 286   6 C     -0.017  1.059  2.958  0.000    20.827     6.489
 287   6 C     -0.179  1.056  3.123  0.000    24.030     6.986
 288   6 C     -0.124  1.046  3.078  0.000    22.938     6.828
 289   1 H      0.211  0.789  0.000  0.000     1.051     1.606
 290   1 H      0.073  0.927  0.000  0.000     2.054     2.241
 291   1 H      0.037  0.963  0.000  0.000     2.492     2.469
 292   1 H      0.042  0.958  0.000  0.000     2.419     2.432
 293   1 H      0.037  0.963  0.000  0.000     2.485     2.465
 294   1 H      0.159  0.841  0.000  0.000     1.330     1.802
 295   1 H      0.057  0.943  0.000  0.000     2.237     2.339
 296   1 H      0.061  0.939  0.000  0.000     2.184     2.311
 297   1 H      0.024  0.976  0.000  0.000     2.668     2.554
 298   7 N     -0.174  1.254  3.920  0.000    24.764     7.391
 299   6 C      0.003  1.086  2.911  0.000    20.566     6.463
 300   6 C      0.271  1.050  2.680  0.000    22.426     7.754
 301   8 O     -0.449  1.763  4.686  0.000    22.688     6.386
 302   6 C     -0.087  1.059  3.028  0.000    22.173     6.707
 303   6 C     -0.014  1.067  2.947  0.000    20.800     6.488
 304   6 C     -0.123  1.044  3.079  0.000    22.921     6.828
 305   6 C     -0.131  1.048  3.083  0.000    23.078     6.851
 306   1 H      0.205  0.795  0.000  0.000     1.081     1.629
 307   1 H      0.073  0.927  0.000  0.000     2.055     2.242
 308   1 H      0.073  0.927  0.000  0.000     2.049     2.239
 309   1 H      0.045  0.955  0.000  0.000     2.377     2.411
 310   1 H      0.038  0.962  0.000  0.000     2.481     2.463
 311   1 H      0.044  0.956  0.000  0.000     2.399     2.422
 312   1 H      0.029  0.971  0.000  0.000     2.606     2.524
 313   1 H      0.052  0.948  0.000  0.000     2.300     2.372
 314   1 H      0.052  0.948  0.000  0.000     2.292     2.367
 315   1 H      0.067  0.933  0.000  0.000     2.116     2.275
 316   1 H      0.044  0.956  0.000  0.000     2.393     2.419
 317   7 N     -0.188  1.247  3.941  0.000    25.078     7.438
 318   6 C     -0.034  1.050  2.984  0.000    21.191     6.557
 319   6 C      0.269  1.051  2.679  0.000    22.447     7.758
 320   8 O     -0.452  1.749  4.704  0.000    22.757     6.396
 321   6 C     -0.071  1.058  3.013  0.000    21.846     6.654
 322   6 C     -0.117  1.056  3.061  0.000    22.734     6.788
 323   6 C     -0.033  1.061  2.972  0.000    21.249     6.578
 324   7 N     -0.137  1.208  3.929  0.000    23.968     7.271
 325   6 C      0.247  1.017  2.736  0.000    22.856     7.827
 326   7 N     -0.262  1.240  4.022  0.000    26.795     7.688
 327   7 N     -0.243  1.231  4.012  0.000    26.344     7.623
 328   1 H      0.200  0.800  0.000  0.000     1.104     1.646
 329   1 H      0.160  0.840  0.000  0.000     1.325     1.800
 330   1 H      0.051  0.949  0.000  0.000     2.303     2.373
 331   1 H      0.067  0.933  0.000  0.000     2.114     2.274
 332   1 H      0.065  0.935  0.000  0.000     2.140     2.288
 333   1 H      0.102  0.898  0.000  0.000     1.764     2.077
 334   1 H      0.089  0.911  0.000  0.000     1.893     2.152
 335   1 H      0.083  0.917  0.000  0.000     1.945     2.181
 336   1 H      0.201  0.799  0.000  0.000     1.100     1.643
 337   1 H      0.259  0.741  0.000  0.000     0.849     1.443
 338   1 H      0.224  0.776  0.000  0.000     0.990     1.558
 339   1 H      0.222  0.778  0.000  0.000     0.999     1.565
 340   1 H      0.238  0.762  0.000  0.000     0.932     1.513
 341   7 N     -0.194  1.242  3.952  0.000    25.216     7.458
 342   6 C      0.010  1.067  2.922  0.000    20.416     6.436
 343   6 C      0.261  1.047  2.692  0.000    22.600     7.785
 344   8 O     -0.510  1.757  4.753  0.000    24.018     6.571
 345   6 C     -0.137  1.047  3.090  0.000    23.174     6.860
 346   1 H      0.188  0.812  0.000  0.000     1.168     1.693
 347   1 H      0.090  0.910  0.000  0.000     1.875     2.141
 348   1 H      0.083  0.917  0.000  0.000     1.950     2.184
 349   1 H      0.078  0.922  0.000  0.000     2.003     2.213
 350   1 H      0.056  0.944  0.000  0.000     2.249     2.345
 351   7 N     -0.181  1.254  3.926  0.000    24.912     7.413
 352   6 C      0.029  1.069  2.902  0.000    20.109     6.389
 353   6 C      0.294  1.042  2.664  0.000    22.010     7.681
 354   8 O     -0.512  1.761  4.751  0.000    24.046     6.575
 355   6 C      0.126  1.053  2.821  0.000    18.654     6.171
 356   8 O     -0.497  1.747  4.750  0.000    22.833     6.450
 357   6 C     -0.138  1.054  3.084  0.000    23.222     6.874
 358   1 H      0.241  0.759  0.000  0.000     0.920     1.503
 359   1 H      0.055  0.945  0.000  0.000     2.260     2.351
 360   1 H      0.018  0.982  0.000  0.000     2.772     2.603
 361   1 H      0.338  0.662  0.000  0.000     0.618     1.235
 362   1 H      0.046  0.954  0.000  0.000     2.373     2.409
 363   1 H      0.048  0.952  0.000  0.000     2.349     2.397
 364   1 H      0.105  0.895  0.000  0.000     1.736     2.060
 365   7 N     -0.150  1.230  3.920  0.000    24.243     7.313
 366   6 C      0.027  1.061  2.912  0.000    20.129     6.390
 367   6 C      0.256  1.051  2.694  0.000    22.695     7.801
 368   8 O     -0.457  1.749  4.707  0.000    22.850     6.409
 369   6 C     -0.056  1.054  3.002  0.000    21.580     6.614
 370   6 C     -0.125  1.076  3.049  0.000    22.903     6.815
 371   6 C      0.350  1.025  2.625  0.000    21.052     7.509
 372   8 O     -0.623  1.764  4.859  0.000    26.698     6.928
 373   8 O     -0.602  1.771  4.830  0.000    26.157     6.857
 374   1 H      0.212  0.788  0.000  0.000     1.046     1.602
 375   1 H      0.045  0.955  0.000  0.000     2.377     2.411
 376   1 H      0.045  0.955  0.000  0.000     2.380     2.413
 377   1 H      0.036  0.964  0.000  0.000     2.499     2.472
 378   1 H      0.099  0.901  0.000  0.000     1.793     2.094
 379   1 H      0.051  0.949  0.000  0.000     2.311     2.377
 380   7 N     -0.162  1.243  3.919  0.000    24.500     7.351
 381   6 C     -0.001  1.060  2.941  0.000    20.602     6.463
 382   6 C      0.277  1.026  2.696  0.000    22.310     7.736
 383   8 O     -0.499  1.751  4.748  0.000    23.763     6.536
 384   6 C     -0.142  1.049  3.093  0.000    23.296     6.882
 385   1 H      0.202  0.798  0.000  0.000     1.095     1.640
 386   1 H      0.089  0.911  0.000  0.000     1.889     2.149
 387   1 H      0.079  0.921  0.000  0.000     1.994     2.208
 388   1 H      0.077  0.923  0.000  0.000     2.015     2.220
 389   1 H      0.061  0.939  0.000  0.000     2.187     2.313
 390   7 N     -0.163  1.232  3.932  0.000    24.533     7.356
 391   6 C      0.028  1.046  2.927  0.000    20.089     6.378
 392   6 C      0.270  1.035  2.695  0.000    22.442     7.760
 393   8 O     -0.481  1.733  4.748  0.000    23.375     6.482
 394   6 C     -0.068  1.049  3.019  0.000    21.788     6.644
 395   6 C      0.011  1.084  2.905  0.000    27.770     8.644
 396   6 C     -0.050  1.084  2.966  0.000    29.239     8.867
 397   6 C     -0.031  1.083  2.948  0.000    28.774     8.796
 398   6 C     -0.051  1.085  2.966  0.000    29.264     8.871
 399   6 C     -0.029  1.080  2.949  0.000    28.724     8.789
 400   6 C     -0.039  1.082  2.957  0.000    28.965     8.825
 401   1 H      0.222  0.778  0.000  0.000     1.000     1.566
 402   1 H      0.060  0.940  0.000  0.000     2.201     2.320
 403   1 H      0.050  0.950  0.000  0.000     2.315     2.379
 404   1 H      0.061  0.939  0.000  0.000     2.185     2.312
 405   1 H      0.049  0.951  0.000  0.000     2.338     2.391
 406   1 H      0.027  0.973  0.000  0.000     2.635     2.538
 407   1 H      0.059  0.941  0.000  0.000     2.211     2.325
 408   1 H      0.038  0.962  0.000  0.000     2.471     2.458
 409   1 H      0.054  0.946  0.000  0.000     2.271     2.357
 410   7 N     -0.149  1.232  3.917  0.000    24.226     7.310
 411   6 C      0.025  1.049  2.926  0.000    20.154     6.391
 412   6 C      0.273  1.038  2.689  0.000    22.378     7.747
 413   8 O     -0.474  1.743  4.731  0.000    23.207     6.459
 414   6 C     -0.080  1.053  3.027  0.000    22.012     6.677
 415   6 C     -0.001  1.079  2.922  0.000    28.054     8.688
 416   6 C     -0.043  1.085  2.958  0.000    29.064     8.841
 417   6 C     -0.040  1.083  2.957  0.000    28.995     8.831
 418   6 C     -0.055  1.076  2.980  0.000    29.368     8.887
 419   6 C     -0.068  1.080  2.988  0.000    29.690     8.935
 420   6 C      0.142  1.048  2.810  0.000    24.904     8.179
 421   8 O     -0.420  1.722  4.697  0.000    21.231     6.220
 422   1 H      0.213  0.787  0.000  0.000     1.042     1.599
 423   1 H      0.076  0.924  0.000  0.000     2.016     2.221
 424   1 H      0.059  0.941  0.000  0.000     2.216     2.328
 425   1 H      0.070  0.930  0.000  0.000     2.090     2.261
 426   1 H      0.057  0.943  0.000  0.000     2.230     2.335
 427   1 H      0.037  0.963  0.000  0.000     2.494     2.469
 428   1 H      0.056  0.944  0.000  0.000     2.250     2.345
 429   1 H      0.044  0.956  0.000  0.000     2.398     2.421
 430   1 H      0.337  0.663  0.000  0.000     0.619     1.236
 431   7 N     -0.164  1.243  3.921  0.000    24.546     7.358
 432   6 C      0.022  1.057  2.921  0.000    20.203     6.400
 433   6 C      0.193  1.092  2.715  0.000    23.874     8.002
 434   8 O     -0.366  1.774  4.592  0.000    21.020     6.147
 435   6 C     -0.073  1.053  3.019  0.000    21.870     6.655
 436   6 C     -0.014  1.050  2.964  0.000    20.788     6.484
 437   6 C     -0.127  1.046  3.081  0.000    22.977     6.832
 438   6 C     -0.116  1.044  3.072  0.000    22.770     6.804
 439   1 H      0.213  0.787  0.000  0.000     1.044     1.600
 440   1 H      0.094  0.906  0.000  0.000     1.841     2.122
 441   1 H      0.072  0.928  0.000  0.000     2.067     2.248
 442   1 H      0.061  0.939  0.000  0.000     2.185     2.312
 443   1 H      0.023  0.977  0.000  0.000     2.683     2.562
 444   1 H      0.048  0.952  0.000  0.000     2.340     2.392
 445   1 H      0.037  0.963  0.000  0.000     2.491     2.468
 446   1 H      0.060  0.940  0.000  0.000     2.200     2.320
 447   1 H      0.048  0.952  0.000  0.000     2.348     2.396
 448   1 H      0.050  0.950  0.000  0.000     2.314     2.379
 449   1 H      0.040  0.960  0.000  0.000     2.442     2.444
 450   7 N     -0.388  1.306  4.082  0.000    30.047     8.141
 451   6 C      0.050  1.037  2.913  0.000    19.731     6.324
 452   6 C      0.278  1.040  2.682  0.000    22.293     7.734
 453   8 O     -0.498  1.746  4.751  0.000    23.732     6.531
 454   6 C     -0.082  1.051  3.031  0.000    22.045     6.681
 455   6 C      0.004  1.079  2.917  0.000    27.922     8.668
 456   6 C     -0.042  1.077  2.966  0.000    29.055     8.840
 457   6 C     -0.037  1.083  2.954  0.000    28.923     8.820
 458   6 C     -0.078  1.076  3.002  0.000    29.950     8.974
 459   6 C     -0.053  1.069  2.984  0.000    29.321     8.879
 460   6 C      0.144  1.042  2.814  0.000    24.873     8.175
 461   8 O     -0.409  1.712  4.698  0.000    21.031     6.191
 462   1 H      0.160  0.840  0.000  0.000     1.335     1.810
 463   1 H      0.029  0.971  0.000  0.000     2.599     2.521
 464   1 H      0.049  0.951  0.000  0.000     2.333     2.389
 465   1 H      0.064  0.936  0.000  0.000     2.158     2.297
 466   1 H      0.038  0.962  0.000  0.000     2.472     2.459
 467   1 H      0.028  0.972  0.000  0.000     2.610     2.527
 468   1 H      0.053  0.947  0.000  0.000     2.287     2.365
 469   1 H      0.054  0.946  0.000  0.000     2.272     2.357
 470   1 H      0.322  0.678  0.000  0.000     0.659     1.275
 471   7 N     -0.179  1.247  3.932  0.000    24.884     7.409
 472   6 C      0.029  1.051  2.920  0.000    20.102     6.385
 473   6 C      0.268  1.045  2.687  0.000    22.478     7.764
 474   8 O     -0.495  1.736  4.759  0.000    23.683     6.525
 475   6 C     -0.122  1.042  3.080  0.000    22.887     6.820
 476   1 H      0.208  0.792  0.000  0.000     1.068     1.619
 477   1 H      0.064  0.936  0.000  0.000     2.149     2.292
 478   1 H      0.056  0.944  0.000  0.000     2.245     2.343
 479   1 H      0.068  0.932  0.000  0.000     2.108     2.270
 480   1 H      0.058  0.942  0.000  0.000     2.217     2.328
 481   7 N     -0.197  1.259  3.938  0.000    25.278     7.467
 482   6 C      0.033  1.056  2.911  0.000    20.019     6.372
 483   6 C      0.212  1.085  2.702  0.000    23.508     7.940
 484   8 O     -0.358  1.752  4.606  0.000    20.867     6.124
 485   6 C      0.082  1.039  2.879  0.000    19.436     6.317
 486   8 O     -0.481  1.727  4.754  0.000    22.494     6.402
 487   1 H      0.240  0.760  0.000  0.000     0.923     1.505
 488   1 H      0.094  0.906  0.000  0.000     1.841     2.122
 489   1 H      0.048  0.952  0.000  0.000     2.349     2.397
 490   1 H      0.074  0.926  0.000  0.000     2.037     2.232
 491   1 H      0.329  0.671  0.000  0.000     0.639     1.256
 492   7 N     -0.403  1.329  4.073  0.000    30.453     8.196
 493   6 C      0.034  1.050  2.917  0.000    20.023     6.373
 494   6 C      0.196  1.085  2.719  0.000    23.820     7.993
 495   8 O     -0.359  1.742  4.617  0.000    20.879     6.126
 496   6 C     -0.072  1.057  3.015  0.000    21.868     6.657
 497   6 C     -0.082  1.056  3.026  0.000    22.070     6.689
 498   6 C     -0.022  1.056  2.967  0.000    21.060     6.550
 499   7 N     -0.145  1.217  3.928  0.000    24.146     7.298
 500   6 C      0.232  1.019  2.749  0.000    23.140     7.876
 501   7 N     -0.228  1.226  4.002  0.000    25.993     7.572
 502   7 N     -0.258  1.237  4.022  0.000    26.706     7.675
 503   1 H      0.160  0.840  0.000  0.000     1.335     1.810
 504   1 H      0.071  0.929  0.000  0.000     2.075     2.253
 505   1 H      0.061  0.939  0.000  0.000     2.184     2.311
 506   1 H      0.054  0.946  0.000  0.000     2.273     2.358
 507   1 H      0.068  0.932  0.000  0.000     2.102     2.267
 508   1 H      0.070  0.930  0.000  0.000     2.083     2.257
 509   1 H      0.088  0.912  0.000  0.000     1.900     2.156
 510   1 H      0.080  0.920  0.000  0.000     1.981     2.201
 511   1 H      0.225  0.775  0.000  0.000     0.988     1.557
 512   1 H      0.238  0.762  0.000  0.000     0.931     1.512
 513   1 H      0.228  0.772  0.000  0.000     0.976     1.547
 514   1 H      0.247  0.753  0.000  0.000     0.897     1.483
 515   1 H      0.249  0.751  0.000  0.000     0.889     1.477
 516   7 N     -0.380  1.320  4.060  0.000    29.801     8.108
 517   6 C      0.020  1.065  2.915  0.000    20.255     6.412
 518   6 C      0.273  1.049  2.678  0.000    22.393     7.758
 519   8 O     -0.499  1.734  4.765  0.000    23.770     6.537
 520   6 C     -0.084  1.060  3.024  0.000    22.096     6.691
 521   6 C      0.009  1.089  2.902  0.000    27.816     8.651
 522   6 C     -0.058  1.090  2.968  0.000    29.444     8.898
 523   6 C     -0.042  1.084  2.958  0.000    29.035     8.836
 524   6 C     -0.034  1.083  2.951  0.000    28.851     8.808
 525   6 C     -0.035  1.083  2.952  0.000    28.877     8.812
 526   6 C     -0.034  1.079  2.955  0.000    28.858     8.809
 527   1 H      0.152  0.848  0.000  0.000     1.388     1.845
 528   1 H      0.059  0.941  0.000  0.000     2.216     2.328
 529   1 H      0.067  0.933  0.000  0.000     2.115     2.274
 530   1 H      0.058  0.942  0.000  0.000     2.225     2.333
 531   1 H      0.071  0.929  0.000  0.000     2.078     2.254
 532   1 H      0.024  0.976  0.000  0.000     2.671     2.556
 533   1 H      0.026  0.974  0.000  0.000     2.641     2.541
 534   1 H      0.011  0.989  0.000  0.000     2.876     2.652
 535   1 H      0.009  0.991  0.000  0.000     2.900     2.663
 536   7 N     -0.100  1.234  3.866  0.000    23.200     7.154
 537   6 C      0.010  1.052  2.938  0.000    20.349     6.412
 538   6 C      0.268  1.034  2.698  0.000    22.477     7.763
 539   8 O     -0.483  1.739  4.744  0.000    23.400     6.486
 540   6 C     -0.069  1.050  3.019  0.000    21.768     6.634
 541   6 C     -0.074  1.046  3.028  0.000    21.860     6.647
 542   6 C     -0.022  1.056  2.967  0.000    20.983     6.523
 543   1 H      0.098  0.902  0.000  0.000     1.807     2.102
 544   1 H      0.065  0.935  0.000  0.000     2.145     2.291
 545   1 H      0.081  0.919  0.000  0.000     1.969     2.195
 546   1 H      0.056  0.944  0.000  0.000     2.245     2.343
 547   1 H      0.058  0.942  0.000  0.000     2.226     2.333
 548   1 H      0.073  0.927  0.000  0.000     2.049     2.239
 549   1 H      0.069  0.931  0.000  0.000     2.098     2.265
 550   7 N     -0.178  1.237  3.941  0.000    24.845     7.403
 551   6 C      0.011  1.062  2.926  0.000    20.395     6.430
 552   6 C      0.266  1.042  2.692  0.000    22.511     7.769
 553   8 O     -0.471  1.756  4.715  0.000    23.161     6.452
 554   6 C     -0.112  1.060  3.052  0.000    22.626     6.770
 555   6 C      0.285  1.031  2.684  0.000    22.171     7.710
 556   8 O     -0.509  1.746  4.763  0.000    23.986     6.566
 557   7 N     -0.264  1.264  4.000  0.000    26.856     7.697
 558   1 H      0.222  0.778  0.000  0.000     1.000     1.566
 559   1 H      0.098  0.902  0.000  0.000     1.805     2.101
 560   1 H      0.090  0.910  0.000  0.000     1.882     2.145
 561   1 H      0.092  0.908  0.000  0.000     1.857     2.131
 562   1 H      0.253  0.747  0.000  0.000     0.873     1.464
 563   1 H      0.230  0.770  0.000  0.000     0.966     1.540
 564   7 N     -0.165  1.235  3.930  0.000    24.565     7.361
 565   6 C      0.015  1.067  2.918  0.000    20.344     6.425
 566   6 C      0.184  1.098  2.718  0.000    24.053     8.032
 567   8 O     -0.360  1.761  4.599  0.000    20.905     6.130
 568   6 C     -0.085  1.055  3.030  0.000    22.112     6.694
 569   6 C     -0.079  1.052  3.027  0.000    22.006     6.678
 570   6 C     -0.098  1.056  3.042  0.000    22.366     6.733
 571   6 C     -0.061  1.063  2.998  0.000    21.767     6.660
 572   7 N     -0.129  1.230  3.899  0.000    23.799     7.246
 573   1 H      0.200  0.800  0.000  0.000     1.107     1.648
 574   1 H      0.101  0.899  0.000  0.000     1.772     2.081
 575   1 H      0.070  0.930  0.000  0.000     2.087     2.259
 576   1 H      0.082  0.918  0.000  0.000     1.961     2.190
 577   1 H      0.075  0.925  0.000  0.000     2.034     2.230
 578   1 H      0.064  0.936  0.000  0.000     2.151     2.293
 579   1 H      0.086  0.914  0.000  0.000     1.921     2.168
 580   1 H      0.089  0.911  0.000  0.000     1.888     2.149
 581   1 H      0.115  0.885  0.000  0.000     1.652     2.010
 582   1 H      0.120  0.880  0.000  0.000     1.610     1.984
 583   1 H      0.281  0.719  0.000  0.000     0.773     1.377
 584   1 H      0.301  0.699  0.000  0.000     0.710     1.320
 585   1 H      0.266  0.734  0.000  0.000     0.824     1.422
 586   7 N     -0.390  1.322  4.068  0.000    30.100     8.148
 587   6 C      0.028  1.054  2.918  0.000    20.118     6.390
 588   6 C      0.196  1.095  2.709  0.000    23.814     7.992
 589   8 O     -0.395  1.769  4.627  0.000    21.589     6.230
 590   6 C     -0.061  1.056  3.006  0.000    21.677     6.628
 591   6 C     -0.099  1.057  3.042  0.000    22.374     6.734
 592   6 C      0.288  1.037  2.674  0.000    22.109     7.699
 593   8 O     -0.515  1.762  4.753  0.000    24.114     6.584
 594   7 N     -0.275  1.265  4.011  0.000    27.121     7.734
 595   1 H      0.181  0.819  0.000  0.000     1.206     1.720
 596   1 H      0.068  0.932  0.000  0.000     2.106     2.270
 597   1 H      0.077  0.923  0.000  0.000     2.012     2.218
 598   1 H      0.053  0.947  0.000  0.000     2.277     2.360
 599   1 H      0.057  0.943  0.000  0.000     2.238     2.339
 600   1 H      0.060  0.940  0.000  0.000     2.204     2.322
 601   1 H      0.226  0.774  0.000  0.000     0.981     1.552
 602   1 H      0.230  0.770  0.000  0.000     0.965     1.539
 603   7 N     -0.389  1.337  4.052  0.000    30.064     8.143
 604   6 C      0.026  1.060  2.914  0.000    20.169     6.398
 605   6 C      0.198  1.090  2.712  0.000    23.775     7.985
 606   8 O     -0.392  1.764  4.628  0.000    21.520     6.220
 607   6 C     -0.066  1.056  3.010  0.000    21.762     6.641
 608   6 C     -0.004  1.063  2.941  0.000    20.667     6.474
 609  16 S     -0.274  1.922  4.294  0.059   152.872    20.810
 610   6 C     -0.074  1.062  3.012  0.000    21.995     6.691
 611   1 H      0.166  0.834  0.000  0.000     1.297     1.784
 612   1 H      0.094  0.906  0.000  0.000     1.837     2.120
 613   1 H      0.053  0.947  0.000  0.000     2.286     2.364
 614   1 H      0.059  0.941  0.000  0.000     2.207     2.323
 615   1 H      0.053  0.947  0.000  0.000     2.278     2.360
 616   1 H      0.050  0.950  0.000  0.000     2.318     2.381
 617   1 H      0.044  0.956  0.000  0.000     2.401     2.423
 618   1 H      0.116  0.884  0.000  0.000     1.645     2.006
 619   1 H      0.037  0.963  0.000  0.000     2.486     2.466
 620   1 H      0.178  0.822  0.000  0.000     1.226     1.734
 621   1 H      0.074  0.926  0.000  0.000     2.039     2.233
 622   1 H      0.179  0.821  0.000  0.000     1.219     1.730
 623   1 H      0.053  0.947  0.000  0.000     2.284     2.363
 624   1 H      0.179  0.821  0.000  0.000     1.220     1.730
 625   1 H      0.079  0.921  0.000  0.000     1.990     2.206
 626   1 H      0.178  0.822  0.000  0.000     1.227     1.735
 627   1 H      0.097  0.903  0.000  0.000     1.810     2.104
 628   1 H      0.179  0.821  0.000  0.000     1.221     1.731
 629   1 H      0.080  0.920  0.000  0.000     1.981     2.201
 630   1 H      0.184  0.816  0.000  0.000     1.192     1.710
 631   1 H      0.074  0.926  0.000  0.000     2.040     2.233
 632   1 H      0.185  0.815  0.000  0.000     1.184     1.704
 633   1 H      0.066  0.934  0.000  0.000     2.130     2.282
 634   1 H      0.172  0.828  0.000  0.000     1.263     1.760
 635   1 H      0.096  0.904  0.000  0.000     1.823     2.111
 636   1 H      0.195  0.805  0.000  0.000     1.132     1.666
 637   1 H      0.075  0.925  0.000  0.000     2.026     2.226
 638   1 H      0.185  0.815  0.000  0.000     1.185     1.705
 639   1 H      0.083  0.917  0.000  0.000     1.948     2.182

 Mol. C6AA /au·bohr⁶  :    3760525.223532
 Mol. C8AA /au·bohr⁸  :   85110468.006292
 Mol. α(0) /au        :       2920.162116

 
molecular dipole:
                 x           y           z       tot (Debye)
 q only:      158.207     159.216     611.414
   full:      156.945     162.110     615.285    1665.776
molecular quadrupole (traceless):
                xx          xy          yy          xz          yz          zz
 q only:   -42641.607    8458.318  -43580.755   36198.423   36506.361   86222.361
  q+dip:   -43434.556    8547.064  -43910.618   36166.507   37486.387   87345.174
   full:   -43432.124    8548.234  -43910.553   36167.612   37492.425   87342.677
speedup  1.64
cpu  time for grad    1 m 27.8 s
wall time for grad    0 m 53.5 s

SCC energy    :    -970.5756674
rep           :      11.9996071
ES            :       2.8146576
AES           :      -0.0445061
AXC           :       0.3685725
disp          :      -0.8422161
XB            :       0.0000000
fix           :       0.0000000
Gborn         :       0.0000000
Gsasa         :       0.0000000
Ghb           :       0.0000000
Gshift        :       0.0000000
Gsolv         :      -0.8568794     -537.70
Etot ala COSMO:    -970.5756674
grad norm     :       0.8193041
total E       :    -958.4959290
atomizationE  :     175.9641635   110419.18
(atE without considering molecular charge,
 total energy contains solvation terms)
H-L gap (eV)  :          0.5904

------------------------------------------------------------------------
 * finished run on 2019/05/06 at 00:10:42.674     
------------------------------------------------------------------------
 total:
 * wall-time:     0 d,  0 h,  0 min, 56.697 sec
 *  cpu-time:     0 d,  0 h,  1 min, 32.406 sec
 * ratio c/w:     1.630 speedup
 SCF:
 * wall-time:     0 d,  0 h,  0 min, 55.562 sec
 *  cpu-time:     0 d,  0 h,  1 min, 31.173 sec
 * ratio c/w:     1.641 speedup

