      -----------------------------------------------------------      
     |                   =====================                   |     
     |                           x T B                           |     
     |                   =====================                   |     
     |                         S. Grimme                         |     
     |          Mulliken Center for Theoretical Chemistry        |     
     |                    University of Bonn                     |     
     |                 Version 6.0.1 (SAW181210)                 |     
      -----------------------------------------------------------      

   This program is distributed in the hope that it will be useful,
   but WITHOUT ANY WARRANTY; without even the implied warranty of
   MERCHANTABILITY or FITNESS FOR A PARTICULAR PURPOSE.
   
   FOR NON-COMMERCIAL, ACADEMIA USE ONLY.
   
   Cite this work as:
   S. Grimme, C. Bannwarth, P. Shushkov, J. Comput. Theory Chem., 2017,
   13, 1989-2009.
   C. Bannwarth, S. Ehlert and S. Grimme., ChemRxiv, 2018, preprint.
   http://doi.org/10.26434/chemrxiv.7246238.v1
   
   for sTDA-xTB:
   S. Grimme and C. Bannwarth, J. Chem. Phys., 2016, 145, 054103.
   
   in the mass-spec context:
   V. Asgeirsson, C. Bauer and S. Grimme, Chem. Sci., 2017, 8, 4879.
   
   if GBSA is used:
   P. Shushkov, F. März and S. Grimme, unpublished.
   
   for ANC optimizer:
   S. Grimme, unpublished.
   Rational Function algorithm used in ANCopt:
   F. Eckert, P. Pulay, H.-J. Werner, J. Comput. Chem., 1997, 18, 1473.
   
   with help from (in alphabetical order)
   C. Bannwarth, F. Bohle, G. Brandenburg, E. Caldeweyher, M. Checinski,
   S. Dohm, S. Ehlert, S. Ehrlich, F. März, H. Neugebauer, J. Pisarek,
   P. Pracht, P. Shushkov, and S. Spicher.
   
 * started run on 2019/05/11 at 21:00:06.576     
========================================================================
 # omp threads = 2
========================================================================
number of atoms            : 686
number of electrons        : 1908
charge                     : -8
spin                       : .0
first test random number   : .9001

########################################################################
# WARNING! Please study the warnings concerning your input carefully
#  - Process number higher than OMP_NUM_THREADS, I hope you know what you are doing.
########################################################################

           ------------------------------------------------- 
          |                 G F N 2 - x T B                 |
          | Geometry, Frequencies, Noncovalent interactions |
          |            JCTC 2018 parametrisation            |
           ------------------------------------------------- 
 
      method parameters     
 k(s)        :  1.8500
 k(p)        :  2.2300
 k(d)        :  2.2300
 k(f)        :  2.0000
 kEN (H0ij)  : -2.0000
 D4 a1       :  0.5200
 D4 a2       :  5.0000
 D4 s6       :  1.0000
 D4 s8       :  2.7000
 D4 s9       :  5.0000
 alphaj      :  2.0000

 Solvent             : h2o
 Using internal parameter file: .param_gbsa2_h2o
 Gsolv ref. state (COSMO-RS): gsolv [1 M gas/solution]
 temperature (mdtemp)       :    298.150000000000     
 dielectric constant        :    80.2000000000000     
 rho                        :    1.00000000000000     
 mass                       :    18.0000000000000     
 surface tension            :    15.5689454083859     
 probe radius               :   0.975313790000000     
 vdW radii scaling          :    1.00000000000000     
 Gshift (Eh)                :   1.857443126794793E-003
 c1                         :    1.55243817000000     
 soset                      :   0.130326360000000     
 HB correction              :  T

            Z     q(EN)     CN     RAES       Cart. coordinates
     1  N   5.0   -0.24    3.22    1.96     6.03727   167.33763    18.90077
     2  C   4.0    0.03    4.31    4.21     4.05457   165.92508    20.07679
     3  C   4.0    0.05    3.21    3.04     1.96347   167.58354    21.17173
     4  O   6.0   -0.33    1.26    1.80    -0.04814   167.72809    19.98097
     5  C   4.0   -0.03    4.31    4.22     4.96163   164.06765    22.11606
     6  C   4.0   -0.06    4.18    3.96     7.32539   164.97979    23.54069
     7  C   4.0   -0.08    4.09    3.78     5.28743   161.42140    20.92175
     8  C   4.0   -0.10    4.00    3.63     7.40508   164.01642    26.25726
     9  H   1.0    0.06    1.04    1.43     7.80211   167.05065    19.54895
    10  H   1.0    0.04    1.06    1.44     3.05173   164.85105    18.58434
    11  H   1.0    0.03    1.06    1.44     3.41304   163.87979    23.51618
    12  H   1.0    0.02    1.03    1.43     8.99839   164.24986    22.57348
    13  H   1.0    0.02    1.03    1.43     7.38556   167.03836    23.58579
    14  H   1.0    0.04    1.00    1.43     6.01792   160.09819    22.31660
    15  H   1.0    0.04    1.00    1.43     3.48366   160.67771    20.27800
    16  H   1.0    0.03    1.01    1.43     6.57334   161.51028    19.35951
    17  H   1.0    0.01    1.00    1.43     9.02209   164.75705    27.27488
    18  H   1.0    0.02    1.00    1.43     5.68437   164.50724    27.28545
    19  H   1.0    0.03    0.99    1.43     7.55162   161.95069    26.32214
    20  N   5.0   -0.20    3.28    1.98    -1.38209   170.35479    16.23141
    21  C   4.0    0.02    4.31    4.22    -3.05779   168.67161    14.90649
    22  C   4.0    0.14    3.41    3.08    -5.40794   168.18693    16.56652
    23  O   6.0   -0.34    1.35    1.80    -7.48189   168.72362    15.74683
    24  C   4.0   -0.05    4.29    4.17    -1.53137   166.42011    13.96037
    25  C   4.0   -0.03    4.15    3.89    -2.68704   164.76313    11.86457
    26  C   4.0   -0.09    4.12    3.83    -4.42564   166.09703    10.05619
    27  C   4.0   -0.09    4.10    3.81    -0.54377   163.51565    10.32691
    28  H   1.0    0.08    1.03    1.43     0.47443   169.74373    16.53706
    29  H   1.0    0.03    1.07    1.44    -3.77411   169.71637    13.28342
    30  H   1.0    0.02    1.02    1.43     0.28441   167.25141    13.26827
    31  H   1.0    0.04    1.01    1.43    -0.97432   165.21877    15.60172
    32  H   1.0    0.04    1.06    1.44    -3.72512   163.26262    12.79804
    33  H   1.0    0.03    1.00    1.43    -5.08046   164.77265     8.62540
    34  H   1.0    0.04    1.00    1.43    -6.08357   166.85379    11.02465
    35  H   1.0    0.02    0.99    1.43    -3.46853   167.66281     9.08887
    36  H   1.0    0.03    1.01    1.43    -1.29917   162.31433     8.88408
    37  H   1.0    0.02    0.99    1.43     0.67116   164.94766     9.45592
    38  H   1.0    0.03    0.99    1.43     0.68012   162.36037    11.54614
    39  N   5.0   -0.15    3.45    2.05    -5.07947   167.13136    18.82420
    40  C   4.0    0.03    4.33    4.25    -7.12309   165.98258    20.19302
    41  C   4.0    0.08    3.33    3.06    -9.47557   167.63556    20.15035
    42  O   6.0   -0.34    1.22    1.80   -11.54974   166.72662    19.92612
    43  C   4.0   -0.06    4.31    4.22    -6.54176   165.55299    22.98722
    44  C   4.0   -0.05    4.18    3.95    -4.62432   163.48261    23.50735
    45  C   4.0   -0.01    4.23    4.07    -4.26885   163.36294    26.36448
    46  N   5.0   -0.14    3.42    2.03    -2.13675   161.82049    27.07110
    47  C   4.0    0.10    3.35    3.07    -1.90692   160.41369    29.11077
    48  N   5.0   -0.20    3.26    1.97    -3.53758   160.48249    30.98119
    49  N   5.0   -0.19    3.27    1.97     0.28243   159.26254    29.45073
    50  H   1.0    0.11    1.11    1.45    -3.26700   166.87245    19.47041
    51  H   1.0    0.04    1.05    1.44    -7.60489   164.13250    19.35292
    52  H   1.0    0.03    1.03    1.43    -5.88354   167.32035    23.80325
    53  H   1.0    0.04    1.03    1.43    -8.31419   165.01168    23.95033
    54  H   1.0    0.06    1.02    1.43    -5.27813   161.62528    22.84312
    55  H   1.0    0.04    1.02    1.43    -2.83974   163.91744    22.54658
    56  H   1.0    0.02    1.02    1.43    -3.97963   165.31011    27.08919
    57  H   1.0    0.04    1.04    1.43    -5.98592   162.61183    27.18197
    58  H   1.0    0.07    1.07    1.44    -0.93355   161.45722    25.58463
    59  H   1.0    0.08    1.03    1.43    -5.37760   160.89962    30.58139
    60  H   1.0    0.07    1.04    1.43    -3.32556   159.19406    32.37597
    61  H   1.0    0.08    1.02    1.43     1.53259   159.03351    27.97467
    62  H   1.0    0.09    1.03    1.43     0.60163   158.01734    30.84090
    63  N   5.0   -0.22    3.32    1.99   -12.22214   168.58248    14.17200
    64  C   4.0    0.03    4.29    4.19   -13.09395   166.07900    13.58532
    65  C   4.0    0.16    3.58    3.16   -15.74712   165.73257    14.67465
    66  O   6.0   -0.30    1.36    1.80   -17.40529   164.73989    13.56166
    67  C   4.0   -0.07    4.14    3.88   -11.28586   164.17344    14.70788
    68  H   1.0    0.12    1.07    1.44   -11.08277   168.70856    15.69361
    69  H   1.0    0.04    1.06    1.44   -13.22838   165.88929    11.54120
    70  H   1.0    0.04    1.00    1.43   -11.79161   162.27750    14.14584
    71  H   1.0    0.05    1.01    1.43    -9.37558   164.58996    14.13955
    72  H   1.0    0.07    1.01    1.43   -11.39492   164.24987    16.79077
    73  N   5.0   -0.14    3.61    2.17   -15.89452   166.68274    17.02522
    74  C   4.0    0.03    4.40    4.38   -18.33749   167.14096    18.15313
    75  C   4.0    0.16    3.57    3.15   -19.94634   167.97921    15.85247
    76  O   6.0   -0.29    1.24    1.80   -22.03879   167.05653    15.49737
    77  C   4.0   -0.06    4.18    3.97   -18.24439   168.96404    20.42213
    78  C   4.0   -0.06    4.11    3.82   -17.29992   167.77148    22.90700
    79  C   4.0   -0.02    4.15    3.90   -18.85948   165.47065    23.76733
    80  N   5.0   -0.16    3.36    2.01   -19.67075   165.53576    26.42518
    81  C   4.0    0.08    3.32    3.06   -19.35310   163.81153    28.24253
    82  N   5.0   -0.19    3.25    1.97   -17.52755   162.11226    28.13870
    83  N   5.0   -0.21    3.24    1.97   -20.74618   163.96593    30.32804
    84  H   1.0    0.10    1.11    1.44   -14.30939   167.25961    18.00086
    85  H   1.0    0.05    1.06    1.44   -19.18458   165.37843    18.76852
    86  H   1.0    0.02    1.02    1.43   -17.03704   170.59070    19.92627
    87  H   1.0    0.02    1.02    1.43   -20.15646   169.69946    20.70580
    88  H   1.0    0.05    1.02    1.43   -15.30460   167.24036    22.68034
    89  H   1.0    0.02    1.02    1.43   -17.37213   169.24246    24.36916
    90  H   1.0    0.03    1.03    1.43   -20.58228   165.38986    22.62726
    91  H   1.0    0.04    1.02    1.43   -17.79908   163.73074    23.43312
    92  H   1.0    0.05    1.07    1.44   -20.94935   166.91861    26.77019
    93  H   1.0    0.09    1.03    1.43   -16.56406   161.85607    26.49951
    94  H   1.0    0.09    1.03    1.43   -17.62157   160.49117    29.15746
    95  H   1.0    0.05    1.02    1.43   -22.16132   165.24434    30.53145
    96  H   1.0    0.06    1.03    1.43   -20.51828   162.67734    31.72538
    97  N   5.0   -0.14    3.52    2.09   -18.80118   169.52447    14.18068
    98  C   4.0    0.03    4.34    4.27   -20.02670   170.27388    11.84313
    99  C   4.0    0.18    3.47    3.10   -21.61022   168.22579    10.45769
   100  O   6.0   -0.33    1.33    1.80   -23.71742   168.74376    10.04964
   101  C   4.0   -0.06    4.17    3.95   -18.25799   171.81529    10.10820
   102  C   4.0   -0.04    4.15    3.90   -17.23305   170.61531     7.65773
   103  C   4.0    0.24    3.08    3.02   -18.41092   171.58646     5.14326
   104  O   6.0   -0.35    1.18    1.80   -18.11615   173.89447     4.68423
   105  O   6.0   -0.33    1.18    1.80   -19.36398   170.08184     3.70444
   106  H   1.0    0.06    1.06    1.44   -17.17649   170.44741    14.72985
   107  H   1.0    0.04    1.07    1.44   -21.55150   171.57564    12.41210
   108  H   1.0    0.03    1.03    1.43   -19.26575   173.54174     9.55763
   109  H   1.0    0.03    1.02    1.43   -16.64742   172.45652    11.28007
   110  H   1.0    0.03    1.02    1.43   -15.22823   171.16258     7.48541
   111  H   1.0    0.05    1.04    1.43   -17.32427   168.59193     7.72704
   112  N   5.0   -0.13    3.44    2.04   -20.55008   166.11680     9.42288
   113  C   4.0    0.04    4.51    4.56   -22.26469   164.77745     7.77608
   114  C   4.0    0.17    3.55    3.14   -23.29993   162.44173     8.98783
   115  O   6.0   -0.30    1.45    1.80   -22.20447   161.52509    10.72491
   116  C   4.0    0.02    4.17    3.94   -21.28574   163.99464     5.18296
   117  O   6.0   -0.27    2.11    1.84   -23.42274   163.38596     3.65320
   118  H   1.0    0.11    1.07    1.44   -19.13795   165.15734    10.34643
   119  H   1.0    0.06    1.11    1.45   -23.83278   166.09892     7.45359
   120  H   1.0    0.05    1.01    1.43   -20.20568   165.53695     4.32171
   121  H   1.0    0.05    1.02    1.43   -20.15113   162.29021     5.25542
   122  H   1.0    0.10    1.02    1.43   -24.15670   164.96119     3.07173
   123  N   5.0   -0.14    3.50    2.08   -25.47599   161.50947     8.02906
   124  C   4.0    0.03    4.49    4.52   -26.30420   159.03800     8.76499
   125  C   4.0    0.16    3.74    3.27   -24.08111   157.26116     8.59736
   126  O   6.0   -0.30    1.41    1.80   -22.58390   157.48966     6.83589
   127  C   4.0    0.05    4.33    4.26   -28.00196   157.66054     6.77674
   128  O   6.0   -0.27    2.17    1.85   -26.97084   157.90150     4.35250
   129  C   4.0   -0.10    4.06    3.72   -30.73561   158.55980     6.79418
   130  H   1.0    0.09    1.09    1.44   -25.92826   162.08957     6.25887
   131  H   1.0    0.03    1.04    1.43   -27.23216   159.06892    10.61497
   132  H   1.0    0.03    1.04    1.43   -28.02251   155.62033     7.34152
   133  H   1.0    0.15    1.09    1.44   -25.14541   157.90907     4.47728
   134  H   1.0    0.02    1.00    1.43   -31.73928   157.55853     5.30356
   135  H   1.0    0.02    1.00    1.43   -31.58188   158.07138     8.60375
   136  H   1.0    0.03    1.01    1.43   -30.82426   160.54785     6.47456
   137  N   5.0   -0.16    3.44    2.04   -24.14780   155.19366    10.05739
   138  C   4.0    0.03    4.47    4.49   -22.53509   153.13495     9.31278
   139  C   4.0    0.16    3.55    3.14   -22.53891   152.63402     6.44767
   140  O   6.0   -0.31    1.37    1.80   -20.52174   152.39943     5.32970
   141  C   4.0   -0.05    4.36    4.30   -23.28420   150.67055    10.62800
   142  C   4.0   -0.02    4.19    3.99   -21.14088   148.69437    10.26023
   143  C   4.0   -0.07    4.08    3.76   -19.94572   148.09130    12.79277
   144  C   4.0   -0.08    4.07    3.75   -22.14025   146.40019     8.82423
   145  H   1.0    0.07    1.05    1.44   -25.49133   154.85775    11.39108
   146  H   1.0    0.05    1.07    1.44   -20.59078   153.59227     9.78309
   147  H   1.0    0.05    1.03    1.43   -23.56899   151.02350    12.63497
   148  H   1.0    0.03    1.03    1.43   -25.06160   149.95263     9.85604
   149  H   1.0    0.05    1.07    1.44   -19.67926   149.53570     9.07083
   150  H   1.0    0.04    1.00    1.43   -18.45877   146.70658    12.61843
   151  H   1.0    0.04    0.99    1.43   -19.11962   149.82165    13.62189
   152  H   1.0    0.05    0.99    1.43   -21.35028   147.38572    14.15707
   153  H   1.0    0.05    1.00    1.43   -20.65094   145.03103     8.48051
   154  H   1.0    0.03    1.00    1.43   -23.67514   145.48595     9.82271
   155  H   1.0    0.04    0.99    1.43   -22.84406   146.97913     6.93429
   156  N   5.0   -0.14    3.43    2.04   -24.78112   152.37176     5.27063
   157  C   4.0    0.04    4.44    4.44   -24.92213   151.38233     2.69503
   158  C   4.0    0.17    3.53    3.13   -22.67193   152.31318     1.12292
   159  O   6.0   -0.30    1.27    1.80   -21.06590   150.90336     0.26963
   160  C   4.0   -0.06    4.24    4.07   -27.40048   152.11954     1.39737
   161  C   4.0   -0.04    4.17    3.94   -27.41136   151.28542    -1.38976
   162  C   4.0    0.24    3.07    3.02   -27.23016   148.36427    -1.95414
   163  O   6.0   -0.34    1.17    1.80   -28.55656   147.63399    -3.75155
   164  O   6.0   -0.31    1.18    1.80   -25.80919   147.04023    -0.64613
   165  H   1.0    0.06    1.06    1.44   -26.39183   152.20554     6.30385
   166  H   1.0    0.06    1.06    1.44   -24.79352   149.29832     2.70374
   167  H   1.0    0.03    1.02    1.43   -28.97659   151.18938     2.35776
   168  H   1.0    0.04    1.02    1.43   -27.68698   154.17572     1.51846
   169  H   1.0    0.03    1.02    1.43   -29.14586   151.94901    -2.31030
   170  H   1.0    0.05    1.03    1.43   -25.80985   152.11556    -2.41141
   171  N   5.0   -0.13    3.60    2.16   -22.73288   154.82619     0.77038
   172  C   4.0    0.04    4.46    4.47   -21.10969   156.34918    -0.79074
   173  C   4.0    0.15    3.45    3.09   -18.31607   155.79421    -0.37773
   174  O   6.0   -0.32    1.28    1.80   -16.75969   155.79696    -2.07694
   175  C   4.0    0.06    4.31    4.21   -21.73138   159.07881     0.05691
   176  O   6.0   -0.27    2.18    1.85   -24.35199   159.37878    -0.13776
   177  C   4.0   -0.08    4.06    3.73   -20.28033   161.06294    -1.44995
   178  H   1.0    0.09    1.12    1.45   -24.35666   155.76474     1.21414
   179  H   1.0    0.05    1.03    1.43   -21.52101   156.07183    -2.83471
   180  H   1.0    0.05    1.05    1.44   -21.17129   159.18899     2.05346
   181  H   1.0    0.13    1.04    1.43   -24.82701   160.87324     0.78427
   182  H   1.0    0.04    1.00    1.43   -20.58870   162.93246    -0.64090
   183  H   1.0    0.04    1.00    1.43   -18.25943   160.65168    -1.40456
   184  H   1.0    0.04    1.00    1.43   -20.89416   161.05223    -3.40979
   185  N   5.0   -0.14    3.55    2.11   -17.73664   155.65065     2.07125
   186  C   4.0    0.03    4.47    4.49   -15.16086   155.18897     2.91444
   187  C   4.0    0.16    3.58    3.15   -14.22024   152.56106     2.38307
   188  O   6.0   -0.32    1.47    1.80   -12.35165   152.24853     1.08495
   189  C   4.0   -0.05    4.41    4.40   -14.93172   155.60125     5.78090
   190  C   4.0   -0.02    4.19    3.98   -16.16737   158.07826     6.69101
   191  C   4.0   -0.07    4.10    3.80   -15.27714   158.53125     9.40828
   192  C   4.0   -0.08    4.13    3.86   -15.49222   160.24400     4.91442
   193  H   1.0    0.11    1.12    1.45   -19.09803   155.15429     3.30114
   194  H   1.0    0.05    1.07    1.44   -13.91941   156.45784     1.88207
   195  H   1.0    0.05    1.04    1.43   -15.81067   154.00715     6.73465
   196  H   1.0    0.03    1.04    1.43   -12.93600   155.59465     6.22162
   197  H   1.0    0.07    1.06    1.44   -18.20499   157.79884     6.69791
   198  H   1.0    0.05    1.00    1.43   -16.26227   160.13100    10.20310
   199  H   1.0    0.04    1.00    1.43   -15.66003   156.87090    10.54949
   200  H   1.0    0.03    1.00    1.43   -13.24318   158.89090     9.43143
   201  H   1.0    0.04    1.01    1.43   -16.03642   162.01789     5.74023
   202  H   1.0    0.03    1.00    1.43   -13.47011   160.25398     4.55502
   203  H   1.0    0.04    1.00    1.43   -16.46532   160.03293     3.09624
   204  N   5.0   -0.15    3.51    2.08   -15.38256   150.64402     3.61955
   205  C   4.0    0.03    4.41    4.40   -14.65111   148.10191     2.78437
   206  C   4.0    0.17    3.60    3.17   -14.32086   148.26985    -0.08651
   207  O   6.0   -0.30    1.29    1.80   -12.35562   147.64055    -1.10551
   208  C   4.0   -0.05    4.17    3.94   -16.60157   146.17050     3.78203
   209  C   4.0   -0.03    4.09    3.79   -16.36838   143.42850     2.79376
   210  C   4.0    0.25    3.04    3.02   -16.66225   141.15343     4.75688
   211  O   6.0   -0.31    1.17    1.80   -17.51746   139.17288     4.00452
   212  O   6.0   -0.33    1.23    1.80   -15.88892   141.54935     6.96247
   213  H   1.0    0.10    1.09    1.44   -17.11629   150.86702     4.33360
   214  H   1.0    0.05    1.05    1.44   -12.78251   147.62784     3.55142
   215  H   1.0    0.05    1.03    1.43   -16.40732   146.12610     5.83426
   216  H   1.0    0.05    1.02    1.43   -18.48963   146.89492     3.33476
   217  H   1.0    0.06    1.02    1.43   -17.74682   143.10545     1.28441
   218  H   1.0    0.06    1.02    1.43   -14.50782   143.14288     1.94996
   219  N   5.0   -0.13    3.53    2.10   -16.26467   149.35629    -1.36269
   220  C   4.0    0.04    4.47    4.49   -16.26463   148.99749    -4.09662
   221  C   4.0    0.17    3.55    3.14   -13.94246   150.21295    -5.25352
   222  O   6.0   -0.30    1.27    1.80   -12.75586   149.31686    -7.00900
   223  C   4.0   -0.03    4.28    4.16   -18.59809   150.16466    -5.36525
   224  C   4.0   -0.03    4.18    3.97   -18.87367   149.14053    -8.03442
   225  C   4.0    0.25    3.08    3.02   -20.23246   151.01566    -9.87844
   226  O   6.0   -0.30    1.20    1.80   -20.27336   153.24312    -9.25302
   227  O   6.0   -0.33    1.17    1.80   -21.09132   150.10282   -11.84727
   228  H   1.0    0.11    1.11    1.44   -17.98346   149.53451    -0.56489
   229  H   1.0    0.07    1.06    1.44   -16.17727   146.96666    -4.51629
   230  H   1.0    0.06    1.03    1.43   -20.27697   149.72626    -4.24838
   231  H   1.0    0.07    1.04    1.43   -18.38500   152.21974    -5.45455
   232  H   1.0    0.06    1.03    1.43   -16.98417   148.75164    -8.82315
   233  H   1.0    0.04    1.01    1.43   -19.86161   147.31192    -8.01274
   234  N   5.0   -0.13    3.58    2.14   -13.35415   152.48928    -4.32868
   235  C   4.0    0.04    4.50    4.54   -11.27013   153.79553    -5.39936
   236  C   4.0    0.16    3.56    3.14    -8.71949   152.93334    -4.39406
   237  O   6.0   -0.30    1.35    1.80    -6.89197   152.99472    -5.72775
   238  C   4.0   -0.04    4.34    4.27   -11.73906   156.62427    -5.11566
   239  C   4.0   -0.03    4.14    3.88   -10.98379   157.44367    -2.45941
   240  S   6.0   -0.06    2.53    3.10    -7.76854   158.70988    -2.38391
   241  C   4.0   -0.08    3.90    3.47    -8.74117   161.96680    -2.92879
   242  H   1.0    0.12    1.10    1.44   -14.51010   153.32973    -2.99297
   243  H   1.0    0.06    1.08    1.44   -11.24111   153.26828    -7.39799
   244  H   1.0    0.04    1.04    1.43   -10.63820   157.67060    -6.52218
   245  H   1.0    0.06    1.02    1.43   -13.77587   156.98149    -5.45409
   246  H   1.0    0.04    1.07    1.44   -12.24326   158.91714    -1.77413
   247  H   1.0    0.06    1.09    1.44   -11.09208   155.85201    -1.18878
   248  H   1.0    0.03    1.06    1.44    -7.11078   163.10485    -2.66437
   249  H   1.0    0.04    1.03    1.43    -9.47474   162.08051    -4.88002
   250  H   1.0    0.04    1.04    1.43   -10.22103   162.43881    -1.59145
   251  N   5.0   -0.14    3.53    2.10    -8.46794   152.13947    -2.03499
   252  C   4.0    0.04    4.47    4.49    -6.00189   150.97232    -1.40620
   253  C   4.0    0.17    3.72    3.25    -5.22798   149.08054    -3.35447
   254  O   6.0   -0.31    1.36    1.80    -3.06806   148.86955    -4.14201
   255  C   4.0   -0.05    4.39    4.36    -6.18407   149.40127     1.05852
   256  C   4.0   -0.02    4.21    4.02    -4.63796   146.93547     1.27469
   257  C   4.0   -0.07    4.11    3.82    -1.84671   146.78481     0.56375
   258  C   4.0   -0.08    4.17    3.94    -4.79032   146.29490     4.08817
   259  H   1.0    0.13    1.14    1.45    -9.93145   151.71839    -0.89378
   260  H   1.0    0.05    1.05    1.44    -4.56610   152.44587    -1.21355
   261  H   1.0    0.03    1.05    1.44    -5.70849   150.62111     2.63009
   262  H   1.0    0.06    1.04    1.43    -8.16144   148.84590     1.28711
   263  H   1.0    0.04    1.06    1.44    -5.65458   145.46967     0.22449
   264  H   1.0    0.04    0.99    1.43    -1.24366   144.78452     0.84103
   265  H   1.0    0.07    1.03    1.43    -1.40438   147.26692    -1.38725
   266  H   1.0    0.04    1.01    1.43    -0.69302   147.88731     1.81191
   267  H   1.0    0.04    1.00    1.43    -3.88510   144.49957     4.45414
   268  H   1.0    0.03    0.99    1.43    -3.73665   147.71963     5.19069
   269  H   1.0    0.04    1.01    1.43    -6.69763   146.22626     4.74439
   270  N   5.0   -0.14    3.67    2.23    -7.04205   147.51958    -4.03051
   271  C   4.0    0.03    4.44    4.44    -6.45953   145.41343    -5.62386
   272  C   4.0    0.09    3.31    3.06    -4.79261   146.32580    -7.77876
   273  O   6.0   -0.33    1.12    1.80    -2.86193   145.16316    -8.34791
   274  C   4.0   -0.04    4.31    4.22    -8.95505   144.28940    -6.29171
   275  C   4.0   -0.03    4.29    4.18    -9.85056   142.96982    -3.91128
   276  C   4.0    0.25    3.10    3.02   -12.56534   141.89334    -4.05508
   277  O   6.0   -0.31    1.19    1.80   -14.04764   142.98238    -5.46512
   278  O   6.0   -0.31    1.18    1.80   -12.92711   140.01982    -2.68784
   279  H   1.0    0.10    1.10    1.44    -8.79712   147.60393    -3.30148
   280  H   1.0    0.04    1.06    1.44    -5.32489   143.97517    -4.60535
   281  H   1.0    0.08    1.02    1.43   -10.36350   145.76411    -6.82359
   282  H   1.0    0.03    1.03    1.43    -8.87672   142.94184    -7.83179
   283  H   1.0    0.04    1.03    1.43    -8.62706   141.38895    -3.43399
   284  H   1.0    0.06    1.04    1.43    -9.92887   144.25138    -2.28131
   285  N   5.0   -0.25    3.17    1.95   -10.18546   172.84622    -1.72040
   286  C   4.0    0.02    4.22    4.04   -10.55667   170.25132    -2.47639
   287  C   4.0    0.05    3.23    3.04   -11.85332   169.93932    -5.02636
   288  O   6.0   -0.34    1.13    1.80   -11.57913   167.97077    -6.19581
   289  C   4.0   -0.05    4.34    4.27   -12.12248   168.64949    -0.64236
   290  C   4.0   -0.03    4.14    3.88   -11.21267   168.22702     2.08365
   291  C   4.0   -0.08    4.12    3.83   -12.73210   166.01890     3.20285
   292  C   4.0   -0.09    4.09    3.78    -8.39978   167.64880     2.40932
   293  H   1.0    0.06    1.03    1.43   -10.58663   173.35783     0.06532
   294  H   1.0    0.03    1.07    1.44    -8.73132   169.35680    -2.67839
   295  H   1.0    0.04    1.02    1.43   -14.06040   169.42222    -0.51422
   296  H   1.0    0.04    1.04    1.43   -12.29453   166.79808    -1.56470
   297  H   1.0    0.03    1.05    1.44   -11.70026   169.90093     3.20399
   298  H   1.0    0.03    1.00    1.43   -12.28112   165.77141     5.18731
   299  H   1.0    0.04    1.00    1.43   -14.76176   166.36110     3.06398
   300  H   1.0    0.03    1.00    1.43   -12.30169   164.26692     2.21584
   301  H   1.0    0.03    0.99    1.43    -8.04719   167.35353     4.44735
   302  H   1.0    0.03    1.01    1.43    -7.89662   165.94721     1.43329
   303  H   1.0    0.02    1.01    1.43    -7.26464   169.20698     1.79303
   304  N   5.0   -0.24    3.20    1.96   -10.51620   163.90872   -11.74707
   305  C   4.0    0.03    4.26    4.11   -12.12652   161.86406   -12.55589
   306  C   4.0    0.05    3.21    3.04   -11.28056   160.88783   -15.11581
   307  O   6.0   -0.32    1.12    1.80   -12.19340   158.95992   -16.02604
   308  C   4.0   -0.05    4.27    4.14   -14.95028   162.49722   -12.41161
   309  C   4.0    0.15    3.23    3.04   -16.33770   160.12837   -11.52777
   310  O   6.0   -0.30    1.20    1.80   -17.39277   158.68827   -12.95840
   311  N   5.0   -0.19    3.19    1.95   -16.18208   159.72116    -9.02266
   312  H   1.0    0.06    1.02    1.43   -10.84388   165.64417   -12.45729
   313  H   1.0    0.05    1.07    1.44   -11.72774   160.30050   -11.25038
   314  H   1.0    0.03    1.02    1.43   -15.21698   164.06876   -11.07095
   315  H   1.0    0.03    1.03    1.43   -15.67521   163.05037   -14.25638
   316  H   1.0    0.10    1.03    1.43   -17.02388   158.18036    -8.30089
   317  H   1.0    0.07    1.02    1.43   -15.24856   160.90982    -7.83577
   318  N   5.0   -0.22    3.31    1.98     9.22325   151.53647     8.23587
   319  C   4.0    0.02    4.38    4.35     9.29162   150.48455    10.76877
   320  C   4.0    0.13    3.53    3.13     7.37546   151.85816    12.19410
   321  O   6.0   -0.32    1.27    1.80     5.41678   150.75896    13.41559
   322  C   4.0   -0.05    4.42    4.42    11.83913   151.22348    11.93984
   323  C   4.0   -0.05    4.15    3.90    13.96107   149.37427    11.55481
   324  C   4.0    0.24    3.13    3.03    15.39557   148.97279    14.11468
   325  O   6.0   -0.35    1.37    1.80    14.38308   149.70184    16.04049
   326  O   6.0   -0.36    1.18    1.80    17.44040   147.88799    14.04513
   327  H   1.0    0.06    1.01    1.43    10.90253   151.49419     7.23680
   328  H   1.0    0.05    1.06    1.44     9.09008   148.47868    10.76272
   329  H   1.0    0.03    1.02    1.43    12.51598   153.09858    11.35306
   330  H   1.0    0.06    1.07    1.44    11.58342   151.26823    14.02108
   331  H   1.0    0.04    1.01    1.43    13.23574   147.49918    10.92000
   332  H   1.0    0.02    1.01    1.43    15.34318   149.89690    10.07432
   333  N   5.0   -0.14    3.62    2.18     7.78194   154.26049    12.31318
   334  C   4.0    0.02    4.30    4.19     6.51614   156.27948    13.68246
   335  C   4.0    0.16    3.48    3.11     3.65633   155.88654    13.15800
   336  O   6.0   -0.31    1.34    1.80     2.02743   155.44180    14.73074
   337  C   4.0   -0.06    4.16    3.92     7.78900   158.78214    12.79782
   338  C   4.0   -0.07    4.08    3.76    10.60587   159.38908    13.69293
   339  C   4.0   -0.06    4.12    3.84    10.81082   161.25709    15.92892
   340  C   4.0   -0.06    4.11    3.81    13.47772   162.14588    16.45364
   341  N   5.0   -0.14    3.99    2.82    13.58152   164.51067    17.96158
   342  H   1.0    0.06    1.12    1.45     9.43842   154.81322    11.43207
   343  H   1.0    0.04    1.04    1.43     6.86467   156.04238    15.72118
   344  H   1.0    0.02    1.02    1.43     7.76294   158.83421    10.71982
   345  H   1.0    0.03    1.03    1.43     6.60600   160.35024    13.39796
   346  H   1.0    0.03    1.02    1.43    11.58493   157.63455    14.11846
   347  H   1.0    0.01    1.02    1.43    11.61921   160.24675    12.10383
   348  H   1.0    0.02    1.02    1.43     9.64529   162.90402    15.42682
   349  H   1.0    0.03    1.02    1.43    10.01773   160.33882    17.59706
   350  H   1.0    0.02    1.02    1.43    14.58155   160.67900    17.40714
   351  H   1.0    0.01    1.02    1.43    14.44015   162.54954    14.64036
   352  H   1.0    0.01    1.01    1.43    15.45140   165.01988    18.33599
   353  H   1.0    0.02    1.01    1.43    12.75083   165.93259    16.82409
   354  H   1.0    0.03    1.01    1.43    12.66235   164.31257    19.67760
   355  N   5.0   -0.15    3.53    2.10     3.02979   156.07370    10.80101
   356  C   4.0    0.03    4.54    4.59     0.41270   155.72537    10.16681
   357  C   4.0    0.17    3.76    3.29    -0.67320   153.23564    11.09450
   358  O   6.0   -0.33    1.46    1.80    -2.58528   153.13467    12.37028
   359  C   4.0   -0.06    4.43    4.44     0.04813   155.77220     7.35590
   360  C   4.0   -0.03    4.21    4.02    -2.72378   155.29557     6.51448
   361  C   4.0   -0.09    4.11    3.82    -3.09514   156.48577     3.93301
   362  C   4.0   -0.08    4.20    4.00    -3.31063   152.49690     6.42919
   363  H   1.0    0.06    1.06    1.44     4.28153   156.53876     9.40153
   364  H   1.0    0.04    1.04    1.43    -0.73891   157.24954    11.07575
   365  H   1.0    0.02    1.03    1.43     0.64368   157.62509     6.61715
   366  H   1.0    0.03    1.04    1.43     1.24924   154.34777     6.47891
   367  H   1.0    0.04    1.05    1.44    -3.98282   156.20261     7.87645
   368  H   1.0    0.04    1.00    1.43    -4.97695   156.17065     3.20652
   369  H   1.0    0.03    0.99    1.43    -2.75588   158.53369     4.00067
   370  H   1.0    0.03    0.99    1.43    -1.74640   155.66839     2.56735
   371  H   1.0    0.03    1.01    1.43    -5.11804   152.25866     5.49196
   372  H   1.0    0.03    1.00    1.43    -1.88018   151.46692     5.38316
   373  H   1.0    0.05    1.05    1.44    -3.53477   151.64356     8.27933
   374  N   5.0   -0.15    3.67    2.23     0.37068   151.31880    10.15466
   375  C   4.0    0.03    4.49    4.52    -0.57239   148.85558    10.71796
   376  C   4.0    0.17    3.65    3.20    -1.09296   148.67233    13.46485
   377  O   6.0   -0.32    1.38    1.80    -2.81363   147.42708    14.19539
   378  C   4.0   -0.04    4.24    4.08     1.11092   146.74043     9.43699
   379  C   4.0   -0.03    4.16    3.91     3.65669   146.23695    10.53740
   380  C   4.0    0.25    3.09    3.02     5.21686   144.37434     8.81300
   381  O   6.0   -0.32    1.21    1.80     4.27355   143.59713     6.91986
   382  O   6.0   -0.31    1.18    1.80     7.34594   143.86544     9.61406
   383  H   1.0    0.07    1.05    1.44     2.15051   151.32387     9.26515
   384  H   1.0    0.04    1.05    1.44    -2.44788   148.57756     9.75818
   385  H   1.0    0.05    1.04    1.43     0.05292   145.02666     9.39134
   386  H   1.0    0.04    1.02    1.43     1.37453   147.31942     7.44442
   387  H   1.0    0.06    1.04    1.43     4.77234   147.98603    10.80232
   388  H   1.0    0.05    1.02    1.43     3.49555   145.36719    12.42713
   389  N   5.0   -0.13    3.68    2.25     0.22103   150.05987    14.99263
   390  C   4.0    0.04    4.65    4.72    -0.40427   149.55338    17.62292
   391  C   4.0    0.16    3.61    3.18    -2.90964   150.73534    18.27766
   392  O   6.0   -0.33    1.35    1.80    -4.31198   149.73512    19.72911
   393  C   4.0   -0.02    4.27    4.14     1.57304   150.54027    19.52907
   394  C   4.0   -0.07    4.12    3.84     4.32244   150.08082    18.67526
   395  C   4.0   -0.07    4.20    4.00     1.21834   153.37544    20.06186
   396  H   1.0    0.11    1.09    1.44     2.07431   150.61023    14.61295
   397  H   1.0    0.05    1.07    1.44    -0.56125   147.50920    17.87152
   398  H   1.0    0.04    1.05    1.44     1.25962   149.47637    21.27058
   399  H   1.0    0.04    1.00    1.43     5.56347   150.38220    20.29942
   400  H   1.0    0.05    1.00    1.43     4.60019   148.18774    18.00036
   401  H   1.0    0.07    1.02    1.43     4.85250   151.42625    17.21265
   402  H   1.0    0.04    1.02    1.43     2.73432   153.96654    21.24081
   403  H   1.0    0.07    1.03    1.43     1.29506   154.37139    18.26105
   404  H   1.0    0.05    1.02    1.43    -0.54832   153.69431    20.98432
   405  N   5.0   -0.14    3.73    2.31    -3.23811   152.98971    17.32292
   406  C   4.0    0.04    4.58    4.64    -5.38084   154.55708    17.82172
   407  C   4.0    0.16    3.67    3.21    -7.67085   153.06080    17.16053
   408  O   6.0   -0.32    1.32    1.80    -9.63267   153.04290    18.36068
   409  C   4.0   -0.02    4.30    4.20    -5.28275   157.01403    16.30209
   410  C   4.0   -0.07    4.16    3.93    -7.09934   157.12183    14.04265
   411  C   4.0   -0.07    4.13    3.86    -5.75374   159.20946    18.07240
   412  H   1.0    0.11    1.13    1.45    -2.03064   153.54055    15.92782
   413  H   1.0    0.06    1.08    1.44    -5.47923   155.04943    19.83969
   414  H   1.0    0.05    1.07    1.44    -3.39685   157.20148    15.53555
   415  H   1.0    0.03    1.00    1.43    -7.15383   159.01615    13.27349
   416  H   1.0    0.05    1.01    1.43    -6.54943   155.82343    12.57285
   417  H   1.0    0.05    0.99    1.43    -9.06259   156.66661    14.62030
   418  H   1.0    0.04    0.99    1.43    -5.51994   161.02774    17.10002
   419  H   1.0    0.05    1.00    1.43    -7.67424   159.15188    18.83351
   420  H   1.0    0.05    1.01    1.43    -4.46760   159.13053    19.67259
   421  N   5.0   -0.15    3.71    2.29    -7.38048   151.85043    14.99444
   422  C   4.0    0.04    4.61    4.68    -9.39668   150.19873    14.22071
   423  C   4.0    0.16    3.67    3.22    -9.73704   148.12463    16.05827
   424  O   6.0   -0.32    1.53    1.80   -11.81864   147.67027    16.86833
   425  C   4.0   -0.03    4.27    4.13    -9.00263   149.31438    11.46687
   426  C   4.0   -0.08    4.11    3.82   -11.46777   148.17915    10.46486
   427  C   4.0   -0.08    4.17    3.93    -8.26380   151.63365     9.90879
   428  H   1.0    0.11    1.13    1.45    -5.73173   151.72809    14.16067
   429  H   1.0    0.05    1.06    1.44   -11.21336   151.27155    14.26989
   430  H   1.0    0.05    1.06    1.44    -7.54536   147.91429    11.41828
   431  H   1.0    0.04    1.01    1.43   -11.19791   147.31565     8.65477
   432  H   1.0    0.05    1.00    1.43   -12.21872   146.78063    11.75279
   433  H   1.0    0.04    0.99    1.43   -12.92440   149.66741    10.22979
   434  H   1.0    0.04    1.01    1.43    -8.25692   151.13794     7.94027
   435  H   1.0    0.04    1.00    1.43    -9.64008   153.15177    10.17563
   436  H   1.0    0.05    1.01    1.43    -6.41009   152.32406    10.44622
   437  N   5.0   -0.13    3.53    2.10    -7.77651   146.95923    16.96127
   438  C   4.0    0.05    4.64    4.71    -8.60199   145.11085    18.87148
   439  C   4.0    0.17    3.66    3.21   -10.19149   146.44921    20.84596
   440  O   6.0   -0.31    1.40    1.80   -12.00252   145.48656    21.77128
   441  C   4.0   -0.03    4.27    4.13    -6.53646   143.53547    20.19860
   442  C   4.0    0.15    3.28    3.05    -7.63828   140.88815    20.28545
   443  O   6.0   -0.30    1.24    1.80    -8.28800   139.78402    18.41706
   444  N   5.0   -0.18    3.22    1.96    -7.87684   139.87330    22.60040
   445  H   1.0    0.11    1.07    1.44    -5.96166   146.98294    16.31418
   446  H   1.0    0.06    1.11    1.45    -9.80154   143.77682    17.93034
   447  H   1.0    0.05    1.01    1.43    -4.76773   143.58312    19.09580
   448  H   1.0    0.05    1.02    1.43    -6.13510   144.23966    22.11132
   449  H   1.0    0.10    1.06    1.44    -9.00228   138.30711    22.63768
   450  H   1.0    0.11    1.05    1.44    -7.95585   140.83478    24.21479
   451  N   5.0   -0.13    3.61    2.17    -9.35243   148.70672    21.54245
   452  C   4.0    0.04    4.48    4.51   -10.50269   150.04805    23.64065
   453  C   4.0    0.17    3.52    3.13   -13.34105   149.87516    23.43579
   454  O   6.0   -0.31    1.25    1.80   -14.64286   149.39906    25.27041
   455  C   4.0   -0.03    4.32    4.23    -9.51432   152.73871    23.79525
   456  C   4.0   -0.03    4.21    4.02    -6.68609   152.76684    24.34712
   457  C   4.0    0.25    3.13    3.03    -6.09118   155.51965    25.16809
   458  O   6.0   -0.32    1.20    1.80    -5.69553   157.01647    23.41058
   459  O   6.0   -0.31    1.17    1.80    -6.14053   155.97801    27.44889
   460  H   1.0    0.11    1.11    1.44    -7.64281   149.34273    20.88533
   461  H   1.0    0.05    1.06    1.44   -10.04103   149.05987    25.41613
   462  H   1.0    0.08    1.05    1.44    -9.92069   153.74774    22.02873
   463  H   1.0    0.06    1.04    1.43   -10.50677   153.67846    25.32339
   464  H   1.0    0.05    1.03    1.43    -6.23858   151.45510    25.85054
   465  H   1.0    0.07    1.03    1.43    -5.57306   152.24209    22.66075
   466  N   5.0   -0.14    3.54    2.11   -14.21483   150.40763    21.17655
   467  C   4.0    0.04    4.47    4.49   -16.91357   150.23006    20.61475
   468  C   4.0    0.15    3.47    3.10   -17.90746   147.74239    19.65926
   469  O   6.0   -0.31    1.28    1.80   -20.22148   147.47241    19.62354
   470  C   4.0   -0.04    4.25    4.09   -17.67240   152.31452    18.66508
   471  C   4.0   -0.04    4.17    3.94   -17.51141   154.87464    19.94958
   472  C   4.0   -0.01    4.15    3.89   -20.08234   156.17418    20.47073
   473  N   5.0   -0.14    3.39    2.02   -20.63245   158.09183    18.57102
   474  C   4.0    0.09    3.33    3.06   -22.14705   157.87133    16.53845
   475  N   5.0   -0.18    3.27    1.97   -24.29824   156.51998    16.67430
   476  N   5.0   -0.17    3.33    1.99   -21.59248   159.05253    14.50986
   477  H   1.0    0.11    1.09    1.44   -13.04724   150.77644    19.72136
   478  H   1.0    0.06    1.08    1.44   -17.94024   150.57530    22.33926
   479  H   1.0    0.05    1.02    1.43   -16.38484   152.10753    17.05432
   480  H   1.0    0.05    1.03    1.43   -19.58307   151.84960    18.02920
   481  H   1.0    0.05    1.02    1.43   -16.50806   154.61777    21.78068
   482  H   1.0    0.05    1.04    1.43   -16.34302   156.09844    18.81823
   483  H   1.0    0.05    1.02    1.43   -21.58931   154.75931    20.52035
   484  H   1.0    0.06    1.02    1.43   -20.04009   157.07398    22.34172
   485  H   1.0    0.08    1.09    1.44   -19.12544   159.22117    18.23299
   486  H   1.0    0.11    1.04    1.43   -24.74996   155.37675    18.13845
   487  H   1.0    0.09    1.03    1.43   -25.48099   156.36826    15.21007
   488  H   1.0    0.11    1.03    1.43   -20.15420   160.33358    14.38335
   489  H   1.0    0.12    1.09    1.44   -22.83825   159.29480    13.01925
   490  N   5.0   -0.14    3.54    2.10   -16.24384   146.00142    18.96737
   491  C   4.0    0.04    4.40    4.37   -17.06974   143.40259    18.83544
   492  C   4.0    0.16    3.44    3.09   -18.04672   142.56324    21.44904
   493  O   6.0   -0.31    1.28    1.80   -19.83836   141.16790    21.64655
   494  C   4.0   -0.04    4.19    3.98   -14.90204   141.68118    17.82690
   495  C   4.0   -0.04    4.09    3.79   -14.14883   141.95961    15.02572
   496  C   4.0   -0.01    4.12    3.85   -15.92842   140.78373    12.99667
   497  N   5.0   -0.14    3.35    2.00   -16.31968   138.05728    13.13216
   498  C   4.0    0.09    3.32    3.06   -16.39281   136.34302    11.27108
   499  N   5.0   -0.18    3.24    1.97   -15.22303   136.66493     9.07992
   500  N   5.0   -0.19    3.23    1.96   -17.64689   134.18224    11.66270
   501  H   1.0    0.13    1.14    1.45   -14.37362   146.36999    18.93734
   502  H   1.0    0.05    1.06    1.44   -18.68722   143.24779    17.58152
   503  H   1.0    0.06    1.03    1.43   -13.24893   142.06115    19.00200
   504  H   1.0    0.05    1.03    1.43   -15.45724   139.73568    18.18917
   505  H   1.0    0.05    1.02    1.43   -13.97787   143.98420    14.57899
   506  H   1.0    0.06    1.03    1.43   -12.28027   141.12364    14.83475
   507  H   1.0    0.04    1.03    1.43   -17.76953   141.68680    13.17496
   508  H   1.0    0.06    1.04    1.43   -15.15904   141.26607    11.14913
   509  H   1.0    0.08    1.07    1.44   -17.15004   137.49865    14.78063
   510  H   1.0    0.12    1.07    1.44   -14.99609   138.44649     8.41112
   511  H   1.0    0.09    1.03    1.43   -15.50195   135.36468     7.69042
   512  H   1.0    0.08    1.02    1.43   -18.25966   133.63832    13.41697
   513  H   1.0    0.07    1.02    1.43   -17.53796   132.75844    10.36622
   514  N   5.0   -0.13    3.51    2.08   -16.90509   143.56266    23.46791
   515  C   4.0    0.03    4.44    4.45   -17.93389   143.02979    25.96310
   516  C   4.0    0.15    3.43    3.09   -20.32696   144.59746    26.40202
   517  O   6.0   -0.29    1.32    1.80   -22.36173   143.44597    26.47036
   518  C   4.0   -0.05    4.17    3.94   -15.77047   143.09918    27.91463
   519  C   4.0   -0.03    4.16    3.92   -14.31850   140.57491    27.62341
   520  C   4.0    0.25    3.04    3.02   -11.63284   140.32249    28.92503
   521  O   6.0   -0.32    1.15    1.80   -11.60369   139.73816    31.18992
   522  O   6.0   -0.30    1.19    1.80    -9.76386   140.66507    27.50872
   523  H   1.0    0.11    1.08    1.44   -15.25625   144.55264    23.36659
   524  H   1.0    0.06    1.08    1.44   -18.64658   141.08038    25.95182
   525  H   1.0    0.06    1.01    1.43   -14.51986   144.72116    27.53573
   526  H   1.0    0.04    1.02    1.43   -16.47818   143.27943    29.83491
   527  H   1.0    0.04    1.03    1.43   -15.51252   139.07725    28.35026
   528  H   1.0    0.06    1.02    1.43   -13.99092   140.26500    25.59038
   529  N   5.0   -0.15    3.45    2.05   -20.13364   147.11573    26.53514
   530  C   4.0    0.03    4.37    4.33   -22.31125   148.72842    27.06749
   531  C   4.0    0.17    3.49    3.11   -24.68485   147.55995    25.82536
   532  O   6.0   -0.32    1.23    1.80   -26.61721   147.26076    27.06884
   533  C   4.0   -0.04    4.17    3.94   -21.75323   151.50506    26.34807
   534  C   4.0   -0.04    4.18    3.96   -19.50626   152.46365    27.89859
   535  C   4.0    0.24    3.06    3.02   -18.51278   155.24083    27.48227
   536  O   6.0   -0.32    1.18    1.80   -20.04426   156.82088    26.67676
   537  O   6.0   -0.31    1.17    1.80   -16.28596   155.60322    28.05779
   538  H   1.0    0.09    1.08    1.44   -18.42360   147.91263    26.58087
   539  H   1.0    0.04    1.06    1.44   -22.72142   148.69222    29.10056
   540  H   1.0    0.06    1.02    1.43   -21.43888   151.67717    24.33153
   541  H   1.0    0.05    1.01    1.43   -23.47316   152.64642    26.77372
   542  H   1.0    0.03    1.02    1.43   -19.99517   152.40630    29.91730
   543  H   1.0    0.06    1.04    1.43   -17.87664   151.26624    27.63690
   544  N   5.0   -0.12    3.48    2.06   -24.47943   146.81811    23.37317
   545  C   4.0    0.05    4.44    4.44   -26.70451   145.86063    22.15084
   546  C   4.0    0.16    3.53    3.13   -27.23447   143.06021    22.54873
   547  O   6.0   -0.32    1.32    1.80   -29.41533   142.38458    22.84657
   548  C   4.0   -0.04    4.24    4.09   -26.68287   146.34549    19.29881
   549  C   4.0   -0.04    4.14    3.89   -28.34866   148.56105    18.48602
   550  C   4.0    0.24    3.07    3.02   -27.36396   151.31099    18.91107
   551  O   6.0   -0.33    1.21    1.80   -27.65606   152.73067    17.03424
   552  O   6.0   -0.31    1.16    1.80   -26.42150   151.93675    20.94905
   553  H   1.0    0.11    1.08    1.44   -22.97263   147.27986    22.34076
   554  H   1.0    0.06    1.07    1.44   -28.33750   146.81464    23.01781
   555  H   1.0    0.06    1.04    1.43   -24.76621   146.62622    18.68396
   556  H   1.0    0.04    1.03    1.43   -27.42950   144.63522    18.35846
   557  H   1.0    0.04    1.02    1.43   -28.70396   148.42657    16.43678
   558  H   1.0    0.03    1.02    1.43   -30.20126   148.46636    19.42543
   559  N   5.0   -0.14    3.41    2.03   -25.37489   141.36982    22.32904
   560  C   4.0    0.05    4.42    4.41   -26.24092   138.83588    22.88546
   561  C   4.0    0.09    3.26    3.05   -27.38057   138.55341    25.52248
   562  O   6.0   -0.33    1.12    1.80   -28.94430   136.88976    25.88488
   563  C   4.0    0.03    4.11    3.83   -24.37128   136.68033    22.28738
   564  O   6.0   -0.27    2.07    1.83   -25.75094   134.91738    20.87386
   565  H   1.0    0.12    1.07    1.44   -23.50237   141.79327    22.45247
   566  H   1.0    0.06    1.09    1.44   -27.81328   138.45016    21.60703
   567  H   1.0    0.06    1.01    1.43   -22.75638   137.43916    21.24373
   568  H   1.0    0.04    1.00    1.43   -23.65323   135.87167    24.07791
   569  H   1.0    0.11    1.03    1.43   -25.02599   133.27504    21.05886
   570  N   5.0   -0.24    3.37    2.01     8.06905   145.74075    30.65270
   571  C   4.0    0.02    4.43    4.43     5.95381   146.28936    29.05935
   572  C   4.0    0.14    3.39    3.08     5.91049   144.38958    26.90445
   573  O   6.0   -0.32    1.23    1.80     3.93828   143.29887    26.33530
   574  C   4.0   -0.04    4.32    4.24     6.22813   149.01255    28.39150
   575  C   4.0   -0.04    4.29    4.18     5.53311   150.44788    30.77193
   576  C   4.0    0.24    3.10    3.02     5.95823   153.33719    30.62814
   577  O   6.0   -0.33    1.19    1.80     7.64252   154.07637    29.21809
   578  O   6.0   -0.34    1.18    1.80     4.51660   154.58725    31.99537
   579  H   1.0    0.06    1.05    1.44     9.01964   147.21852    31.38173
   580  H   1.0    0.03    1.06    1.44     4.14092   146.02586    30.07786
   581  H   1.0    0.04    1.02    1.43     8.20950   149.49496    27.85962
   582  H   1.0    0.05    1.03    1.43     5.02195   149.61850    26.85142
   583  H   1.0    0.04    1.03    1.43     3.55228   150.17873    31.24922
   584  H   1.0    0.02    1.03    1.43     6.68212   149.87492    32.40190
   585  N   5.0   -0.15    3.47    2.06     8.16620   144.13239    25.81424
   586  C   4.0    0.02    4.20    4.01     9.07279   142.33541    23.88788
   587  C   4.0    0.08    3.19    3.03     8.07763   139.65340    24.64573
   588  O   6.0   -0.33    1.14    1.80     6.64076   138.41408    23.51047
   589  C   4.0   -0.07    4.17    3.93    11.98375   142.39276    23.61542
   590  C   4.0   -0.06    4.14    3.89    13.00701   144.98808    22.76652
   591  C   4.0   -0.07    4.11    3.83    15.92648   145.24271    22.54229
   592  C   4.0   -0.06    4.10    3.80    16.78444   148.00145    22.50017
   593  N   5.0   -0.12    4.00    2.86    17.52748   148.89148    19.94759
   594  H   1.0    0.07    1.11    1.45     9.50588   145.21447    26.60076
   595  H   1.0    0.05    1.05    1.44     8.24539   142.84733    22.07674
   596  H   1.0    0.02    1.01    1.43    12.92347   141.86015    25.40748
   597  H   1.0    0.02    1.02    1.43    12.49267   140.94270    22.20812
   598  H   1.0    0.04    1.03    1.43    12.18377   145.46731    20.95148
   599  H   1.0    0.03    1.03    1.43    12.35698   146.39162    24.11274
   600  H   1.0    0.01    1.02    1.43    16.76647   144.23839    24.15032
   601  H   1.0    0.03    1.03    1.43    16.56832   144.30849    20.83836
   602  H   1.0    0.03    1.02    1.43    15.29186   149.24114    23.24228
   603  H   1.0    0.00    1.03    1.43    18.41546   148.25356    23.71461
   604  H   1.0    0.03    1.03    1.43    18.40843   150.60999    20.14079
   605  H   1.0    0.04    1.02    1.43    18.82469   147.64253    19.19665
   606  H   1.0    0.10    1.08    1.44    16.02426   149.14283    18.53889
   607  N   5.0   -0.21    3.25    1.97     0.89403   138.31528    24.67886
   608  C   4.0    0.04    4.29    4.18    -0.30595   138.19692    22.21599
   609  C   4.0    0.08    3.22    3.04     0.34263   135.60779    21.10813
   610  O   6.0   -0.32    1.20    1.80    -1.21343   134.35198    19.96482
   611  C   4.0   -0.02    4.23    4.06     0.24097   140.48921    20.57899
   612  C   4.0   -0.07    4.12    3.84     0.01712   142.95144    22.12334
   613  C   4.0   -0.07    4.10    3.81     2.79471   140.36921    19.20657
   614  H   1.0    0.11    1.03    1.43     2.34342   139.52208    24.95388
   615  H   1.0    0.05    1.05    1.44    -2.37476   138.17939    22.52252
   616  H   1.0    0.05    1.06    1.44    -1.24528   140.53138    19.13797
   617  H   1.0    0.04    1.00    1.43    -0.11682   144.58150    20.88641
   618  H   1.0    0.04    1.00    1.43    -1.65437   142.90003    23.32445
   619  H   1.0    0.07    1.02    1.43     1.65100   143.21526    23.33661
   620  H   1.0    0.04    1.00    1.43     3.08033   142.11137    18.15652
   621  H   1.0    0.07    1.01    1.43     4.30346   140.13332    20.55998
   622  H   1.0    0.05    1.01    1.43     2.78269   138.79780    17.91265
   623  N   5.0   -0.20    3.24    1.96    -4.26796   131.72879    23.70537
   624  C   4.0    0.04    4.47    4.49    -6.56489   131.52206    22.41999
   625  C   4.0    0.14    3.52    3.12    -6.53383   130.30177    19.88673
   626  O   6.0   -0.32    1.36    1.80    -8.38604   129.05991    19.23349
   627  C   4.0   -0.03    4.37    4.33    -7.88121   134.07597    22.19410
   628  C   4.0    0.15    3.28    3.05    -9.62977   134.08181    24.50838
   629  O   6.0   -0.31    1.23    1.80    -8.78868   133.66966    26.59114
   630  N   5.0   -0.19    3.17    1.95   -12.10640   134.21037    23.95787
   631  H   1.0    0.08    1.00    1.43    -3.87533   133.39811    24.76737
   632  H   1.0    0.05    1.09    1.44    -7.85204   130.32286    23.54553
   633  H   1.0    0.06    1.04    1.43    -6.50007   135.56754    22.22989
   634  H   1.0    0.05    1.01    1.43    -9.00099   134.25998    20.41066
   635  H   1.0    0.09    1.03    1.43   -13.41841   134.14471    25.30487
   636  H   1.0    0.08    1.02    1.43   -12.69919   134.42902    22.11833
   637  N   5.0   -0.15    3.56    2.12    -4.67193   130.70469    18.43032
   638  C   4.0    0.03    4.36    4.32    -4.32679   129.31278    16.06272
   639  C   4.0    0.07    3.28    3.05    -5.05050   126.57908    16.46534
   640  O   6.0   -0.32    1.12    1.80    -6.56491   125.49334    15.08709
   641  C   4.0   -0.05    4.29    4.19    -1.63476   129.84510    15.18477
   642  C   4.0   -0.02    4.21    4.01    -1.40596   132.58621    14.32444
   643  C   4.0    0.25    3.14    3.03    -0.30609   132.50487    11.62934
   644  O   6.0   -0.31    1.21    1.80     1.94518   133.15514    11.63356
   645  O   6.0   -0.32    1.17    1.80    -1.51603   131.76552     9.83271
   646  H   1.0    0.11    1.14    1.45    -3.22207   131.82557    18.95830
   647  H   1.0    0.06    1.04    1.43    -5.67127   129.99372    14.58737
   648  H   1.0    0.03    1.03    1.43    -0.37244   129.40299    16.73162
   649  H   1.0    0.04    1.04    1.43    -1.22949   128.58564    13.59649
   650  H   1.0    0.05    1.00    1.43    -3.34215   133.49047    14.29459
   651  H   1.0    0.06    1.02    1.43    -0.26678   133.75097    15.58322
   652  N   5.0   -0.22    3.23    1.96   -11.44765   124.86089    18.58361
   653  C   4.0    0.05    4.36    4.32   -13.16176   125.02733    16.52339
   654  C   4.0    0.06    3.23    3.04   -13.16205   122.68855    14.93206
   655  O   6.0   -0.33    1.11    1.80   -15.00325   121.19468    14.99759
   656  C   4.0   -0.04    4.28    4.15   -12.83219   127.44230    14.97305
   657  C   4.0   -0.04    4.17    3.95   -15.40877   127.97549    13.72863
   658  C   4.0    0.24    3.23    3.04   -17.44764   127.44304    15.86874
   659  O   6.0   -0.32    1.17    1.80   -18.99788   125.75998    15.37630
   660  O   6.0   -0.31    1.18    1.80   -17.26158   128.68961    17.85959
   661  H   1.0    0.12    1.06    1.44    -9.77377   125.83346    18.38995
   662  H   1.0    0.07    1.14    1.45   -15.05923   125.02257    17.41147
   663  H   1.0    0.07    1.03    1.43   -12.42064   128.97464    16.29749
   664  H   1.0    0.05    1.02    1.43   -11.29340   127.26214    13.64055
   665  H   1.0    0.04    1.02    1.43   -15.48830   129.91741    13.06038
   666  H   1.0    0.04    1.02    1.43   -15.73567   126.65739    12.17928
   667  H   1.0    0.07    1.08    1.44     6.09324   166.96492    17.24230
   668  H   1.0    0.03    1.04    1.43     2.24313   168.50694    22.79660
   669  H   1.0    0.06    1.07    1.44    -1.23781   171.81087    15.36447
   670  H   1.0    0.04    1.05    1.44    -9.31513   169.51168    20.31009
   671  H   1.0    0.09    1.08    1.44   -11.34052   169.19978    12.85509
   672  H   1.0    0.06    1.05    1.44    -5.26305   147.88077    -8.74407
   673  H   1.0    0.06    1.07    1.44    -8.55065   173.26861    -1.92420
   674  H   1.0    0.03    1.04    1.44   -12.91472   171.33847    -5.72412
   675  H   1.0    0.09    1.08    1.44   -10.63770   164.09412   -10.06083
   676  H   1.0    0.02    1.05    1.44    -9.95727   161.81900   -16.09197
   677  H   1.0    0.09    1.07    1.44     8.09703   150.67735     7.29454
   678  H   1.0    0.06    1.04    1.43   -26.84539   139.71623    26.91262
   679  H   1.0    0.07    1.08    1.44     7.54944   144.83234    31.99335
   680  H   1.0    0.03    1.06    1.44     8.67565   138.84037    26.24336
   681  H   1.0    0.09    1.07    1.44    -0.25529   138.76414    25.84939
   682  H   1.0    0.05    1.05    1.44     2.08352   134.90173    21.31266
   683  H   1.0    0.08    1.08    1.44    -4.13684   130.46855    24.83989
   684  H   1.0    0.03    1.05    1.44    -4.28803   125.59984    17.89040
   685  H   1.0    0.09    1.08    1.44   -12.18602   125.47452    19.98747
   686  H   1.0    0.04    1.04    1.44   -11.69015   122.30959    13.80913

  Z AO/shell   Hii/eV     exponent
  1     Wed Apr 25 08:07:45 CEST 2018   EN: 2.200 GM2: 0.406  GM3: 0.0800  RAES: 1.40
     1s    -10.707211    1.230000
  6     Wed Apr 25 08:07:45 CEST 2018   EN: 2.550 GM2: 0.538  GM3: 0.1500  RAES: 3.00
     2s    -13.970922    2.096432
     2p    -10.063292    1.800000
  7     Wed Apr 25 08:07:45 CEST 2018   EN: 3.040 GM2: 0.461  GM3:-0.0640  RAES: 1.90
     2s    -16.686243    2.339881
     2p    -12.523956    2.014332
  8     Wed Apr 25 08:07:45 CEST 2018   EN: 3.440 GM2: 0.452  GM3:-0.0517  RAES: 1.80
     2s    -20.229985    2.439742
     2p    -15.503117    2.137023
 16     Tue Apr 24 11:44:34 CEST 2018   EN: 2.580 GM2: 0.340  GM3:-0.0502  RAES: 3.10
     3s    -20.029654    1.981333
     3p    -11.377694    2.025643
     3d     -0.420282    1.702555
 no old-style atom pair restraining (fixing) potential

molecular fragmentation (1/2 indicates fragments):
111111111111111111122222222222222222222222222222222222222222222222222222
222222222222222222222222222222222222222222222222222222222222222222222222
222222222222222222222222222222222222222222222222222222222222222222222222
222222222222222222222222222222222222222222222222222222222222222222222222
222222222222222222222222222222222222222222222222222222222222222222222222
222222222222222222222222222222222222222222222222222222222222222222222222
222222222222222222222222222222222222222222222222222222222222222222222222
222222222222222222222222222222222222222222222222222222222222222222222222
222222222222222222222222222222222222222222222222222222222222222222222222
22222222222222222211222222222222222222
# atoms in fragment 1/2:    21   665
 fragment masses (1/2) :      115.17     4695.22
CMA distance (Bohr)    :  22.738
constraining FC (au)   :  0.0500
           ------------------------------------------------- 
          |        Self-Consistent Charge Iterations        |
           ------------------------------------------------- 

 Ncao       : 1697
 Nao        : 1696
 Nshell     : 1022
 Nel        : 1908
 T(el)      :   500.0
 intcut     :    35.0
 scfconv/Eh :  0.100E-06
   qconv/e  :  0.100E-04
 intneglect :  0.100E-08
 broydamp   :      0.400
 iter      E             dE          RMSdq      gap      omega  full diag
   1  -1098.7130909 -0.109871E+04  0.479E+00    3.08       0.0  T
   2  -1101.8412600 -0.312817E+01  0.222E+00    1.84       1.0  T
   3  -1102.0481480 -0.206888E+00  0.128E+00    2.17       1.0  T
   4  -1102.2221934 -0.174045E+00  0.289E-01    1.41       1.0  T
   5  -1102.2347220 -0.125285E-01  0.160E-01    1.52       1.0  T
   6  -1102.2367326 -0.201065E-02  0.686E-02    1.46       1.0  T
   7  -1102.2374972 -0.764579E-03  0.308E-02    1.43       1.0  T
   8  -1102.2375865 -0.892710E-04  0.149E-02    1.41       1.0  T
   9  -1102.2376163 -0.298857E-04  0.725E-03    1.39       1.0  T
  10  -1102.2376223 -0.600593E-05  0.293E-03    1.39       1.3  T
  11  -1102.2376237 -0.134904E-05  0.133E-03    1.39       2.9  T
  12  -1102.2376239 -0.178524E-06  0.544E-04    1.39       7.0  T
  13  -1102.2376239 -0.335779E-07  0.248E-04    1.39      15.4  T
  14  -1102.2376239 -0.840623E-08  0.925E-05    1.39      41.3  T
  15  -1102.2376239 -0.944738E-09  0.447E-05    1.39      85.5  T
speedup  1.44
cpu  time for SCC    1 m 14.7 s
wall time for SCC    0 m 51.9 s

   *** convergence criteria satisfied after 15 iterations ***

          eigenvalues
 #    :         942        943        944        945        946        947        948        949
 occ. :        2.000      2.000      2.000      2.000      2.000      2.000      2.000      2.000
 eps  :        -9.809     -9.792     -9.780     -9.708     -9.702     -9.697     -9.696     -9.612
 #    :         950        951        952        953        954        955        956        957
 occ. :        2.000      2.000      2.000      2.000      2.000      0.000      0.000      0.000
 eps  :        -9.577     -9.558     -9.554     -9.470     -9.354     -7.969     -7.913     -7.824
 #    :         958        959        960        961        962        963        964        965
 occ. :        0.000      0.000      0.000      0.000      0.000      0.000      0.000      0.000
 eps  :        -7.777     -7.743     -7.721     -7.608     -7.589     -7.439     -7.438     -7.248


   #   Z            q   n(s)   n(p)   n(d)      C6AA      α(0)
   1   7 N     -0.380  1.304  4.076  0.000    29.823     8.111
   2   6 C      0.030  1.056  2.915  0.000    20.094     6.385
   3   6 C      0.181  1.098  2.721  0.000    24.102     8.040
   4   8 O     -0.361  1.760  4.601  0.000    20.917     6.132
   5   6 C     -0.033  1.073  2.960  0.000    21.130     6.538
   6   6 C     -0.073  1.055  3.018  0.000    21.889     6.661
   7   6 C     -0.123  1.041  3.082  0.000    22.920     6.827
   8   6 C     -0.113  1.039  3.075  0.000    22.726     6.799
   9   1 H      0.184  0.816  0.000  0.000     1.192     1.710
  10   1 H      0.041  0.959  0.000  0.000     2.438     2.442
  11   1 H      0.025  0.975  0.000  0.000     2.654     2.548
  12   1 H      0.059  0.941  0.000  0.000     2.216     2.328
  13   1 H      0.074  0.926  0.000  0.000     2.044     2.236
  14   1 H      0.038  0.962  0.000  0.000     2.479     2.462
  15   1 H      0.023  0.977  0.000  0.000     2.688     2.564
  16   1 H      0.066  0.934  0.000  0.000     2.127     2.281
  17   1 H      0.051  0.949  0.000  0.000     2.313     2.379
  18   1 H      0.032  0.968  0.000  0.000     2.554     2.499
  19   1 H      0.022  0.978  0.000  0.000     2.699     2.569
  20   7 N     -0.380  1.318  4.062  0.000    29.815     8.110
  21   6 C      0.031  1.056  2.913  0.000    20.074     6.382
  22   6 C      0.269  1.050  2.680  0.000    22.450     7.759
  23   8 O     -0.487  1.745  4.743  0.000    23.506     6.500
  24   6 C     -0.077  1.075  3.002  0.000    21.970     6.674
  25   6 C     -0.012  1.053  2.960  0.000    20.764     6.481
  26   6 C     -0.107  1.037  3.070  0.000    22.599     6.778
  27   6 C     -0.123  1.048  3.075  0.000    22.915     6.825
  28   1 H      0.170  0.830  0.000  0.000     1.274     1.769
  29   1 H      0.042  0.958  0.000  0.000     2.427     2.436
  30   1 H      0.061  0.939  0.000  0.000     2.185     2.312
  31   1 H      0.045  0.955  0.000  0.000     2.390     2.418
  32   1 H      0.015  0.985  0.000  0.000     2.815     2.624
  33   1 H      0.030  0.970  0.000  0.000     2.592     2.518
  34   1 H      0.025  0.975  0.000  0.000     2.655     2.548
  35   1 H      0.047  0.953  0.000  0.000     2.359     2.402
  36   1 H      0.034  0.966  0.000  0.000     2.535     2.490
  37   1 H      0.058  0.942  0.000  0.000     2.222     2.331
  38   1 H      0.037  0.963  0.000  0.000     2.492     2.469
  39   7 N     -0.173  1.242  3.931  0.000    24.747     7.388
  40   6 C      0.024  1.053  2.923  0.000    20.177     6.396
  41   6 C      0.208  1.079  2.713  0.000    23.598     7.956
  42   8 O     -0.374  1.735  4.639  0.000    21.165     6.168
  43   6 C     -0.083  1.058  3.024  0.000    22.060     6.684
  44   6 C     -0.083  1.054  3.029  0.000    22.091     6.692
  45   6 C     -0.026  1.053  2.973  0.000    21.113     6.555
  46   7 N     -0.122  1.206  3.916  0.000    23.663     7.225
  47   6 C      0.249  1.013  2.738  0.000    22.816     7.821
  48   7 N     -0.237  1.243  3.995  0.000    26.211     7.604
  49   7 N     -0.243  1.230  4.013  0.000    26.345     7.623
  50   1 H      0.249  0.751  0.000  0.000     0.888     1.476
  51   1 H      0.064  0.936  0.000  0.000     2.156     2.296
  52   1 H      0.097  0.903  0.000  0.000     1.817     2.108
  53   1 H      0.067  0.933  0.000  0.000     2.123     2.279
  54   1 H      0.065  0.935  0.000  0.000     2.143     2.289
  55   1 H      0.068  0.932  0.000  0.000     2.108     2.271
  56   1 H      0.110  0.890  0.000  0.000     1.700     2.039
  57   1 H      0.073  0.927  0.000  0.000     2.058     2.243
  58   1 H      0.219  0.781  0.000  0.000     1.014     1.578
  59   1 H      0.243  0.757  0.000  0.000     0.913     1.497
  60   1 H      0.236  0.764  0.000  0.000     0.940     1.518
  61   1 H      0.227  0.773  0.000  0.000     0.979     1.550
  62   1 H      0.225  0.775  0.000  0.000     0.989     1.557
  63   7 N     -0.403  1.309  4.094  0.000    30.453     8.196
  64   6 C      0.032  1.050  2.919  0.000    20.048     6.376
  65   6 C      0.277  1.040  2.682  0.000    22.308     7.735
  66   8 O     -0.487  1.733  4.754  0.000    23.499     6.499
  67   6 C     -0.122  1.042  3.081  0.000    22.889     6.820
  68   1 H      0.190  0.810  0.000  0.000     1.160     1.687
  69   1 H      0.020  0.980  0.000  0.000     2.729     2.584
  70   1 H      0.022  0.978  0.000  0.000     2.698     2.569
  71   1 H      0.054  0.946  0.000  0.000     2.267     2.355
  72   1 H      0.061  0.939  0.000  0.000     2.193     2.316
  73   7 N     -0.207  1.254  3.953  0.000    25.504     7.501
  74   6 C      0.008  1.066  2.926  0.000    20.453     6.440
  75   6 C      0.284  1.046  2.670  0.000    22.187     7.714
  76   8 O     -0.496  1.758  4.739  0.000    23.704     6.528
  77   6 C     -0.086  1.063  3.023  0.000    22.148     6.701
  78   6 C     -0.090  1.059  3.031  0.000    22.220     6.712
  79   6 C     -0.025  1.056  2.969  0.000    21.122     6.560
  80   7 N     -0.146  1.213  3.932  0.000    24.151     7.299
  81   6 C      0.241  1.018  2.741  0.000    22.959     7.845
  82   7 N     -0.226  1.235  3.991  0.000    25.944     7.565
  83   7 N     -0.254  1.234  4.020  0.000    26.614     7.662
  84   1 H      0.245  0.755  0.000  0.000     0.902     1.488
  85   1 H      0.069  0.931  0.000  0.000     2.096     2.264
  86   1 H      0.080  0.920  0.000  0.000     1.983     2.202
  87   1 H      0.076  0.924  0.000  0.000     2.024     2.225
  88   1 H      0.079  0.921  0.000  0.000     1.985     2.203
  89   1 H      0.103  0.897  0.000  0.000     1.758     2.073
  90   1 H      0.082  0.918  0.000  0.000     1.958     2.188
  91   1 H      0.062  0.938  0.000  0.000     2.171     2.304
  92   1 H      0.248  0.752  0.000  0.000     0.890     1.478
  93   1 H      0.224  0.776  0.000  0.000     0.992     1.560
  94   1 H      0.217  0.783  0.000  0.000     1.023     1.584
  95   1 H      0.266  0.734  0.000  0.000     0.823     1.421
  96   1 H      0.244  0.756  0.000  0.000     0.908     1.493
  97   7 N     -0.190  1.256  3.935  0.000    25.131     7.445
  98   6 C      0.024  1.069  2.907  0.000    20.188     6.399
  99   6 C      0.308  1.037  2.654  0.000    21.769     7.642
 100   8 O     -0.450  1.715  4.735  0.000    22.699     6.388
 101   6 C     -0.062  1.062  3.000  0.000    21.691     6.632
 102   6 C     -0.103  1.068  3.034  0.000    22.462     6.749
 103   6 C      0.376  1.021  2.604  0.000    20.637     7.434
 104   8 O     -0.666  1.771  4.895  0.000    27.806     7.070
 105   8 O     -0.630  1.757  4.873  0.000    26.868     6.950
 106   1 H      0.217  0.783  0.000  0.000     1.023     1.584
 107   1 H      0.061  0.939  0.000  0.000     2.182     2.310
 108   1 H      0.047  0.953  0.000  0.000     2.359     2.402
 109   1 H      0.064  0.936  0.000  0.000     2.150     2.293
 110   1 H      0.028  0.972  0.000  0.000     2.616     2.529
 111   1 H      0.019  0.981  0.000  0.000     2.752     2.594
 112   7 N     -0.204  1.263  3.941  0.000    25.441     7.491
 113   6 C      0.015  1.049  2.936  0.000    20.304     6.412
 114   6 C      0.283  1.037  2.681  0.000    22.218     7.720
 115   8 O     -0.444  1.718  4.727  0.000    22.587     6.372
 116   6 C      0.060  1.043  2.897  0.000    19.766     6.365
 117   8 O     -0.477  1.722  4.755  0.000    22.398     6.389
 118   1 H      0.218  0.782  0.000  0.000     1.018     1.580
 119   1 H      0.096  0.904  0.000  0.000     1.819     2.109
 120   1 H      0.064  0.936  0.000  0.000     2.155     2.296
 121   1 H      0.060  0.940  0.000  0.000     2.201     2.320
 122   1 H      0.345  0.655  0.000  0.000     0.600     1.216
 123   7 N     -0.187  1.249  3.938  0.000    25.049     7.433
 124   6 C      0.002  1.062  2.936  0.000    20.540     6.453
 125   6 C      0.269  1.044  2.687  0.000    22.462     7.767
 126   8 O     -0.483  1.750  4.732  0.000    23.410     6.487
 127   6 C      0.118  1.051  2.832  0.000    18.689     6.160
 128   8 O     -0.462  1.707  4.755  0.000    22.092     6.345
 129   6 C     -0.145  1.045  3.101  0.000    23.365     6.893
 130   1 H      0.232  0.768  0.000  0.000     0.956     1.532
 131   1 H      0.084  0.916  0.000  0.000     1.934     2.175
 132   1 H      0.005  0.995  0.000  0.000     2.982     2.701
 133   1 H      0.313  0.687  0.000  0.000     0.683     1.298
 134   1 H      0.081  0.919  0.000  0.000     1.968     2.194
 135   1 H      0.077  0.923  0.000  0.000     2.014     2.219
 136   1 H      0.094  0.906  0.000  0.000     1.837     2.119
 137   7 N     -0.188  1.247  3.941  0.000    25.080     7.438
 138   6 C      0.021  1.060  2.919  0.000    20.204     6.398
 139   6 C      0.289  1.045  2.666  0.000    22.099     7.698
 140   8 O     -0.498  1.749  4.749  0.000    23.735     6.532
 141   6 C     -0.090  1.067  3.022  0.000    22.206     6.708
 142   6 C     -0.009  1.057  2.953  0.000    20.707     6.472
 143   6 C     -0.108  1.042  3.066  0.000    22.626     6.783
 144   6 C     -0.101  1.039  3.061  0.000    22.484     6.762
 145   1 H      0.222  0.778  0.000  0.000     1.001     1.567
 146   1 H      0.087  0.913  0.000  0.000     1.908     2.160
 147   1 H      0.085  0.915  0.000  0.000     1.931     2.173
 148   1 H      0.057  0.943  0.000  0.000     2.231     2.336
 149   1 H      0.028  0.972  0.000  0.000     2.610     2.527
 150   1 H      0.032  0.968  0.000  0.000     2.552     2.498
 151   1 H      0.045  0.955  0.000  0.000     2.378     2.412
 152   1 H      0.043  0.957  0.000  0.000     2.412     2.429
 153   1 H      0.024  0.976  0.000  0.000     2.670     2.555
 154   1 H      0.055  0.945  0.000  0.000     2.261     2.351
 155   1 H      0.009  0.991  0.000  0.000     2.911     2.668
 156   7 N     -0.190  1.262  3.928  0.000    25.124     7.444
 157   6 C      0.035  1.059  2.906  0.000    19.983     6.365
 158   6 C      0.311  1.034  2.655  0.000    21.722     7.632
 159   8 O     -0.531  1.759  4.772  0.000    24.484     6.634
 160   6 C     -0.072  1.062  3.010  0.000    21.874     6.659
 161   6 C     -0.092  1.071  3.020  0.000    22.255     6.718
 162   6 C      0.373  1.024  2.602  0.000    20.674     7.441
 163   8 O     -0.641  1.766  4.875  0.000    27.151     6.986
 164   8 O     -0.657  1.781  4.876  0.000    27.555     7.038
 165   1 H      0.218  0.782  0.000  0.000     1.019     1.582
 166   1 H      0.049  0.951  0.000  0.000     2.330     2.387
 167   1 H      0.063  0.937  0.000  0.000     2.164     2.300
 168   1 H      0.081  0.919  0.000  0.000     1.971     2.196
 169   1 H      0.049  0.951  0.000  0.000     2.336     2.390
 170   1 H     -0.011  1.011  0.000  0.000     3.253     2.820
 171   7 N     -0.205  1.254  3.951  0.000    25.455     7.493
 172   6 C      0.028  1.060  2.912  0.000    20.109     6.386
 173   6 C      0.280  1.040  2.680  0.000    22.264     7.727
 174   8 O     -0.489  1.739  4.749  0.000    23.533     6.504
 175   6 C      0.112  1.048  2.840  0.000    18.824     6.191
 176   8 O     -0.473  1.718  4.755  0.000    22.312     6.377
 177   6 C     -0.135  1.044  3.092  0.000    23.170     6.865
 178   1 H      0.247  0.753  0.000  0.000     0.897     1.483
 179   1 H      0.038  0.962  0.000  0.000     2.477     2.461
 180   1 H      0.043  0.957  0.000  0.000     2.409     2.427
 181   1 H      0.367  0.633  0.000  0.000     0.550     1.165
 182   1 H      0.092  0.908  0.000  0.000     1.857     2.131
 183   1 H      0.039  0.961  0.000  0.000     2.463     2.454
 184   1 H      0.064  0.936  0.000  0.000     2.149     2.293
 185   7 N     -0.180  1.254  3.927  0.000    24.906     7.412
 186   6 C      0.024  1.054  2.921  0.000    20.166     6.394
 187   6 C      0.284  1.045  2.671  0.000    22.185     7.714
 188   8 O     -0.474  1.733  4.741  0.000    23.220     6.461
 189   6 C     -0.083  1.062  3.020  0.000    22.062     6.685
 190   6 C     -0.017  1.058  2.959  0.000    20.838     6.493
 191   6 C     -0.123  1.043  3.080  0.000    22.904     6.823
 192   6 C     -0.123  1.040  3.083  0.000    22.923     6.827
 193   1 H      0.226  0.774  0.000  0.000     0.984     1.554
 194   1 H      0.092  0.908  0.000  0.000     1.860     2.133
 195   1 H      0.040  0.960  0.000  0.000     2.449     2.447
 196   1 H      0.071  0.929  0.000  0.000     2.078     2.254
 197   1 H      0.046  0.954  0.000  0.000     2.367     2.406
 198   1 H      0.068  0.932  0.000  0.000     2.112     2.272
 199   1 H      0.035  0.965  0.000  0.000     2.520     2.483
 200   1 H      0.058  0.942  0.000  0.000     2.218     2.329
 201   1 H      0.067  0.933  0.000  0.000     2.119     2.276
 202   1 H      0.058  0.942  0.000  0.000     2.219     2.329
 203   1 H      0.024  0.976  0.000  0.000     2.668     2.555
 204   7 N     -0.205  1.272  3.934  0.000    25.466     7.495
 205   6 C      0.041  1.064  2.894  0.000    19.877     6.347
 206   6 C      0.310  1.041  2.649  0.000    21.744     7.637
 207   8 O     -0.503  1.742  4.760  0.000    23.840     6.546
 208   6 C     -0.052  1.055  2.997  0.000    21.508     6.604
 209   6 C     -0.078  1.063  3.015  0.000    22.011     6.682
 210   6 C      0.374  1.026  2.601  0.000    20.670     7.440
 211   8 O     -0.588  1.750  4.838  0.000    25.837     6.815
 212   8 O     -0.616  1.748  4.868  0.000    26.509     6.903
 213   1 H      0.222  0.778  0.000  0.000     1.000     1.567
 214   1 H      0.048  0.952  0.000  0.000     2.343     2.394
 215   1 H      0.067  0.933  0.000  0.000     2.123     2.279
 216   1 H      0.026  0.974  0.000  0.000     2.638     2.540
 217   1 H     -0.017  1.017  0.000  0.000     3.367     2.870
 218   1 H     -0.008  1.008  0.000  0.000     3.209     2.801
 219   7 N     -0.234  1.281  3.953  0.000    26.120     7.591
 220   6 C      0.063  1.050  2.888  0.000    19.520     6.289
 221   6 C      0.298  1.035  2.666  0.000    21.939     7.672
 222   8 O     -0.520  1.742  4.778  0.000    24.235     6.600
 223   6 C     -0.033  1.046  2.987  0.000    21.159     6.548
 224   6 C     -0.082  1.067  3.016  0.000    22.071     6.689
 225   6 C      0.379  1.018  2.603  0.000    20.583     7.424
 226   8 O     -0.615  1.747  4.868  0.000    26.497     6.901
 227   8 O     -0.632  1.754  4.878  0.000    26.910     6.955
 228   1 H      0.214  0.786  0.000  0.000     1.039     1.597
 229   1 H      0.012  0.988  0.000  0.000     2.854     2.642
 230   1 H      0.009  0.991  0.000  0.000     2.910     2.668
 231   1 H      0.042  0.958  0.000  0.000     2.417     2.431
 232   1 H      0.008  0.992  0.000  0.000     2.916     2.670
 233   1 H     -0.011  1.011  0.000  0.000     3.253     2.820
 234   7 N     -0.200  1.254  3.946  0.000    25.334     7.475
 235   6 C      0.045  1.047  2.908  0.000    19.809     6.334
 236   6 C      0.296  1.032  2.672  0.000    21.975     7.677
 237   8 O     -0.480  1.724  4.756  0.000    23.350     6.479
 238   6 C     -0.062  1.056  3.006  0.000    21.668     6.623
 239   6 C     -0.016  1.065  2.951  0.000    20.869     6.504
 240  16 S     -0.216  1.921  4.239  0.057   150.288    20.633
 241   6 C     -0.072  1.062  3.010  0.000    21.954     6.684
 242   1 H      0.216  0.784  0.000  0.000     1.027     1.588
 243   1 H      0.051  0.949  0.000  0.000     2.308     2.376
 244   1 H      0.070  0.930  0.000  0.000     2.085     2.258
 245   1 H      0.052  0.948  0.000  0.000     2.299     2.371
 246   1 H      0.058  0.942  0.000  0.000     2.225     2.332
 247   1 H      0.032  0.968  0.000  0.000     2.551     2.498
 248   1 H      0.118  0.882  0.000  0.000     1.633     1.998
 249   1 H      0.062  0.938  0.000  0.000     2.175     2.306
 250   1 H      0.068  0.932  0.000  0.000     2.106     2.269
 251   7 N     -0.213  1.266  3.947  0.000    25.642     7.521
 252   6 C      0.031  1.061  2.908  0.000    20.050     6.373
 253   6 C      0.302  1.028  2.670  0.000    21.875     7.661
 254   8 O     -0.468  1.729  4.738  0.000    23.079     6.441
 255   6 C     -0.074  1.062  3.011  0.000    21.883     6.656
 256   6 C      0.000  1.054  2.946  0.000    20.542     6.447
 257   6 C     -0.118  1.043  3.075  0.000    22.812     6.810
 258   6 C     -0.104  1.041  3.064  0.000    22.520     6.762
 259   1 H      0.221  0.779  0.000  0.000     1.007     1.572
 260   1 H      0.095  0.905  0.000  0.000     1.829     2.115
 261   1 H      0.078  0.922  0.000  0.000     2.000     2.211
 262   1 H      0.024  0.976  0.000  0.000     2.677     2.559
 263   1 H     -0.006  1.006  0.000  0.000     3.159     2.780
 264   1 H      0.023  0.977  0.000  0.000     2.689     2.565
 265   1 H      0.073  0.927  0.000  0.000     2.050     2.239
 266   1 H      0.053  0.947  0.000  0.000     2.278     2.360
 267   1 H      0.028  0.972  0.000  0.000     2.616     2.529
 268   1 H      0.049  0.951  0.000  0.000     2.327     2.385
 269   1 H      0.017  0.983  0.000  0.000     2.775     2.605
 270   7 N     -0.177  1.239  3.937  0.000    24.825     7.400
 271   6 C      0.047  1.051  2.902  0.000    19.766     6.326
 272   6 C      0.213  1.080  2.707  0.000    23.491     7.938
 273   8 O     -0.359  1.735  4.624  0.000    20.873     6.125
 274   6 C     -0.044  1.046  2.998  0.000    21.350     6.576
 275   6 C     -0.079  1.063  3.016  0.000    21.998     6.675
 276   6 C      0.381  1.016  2.603  0.000    20.544     7.418
 277   8 O     -0.644  1.768  4.877  0.000    27.235     6.997
 278   8 O     -0.664  1.771  4.892  0.000    27.733     7.061
 279   1 H      0.190  0.810  0.000  0.000     1.157     1.685
 280   1 H      0.058  0.942  0.000  0.000     2.219     2.329
 281   1 H      0.047  0.953  0.000  0.000     2.364     2.405
 282   1 H      0.043  0.957  0.000  0.000     2.404     2.425
 283   1 H      0.016  0.984  0.000  0.000     2.788     2.611
 284   1 H      0.011  0.989  0.000  0.000     2.867     2.648
 285   7 N     -0.391  1.304  4.088  0.000    30.133     8.153
 286   6 C      0.039  1.050  2.911  0.000    19.936     6.360
 287   6 C      0.198  1.091  2.711  0.000    23.789     7.988
 288   8 O     -0.387  1.754  4.633  0.000    21.428     6.206
 289   6 C     -0.061  1.058  3.002  0.000    21.655     6.623
 290   6 C     -0.003  1.057  2.946  0.000    20.607     6.457
 291   6 C     -0.108  1.044  3.065  0.000    22.618     6.780
 292   6 C     -0.124  1.040  3.084  0.000    22.924     6.827
 293   1 H      0.164  0.836  0.000  0.000     1.312     1.794
 294   1 H      0.066  0.934  0.000  0.000     2.127     2.281
 295   1 H      0.025  0.975  0.000  0.000     2.656     2.549
 296   1 H      0.036  0.964  0.000  0.000     2.503     2.474
 297   1 H      0.026  0.974  0.000  0.000     2.641     2.541
 298   1 H      0.043  0.957  0.000  0.000     2.411     2.428
 299   1 H      0.018  0.982  0.000  0.000     2.766     2.601
 300   1 H      0.030  0.970  0.000  0.000     2.582     2.513
 301   1 H      0.047  0.953  0.000  0.000     2.353     2.399
 302   1 H      0.053  0.947  0.000  0.000     2.280     2.361
 303   1 H      0.059  0.941  0.000  0.000     2.209     2.324
 304   7 N     -0.379  1.312  4.068  0.000    29.808     8.109
 305   6 C      0.045  1.049  2.906  0.000    19.831     6.342
 306   6 C      0.200  1.089  2.712  0.000    23.742     7.980
 307   8 O     -0.392  1.775  4.616  0.000    21.518     6.219
 308   6 C     -0.106  1.069  3.037  0.000    22.524     6.756
 309   6 C      0.299  1.032  2.668  0.000    21.923     7.667
 310   8 O     -0.500  1.764  4.735  0.000    23.776     6.537
 311   7 N     -0.280  1.256  4.023  0.000    27.223     7.749
 312   1 H      0.191  0.809  0.000  0.000     1.152     1.681
[...]
 400   1 H      0.015  0.985  0.000  0.000     2.810     2.621
 401   1 H      0.084  0.916  0.000  0.000     1.943     2.180
 402   1 H      0.079  0.921  0.000  0.000     1.990     2.206
 403   1 H      0.098  0.902  0.000  0.000     1.800     2.098
 404   1 H      0.025  0.975  0.000  0.000     2.652     2.546
 405   7 N     -0.185  1.245  3.940  0.000    25.007     7.427
 406   6 C      0.016  1.055  2.930  0.000    20.297     6.411
 407   6 C      0.297  1.030  2.673  0.000    21.970     7.678
 408   8 O     -0.506  1.742  4.764  0.000    23.912     6.556
 409   6 C     -0.022  1.060  2.962  0.000    20.927     6.506
 410   6 C     -0.127  1.044  3.083  0.000    22.993     6.838
 411   6 C     -0.123  1.046  3.078  0.000    22.914     6.825
 412   1 H      0.244  0.756  0.000  0.000     0.906     1.491
 413   1 H      0.099  0.901  0.000  0.000     1.790     2.093
 414   1 H      0.073  0.927  0.000  0.000     2.053     2.241
 415   1 H      0.076  0.924  0.000  0.000     2.020     2.223
 416   1 H      0.046  0.954  0.000  0.000     2.369     2.407
 417   1 H      0.017  0.983  0.000  0.000     2.779     2.607
 418   1 H      0.068  0.932  0.000  0.000     2.109     2.271
 419   1 H      0.041  0.959  0.000  0.000     2.439     2.442
 420   1 H      0.075  0.925  0.000  0.000     2.027     2.226
 421   7 N     -0.190  1.237  3.953  0.000    25.108     7.442
 422   6 C      0.028  1.056  2.916  0.000    20.087     6.377
 423   6 C      0.294  1.024  2.681  0.000    22.020     7.690
 424   8 O     -0.502  1.726  4.776  0.000    23.820     6.544
 425   6 C     -0.017  1.057  2.959  0.000    20.833     6.492
 426   6 C     -0.108  1.038  3.070  0.000    22.618     6.781
 427   6 C     -0.126  1.044  3.082  0.000    22.960     6.831
 428   1 H      0.221  0.779  0.000  0.000     1.007     1.572
 429   1 H      0.072  0.928  0.000  0.000     2.062     2.246
 430   1 H      0.025  0.975  0.000  0.000     2.658     2.550
 431   1 H      0.032  0.968  0.000  0.000     2.563     2.503
 432   1 H      0.027  0.973  0.000  0.000     2.625     2.534
 433   1 H      0.050  0.950  0.000  0.000     2.318     2.381
 434   1 H      0.048  0.952  0.000  0.000     2.339     2.392
 435   1 H      0.064  0.936  0.000  0.000     2.157     2.297
 436   1 H      0.074  0.926  0.000  0.000     2.045     2.236
 437   7 N     -0.189  1.256  3.933  0.000    25.096     7.440
 438   6 C      0.046  1.053  2.901  0.000    19.762     6.320
 439   6 C      0.307  1.025  2.668  0.000    21.790     7.645
 440   8 O     -0.505  1.722  4.783  0.000    23.896     6.554
 441   6 C     -0.091  1.063  3.028  0.000    22.237     6.713
 442   6 C      0.300  1.030  2.670  0.000    21.909     7.665
 443   8 O     -0.480  1.736  4.744  0.000    23.339     6.477
 444   7 N     -0.291  1.283  4.008  0.000    27.499     7.788
 445   1 H      0.217  0.783  0.000  0.000     1.025     1.586
 446   1 H      0.061  0.939  0.000  0.000     2.188     2.313
 447   1 H      0.075  0.925  0.000  0.000     2.035     2.231
 448   1 H      0.053  0.947  0.000  0.000     2.286     2.364
 449   1 H      0.200  0.800  0.000  0.000     1.107     1.648
 450   1 H      0.230  0.770  0.000  0.000     0.966     1.540
 451   7 N     -0.207  1.260  3.947  0.000    25.492     7.499
 452   6 C      0.048  1.055  2.897  0.000    19.757     6.327
 453   6 C      0.296  1.030  2.674  0.000    21.977     7.677
 454   8 O     -0.517  1.736  4.781  0.000    24.166     6.591
 455   6 C     -0.054  1.049  3.005  0.000    21.524     6.603
 456   6 C     -0.090  1.062  3.028  0.000    22.220     6.711
 457   6 C      0.370  1.020  2.611  0.000    20.731     7.452
 458   8 O     -0.597  1.741  4.856  0.000    26.038     6.841
 459   8 O     -0.617  1.751  4.866  0.000    26.531     6.906
 460   1 H      0.227  0.773  0.000  0.000     0.977     1.548
 461   1 H      0.021  0.979  0.000  0.000     2.712     2.575
 462   1 H      0.075  0.925  0.000  0.000     2.027     2.226
 463   1 H      0.036  0.964  0.000  0.000     2.508     2.476
 464   1 H     -0.013  1.013  0.000  0.000     3.287     2.835
 465   1 H      0.013  0.987  0.000  0.000     2.848     2.639
 466   7 N     -0.181  1.242  3.939  0.000    24.913     7.413
 467   6 C      0.025  1.058  2.918  0.000    20.159     6.392
 468   6 C      0.270  1.041  2.689  0.000    22.439     7.758
 469   8 O     -0.514  1.743  4.771  0.000    24.094     6.581
 470   6 C     -0.070  1.061  3.009  0.000    21.834     6.653
 471   6 C     -0.079  1.056  3.023  0.000    22.007     6.679
 472   6 C     -0.018  1.056  2.962  0.000    20.983     6.539
 473   7 N     -0.160  1.235  3.924  0.000    24.459     7.345
 474   6 C      0.238  1.014  2.748  0.000    23.019     7.855
 475   7 N     -0.239  1.225  4.014  0.000    26.254     7.610
 476   7 N     -0.227  1.244  3.983  0.000    25.976     7.570
 477   1 H      0.215  0.785  0.000  0.000     1.032     1.592
 478   1 H      0.078  0.922  0.000  0.000     2.000     2.211
 479   1 H      0.049  0.951  0.000  0.000     2.337     2.391
 480   1 H      0.062  0.938  0.000  0.000     2.176     2.307
 481   1 H      0.048  0.952  0.000  0.000     2.349     2.397
 482   1 H      0.083  0.917  0.000  0.000     1.944     2.180
 483   1 H      0.063  0.937  0.000  0.000     2.166     2.301
 484   1 H      0.106  0.894  0.000  0.000     1.731     2.057
 485   1 H      0.224  0.776  0.000  0.000     0.993     1.561
 486   1 H      0.229  0.771  0.000  0.000     0.969     1.542
 487   1 H      0.221  0.779  0.000  0.000     1.003     1.569
 488   1 H      0.247  0.753  0.000  0.000     0.897     1.483
 489   1 H      0.254  0.746  0.000  0.000     0.867     1.459
 490   7 N     -0.190  1.252  3.938  0.000    25.122     7.444
 491   6 C      0.021  1.063  2.916  0.000    20.221     6.402
 492   6 C      0.277  1.042  2.681  0.000    22.311     7.735
 493   8 O     -0.473  1.724  4.749  0.000    23.194     6.457
 494   6 C     -0.068  1.055  3.013  0.000    21.807     6.649
 495   6 C     -0.068  1.054  3.014  0.000    21.812     6.651
 496   6 C     -0.018  1.051  2.967  0.000    20.996     6.541
 497   7 N     -0.146  1.218  3.929  0.000    24.169     7.302
 498   6 C      0.244  1.020  2.736  0.000    22.906     7.836
 499   7 N     -0.252  1.265  3.987  0.000    26.555     7.653
 500   7 N     -0.251  1.248  4.003  0.000    26.521     7.649
 501   1 H      0.235  0.765  0.000  0.000     0.944     1.522
 502   1 H      0.079  0.921  0.000  0.000     1.986     2.204
 503   1 H      0.047  0.953  0.000  0.000     2.362     2.403
 504   1 H      0.055  0.945  0.000  0.000     2.261     2.351
 505   1 H      0.057  0.943  0.000  0.000     2.236     2.338
 506   1 H      0.059  0.941  0.000  0.000     2.211     2.325
 507   1 H      0.073  0.927  0.000  0.000     2.048     2.238
 508   1 H      0.091  0.909  0.000  0.000     1.872     2.140
 509   1 H      0.225  0.775  0.000  0.000     0.989     1.558
 510   1 H      0.240  0.760  0.000  0.000     0.921     1.504
 511   1 H      0.236  0.764  0.000  0.000     0.940     1.519
 512   1 H      0.239  0.761  0.000  0.000     0.929     1.510
 513   1 H      0.244  0.756  0.000  0.000     0.909     1.493
 514   7 N     -0.191  1.254  3.937  0.000    25.149     7.448
 515   6 C      0.029  1.066  2.905  0.000    20.087     6.381
 516   6 C      0.269  1.046  2.686  0.000    22.462     7.761
 517   8 O     -0.488  1.751  4.737  0.000    23.527     6.503
 518   6 C     -0.053  1.056  2.996  0.000    21.521     6.606
 519   6 C     -0.095  1.077  3.018  0.000    22.319     6.727
 520   6 C      0.371  1.026  2.603  0.000    20.711     7.447
 521   8 O     -0.607  1.758  4.849  0.000    26.301     6.876
 522   8 O     -0.649  1.771  4.878  0.000    27.344     7.011
 523   1 H      0.209  0.791  0.000  0.000     1.061     1.613
 524   1 H      0.076  0.924  0.000  0.000     2.024     2.225
 525   1 H      0.030  0.970  0.000  0.000     2.583     2.513
 526   1 H      0.055  0.945  0.000  0.000     2.256     2.349
 527   1 H      0.028  0.972  0.000  0.000     2.614     2.528
 528   1 H      0.001  0.999  0.000  0.000     3.037     2.725
 529   7 N     -0.185  1.252  3.933  0.000    25.004     7.427
 530   6 C      0.026  1.072  2.903  0.000    20.154     6.394
 531   6 C      0.290  1.045  2.665  0.000    22.079     7.695
 532   8 O     -0.486  1.737  4.749  0.000    23.479     6.497
 533   6 C     -0.048  1.054  2.994  0.000    21.446     6.594
 534   6 C     -0.104  1.069  3.035  0.000    22.481     6.751
 535   6 C      0.370  1.021  2.608  0.000    20.726     7.450
 536   8 O     -0.604  1.746  4.858  0.000    26.216     6.865
 537   8 O     -0.628  1.765  4.863  0.000    26.827     6.944
 538   1 H      0.210  0.790  0.000  0.000     1.058     1.611
 539   1 H      0.068  0.932  0.000  0.000     2.104     2.268
 540   1 H      0.028  0.972  0.000  0.000     2.619     2.531
 541   1 H      0.061  0.939  0.000  0.000     2.187     2.313
 542   1 H      0.026  0.974  0.000  0.000     2.651     2.546
 543   1 H      0.016  0.984  0.000  0.000     2.793     2.613
 544   7 N     -0.181  1.246  3.935  0.000    24.918     7.414
 545   6 C      0.038  1.053  2.909  0.000    19.937     6.357
 546   6 C      0.279  1.044  2.676  0.000    22.279     7.733
 547   8 O     -0.487  1.733  4.754  0.000    23.488     6.498
 548   6 C     -0.054  1.053  3.001  0.000    21.538     6.607
 549   6 C     -0.098  1.074  3.024  0.000    22.375     6.736
 550   6 C      0.364  1.026  2.610  0.000    20.826     7.468
 551   8 O     -0.632  1.755  4.877  0.000    26.916     6.956
 552   8 O     -0.623  1.768  4.855  0.000    26.689     6.926
 553   1 H      0.192  0.808  0.000  0.000     1.146     1.677
 554   1 H      0.076  0.924  0.000  0.000     2.019     2.222
 555   1 H      0.044  0.956  0.000  0.000     2.397     2.421
 556   1 H      0.031  0.969  0.000  0.000     2.569     2.507
 557   1 H      0.030  0.970  0.000  0.000     2.588     2.516
 558   1 H      0.028  0.972  0.000  0.000     2.621     2.532
 559   7 N     -0.181  1.257  3.924  0.000    24.927     7.415
 560   6 C      0.022  1.060  2.919  0.000    20.185     6.392
 561   6 C      0.213  1.083  2.705  0.000    23.501     7.939
 562   8 O     -0.345  1.735  4.610  0.000    20.606     6.086
 563   6 C      0.081  1.037  2.882  0.000    19.455     6.321
 564   8 O     -0.465  1.711  4.754  0.000    22.154     6.354
 565   1 H      0.205  0.795  0.000  0.000     1.083     1.630
 566   1 H      0.123  0.877  0.000  0.000     1.586     1.970
 567   1 H      0.052  0.948  0.000  0.000     2.294     2.369
 568   1 H      0.032  0.968  0.000  0.000     2.557     2.501
 569   1 H      0.353  0.647  0.000  0.000     0.581     1.197
 570   7 N     -0.391  1.302  4.088  0.000    30.109     8.149
 571   6 C      0.043  1.050  2.907  0.000    19.849     6.341
 572   6 C      0.264  1.048  2.688  0.000    22.539     7.774
 573   8 O     -0.533  1.768  4.766  0.000    24.537     6.641
 574   6 C     -0.047  1.048  2.999  0.000    21.401     6.583
 575   6 C     -0.087  1.063  3.024  0.000    22.142     6.697
 576   6 C      0.371  1.018  2.610  0.000    20.707     7.447
 577   8 O     -0.616  1.750  4.866  0.000    26.507     6.903
 578   8 O     -0.654  1.766  4.888  0.000    27.482     7.029
 579   1 H      0.181  0.819  0.000  0.000     1.209     1.722
 580   1 H      0.005  0.995  0.000  0.000     2.974     2.697
 581   1 H      0.061  0.939  0.000  0.000     2.188     2.313
 582   1 H      0.008  0.992  0.000  0.000     2.929     2.677
 583   1 H     -0.006  1.006  0.000  0.000     3.159     2.780
 584   1 H      0.025  0.975  0.000  0.000     2.661     2.551
 585   7 N     -0.173  1.245  3.928  0.000    24.747     7.388
 586   6 C      0.017  1.071  2.912  0.000    20.307     6.420
 587   6 C      0.212  1.079  2.709  0.000    23.516     7.941
 588   8 O     -0.345  1.744  4.601  0.000    20.610     6.087
 589   6 C     -0.081  1.063  3.017  0.000    22.045     6.686
 590   6 C     -0.078  1.054  3.024  0.000    21.996     6.678
 591   6 C     -0.088  1.055  3.033  0.000    22.179     6.706
 592   6 C     -0.039  1.055  2.985  0.000    21.373     6.600
 593   7 N     -0.171  1.254  3.917  0.000    24.687     7.379
 594   1 H      0.239  0.761  0.000  0.000     0.927     1.508
 595   1 H      0.060  0.940  0.000  0.000     2.199     2.319
 596   1 H      0.085  0.915  0.000  0.000     1.932     2.173
 597   1 H      0.062  0.938  0.000  0.000     2.174     2.306
 598   1 H      0.044  0.956  0.000  0.000     2.399     2.422
 599   1 H      0.060  0.940  0.000  0.000     2.200     2.319
 600   1 H      0.089  0.911  0.000  0.000     1.892     2.151
 601   1 H      0.071  0.929  0.000  0.000     2.077     2.254
 602   1 H      0.106  0.894  0.000  0.000     1.729     2.057
 603   1 H      0.122  0.878  0.000  0.000     1.599     1.978
 604   1 H      0.288  0.712  0.000  0.000     0.750     1.357
 605   1 H      0.267  0.733  0.000  0.000     0.821     1.419
 606   1 H      0.289  0.711  0.000  0.000     0.748     1.356
 607   7 N     -0.375  1.298  4.077  0.000    29.688     8.092
 608   6 C      0.045  1.055  2.900  0.000    19.832     6.343
 609   6 C      0.202  1.094  2.704  0.000    23.710     7.975
 610   8 O     -0.373  1.746  4.626  0.000    21.143     6.165
 611   6 C     -0.001  1.057  2.944  0.000    20.565     6.450
 612   6 C     -0.104  1.038  3.066  0.000    22.543     6.770
 613   6 C     -0.110  1.035  3.075  0.000    22.670     6.789
 614   1 H      0.182  0.818  0.000  0.000     1.203     1.718
 615   1 H      0.021  0.979  0.000  0.000     2.720     2.579
 616   1 H     -0.010  1.010  0.000  0.000     3.240     2.815
 617   1 H      0.016  0.984  0.000  0.000     2.797     2.615
 618   1 H      0.018  0.982  0.000  0.000     2.761     2.599
 619   1 H      0.087  0.913  0.000  0.000     1.906     2.159
 620   1 H      0.026  0.974  0.000  0.000     2.648     2.545
 621   1 H      0.085  0.915  0.000  0.000     1.925     2.170
 622   1 H      0.020  0.980  0.000  0.000     2.733     2.585
 623   7 N     -0.370  1.301  4.069  0.000    29.550     8.073
 624   6 C      0.060  1.037  2.902  0.000    19.556     6.294
 625   6 C      0.272  1.030  2.699  0.000    22.411     7.753
 626   8 O     -0.530  1.746  4.784  0.000    24.448     6.629
 627   6 C     -0.094  1.065  3.028  0.000    22.273     6.717
 628   6 C      0.293  1.036  2.671  0.000    22.029     7.686
 629   8 O     -0.471  1.733  4.738  0.000    23.147     6.451
 630   7 N     -0.292  1.267  4.025  0.000    27.530     7.793
 631   1 H      0.156  0.844  0.000  0.000     1.364     1.830
 632   1 H      0.031  0.969  0.000  0.000     2.566     2.505
 633   1 H      0.072  0.928  0.000  0.000     2.069     2.249
 634   1 H      0.027  0.973  0.000  0.000     2.623     2.533
 635   1 H      0.227  0.773  0.000  0.000     0.980     1.551
 636   1 H      0.209  0.791  0.000  0.000     1.061     1.614
 637   7 N     -0.166  1.248  3.918  0.000    24.589     7.365
 638   6 C      0.035  1.063  2.902  0.000    19.989     6.366
 639   6 C      0.207  1.079  2.714  0.000    23.602     7.956
 640   8 O     -0.363  1.752  4.611  0.000    20.957     6.138
 641   6 C     -0.051  1.054  2.997  0.000    21.485     6.597
 642   6 C     -0.086  1.073  3.013  0.000    22.137     6.699
 643   6 C      0.386  1.011  2.603  0.000    20.472     7.405
 644   8 O     -0.662  1.764  4.898  0.000    27.685     7.055
 645   8 O     -0.630  1.758  4.872  0.000    26.866     6.949
 646   1 H      0.250  0.750  0.000  0.000     0.882     1.471
 647   1 H      0.056  0.944  0.000  0.000     2.249     2.346
 648   1 H      0.075  0.925  0.000  0.000     2.035     2.231
 649   1 H      0.048  0.952  0.000  0.000     2.340     2.392
 650   1 H     -0.008  1.008  0.000  0.000     3.199     2.797
 651   1 H      0.028  0.972  0.000  0.000     2.615     2.529
 652   7 N     -0.386  1.303  4.083  0.000    29.996     8.134
 653   6 C      0.056  1.044  2.901  0.000    19.654     6.314
 654   6 C      0.200  1.095  2.705  0.000    23.748     7.981
 655   8 O     -0.382  1.763  4.619  0.000    21.327     6.192
 656   6 C     -0.053  1.054  2.999  0.000    21.518     6.603
 657   6 C     -0.105  1.075  3.030  0.000    22.516     6.756
 658   6 C      0.379  1.025  2.596  0.000    20.580     7.424
 659   8 O     -0.629  1.766  4.863  0.000    26.848     6.947
 660   8 O     -0.651  1.772  4.880  0.000    27.418     7.020
 661   1 H      0.172  0.828  0.000  0.000     1.262     1.760
 662   1 H      0.049  0.951  0.000  0.000     2.336     2.390
 663   1 H      0.034  0.966  0.000  0.000     2.534     2.489
 664   1 H      0.027  0.973  0.000  0.000     2.630     2.536
 665   1 H      0.011  0.989  0.000  0.000     2.869     2.649
 666   1 H      0.011  0.989  0.000  0.000     2.870     2.649
 667   1 H      0.187  0.813  0.000  0.000     1.176     1.698
 668   1 H      0.087  0.913  0.000  0.000     1.905     2.158
 669   1 H      0.183  0.817  0.000  0.000     1.197     1.714
 670   1 H      0.088  0.912  0.000  0.000     1.894     2.152
 671   1 H      0.173  0.827  0.000  0.000     1.257     1.756
 672   1 H      0.067  0.933  0.000  0.000     2.113     2.273
 673   1 H      0.195  0.805  0.000  0.000     1.134     1.668
 674   1 H      0.075  0.925  0.000  0.000     2.026     2.226
 675   1 H      0.184  0.816  0.000  0.000     1.192     1.710
 676   1 H      0.107  0.893  0.000  0.000     1.722     2.052
 677   1 H      0.145  0.855  0.000  0.000     1.436     1.877
 678   1 H      0.065  0.935  0.000  0.000     2.141     2.288
 679   1 H      0.180  0.820  0.000  0.000     1.215     1.727
 680   1 H      0.084  0.916  0.000  0.000     1.939     2.177
 681   1 H      0.174  0.826  0.000  0.000     1.246     1.749
 682   1 H      0.097  0.903  0.000  0.000     1.814     2.106
 683   1 H      0.205  0.795  0.000  0.000     1.083     1.630
 684   1 H      0.085  0.915  0.000  0.000     1.930     2.172
 685   1 H      0.179  0.821  0.000  0.000     1.219     1.730
 686   1 H      0.075  0.925  0.000  0.000     2.028     2.227

 Mol. C6AA /au·bohr⁶  :    4395403.049664
 Mol. C8AA /au·bohr⁸  :   96882894.832227
 Mol. α(0) /au        :       3113.371119

 
molecular dipole:
                 x           y           z       tot (Debye)
 q only:      146.424   -1103.087     -45.322
   full:      146.009   -1108.302     -45.927    2843.819
molecular quadrupole (traceless):
                xx          xy          yy          xz          yz          zz
 q only:    74436.191   32160.604 -149734.839    1671.101   -7737.540   75298.648
  q+dip:    75247.969   32116.553 -151381.017    1711.563   -7966.519   76133.048
   full:    75245.249   32113.256 -151377.184    1716.442   -7967.640   76131.935
speedup  1.44
cpu  time for grad    1 m 36.7 s
wall time for grad    1 m  7.4 s

SCC energy    :   -1102.2542159
rep           :      12.6410345
ES            :       6.4592712
AES           :      -0.3526366
AXC           :       0.2870305
disp          :      -0.9290746
XB            :       0.0000000
fix           :       0.0000000
Gborn         :       0.0000000
Gsasa         :       0.0000000
Ghb           :       0.0000000
Gshift        :       0.0000000
Gsolv         :      -3.0134321    -1890.96
Etot ala COSMO:   -1102.2542159
grad norm     :       0.8734104
total E       :   -1089.5238521
atomizationE  :     193.7620911   121587.55
(atE without considering molecular charge,
 total energy contains solvation terms)
H-L gap (eV)  :          1.3853

------------------------------------------------------------------------
 * finished run on 2019/05/11 at 21:01:16.615     
------------------------------------------------------------------------
 total:
 * wall-time:     0 d,  0 h,  1 min, 10.038 sec
 *  cpu-time:     0 d,  0 h,  1 min, 39.337 sec
 * ratio c/w:     1.418 speedup
 SCF:
 * wall-time:     0 d,  0 h,  1 min,  8.988 sec
 *  cpu-time:     0 d,  0 h,  1 min, 38.648 sec
 * ratio c/w:     1.430 speedup

