      -----------------------------------------------------------      
     |                   =====================                   |     
     |                           x T B                           |     
     |                   =====================                   |     
     |                         S. Grimme                         |     
     |          Mulliken Center for Theoretical Chemistry        |     
     |                    University of Bonn                     |     
     |                 Version 6.0.1 (SAW181210)                 |     
      -----------------------------------------------------------      

   This program is distributed in the hope that it will be useful,
   but WITHOUT ANY WARRANTY; without even the implied warranty of
   MERCHANTABILITY or FITNESS FOR A PARTICULAR PURPOSE.
   
   FOR NON-COMMERCIAL, ACADEMIA USE ONLY.
   
   Cite this work as:
   S. Grimme, C. Bannwarth, P. Shushkov, J. Comput. Theory Chem., 2017,
   13, 1989-2009.
   C. Bannwarth, S. Ehlert and S. Grimme., ChemRxiv, 2018, preprint.
   http://doi.org/10.26434/chemrxiv.7246238.v1
   
   for sTDA-xTB:
   S. Grimme and C. Bannwarth, J. Chem. Phys., 2016, 145, 054103.
   
   in the mass-spec context:
   V. Asgeirsson, C. Bauer and S. Grimme, Chem. Sci., 2017, 8, 4879.
   
   if GBSA is used:
   P. Shushkov, F. März and S. Grimme, unpublished.
   
   for ANC optimizer:
   S. Grimme, unpublished.
   Rational Function algorithm used in ANCopt:
   F. Eckert, P. Pulay, H.-J. Werner, J. Comput. Chem., 1997, 18, 1473.
   
   with help from (in alphabetical order)
   C. Bannwarth, F. Bohle, G. Brandenburg, E. Caldeweyher, M. Checinski,
   S. Dohm, S. Ehlert, S. Ehrlich, F. März, H. Neugebauer, J. Pisarek,
   P. Pracht, P. Shushkov, and S. Spicher.
   
 * started run on 2019/05/05 at 17:07:38.127     
========================================================================
 # omp threads = 2
========================================================================
number of atoms            : 212
number of electrons        : 582
charge                     : 0
spin                       : .0
first test random number   : .6891

########################################################################
# WARNING! Please study the warnings concerning your input carefully
#  - Process number higher than OMP_NUM_THREADS, I hope you know what you are doing.
########################################################################

           ------------------------------------------------- 
          |                 G F N 2 - x T B                 |
          | Geometry, Frequencies, Noncovalent interactions |
          |            JCTC 2018 parametrisation            |
           ------------------------------------------------- 
 
      method parameters     
 k(s)        :  1.8500
 k(p)        :  2.2300
 k(d)        :  2.2300
 k(f)        :  2.0000
 kEN (H0ij)  : -2.0000
 D4 a1       :  0.5200
 D4 a2       :  5.0000
 D4 s6       :  1.0000
 D4 s8       :  2.7000
 D4 s9       :  5.0000
 alphaj      :  2.0000

 Solvent             : h2o
 Using internal parameter file: .param_gbsa2_h2o
 Gsolv ref. state (COSMO-RS): gsolv [1 M gas/solution]
 temperature (mdtemp)       :    298.150000000000     
 dielectric constant        :    80.2000000000000     
 rho                        :    1.00000000000000     
 mass                       :    18.0000000000000     
 surface tension            :    15.5689454083859     
 probe radius               :   0.975313790000000     
 vdW radii scaling          :    1.00000000000000     
 Gshift (Eh)                :   1.857443126794793E-003
 c1                         :    1.55243817000000     
 soset                      :   0.130326360000000     
 HB correction              :  T

            Z     q(EN)     CN     RAES       Cart. coordinates
     1  N   5.0   -0.21    3.23    1.96    38.92985    95.31718     5.03879
     2  C   4.0    0.03    4.35    4.29    37.33759    96.70904     6.80776
     3  C   4.0    0.14    3.41    3.08    38.14825    96.38454     9.56287
     4  O   6.0   -0.33    1.33    1.80    36.71851    97.09437    11.29081
     5  C   4.0    0.05    4.22    4.04    34.53146    96.18974     6.43381
     6  O   6.0   -0.25    2.10    1.84    34.03413    93.54206     6.27883
     7  C   4.0   -0.07    4.07    3.75    33.52435    97.39845     4.00505
     8  H   1.0    0.09    1.02    1.43    38.61645    93.43410     4.85222
     9  H   1.0    0.04    1.06    1.44    37.66159    98.71899     6.38897
    10  H   1.0    0.05    1.04    1.43    33.53559    96.98459     8.07956
    11  H   1.0    0.12    1.01    1.43    34.77758    92.65662     7.71105
    12  H   1.0    0.05    1.00    1.43    31.54421    96.93106     3.77624
    13  H   1.0    0.03    1.00    1.43    33.74937    99.43408     4.07589
    14  H   1.0    0.05    1.00    1.43    34.52427    96.62826     2.38924
    15  N   5.0   -0.14    3.44    2.04    40.42982    95.42709    10.05773
    16  C   4.0    0.03    4.40    4.38    41.29738    95.14786    12.66588
    17  C   4.0    0.16    3.49    3.11    40.90818    97.55312    14.23167
    18  O   6.0   -0.31    1.27    1.80    40.10762    97.46296    16.43803
    19  C   4.0   -0.04    4.31    4.22    44.14429    94.48437    12.64609
    20  C   4.0   -0.01    3.56    3.14    45.06224    93.95286    15.33155
    21  C   4.0   -0.04    3.45    3.10    44.60747    91.63686    16.49555
    22  C   4.0   -0.02    3.46    3.10    46.32202    95.83964    16.65539
    23  C   4.0   -0.04    3.38    3.07    45.47372    91.20305    18.92455
    24  C   4.0   -0.03    3.38    3.07    47.22604    95.36232    19.06303
    25  C   4.0   -0.03    3.38    3.07    46.79606    93.05287    20.19289
    26  H   1.0    0.08    1.06    1.44    41.65806    94.94735     8.65139
    27  H   1.0    0.05    1.05    1.44    40.21930    93.65361    13.61201
    28  H   1.0    0.04    1.03    1.43    44.40185    92.83646    11.43737
    29  H   1.0    0.05    1.03    1.43    45.17582    96.07271    11.84432
    30  H   1.0    0.05    1.03    1.43    43.55544    90.18805    15.51703
    31  H   1.0    0.07    1.03    1.43    46.60392    97.67875    15.81815
    32  H   1.0    0.05    1.03    1.43    45.09059    89.40765    19.80564
    33  H   1.0    0.07    1.03    1.43    48.19683    96.83814    20.08389
    34  H   1.0    0.06    1.03    1.43    47.45788    92.76667    22.09949
    35  N   5.0   -0.14    3.49    2.07    41.64523    99.78098    13.16079
    36  C   4.0    0.05    4.43    4.43    41.52126   102.03036    14.74029
    37  C   4.0    0.16    3.43    3.09    38.85157   103.09800    14.91361
    38  O   6.0   -0.31    1.32    1.80    38.38145   104.91216    16.30723
    39  C   4.0   -0.02    4.26    4.12    43.22437   104.16936    13.70848
    40  C   4.0    0.26    3.10    3.02    46.07973   103.43858    13.88944
    41  O   6.0   -0.32    1.27    1.80    46.76336   102.25452    15.83924
    42  O   6.0   -0.29    1.18    1.80    47.43802   104.13082    12.10994
    43  H   1.0    0.11    1.11    1.44    42.35096    99.94127    11.37496
    44  H   1.0    0.07    1.06    1.44    42.11689   101.54570    16.66720
    45  H   1.0    0.06    1.03    1.43    42.72947   104.58262    11.75942
    46  H   1.0    0.07    1.03    1.43    42.96162   105.86677    14.84187
    47  N   5.0   -0.14    3.53    2.10    37.06221   102.01263    13.51280
    48  C   4.0    0.04    4.45    4.46    34.39672   102.56822    13.89089
    49  C   4.0    0.15    3.40    3.08    33.15542   100.76277    15.71894
    50  O   6.0   -0.33    1.31    1.80    31.10211   101.35005    16.61697
    51  C   4.0   -0.04    4.26    4.11    32.97484   102.59438    11.30149
    52  C   4.0   -0.02    3.69    3.23    34.13147   104.65321     9.74000
    53  C   4.0   -0.01    3.61    3.17    35.81194   104.55148     7.79405
    54  C   4.0    0.00    3.87    3.42    33.46198   107.28408    10.01241
    55  N   5.0   -0.12    3.47    2.06    36.28098   106.88619     6.78306
    56  C   4.0    0.04    3.90    3.47    34.91160   108.59774     8.17680
    57  C   4.0   -0.05    3.39    3.07    31.98882   108.65823    11.72796
    58  C   4.0   -0.04    3.40    3.08    34.76975   111.20668     7.92750
    59  C   4.0   -0.04    3.37    3.07    31.92593   111.26498    11.49847
    60  C   4.0   -0.04    3.36    3.07    33.26428   112.52877     9.59539
    61  H   1.0    0.11    1.11    1.45    37.45424   100.43674    12.49598
    62  H   1.0    0.06    1.07    1.44    34.29148   104.46344    14.71476
    63  H   1.0    0.05    1.03    1.43    33.21291   100.75207    10.41316
    64  H   1.0    0.05    1.03    1.43    30.98963   102.97586    11.66684
    65  H   1.0    0.05    1.02    1.43    36.73459   102.91016     7.03573
    66  H   1.0    0.10    1.08    1.44    37.60112   107.35516     5.47158
    67  H   1.0    0.05    1.02    1.43    30.92215   107.70986    13.18398
    68  H   1.0    0.06    1.03    1.43    35.82934   112.15449     6.46679
    69  H   1.0    0.05    1.03    1.43    30.78266   112.35090    12.79383
    70  H   1.0    0.05    1.03    1.43    33.12775   114.55694     9.45813
    71  N   5.0   -0.14    3.53    2.10    34.25529    98.56186    16.19650
    72  C   4.0    0.04    4.53    4.58    33.22911    96.81123    18.07851
    73  C   4.0    0.14    3.45    3.09    34.40586    97.30639    20.66302
    74  O   6.0   -0.30    1.24    1.80    33.08689    96.91405    22.57128
    75  C   4.0   -0.02    4.29    4.18    33.76878    94.10848    17.26784
    76  C   4.0   -0.06    4.12    3.85    33.06790    92.23150    19.33826
    77  C   4.0   -0.07    4.13    3.85    32.42445    93.64065    14.76332
    78  H   1.0    0.11    1.09    1.44    35.96695    98.14229    15.46697
    79  H   1.0    0.06    1.06    1.44    31.20068    97.15397    18.24014
    80  H   1.0    0.05    1.06    1.44    35.82110    93.98147    16.98355
    81  H   1.0    0.04    1.00    1.43    33.33330    90.31509    18.64623
    82  H   1.0    0.06    1.00    1.43    34.24348    92.49809    21.00033
    83  H   1.0    0.05    1.00    1.43    31.10648    92.47246    19.90366
    84  H   1.0    0.04    1.00    1.43    32.60138    91.67100    14.20997
    85  H   1.0    0.05    1.00    1.43    30.42342    94.05738    14.96334
    86  H   1.0    0.06    1.01    1.43    33.21172    94.85513    13.30832
    87  N   5.0   -0.13    3.43    2.04    36.78333    98.07160    20.76433
    88  C   4.0    0.04    4.37    4.33    37.96333    98.61378    23.28691
    89  C   4.0    0.24    3.17    3.03    38.87798   101.40100    23.67186
    90  O   6.0   -0.30    1.23    1.80    39.98547   102.33818    21.80713
    91  C   4.0   -0.02    4.36    4.31    40.38610    97.01656    23.44611
    92  C   4.0   -0.01    3.58    3.15    39.70878    94.29545    23.70413
    93  C   4.0   -0.04    3.45    3.10    38.63239    93.43589    25.93911
    94  C   4.0   -0.04    3.46    3.10    39.95012    92.65314    21.65574
    95  C   4.0   -0.03    3.43    3.09    37.91116    90.90311    26.13322
    96  C   4.0   -0.05    3.41    3.08    39.21395    90.13957    21.83910
    97  C   4.0    0.07    3.44    3.09    38.19488    89.27086    24.08704
    98  O   6.0   -0.23    2.09    1.84    37.39920    86.83564    24.40211
    99  O   6.0   -0.28    1.15    1.80    38.57333   102.51436    25.74112
   100  H   1.0    0.11    1.09    1.44    37.85439    98.36616    19.22064
   101  H   1.0    0.07    1.06    1.44    36.59740    98.12551    24.74499
   102  H   1.0    0.06    1.03    1.43    41.50382    97.37173    21.74635
   103  H   1.0    0.05    1.03    1.43    41.46432    97.67516    25.08243
   104  H   1.0    0.06    1.03    1.43    38.35923    94.73489    27.48499
   105  H   1.0    0.06    1.03    1.43    40.71034    93.37595    19.90572
   106  H   1.0    0.06    1.03    1.43    37.02017    90.21528    27.82611
   107  H   1.0    0.05    1.03    1.43    39.39506    88.90573    20.22807
   108  H   1.0    0.12    1.01    1.43    37.28968    85.97282    22.73701
   109  O   6.0   -0.28    1.92    1.82    51.69079   100.56680    16.26095
   110  H   1.0    0.14    0.97    1.43    52.55792   101.61374    15.05709
   111  H   1.0    0.17    1.02    1.43    49.93444   101.12896    16.20081
   112  O   6.0   -0.32    1.98    1.82    26.32772    99.34329    17.24668
   113  H   1.0    0.16    1.02    1.43    27.93848   100.17864    16.96739
   114  H   1.0    0.15    0.97    1.43    26.07800    99.26155    19.04391
   115  O   6.0   -0.28    1.92    1.82    45.40089   102.34839    21.07327
   116  H   1.0    0.16    1.00    1.43    45.80215   102.31708    19.27694
   117  H   1.0    0.16    1.00    1.43    43.57447   102.29362    21.22108
   118  O   6.0   -0.31    2.00    1.83    43.05457   100.88757     8.29389
   119  H   1.0    0.15    1.01    1.43    43.54551   102.63368     8.00383
   120  H   1.0    0.13    0.97    1.43    42.16628   100.37390     6.77073
   121  O   6.0   -0.30    1.97    1.82    44.47477   105.91217     7.57880
   122  H   1.0    0.15    0.98    1.43    45.76972   105.63180     8.84904
   123  H   1.0    0.14    0.97    1.43    43.77531   107.55293     7.91769
   124  O   6.0   -0.31    1.99    1.83    39.67198   108.75178     3.05686
   125  H   1.0    0.15    1.03    1.43    40.94289   107.93464     2.01577
   126  H   1.0    0.15    1.03    1.43    39.22648   110.26198     2.12119
   127  O   6.0   -0.28    1.92    1.82    39.30815   110.34867    13.16108
   128  H   1.0    0.15    1.00    1.43    38.89313   111.84503    14.14422
   129  H   1.0    0.13    0.97    1.43    37.80110   109.95589    12.22507
   130  O   6.0   -0.29    2.00    1.83    41.63607   107.45161    19.33832
   131  H   1.0    0.16    1.02    1.43    40.64479   106.64272    18.00706
   132  H   1.0    0.15    0.98    1.43    41.90073   106.12720    20.56075
   133  O   6.0   -0.29    1.91    1.82    32.47503   116.36982     3.36538
   134  H   1.0    0.13    0.97    1.43    30.78539   116.77144     2.82900
   135  H   1.0    0.12    0.96    1.43    32.76962   117.41008     4.85848
   136  O   6.0   -0.28    1.92    1.82    38.15627   118.71552     6.57772
   137  H   1.0    0.13    0.97    1.43    36.38853   119.13107     6.81236
   138  H   1.0    0.13    0.97    1.43    38.23580   116.90651     6.44445
   139  O   6.0   -0.31    2.00    1.83    38.75636   112.08404    -0.54519
   140  H   1.0    0.13    0.97    1.43    39.50382   111.20876    -1.95329
   141  H   1.0    0.13    0.97    1.43    37.03440   112.46878    -1.03088
   142  O   6.0   -0.30    1.96    1.82    36.91192   114.21440    15.83126
   143  H   1.0    0.13    0.96    1.43    35.73316   115.17520    14.79587
   144  H   1.0    0.13    0.97    1.43    35.91251   113.00603    16.74972
   145  O   6.0   -0.30    1.99    1.83    43.32572   106.65098     0.12549
   146  H   1.0    0.14    0.97    1.43    44.79500   107.41593     0.86999
   147  H   1.0    0.14    0.97    1.43    43.16160   105.00948     0.89130
   148  N   5.0   -0.21    3.19    1.95    24.34872   101.74824     4.84625
   149  C   4.0    0.03    4.22    4.04    24.06683    98.98963     4.68360
   150  C   4.0    0.08    3.18    3.03    21.75353    98.09349     3.21735
   151  O   6.0   -0.28    1.12    1.80    21.21366    95.82261     3.14368
   152  C   4.0   -0.04    4.27    4.15    24.07493    97.94475     7.39881
   153  C   4.0   -0.05    4.20    4.00    26.82172    97.98396     8.36912
   154  C   4.0   -0.01    4.19    3.98    26.97412    97.22801    11.16927
   155  N   5.0   -0.14    3.40    2.02    26.37173    94.54164    11.35363
   156  C   4.0    0.09    3.33    3.06    25.10538    93.48675    13.27283
   157  N   5.0   -0.18    3.26    1.97    24.35827    94.82663    15.28122
   158  N   5.0   -0.18    3.24    1.96    24.51857    91.04850    13.12364
   159  H   1.0    0.08    1.03    1.43    23.75900   102.57964     6.46399
   160  H   1.0    0.04    1.06    1.44    25.69470    98.25423     3.63234
   161  H   1.0    0.05    1.03    1.43    22.87340    99.12156     8.57904
   162  H   1.0    0.06    1.03    1.43    23.34738    96.02329     7.37428
   163  H   1.0    0.04    1.03    1.43    27.96460    96.70449     7.23491
   164  H   1.0    0.04    1.03    1.43    27.55782    99.89468     8.16716
   165  H   1.0    0.04    1.02    1.43    28.87593    97.59393    11.89510
   166  H   1.0    0.05    1.03    1.43    25.62338    98.34307    12.24587
   167  H   1.0    0.08    1.06    1.44    27.16966    93.38434    10.03479
   168  H   1.0    0.11    1.07    1.44    24.95843    96.60734    15.65084
   169  H   1.0    0.09    1.04    1.43    23.27703    93.91000    16.56211
   170  H   1.0    0.09    1.02    1.43    25.06237    89.96212    11.63448
   171  H   1.0    0.09    1.03    1.43    23.47317    90.27224    14.51868
   172  N   5.0   -0.20    3.22    1.96    28.67130   104.04689    27.07091
   173  C   4.0    0.03    4.21    4.02    27.99993   103.83092    24.42252
   174  C   4.0    0.08    3.23    3.04    25.50423   102.30966    24.40493
   175  O   6.0   -0.29    1.15    1.80    25.45361   100.14448    23.58988
   176  C   4.0   -0.03    4.28    4.15    29.97021   102.38582    22.90289
   177  C   4.0   -0.04    4.16    3.91    32.52091   103.77935    22.65538
   178  C   4.0   -0.00    4.20    4.00    32.41803   106.08011    20.92844
   179  N   5.0   -0.13    3.38    2.01    34.84765   107.34620    20.62065
   180  C   4.0    0.10    3.35    3.06    35.72398   109.08770    22.21797
   181  N   5.0   -0.18    3.26    1.97    34.37573   109.96371    24.13203
   182  N   5.0   -0.17    3.26    1.97    37.88132   110.26916    21.63388
   183  H   1.0    0.10    1.03    1.43    28.32255   102.50780    28.15808
   184  H   1.0    0.04    1.05    1.44    27.69527   105.72959    23.66643
   185  H   1.0    0.07    1.03    1.43    30.32387   100.57112    23.80641
   186  H   1.0    0.06    1.03    1.43    29.21636   102.03760    21.01615
   187  H   1.0    0.05    1.02    1.43    33.20448   104.30419    24.53379
   188  H   1.0    0.07    1.03    1.43    33.91134   102.44719    21.90362
   189  H   1.0    0.06    1.03    1.43    31.80363   105.45050    19.05991
   190  H   1.0    0.04    1.03    1.43    31.05451   107.45919    21.63356
   191  H   1.0    0.11    1.07    1.44    36.09981   106.55072    19.41030
   192  H   1.0    0.08    1.03    1.43    32.73401   109.17128    24.72892
   193  H   1.0    0.09    1.04    1.43    35.10526   111.33696    25.22616
   194  H   1.0    0.12    1.08    1.44    39.18333   109.39634    20.48321
   195  H   1.0    0.09    1.04    1.43    38.66382   111.39629    22.95405
   196  N   5.0   -0.21    3.18    1.95    34.26531   106.30596    -2.61258
   197  C   4.0    0.04    4.14    3.88    36.36546   104.81713    -1.77230
   198  C   4.0    0.08    3.21    3.04    37.01692   102.64058    -3.53321
   199  O   6.0   -0.27    1.11    1.80    39.15481   101.68605    -3.51517
   200  C   4.0   -0.07    4.10    3.80    35.85896   103.68424     0.88143
   201  H   1.0    0.08    1.02    1.43    32.78646   106.58308    -1.40232
   202  H   1.0    0.06    1.05    1.44    38.07314   105.99446    -1.66372
   203  H   1.0    0.05    1.00    1.43    37.45720   102.53173     1.45691
   204  H   1.0    0.05    1.00    1.43    35.57935   105.19953     2.23290
   205  H   1.0    0.04    1.00    1.43    34.17084   102.51615     0.80832
   206  H   1.0    0.10    1.07    1.44    38.73768    95.95933     3.47569
   207  H   1.0    0.10    1.08    1.44    30.33845   104.35281    27.21085
   208  H   1.0    0.06    1.04    1.43    23.91535   103.09328    25.06254
   209  H   1.0    0.09    1.07    1.44    25.99097   102.16138     4.68851
   210  H   1.0    0.06    1.04    1.43    20.66644    99.34521     2.31044
   211  H   1.0    0.10    1.08    1.44    34.80070   107.87141    -3.00663
   212  H   1.0    0.06    1.04    1.44    35.71317   101.96476    -4.72257

  Z AO/shell   Hii/eV     exponent
  1     Wed Apr 25 08:07:45 CEST 2018   EN: 2.200 GM2: 0.406  GM3: 0.0800  RAES: 1.40
     1s    -10.707211    1.230000
  6     Wed Apr 25 08:07:45 CEST 2018   EN: 2.550 GM2: 0.538  GM3: 0.1500  RAES: 3.00
     2s    -13.970922    2.096432
     2p    -10.063292    1.800000
  7     Wed Apr 25 08:07:45 CEST 2018   EN: 3.040 GM2: 0.461  GM3:-0.0640  RAES: 1.90
     2s    -16.686243    2.339881
     2p    -12.523956    2.014332
  8     Wed Apr 25 08:07:45 CEST 2018   EN: 3.440 GM2: 0.452  GM3:-0.0517  RAES: 1.80
     2s    -20.229985    2.439742
     2p    -15.503117    2.137023
 no old-style atom pair restraining (fixing) potential

molecular fragmentation (1/2 indicates fragments):
111111111111111111111111111111111111111111111111111111111111111111111111
111111111111111111111111111111111111222222222222222222222222222222222222
22222222222222222222222222222222222222222222222222222222222221222222
# atoms in fragment 1/2:   109   103
 fragment masses (1/2) :      827.89      625.71
CMA distance (Bohr)    :   7.913
constraining FC (au)   :  0.0500
           ------------------------------------------------- 
          |        Self-Consistent Charge Iterations        |
           ------------------------------------------------- 

 Ncao       : 512
 Nao        : 512
 Nshell     : 312
 Nel        : 582
 T(el)      :   500.0
 intcut     :    35.0
 scfconv/Eh :  0.100E-06
   qconv/e  :  0.100E-04
 intneglect :  0.100E-08
 broydamp   :      0.400
 iter      E             dE          RMSdq      gap      omega  full diag
   1   -338.9329802 -0.338933E+03  0.496E+00    3.00       0.0  T
   2   -339.6450037 -0.712024E+00  0.242E+00    1.72       1.0  T
   3   -339.6922649 -0.472611E-01  0.120E+00    2.26       1.0  T
   4   -339.7593042 -0.670393E-01  0.321E-01    1.82       1.0  T
   5   -339.7614178 -0.211353E-02  0.155E-01    1.95       1.0  T
   6   -339.7634150 -0.199723E-02  0.605E-02    1.91       1.0  T
   7   -339.7636533 -0.238289E-03  0.322E-02    1.91       1.0  T
   8   -339.7636860 -0.327195E-04  0.149E-02    1.91       1.0  T
   9   -339.7636992 -0.131864E-04  0.625E-03    1.92       1.1  T
  10   -339.7637012 -0.197155E-05  0.339E-03    1.92       2.0  T
  11   -339.7637017 -0.574436E-06  0.137E-03    1.92       5.0  T
  12   -339.7637018 -0.995453E-07  0.571E-04    1.92      12.0  T
  13   -339.7637018 -0.140824E-07  0.265E-04    1.92      25.9  T
  14   -339.7637018 -0.245575E-08  0.117E-04    1.92      58.5  T
  15   -339.7637018 -0.929333E-09  0.448E-05    1.92     153.4  T
  16   -339.7637018 -0.901537E-10  0.216E-05    1.92     318.2  T
speedup  1.89
cpu  time for SCC    4.37 s
wall time for SCC    2.31 s

   *** convergence criteria satisfied after 16 iterations ***

          eigenvalues
 #    :         279        280        281        282        283        284        285        286
 occ. :        2.000      2.000      2.000      2.000      2.000      2.000      2.000      2.000
 eps  :       -10.899    -10.817    -10.619    -10.538    -10.456    -10.392    -10.274    -10.265
 #    :         287        288        289        290        291        292        293        294
 occ. :        2.000      2.000      2.000      2.000      2.000      0.000      0.000      0.000
 eps  :       -10.198     -9.962     -9.904     -9.882     -9.768     -7.851     -7.702     -7.612
 #    :         295        296        297        298        299        300        301        302
 occ. :        0.000      0.000      0.000      0.000      0.000      0.000      0.000      0.000
 eps  :        -6.804     -6.626     -6.355     -6.269     -6.202     -6.126     -6.116     -6.054


   #   Z            q   n(s)   n(p)   n(d)      C6AA      α(0)
   1   7 N     -0.395  1.316  4.079  0.000    30.221     8.165
   2   6 C      0.017  1.062  2.921  0.000    20.307     6.419
   3   6 C      0.256  1.054  2.690  0.000    22.695     7.801
   4   8 O     -0.511  1.749  4.761  0.000    24.021     6.571
   5   6 C      0.112  1.046  2.842  0.000    18.836     6.197
   6   8 O     -0.472  1.721  4.751  0.000    22.304     6.375
   7   6 C     -0.128  1.041  3.087  0.000    23.019     6.842
   8   1 H      0.173  0.827  0.000  0.000     1.257     1.756
   9   1 H      0.061  0.939  0.000  0.000     2.186     2.312
  10   1 H      0.034  0.966  0.000  0.000     2.524     2.485
  11   1 H      0.316  0.684  0.000  0.000     0.676     1.292
  12   1 H      0.070  0.930  0.000  0.000     2.085     2.258
  13   1 H      0.056  0.944  0.000  0.000     2.247     2.344
  14   1 H      0.056  0.944  0.000  0.000     2.245     2.343
  15   7 N     -0.167  1.250  3.916  0.000    24.605     7.367
  16   6 C      0.028  1.065  2.907  0.000    20.114     6.386
  17   6 C      0.283  1.048  2.668  0.000    22.203     7.716
  18   8 O     -0.517  1.757  4.760  0.000    24.160     6.590
  19   6 C     -0.083  1.063  3.020  0.000    22.077     6.688
  20   6 C      0.008  1.083  2.909  0.000    27.829     8.653
  21   6 C     -0.045  1.080  2.965  0.000    29.118     8.849
  22   6 C     -0.031  1.082  2.950  0.000    28.781     8.798
  23   6 C     -0.032  1.078  2.954  0.000    28.801     8.801
  24   6 C     -0.024  1.079  2.946  0.000    28.614     8.772
  25   6 C     -0.033  1.077  2.955  0.000    28.815     8.803
  26   1 H      0.233  0.767  0.000  0.000     0.954     1.530
  27   1 H      0.081  0.919  0.000  0.000     1.973     2.197
  28   1 H      0.084  0.916  0.000  0.000     1.939     2.178
  29   1 H      0.053  0.947  0.000  0.000     2.283     2.363
  30   1 H      0.058  0.942  0.000  0.000     2.226     2.333
  31   1 H      0.019  0.981  0.000  0.000     2.755     2.596
  32   1 H      0.051  0.949  0.000  0.000     2.311     2.377
  33   1 H      0.017  0.983  0.000  0.000     2.780     2.607
  34   1 H      0.030  0.970  0.000  0.000     2.590     2.516
  35   7 N     -0.214  1.269  3.945  0.000    25.655     7.523
  36   6 C      0.052  1.051  2.897  0.000    19.706     6.321
  37   6 C      0.270  1.048  2.681  0.000    22.432     7.756
  38   8 O     -0.500  1.738  4.761  0.000    23.774     6.537
  39   6 C     -0.107  1.073  3.034  0.000    22.540     6.759
  40   6 C      0.373  1.022  2.605  0.000    20.683     7.442
  41   8 O     -0.630  1.778  4.852  0.000    26.856     6.948
  42   8 O     -0.606  1.761  4.846  0.000    26.268     6.872
  43   1 H      0.239  0.761  0.000  0.000     0.928     1.509
  44   1 H      0.057  0.943  0.000  0.000     2.234     2.338
  45   1 H      0.060  0.940  0.000  0.000     2.203     2.321
  46   1 H      0.059  0.941  0.000  0.000     2.206     2.323
  47   7 N     -0.183  1.249  3.934  0.000    24.965     7.421
  48   6 C      0.023  1.064  2.913  0.000    20.195     6.398
  49   6 C      0.266  1.042  2.693  0.000    22.513     7.770
  50   8 O     -0.487  1.723  4.764  0.000    23.505     6.500
  51   6 C     -0.072  1.056  3.016  0.000    21.878     6.659
  52   6 C     -0.041  1.065  2.976  0.000    28.960     8.826
  53   6 C     -0.005  1.064  2.941  0.000    28.103     8.694
  54   6 C     -0.027  1.078  2.949  0.000    28.553     8.757
  55   7 N     -0.126  1.242  3.885  0.000    23.743     7.237
  56   6 C      0.042  1.065  2.893  0.000    26.918     8.501
  57   6 C     -0.049  1.080  2.969  0.000    29.210     8.862
  58   6 C     -0.057  1.074  2.984  0.000    29.423     8.895
  59   6 C     -0.054  1.078  2.976  0.000    29.338     8.882
  60   6 C     -0.047  1.077  2.970  0.000    29.167     8.856
  61   1 H      0.211  0.789  0.000  0.000     1.051     1.606
  62   1 H      0.089  0.911  0.000  0.000     1.887     2.148
  63   1 H      0.059  0.941  0.000  0.000     2.210     2.325
  64   1 H      0.086  0.914  0.000  0.000     1.919     2.166
  65   1 H      0.026  0.974  0.000  0.000     2.648     2.545
  66   1 H      0.219  0.781  0.000  0.000     1.014     1.578
  67   1 H      0.034  0.966  0.000  0.000     2.535     2.490
  68   1 H      0.035  0.965  0.000  0.000     2.516     2.481
  69   1 H      0.033  0.967  0.000  0.000     2.543     2.494
  70   1 H      0.031  0.969  0.000  0.000     2.576     2.510
  71   7 N     -0.174  1.244  3.930  0.000    24.767     7.391
  72   6 C      0.019  1.068  2.913  0.000    20.250     6.406
  73   6 C      0.275  1.041  2.684  0.000    22.348     7.741
  74   8 O     -0.520  1.755  4.766  0.000    24.239     6.601
  75   6 C     -0.012  1.056  2.955  0.000    20.746     6.478
  76   6 C     -0.117  1.038  3.078  0.000    22.790     6.807
  77   6 C     -0.133  1.043  3.090  0.000    23.111     6.854
  78   1 H      0.196  0.804  0.000  0.000     1.125     1.661
  79   1 H      0.101  0.899  0.000  0.000     1.775     2.084
  80   1 H      0.025  0.975  0.000  0.000     2.666     2.553
  81   1 H      0.061  0.939  0.000  0.000     2.192     2.315
  82   1 H      0.021  0.979  0.000  0.000     2.720     2.579
  83   1 H      0.062  0.938  0.000  0.000     2.172     2.305
  84   1 H      0.066  0.934  0.000  0.000     2.126     2.280
  85   1 H      0.065  0.935  0.000  0.000     2.147     2.291
  86   1 H      0.057  0.943  0.000  0.000     2.237     2.339
  87   7 N     -0.190  1.261  3.930  0.000    25.132     7.446
  88   6 C      0.026  1.079  2.895  0.000    20.149     6.393
  89   6 C      0.363  1.030  2.607  0.000    20.836     7.470
  90   8 O     -0.631  1.763  4.868  0.000    26.889     6.952
  91   6 C     -0.044  1.046  2.998  0.000    21.342     6.575
  92   6 C      0.002  1.082  2.917  0.000    27.989     8.678
  93   6 C     -0.039  1.083  2.956  0.000    28.981     8.828
  94   6 C     -0.039  1.083  2.956  0.000    28.967     8.826
  95   6 C     -0.061  1.077  2.984  0.000    29.514     8.909
  96   6 C     -0.074  1.077  2.997  0.000    29.852     8.959
  97   6 C      0.144  1.045  2.811  0.000    24.863     8.172
  98   8 O     -0.435  1.728  4.707  0.000    21.550     6.267
  99   8 O     -0.624  1.772  4.852  0.000    26.720     6.930
 100   1 H      0.206  0.794  0.000  0.000     1.075     1.624
 101   1 H      0.042  0.958  0.000  0.000     2.428     2.437
 102   1 H      0.029  0.971  0.000  0.000     2.597     2.520
 103   1 H      0.016  0.984  0.000  0.000     2.795     2.614
 104   1 H      0.025  0.975  0.000  0.000     2.656     2.548
 105   1 H      0.029  0.971  0.000  0.000     2.595     2.519
 106   1 H      0.053  0.947  0.000  0.000     2.284     2.363
 107   1 H      0.057  0.943  0.000  0.000     2.233     2.337
 108   1 H      0.356  0.644  0.000  0.000     0.575     1.191
 109   8 O     -0.657  1.768  4.889  0.000    26.586     6.959
 110   1 H      0.316  0.684  0.000  0.000     0.675     1.290
 111   1 H      0.302  0.698  0.000  0.000     0.714     1.328
 112   8 O     -0.617  1.731  4.886  0.000    25.587     6.827
 113   1 H      0.321  0.679  0.000  0.000     0.662     1.278
 114   1 H      0.303  0.697  0.000  0.000     0.712     1.325
 115   8 O     -0.640  1.761  4.879  0.000    26.166     6.904
 116   1 H      0.306  0.694  0.000  0.000     0.705     1.319
 117   1 H      0.293  0.707  0.000  0.000     0.742     1.353
 118   8 O     -0.637  1.764  4.873  0.000    26.079     6.892
 119   1 H      0.328  0.672  0.000  0.000     0.642     1.259
 120   1 H      0.322  0.678  0.000  0.000     0.659     1.275
 121   8 O     -0.621  1.741  4.880  0.000    25.696     6.842
 122   1 H      0.310  0.690  0.000  0.000     0.690     1.305
 123   1 H      0.326  0.674  0.000  0.000     0.646     1.263
 124   8 O     -0.668  1.758  4.911  0.000    26.881     6.997
 125   1 H      0.308  0.692  0.000  0.000     0.699     1.313
 126   1 H      0.316  0.684  0.000  0.000     0.675     1.291
 127   8 O     -0.652  1.776  4.877  0.000    26.472     6.944
 128   1 H      0.330  0.670  0.000  0.000     0.638     1.254
 129   1 H      0.293  0.707  0.000  0.000     0.744     1.355
 130   8 O     -0.615  1.747  4.868  0.000    25.549     6.822
 131   1 H      0.320  0.680  0.000  0.000     0.663     1.279
 132   1 H      0.299  0.701  0.000  0.000     0.723     1.336
 133   8 O     -0.640  1.775  4.865  0.000    26.158     6.903
 134   1 H      0.335  0.665  0.000  0.000     0.625     1.242
 135   1 H      0.304  0.696  0.000  0.000     0.708     1.322
 136   8 O     -0.645  1.777  4.868  0.000    26.299     6.921
 137   1 H      0.321  0.679  0.000  0.000     0.662     1.278
 138   1 H      0.325  0.675  0.000  0.000     0.651     1.267
 139   8 O     -0.628  1.766  4.862  0.000    25.869     6.865
 140   1 H      0.329  0.671  0.000  0.000     0.639     1.256
 141   1 H      0.334  0.666  0.000  0.000     0.627     1.244
 142   8 O     -0.633  1.774  4.858  0.000    25.979     6.879
 143   1 H      0.334  0.666  0.000  0.000     0.627     1.244
 144   1 H      0.324  0.676  0.000  0.000     0.652     1.269
 145   8 O     -0.623  1.759  4.864  0.000    25.737     6.847
 146   1 H      0.337  0.663  0.000  0.000     0.619     1.235
 147   1 H      0.325  0.675  0.000  0.000     0.650     1.266
 148   7 N     -0.401  1.322  4.078  0.000    30.388     8.187
 149   6 C      0.032  1.060  2.908  0.000    20.061     6.380
 150   6 C      0.197  1.092  2.711  0.000    23.800     7.989
 151   8 O     -0.390  1.764  4.626  0.000    21.482     6.214
 152   6 C     -0.079  1.061  3.018  0.000    21.999     6.677
 153   6 C     -0.082  1.057  3.024  0.000    22.053     6.685
 154   6 C     -0.027  1.055  2.972  0.000    21.142     6.561
 155   7 N     -0.145  1.216  3.930  0.000    24.146     7.298
 156   6 C      0.227  1.022  2.751  0.000    23.224     7.890
 157   7 N     -0.259  1.241  4.018  0.000    26.723     7.678
 158   7 N     -0.262  1.237  4.024  0.000    26.791     7.687
 159   1 H      0.170  0.830  0.000  0.000     1.275     1.769
 160   1 H      0.079  0.921  0.000  0.000     1.985     2.203
 161   1 H      0.062  0.938  0.000  0.000     2.171     2.304
 162   1 H      0.068  0.932  0.000  0.000     2.112     2.273
 163   1 H      0.063  0.937  0.000  0.000     2.163     2.300
 164   1 H      0.066  0.934  0.000  0.000     2.133     2.284
 165   1 H      0.068  0.932  0.000  0.000     2.109     2.271
 166   1 H      0.097  0.903  0.000  0.000     1.812     2.105
 167   1 H      0.228  0.772  0.000  0.000     0.975     1.547
 168   1 H      0.258  0.742  0.000  0.000     0.853     1.447
 169   1 H      0.241  0.759  0.000  0.000     0.921     1.503
 170   1 H      0.251  0.749  0.000  0.000     0.881     1.470
 171   1 H      0.249  0.751  0.000  0.000     0.887     1.475
 172   7 N     -0.374  1.310  4.064  0.000    29.663     8.089
 173   6 C      0.028  1.060  2.912  0.000    20.128     6.391
 174   6 C      0.198  1.095  2.707  0.000    23.782     7.987
 175   8 O     -0.364  1.754  4.610  0.000    20.968     6.139
 176   6 C     -0.074  1.052  3.022  0.000    21.910     6.664
 177   6 C     -0.053  1.044  3.009  0.000    21.532     6.607
 178   6 C     -0.024  1.053  2.971  0.000    21.074     6.550
 179   7 N     -0.144  1.215  3.929  0.000    24.127     7.295
 180   6 C      0.238  1.021  2.740  0.000    23.015     7.855
 181   7 N     -0.246  1.225  4.021  0.000    26.422     7.634
 182   7 N     -0.279  1.271  4.008  0.000    27.205     7.746
 183   1 H      0.151  0.849  0.000  0.000     1.392     1.848
 184   1 H      0.079  0.921  0.000  0.000     1.991     2.207
 185   1 H      0.054  0.946  0.000  0.000     2.274     2.358
 186   1 H      0.066  0.934  0.000  0.000     2.130     2.282
 187   1 H      0.033  0.967  0.000  0.000     2.547     2.496
 188   1 H      0.010  0.990  0.000  0.000     2.889     2.658
 189   1 H      0.089  0.911  0.000  0.000     1.891     2.150
 190   1 H      0.092  0.908  0.000  0.000     1.863     2.134
 191   1 H      0.212  0.788  0.000  0.000     1.047     1.603
 192   1 H      0.245  0.755  0.000  0.000     0.905     1.490
 193   1 H      0.255  0.745  0.000  0.000     0.865     1.457
 194   1 H      0.244  0.756  0.000  0.000     0.907     1.492
 195   1 H      0.237  0.763  0.000  0.000     0.934     1.514
 196   7 N     -0.391  1.309  4.082  0.000    30.128     8.152
 197   6 C      0.044  1.050  2.906  0.000    19.850     6.347
 198   6 C      0.195  1.095  2.710  0.000    23.838     7.996
 199   8 O     -0.402  1.769  4.633  0.000    21.726     6.249
 200   6 C     -0.123  1.046  3.077  0.000    22.909     6.825
 201   1 H      0.177  0.823  0.000  0.000     1.233     1.739
 202   1 H      0.061  0.939  0.000  0.000     2.185     2.312
 203   1 H      0.048  0.952  0.000  0.000     2.348     2.396
 204   1 H      0.078  0.922  0.000  0.000     2.004     2.214
 205   1 H      0.059  0.941  0.000  0.000     2.212     2.326
 206   1 H      0.187  0.813  0.000  0.000     1.175     1.698
 207   1 H      0.183  0.817  0.000  0.000     1.199     1.715
 208   1 H      0.087  0.913  0.000  0.000     1.904     2.158
 209   1 H      0.184  0.816  0.000  0.000     1.190     1.709
 210   1 H      0.074  0.926  0.000  0.000     2.040     2.233
 211   1 H      0.178  0.822  0.000  0.000     1.226     1.734
 212   1 H      0.075  0.925  0.000  0.000     2.034     2.230

 Mol. C6AA /au·bohr⁶  :     399357.314074
 Mol. C8AA /au·bohr⁸  :    8780516.480063
 Mol. α(0) /au        :        951.697884

 
molecular dipole:
                 x           y           z       tot (Debye)
 q only:      -22.845      -1.691      -9.755
   full:      -21.482      -1.535      -9.958      60.312
molecular quadrupole (traceless):
                xx          xy          yy          xz          yz          zz
 q only:    -1438.947   -3571.678     797.940   -1089.621   -1454.362     641.007
  q+dip:    -1368.340   -3364.054     785.102   -1082.728   -1485.500     583.238
   full:    -1365.085   -3365.214     782.577   -1079.245   -1487.899     582.508
speedup  1.92
cpu  time for grad    6.13 s
wall time for grad    3.20 s

SCC energy    :    -339.7712981
rep           :       3.9318487
ES            :       1.3233934
AES           :      -0.0924274
AXC           :       0.0953214
disp          :      -0.2485823
XB            :       0.0000000
fix           :       0.0000000
Gborn         :       0.0000000
Gsasa         :       0.0000000
Ghb           :       0.0000000
Gshift        :       0.0000000
Gsolv         :      -0.3223908     -202.30
Etot ala COSMO:    -339.7712981
grad norm     :       0.4563410
total E       :    -335.8164380
atomizationE  :      57.0750105    35815.11
(atE without considering molecular charge,
 total energy contains solvation terms)
H-L gap (eV)  :          1.9171

------------------------------------------------------------------------
 * finished run on 2019/05/05 at 17:07:41.639     
------------------------------------------------------------------------
 total:
 * wall-time:     0 d,  0 h,  0 min,  3.511 sec
 *  cpu-time:     0 d,  0 h,  0 min,  6.549 sec
 * ratio c/w:     1.865 speedup
 SCF:
 * wall-time:     0 d,  0 h,  0 min,  3.375 sec
 *  cpu-time:     0 d,  0 h,  0 min,  6.402 sec
 * ratio c/w:     1.897 speedup

