      -----------------------------------------------------------      
     |                   =====================                   |     
     |                           x T B                           |     
     |                   =====================                   |     
     |                         S. Grimme                         |     
     |          Mulliken Center for Theoretical Chemistry        |     
     |                    University of Bonn                     |     
     |                 Version 6.0.1 (SAW181210)                 |     
      -----------------------------------------------------------      

   This program is distributed in the hope that it will be useful,
   but WITHOUT ANY WARRANTY; without even the implied warranty of
   MERCHANTABILITY or FITNESS FOR A PARTICULAR PURPOSE.
   
   FOR NON-COMMERCIAL, ACADEMIA USE ONLY.
   
   Cite this work as:
   S. Grimme, C. Bannwarth, P. Shushkov, J. Comput. Theory Chem., 2017,
   13, 1989-2009.
   C. Bannwarth, S. Ehlert and S. Grimme., ChemRxiv, 2018, preprint.
   http://doi.org/10.26434/chemrxiv.7246238.v1
   
   for sTDA-xTB:
   S. Grimme and C. Bannwarth, J. Chem. Phys., 2016, 145, 054103.
   
   in the mass-spec context:
   V. Asgeirsson, C. Bauer and S. Grimme, Chem. Sci., 2017, 8, 4879.
   
   if GBSA is used:
   P. Shushkov, F. März and S. Grimme, unpublished.
   
   for ANC optimizer:
   S. Grimme, unpublished.
   Rational Function algorithm used in ANCopt:
   F. Eckert, P. Pulay, H.-J. Werner, J. Comput. Chem., 1997, 18, 1473.
   
   with help from (in alphabetical order)
   C. Bannwarth, F. Bohle, G. Brandenburg, E. Caldeweyher, M. Checinski,
   S. Dohm, S. Ehlert, S. Ehrlich, F. März, H. Neugebauer, J. Pisarek,
   P. Pracht, P. Shushkov, and S. Spicher.
   
 * started run on 2019/05/04 at 16:16:13.789     
========================================================================
 # omp threads = 2
========================================================================
number of atoms            : 163
number of electrons        : 438
charge                     : 1
spin                       : .0
first test random number   : .0517

########################################################################
# WARNING! Please study the warnings concerning your input carefully
#  - Process number higher than OMP_NUM_THREADS, I hope you know what you are doing.
########################################################################

           ------------------------------------------------- 
          |                 G F N 2 - x T B                 |
          | Geometry, Frequencies, Noncovalent interactions |
          |            JCTC 2018 parametrisation            |
           ------------------------------------------------- 
 
      method parameters     
 k(s)        :  1.8500
 k(p)        :  2.2300
 k(d)        :  2.2300
 k(f)        :  2.0000
 kEN (H0ij)  : -2.0000
 D4 a1       :  0.5200
 D4 a2       :  5.0000
 D4 s6       :  1.0000
 D4 s8       :  2.7000
 D4 s9       :  5.0000
 alphaj      :  2.0000

 Solvent             : h2o
 Using internal parameter file: .param_gbsa2_h2o
 Gsolv ref. state (COSMO-RS): gsolv [1 M gas/solution]
 temperature (mdtemp)       :    298.150000000000     
 dielectric constant        :    80.2000000000000     
 rho                        :    1.00000000000000     
 mass                       :    18.0000000000000     
 surface tension            :    15.5689454083859     
 probe radius               :   0.975313790000000     
 vdW radii scaling          :    1.00000000000000     
 Gshift (Eh)                :   1.857443126794793E-003
 c1                         :    1.55243817000000     
 soset                      :   0.130326360000000     
 HB correction              :  T

            Z     q(EN)     CN     RAES       Cart. coordinates
     1  N   5.0   -0.12    4.10    3.14    65.54892   -19.13725   -55.34062
     2  C   4.0    0.00    4.30    4.20    66.12151   -16.41605   -54.83796
     3  C   4.0    0.14    3.42    3.09    64.29226   -15.18017   -52.96713
     4  O   6.0   -0.29    1.26    1.80    64.87240   -13.18273   -51.89754
     5  C   4.0   -0.04    4.32    4.24    66.06482   -14.90616   -57.31728
     6  C   4.0   -0.03    4.09    3.78    66.38985   -12.05456   -56.96957
     7  S   6.0   -0.01    2.49    3.10    65.42798   -10.21397   -59.67566
     8  C   4.0   -0.06    3.90    3.46    62.12663    -9.89272   -59.11252
     9  H   1.0    0.07    1.02    1.43    66.87551   -19.86480   -56.59540
    10  H   1.0    0.07    1.02    1.43    65.62073   -20.14448   -53.65499
    11  H   1.0    0.06    1.02    1.43    63.75179   -19.29599   -56.12108
    12  H   1.0    0.06    1.05    1.44    68.00935   -16.35180   -54.01782
    13  H   1.0    0.05    1.03    1.43    67.59550   -15.56756   -58.52670
    14  H   1.0    0.04    1.04    1.43    64.25068   -15.22174   -58.23946
    15  H   1.0    0.07    1.10    1.44    65.25035   -11.44985   -55.36330
    16  H   1.0    0.06    1.07    1.44    68.37784   -11.65394   -56.61430
    17  H   1.0    0.06    1.04    1.43    61.28948    -8.79289   -60.63942
    18  H   1.0    0.04    1.04    1.43    61.27247   -11.76543   -59.04449
    19  H   1.0    0.04    1.05    1.44    61.84317    -8.92707   -57.31539
    20  N   5.0   -0.14    3.42    2.03    62.10206   -16.37070   -52.57218
    21  C   4.0    0.03    4.34    4.28    60.17643   -15.32379   -50.88843
    22  C   4.0    0.14    3.34    3.06    59.44133   -16.69006   -48.39021
    23  O   6.0   -0.26    1.24    1.80    60.69233   -16.30645   -46.46080
    24  C   4.0   -0.05    4.33    4.26    57.77459   -14.70774   -52.45123
    25  C   4.0   -0.02    4.17    3.94    58.01270   -12.88037   -54.72457
    26  C   4.0   -0.07    4.10    3.81    55.49558   -12.70652   -56.09840
    27  C   4.0   -0.07    4.11    3.82    58.84229   -10.25365   -53.86475
    28  H   1.0    0.08    1.06    1.44    61.61262   -18.04877   -53.38476
    29  H   1.0    0.08    1.10    1.44    61.25925   -13.73831   -50.14199
    30  H   1.0    0.04    1.03    1.43    57.04894   -16.48408   -53.20145
    31  H   1.0    0.04    1.03    1.43    56.39698   -13.87059   -51.16811
    32  H   1.0    0.04    1.06    1.44    59.44511   -13.60603   -56.01526
    33  H   1.0    0.05    1.00    1.43    55.69022   -11.41772   -57.69333
    34  H   1.0    0.05    1.00    1.43    54.96835   -14.58113   -56.77115
    35  H   1.0    0.05    1.00    1.43    54.06695   -11.99976   -54.79449
    36  H   1.0    0.04    1.01    1.43    58.98780    -9.02344   -55.51070
    37  H   1.0    0.05    1.00    1.43    57.44389    -9.50532   -52.55139
    38  H   1.0    0.06    1.00    1.43    60.67343   -10.40105   -52.93311
    39  N   5.0   -0.14    3.40    2.02    57.46846   -18.26987   -48.40533
    40  C   4.0    0.04    4.41    4.39    56.54060   -19.44906   -46.05829
    41  C   4.0    0.15    3.39    3.07    56.67288   -22.27798   -45.59909
    42  O   6.0   -0.28    1.25    1.80    54.98347   -23.65559   -46.36821
    43  C   4.0   -0.03    4.30    4.20    53.77593   -18.70640   -45.62932
    44  C   4.0   -0.04    4.17    3.93    53.29783   -15.89260   -45.17012
    45  C   4.0   -0.05    4.17    3.94    50.50293   -15.31056   -44.70903
    46  C   4.0   -0.03    4.12    3.84    50.01727   -12.48920   -44.35187
    47  N   5.0   -0.11    4.00    2.87    47.26583   -12.04700   -43.93802
    48  H   1.0    0.08    1.05    1.44    56.48580   -18.76498   -49.98703
    49  H   1.0    0.08    1.11    1.45    57.99569   -18.74041   -44.78650
    50  H   1.0    0.06    1.03    1.43    52.69501   -19.24686   -47.29606
    51  H   1.0    0.06    1.04    1.43    53.08051   -19.72307   -43.97770
    52  H   1.0    0.06    1.03    1.43    54.35797   -15.28977   -43.51094
    53  H   1.0    0.05    1.03    1.43    53.90821   -14.82490   -46.82363
    54  H   1.0    0.05    1.03    1.43    49.40311   -15.94929   -46.32852
    55  H   1.0    0.05    1.03    1.43    49.88121   -16.28755   -43.00638
    56  H   1.0    0.05    1.02    1.43    51.05473   -11.80512   -42.70781
    57  H   1.0    0.04    1.02    1.43    50.60875   -11.46119   -46.03561
    58  H   1.0    0.07    1.01    1.43    46.92379   -10.12704   -43.69424
    59  H   1.0    0.06    1.02    1.43    46.24159   -12.68573   -45.48948
    60  H   1.0    0.06    1.02    1.43    46.66300   -13.01265   -42.33553
    61  N   5.0   -0.12    3.48    2.06    58.65142   -23.10757   -44.29707
    62  C   4.0    0.04    4.39    4.37    59.01236   -25.75130   -43.57708
    63  C   4.0    0.15    3.42    3.09    59.49424   -25.68893   -40.72548
    64  O   6.0   -0.28    1.26    1.80    58.04860   -24.47573   -39.35921
    65  C   4.0   -0.04    4.31    4.21    61.24602   -26.90025   -45.01894
    66  C   4.0   -0.02    4.19    3.99    60.55816   -27.67126   -47.70613
    67  C   4.0    0.25    3.12    3.03    62.83906   -28.07944   -49.39744
    68  O   6.0   -0.27    1.17    1.80    64.06171   -26.19349   -50.12309
    69  O   6.0   -0.25    1.17    1.80    63.40975   -30.28853   -50.00593
    70  H   1.0    0.10    1.06    1.44    60.08195   -21.96617   -43.69235
    71  H   1.0    0.07    1.06    1.44    57.39854   -26.94560   -44.03250
    72  H   1.0    0.06    1.03    1.43    62.76347   -25.51130   -45.12288
    73  H   1.0    0.05    1.04    1.43    61.89608   -28.58022   -44.01928
    74  H   1.0    0.06    1.03    1.43    59.49802   -29.43626   -47.64188
    75  H   1.0    0.07    1.03    1.43    59.40542   -26.18782   -48.54895
    76  N   5.0   -0.15    3.46    2.05    61.46523   -26.94938   -39.79196
    77  C   4.0    0.04    4.43    4.44    61.96411   -26.84734   -37.06508
    78  C   4.0    0.15    3.42    3.08    64.51902   -25.68138   -36.43959
    79  O   6.0   -0.28    1.23    1.80    64.80626   -24.48329   -34.46293
    80  C   4.0   -0.03    4.31    4.21    61.80538   -29.46272   -35.81220
    81  C   4.0   -0.00    3.53    3.13    62.04915   -29.38146   -32.95304
    82  C   4.0   -0.02    3.45    3.10    60.33895   -27.99251   -31.50362
    83  C   4.0   -0.03    3.44    3.09    63.99179   -30.66080   -31.71716
    84  C   4.0   -0.03    3.35    3.07    60.55438   -27.87913   -28.87501
    85  C   4.0   -0.02    3.35    3.07    64.21667   -30.55309   -29.08477
    86  C   4.0   -0.02    3.35    3.07    62.49513   -29.15847   -27.66937
    87  H   1.0    0.07    1.06    1.44    62.69733   -28.01141   -40.82564
    88  H   1.0    0.07    1.08    1.44    60.47879   -25.71350   -36.19959
    89  H   1.0    0.05    1.03    1.43    59.98179   -30.30742   -36.26573
    90  H   1.0    0.05    1.03    1.43    63.32850   -30.64191   -36.54163
    91  H   1.0    0.06    1.03    1.43    58.82339   -26.98718   -32.42959
    92  H   1.0    0.06    1.03    1.43    65.33727   -31.74551   -32.80186
    93  H   1.0    0.06    1.03    1.43    59.21078   -26.79631   -27.78464
    94  H   1.0    0.06    1.03    1.43    65.73034   -31.55464   -28.14936
    95  H   1.0    0.06    1.03    1.43    62.67087   -29.07343   -25.63791
    96  N   5.0   -0.15    3.46    2.05    66.36907   -26.04042   -38.10821
    97  C   4.0    0.04    4.42    4.41    68.88429   -24.98974   -37.69058
    98  C   4.0    0.15    3.41    3.08    68.97878   -22.10790   -38.00995
    99  O   6.0   -0.28    1.22    1.80    70.42442   -20.83234   -36.70604
   100  C   4.0   -0.05    4.28    4.16    70.82126   -26.19916   -39.46882
   101  C   4.0   -0.04    4.27    4.13    73.43664   -25.13902   -39.02851
   102  C   4.0   -0.05    4.19    3.99    75.42085   -26.30310   -40.69336
   103  C   4.0   -0.03    4.16    3.92    77.97576   -25.19572   -40.01306
   104  N   5.0   -0.11    4.01    2.87    80.03934   -26.21239   -41.59098
   105  H   1.0    0.07    1.06    1.44    66.18954   -27.03820   -39.74850
   106  H   1.0    0.07    1.06    1.44    69.39641   -25.43949   -35.74606
   107  H   1.0    0.05    1.03    1.43    70.87795   -28.23062   -39.13622
   108  H   1.0    0.05    1.03    1.43    70.28458   -25.81933   -41.42090
   109  H   1.0    0.06    1.04    1.43    73.40640   -23.11324   -39.40457
   110  H   1.0    0.05    1.04    1.43    73.97521   -25.48484   -37.07075
   111  H   1.0    0.05    1.03    1.43    75.47565   -28.34211   -40.40234
   112  H   1.0    0.05    1.03    1.43    75.01456   -25.88547   -42.66812
   113  H   1.0    0.06    1.03    1.43    77.91718   -23.15481   -40.27762
   114  H   1.0    0.05    1.03    1.43    78.39906   -25.63791   -38.04585
   115  H   1.0    0.07    1.01    1.43    81.75143   -25.40359   -41.06186
   116  H   1.0    0.07    1.02    1.43    80.15840   -28.16070   -41.36799
   117  H   1.0    0.07    1.02    1.43    79.70108   -25.80610   -43.48448
   118  N   5.0   -0.13    3.43    2.04    67.44621   -21.10068   -39.73905
   119  C   4.0    0.04    4.36    4.32    67.33849   -18.37192   -40.26061
   120  C   4.0    0.15    3.37    3.07    64.58138   -17.40816   -40.14156
   121  O   6.0   -0.27    1.23    1.80    63.12441   -17.80122   -41.91790
   122  C   4.0   -0.03    4.28    4.15    68.45532   -17.85980   -42.89111
   123  C   4.0   -0.02    4.19    3.98    69.00145   -15.10080   -43.49960
   124  C   4.0    0.26    3.13    3.03    71.44109   -14.17105   -42.32608
   125  O   6.0   -0.26    1.18    1.80    73.41396   -15.41449   -42.70592
   126  O   6.0   -0.25    1.17    1.80    71.38818   -12.19251   -41.03729
   127  H   1.0    0.09    1.06    1.44    66.23678   -22.13436   -40.82753
   128  H   1.0    0.07    1.06    1.44    68.38351   -17.38359   -38.78663
   129  H   1.0    0.06    1.04    1.43    70.23544   -18.88403   -43.04796
   130  H   1.0    0.07    1.03    1.43    67.12118   -18.54388   -44.30274
   131  H   1.0    0.07    1.03    1.43    69.15263   -14.88159   -45.54240
   132  H   1.0    0.07    1.03    1.43    67.46322   -13.93673   -42.77773
   133  N   5.0   -0.14    3.39    2.02    63.88785   -16.14204   -38.06664
   134  C   4.0    0.04    4.36    4.30    61.30082   -15.17261   -37.68114
   135  C   4.0    0.16    3.37    3.07    60.35785   -13.14871   -39.56897
   136  O   6.0   -0.30    1.25    1.80    58.12986   -13.13737   -40.26628
   137  C   4.0   -0.03    4.29    4.19    60.99091   -14.16539   -34.95993
   138  C   4.0   -0.01    3.52    3.12    61.24413   -16.16472   -32.91525
   139  C   4.0   -0.03    3.45    3.09    63.59495   -16.74864   -31.88535
   140  C   4.0   -0.03    3.44    3.09    59.11819   -17.43839   -32.01007
   141  C   4.0   -0.02    3.35    3.07    63.82360   -18.55522   -29.97861
   142  C   4.0   -0.03    3.35    3.07    59.32984   -19.24686   -30.10900
   143  C   4.0   -0.02    3.36    3.07    61.68632   -19.80622   -29.09611
   144  H   1.0    0.08    1.06    1.44    65.07271   -15.74709   -36.59832
   145  H   1.0    0.07    1.06    1.44    60.09706   -16.81100   -38.00428
   146  H   1.0    0.05    1.03    1.43    62.43844   -12.74053   -34.61978
   147  H   1.0    0.05    1.03    1.43    59.11819   -13.32635   -34.78041
   148  H   1.0    0.06    1.03    1.43    65.26169   -15.79055   -32.57132
   149  H   1.0    0.06    1.03    1.43    57.28326   -17.01509   -32.79619
   150  H   1.0    0.07    1.03    1.43    65.65664   -18.98230   -29.18871
   151  H   1.0    0.06    1.03    1.43    57.66688   -20.21062   -29.42492
   152  H   1.0    0.06    1.03    1.43    61.85829   -21.21028   -27.62590
   153  N   5.0   -0.13    3.41    2.03    62.02836   -11.44040   -40.36644
   154  C   4.0    0.04    4.23    4.06    61.37263    -9.43918   -42.18057
   155  C   4.0    0.08    3.21    3.04    63.56849    -7.57213   -42.41112
   156  O   6.0   -0.25    1.11    1.80    65.06515    -7.69118   -44.19313
   157  C   4.0   -0.06    4.13    3.87    58.98780    -8.05023   -41.33398
   158  H   1.0    0.09    1.06    1.44    63.86707   -11.38371   -39.79196
   159  H   1.0    0.07    1.05    1.44    61.00224   -10.27822   -44.02495
   160  H   1.0    0.05    1.00    1.43    58.54371    -6.58192   -42.70781
   161  H   1.0    0.07    1.02    1.43    57.43255    -9.39572   -41.21870
   162  H   1.0    0.05    1.00    1.43    59.32417    -7.20553   -39.48582
   163  H   1.0    0.06    1.04    1.44    63.80729    -6.22829   -41.10417

  Z AO/shell   Hii/eV     exponent
  1     Wed Apr 25 08:07:45 CEST 2018   EN: 2.200 GM2: 0.406  GM3: 0.0800  RAES: 1.40
     1s    -10.707211    1.230000
  6     Wed Apr 25 08:07:45 CEST 2018   EN: 2.550 GM2: 0.538  GM3: 0.1500  RAES: 3.00
     2s    -13.970922    2.096432
     2p    -10.063292    1.800000
  7     Wed Apr 25 08:07:45 CEST 2018   EN: 3.040 GM2: 0.461  GM3:-0.0640  RAES: 1.90
     2s    -16.686243    2.339881
     2p    -12.523956    2.014332
  8     Wed Apr 25 08:07:45 CEST 2018   EN: 3.440 GM2: 0.452  GM3:-0.0517  RAES: 1.80
     2s    -20.229985    2.439742
     2p    -15.503117    2.137023
 16     Tue Apr 24 11:44:34 CEST 2018   EN: 2.580 GM2: 0.340  GM3:-0.0502  RAES: 3.10
     3s    -20.029654    1.981333
     3p    -11.377694    2.025643
     3d     -0.420282    1.702555
 no old-style atom pair restraining (fixing) potential
           ------------------------------------------------- 
          |        Self-Consistent Charge Iterations        |
           ------------------------------------------------- 

 Ncao       : 406
 Nao        : 405
 Nshell     : 243
 Nel        : 438
 T(el)      :   500.0
 intcut     :    35.0
 scfconv/Eh :  0.100E-06
   qconv/e  :  0.100E-04
 intneglect :  0.100E-08
 broydamp   :      0.400
 iter      E             dE          RMSdq      gap      omega  full diag
   1   -248.8552435 -0.248855E+03  0.454E+00    2.82       0.0  T
   2   -249.4347942 -0.579551E+00  0.222E+00    1.33       1.0  T
   3   -249.4668083 -0.320141E-01  0.120E+00    1.75       1.0  T
   4   -249.4994902 -0.326819E-01  0.270E-01    1.26       1.0  T
   5   -249.5024267 -0.293644E-02  0.134E-01    1.41       1.0  T
   6   -249.5027640 -0.337337E-03  0.591E-02    1.37       1.0  T
   7   -249.5029327 -0.168652E-03  0.226E-02    1.38       1.0  T
   8   -249.5029451 -0.124700E-04  0.117E-02    1.38       1.0  T
   9   -249.5029497 -0.461425E-05  0.443E-03    1.38       1.8  T
  10   -249.5029504 -0.680286E-06  0.210E-03    1.38       3.7  T
  11   -249.5029505 -0.112623E-06  0.732E-04    1.38      10.7  T
  12   -249.5029506 -0.230065E-07  0.338E-04    1.38      23.2  T
  13   -249.5029506 -0.450547E-08  0.176E-04    1.38      44.4  T
  14   -249.5029506 -0.918789E-09  0.707E-05    1.38     110.7  T
  15   -249.5029506 -0.238657E-09  0.286E-05    1.38     273.7  T
speedup  0.98
cpu  time for SCC    2.20 s
wall time for SCC    2.26 s

   *** convergence criteria satisfied after 15 iterations ***

          eigenvalues
 #    :         207        208        209        210        211        212        213        214
 occ. :        2.000      2.000      2.000      2.000      2.000      2.000      2.000      2.000
 eps  :       -11.000    -10.992    -10.938    -10.898    -10.842    -10.769    -10.686    -10.580
 #    :         215        216        217        218        219        220        221        222
 occ. :        2.000      2.000      2.000      2.000      2.000      0.000      0.000      0.000
 eps  :       -10.143    -10.062     -9.881     -9.775     -9.676     -8.297     -6.845     -6.672
 #    :         223        224        225        226        227        228        229        230
 occ. :        0.000      0.000      0.000      0.000      0.000      0.000      0.000      0.000
 eps  :        -6.626     -6.459     -6.448     -6.407     -6.301     -6.243     -6.180     -6.154


   #   Z            q   n(s)   n(p)   n(d)      C6AA      α(0)
   1   7 N     -0.157  1.240  3.916  0.000    24.374     7.333
   2   6 C     -0.023  1.075  2.947  0.000    21.000     6.528
   3   6 C      0.276  1.030  2.694  0.000    22.326     7.737
   4   8 O     -0.474  1.770  4.703  0.000    23.209     6.459
   5   6 C     -0.089  1.057  3.032  0.000    22.174     6.700
   6   6 C     -0.015  1.059  2.955  0.000    20.840     6.501
   7  16 S     -0.235  1.918  4.258  0.059   151.097    20.689
   8   6 C     -0.059  1.053  3.006  0.000    21.703     6.645
   9   1 H      0.325  0.675  0.000  0.000     0.643     1.256
  10   1 H      0.296  0.704  0.000  0.000     0.725     1.334
  11   1 H      0.297  0.703  0.000  0.000     0.723     1.332
  12   1 H      0.135  0.865  0.000  0.000     1.501     1.916
  13   1 H      0.099  0.901  0.000  0.000     1.797     2.096
  14   1 H      0.090  0.910  0.000  0.000     1.881     2.145
  15   1 H      0.072  0.928  0.000  0.000     2.064     2.247
  16   1 H      0.058  0.942  0.000  0.000     2.221     2.331
  17   1 H      0.063  0.937  0.000  0.000     2.169     2.303
  18   1 H      0.066  0.934  0.000  0.000     2.127     2.281
  19   1 H      0.062  0.938  0.000  0.000     2.177     2.307
  20   7 N     -0.165  1.243  3.922  0.000    24.563     7.361
  21   6 C     -0.003  1.068  2.935  0.000    20.653     6.473
  22   6 C      0.268  1.046  2.686  0.000    22.474     7.762
  23   8 O     -0.484  1.775  4.708  0.000    23.425     6.489
  24   6 C     -0.090  1.067  3.024  0.000    22.222     6.711
  25   6 C     -0.013  1.059  2.955  0.000    20.781     6.484
  26   6 C     -0.123  1.046  3.077  0.000    22.913     6.825
  27   6 C     -0.120  1.044  3.075  0.000    22.848     6.816
  28   1 H      0.216  0.784  0.000  0.000     1.029     1.589
  29   1 H      0.102  0.898  0.000  0.000     1.769     2.080
  30   1 H      0.062  0.938  0.000  0.000     2.172     2.305
  31   1 H      0.069  0.931  0.000  0.000     2.093     2.262
  32   1 H      0.034  0.966  0.000  0.000     2.528     2.486
  33   1 H      0.047  0.953  0.000  0.000     2.361     2.403
  34   1 H      0.047  0.953  0.000  0.000     2.354     2.399
  35   1 H      0.054  0.946  0.000  0.000     2.276     2.359
  36   1 H      0.044  0.956  0.000  0.000     2.390     2.418
  37   1 H      0.047  0.953  0.000  0.000     2.359     2.402
  38   1 H      0.032  0.968  0.000  0.000     2.552     2.498
  39   7 N     -0.169  1.249  3.920  0.000    24.667     7.376
  40   6 C      0.003  1.059  2.938  0.000    20.530     6.452
  41   6 C      0.278  1.038  2.684  0.000    22.293     7.732
  42   8 O     -0.480  1.743  4.737  0.000    23.349     6.479
  43   6 C     -0.071  1.054  3.017  0.000    21.845     6.652
  44   6 C     -0.074  1.051  3.023  0.000    21.913     6.665
  45   6 C     -0.093  1.056  3.037  0.000    22.278     6.720
  46   6 C     -0.050  1.061  2.989  0.000    21.575     6.630
  47   7 N     -0.149  1.237  3.912  0.000    24.207     7.307
  48   1 H      0.218  0.782  0.000  0.000     1.020     1.582
  49   1 H      0.080  0.920  0.000  0.000     1.977     2.199
  50   1 H      0.077  0.923  0.000  0.000     2.010     2.217
  51   1 H      0.056  0.944  0.000  0.000     2.246     2.343
  52   1 H      0.058  0.942  0.000  0.000     2.228     2.334
  53   1 H      0.054  0.946  0.000  0.000     2.272     2.357
  54   1 H      0.080  0.920  0.000  0.000     1.975     2.197
  55   1 H      0.072  0.928  0.000  0.000     2.060     2.244
  56   1 H      0.116  0.884  0.000  0.000     1.649     2.008
  57   1 H      0.120  0.880  0.000  0.000     1.610     1.984
  58   1 H      0.305  0.695  0.000  0.000     0.698     1.309
  59   1 H      0.300  0.700  0.000  0.000     0.713     1.323
  60   1 H      0.297  0.703  0.000  0.000     0.722     1.331
  61   7 N     -0.159  1.241  3.917  0.000    24.435     7.342
  62   6 C      0.017  1.061  2.922  0.000    20.301     6.416
  63   6 C      0.270  1.044  2.686  0.000    22.441     7.758
  64   8 O     -0.483  1.753  4.730  0.000    23.412     6.487
  65   6 C     -0.062  1.053  3.009  0.000    21.689     6.630
  66   6 C     -0.088  1.060  3.028  0.000    22.172     6.704
  67   6 C      0.369  1.022  2.609  0.000    20.750     7.455
  68   8 O     -0.647  1.760  4.887  0.000    27.300     7.005
  69   8 O     -0.657  1.780  4.878  0.000    27.568     7.040
  70   1 H      0.190  0.810  0.000  0.000     1.158     1.686
  71   1 H      0.096  0.904  0.000  0.000     1.825     2.112
  72   1 H      0.040  0.960  0.000  0.000     2.444     2.445
  73   1 H      0.043  0.957  0.000  0.000     2.412     2.429
  74   1 H      0.022  0.978  0.000  0.000     2.704     2.571
  75   1 H      0.031  0.969  0.000  0.000     2.568     2.506
  76   7 N     -0.184  1.249  3.935  0.000    24.992     7.425
  77   6 C      0.014  1.063  2.923  0.000    20.349     6.423
  78   6 C      0.274  1.039  2.687  0.000    22.373     7.746
  79   8 O     -0.485  1.762  4.724  0.000    23.465     6.495
  80   6 C     -0.078  1.057  3.021  0.000    21.978     6.673
  81   6 C      0.011  1.084  2.904  0.000    27.759     8.642
  82   6 C     -0.036  1.083  2.953  0.000    28.895     8.815
  83   6 C     -0.042  1.085  2.957  0.000    29.040     8.837
  84   6 C     -0.031  1.083  2.948  0.000    28.771     8.796
  85   6 C     -0.034  1.085  2.950  0.000    28.853     8.808
  86   6 C     -0.034  1.082  2.952  0.000    28.855     8.809
  87   1 H      0.200  0.800  0.000  0.000     1.108     1.649
  88   1 H      0.099  0.901  0.000  0.000     1.792     2.093
  89   1 H      0.072  0.928  0.000  0.000     2.063     2.246
  90   1 H      0.058  0.942  0.000  0.000     2.219     2.330
  91   1 H      0.032  0.968  0.000  0.000     2.552     2.498
  92   1 H      0.040  0.960  0.000  0.000     2.450     2.448
  93   1 H      0.038  0.962  0.000  0.000     2.475     2.460
  94   1 H      0.042  0.958  0.000  0.000     2.423     2.434
  95   1 H      0.038  0.962  0.000  0.000     2.474     2.460
  96   7 N     -0.183  1.244  3.939  0.000    24.964     7.421
  97   6 C      0.013  1.065  2.922  0.000    20.353     6.424
  98   6 C      0.285  1.040  2.675  0.000    22.179     7.712
  99   8 O     -0.488  1.757  4.731  0.000    23.515     6.502
 100   6 C     -0.082  1.055  3.026  0.000    22.048     6.684
 101   6 C     -0.069  1.043  3.027  0.000    21.816     6.648
 102   6 C     -0.092  1.051  3.041  0.000    22.249     6.715
 103   6 C     -0.049  1.056  2.994  0.000    21.543     6.623
 104   7 N     -0.147  1.234  3.912  0.000    24.162     7.301
 105   1 H      0.205  0.795  0.000  0.000     1.080     1.628
 106   1 H      0.094  0.906  0.000  0.000     1.839     2.121
 107   1 H      0.083  0.917  0.000  0.000     1.949     2.183
 108   1 H      0.056  0.944  0.000  0.000     2.249     2.345
 109   1 H      0.043  0.957  0.000  0.000     2.404     2.425
 110   1 H      0.063  0.937  0.000  0.000     2.162     2.299
 111   1 H      0.086  0.914  0.000  0.000     1.918     2.166
 112   1 H      0.074  0.926  0.000  0.000     2.046     2.237
 113   1 H      0.106  0.894  0.000  0.000     1.729     2.056
 114   1 H      0.118  0.882  0.000  0.000     1.630     1.997
 115   1 H      0.306  0.694  0.000  0.000     0.695     1.306
 116   1 H      0.305  0.695  0.000  0.000     0.699     1.310
 117   1 H      0.298  0.702  0.000  0.000     0.718     1.327
 118   7 N     -0.174  1.244  3.929  0.000    24.757     7.390
 119   6 C      0.029  1.063  2.908  0.000    20.098     6.385
 120   6 C      0.265  1.049  2.687  0.000    22.536     7.773
 121   8 O     -0.472  1.749  4.722  0.000    23.170     6.454
 122   6 C     -0.053  1.050  3.003  0.000    21.514     6.603
 123   6 C     -0.081  1.058  3.023  0.000    22.046     6.685
 124   6 C      0.370  1.022  2.608  0.000    20.733     7.452
 125   8 O     -0.648  1.766  4.881  0.000    27.321     7.008
 126   8 O     -0.669  1.778  4.891  0.000    27.872     7.078
 127   1 H      0.192  0.808  0.000  0.000     1.148     1.678
 128   1 H      0.049  0.951  0.000  0.000     2.336     2.390
 129   1 H      0.055  0.945  0.000  0.000     2.258     2.350
 130   1 H      0.054  0.946  0.000  0.000     2.272     2.357
 131   1 H      0.036  0.964  0.000  0.000     2.497     2.471
 132   1 H      0.005  0.995  0.000  0.000     2.971     2.696
 133   7 N     -0.186  1.256  3.930  0.000    25.039     7.432
 134   6 C      0.022  1.069  2.909  0.000    20.212     6.404
 135   6 C      0.278  1.044  2.678  0.000    22.299     7.732
 136   8 O     -0.450  1.733  4.717  0.000    22.710     6.389
 137   6 C     -0.080  1.058  3.022  0.000    22.019     6.680
 138   6 C      0.007  1.083  2.910  0.000    27.868     8.659
 139   6 C     -0.039  1.081  2.958  0.000    28.981     8.828
 140   6 C     -0.041  1.085  2.956  0.000    29.029     8.835
 141   6 C     -0.029  1.084  2.945  0.000    28.718     8.788
 142   6 C     -0.032  1.084  2.948  0.000    28.789     8.798
 143   6 C     -0.030  1.083  2.947  0.000    28.738     8.791
 144   1 H      0.196  0.804  0.000  0.000     1.125     1.662
 145   1 H      0.084  0.916  0.000  0.000     1.939     2.178
 146   1 H      0.058  0.942  0.000  0.000     2.217     2.329
 147   1 H      0.086  0.914  0.000  0.000     1.919     2.167
 148   1 H      0.019  0.981  0.000  0.000     2.753     2.595
 149   1 H      0.051  0.949  0.000  0.000     2.303     2.373
 150   1 H      0.033  0.967  0.000  0.000     2.550     2.497
 151   1 H      0.046  0.954  0.000  0.000     2.368     2.406
 152   1 H      0.038  0.962  0.000  0.000     2.482     2.463
 153   7 N     -0.154  1.234  3.920  0.000    24.323     7.325
 154   6 C      0.031  1.057  2.911  0.000    20.058     6.379
 155   6 C      0.198  1.090  2.713  0.000    23.786     7.987
 156   8 O     -0.365  1.773  4.593  0.000    21.003     6.144
 157   6 C     -0.144  1.046  3.098  0.000    23.335     6.888
 158   1 H      0.172  0.828  0.000  0.000     1.259     1.758
 159   1 H      0.087  0.913  0.000  0.000     1.911     2.162
 160   1 H      0.075  0.925  0.000  0.000     2.030     2.228
 161   1 H      0.112  0.888  0.000  0.000     1.681     2.028
 162   1 H      0.064  0.936  0.000  0.000     2.151     2.293
 163   1 H      0.091  0.909  0.000  0.000     1.873     2.140

 Mol. C6AA /au·bohr⁶  :     254159.048478
 Mol. C8AA /au·bohr⁸  :    5858121.748312
 Mol. α(0) /au        :        761.911443

 
molecular dipole:
                 x           y           z       tot (Debye)
 q only:       56.035     -17.866     -49.844
   full:       56.410     -18.505     -49.628     196.681
molecular quadrupole (traceless):
                xx          xy          yy          xz          yz          zz
 q only:     2081.543   -1952.871   -2699.352   -4228.915    1241.514     617.809
  q+dip:     2126.032   -2020.019   -2682.561   -4224.602    1287.476     556.529
   full:     2124.670   -2020.490   -2679.833   -4226.598    1287.641     555.163
speedup  0.97
cpu  time for grad    2.66 s
wall time for grad    2.73 s

SCC energy    :    -249.5099409
rep           :       2.9975892
ES            :       1.0507225
AES           :      -0.0398677
AXC           :       0.0921164
disp          :      -0.1753072
XB            :       0.0000000
fix           :       0.0000000
Gborn         :       0.0000000
Gsasa         :       0.0000000
Ghb           :       0.0000000
Gshift        :       0.0000000
Gsolv         :      -0.4221308     -264.89
Etot ala COSMO:    -249.5099409
grad norm     :       0.2031028
total E       :    -246.5030496
atomizationE  :      45.8776165    28788.64
(atE without considering molecular charge,
 total energy contains solvation terms)
H-L gap (eV)  :          1.3797

------------------------------------------------------------------------
 * finished run on 2019/05/04 at 16:16:17.020     
------------------------------------------------------------------------
 total:
 * wall-time:     0 d,  0 h,  0 min,  3.229 sec
 *  cpu-time:     0 d,  0 h,  0 min,  3.032 sec
 * ratio c/w:     0.939 speedup
 SCF:
 * wall-time:     0 d,  0 h,  0 min,  2.975 sec
 *  cpu-time:     0 d,  0 h,  0 min,  2.863 sec
 * ratio c/w:     0.962 speedup

