      -----------------------------------------------------------      
     |                   =====================                   |     
     |                           x T B                           |     
     |                   =====================                   |     
     |                         S. Grimme                         |     
     |          Mulliken Center for Theoretical Chemistry        |     
     |                    University of Bonn                     |     
     |                 Version 6.0.1 (SAW181210)                 |     
      -----------------------------------------------------------      

   This program is distributed in the hope that it will be useful,
   but WITHOUT ANY WARRANTY; without even the implied warranty of
   MERCHANTABILITY or FITNESS FOR A PARTICULAR PURPOSE.
   
   FOR NON-COMMERCIAL, ACADEMIA USE ONLY.
   
   Cite this work as:
   S. Grimme, C. Bannwarth, P. Shushkov, J. Comput. Theory Chem., 2017,
   13, 1989-2009.
   C. Bannwarth, S. Ehlert and S. Grimme., ChemRxiv, 2018, preprint.
   http://doi.org/10.26434/chemrxiv.7246238.v1
   
   for sTDA-xTB:
   S. Grimme and C. Bannwarth, J. Chem. Phys., 2016, 145, 054103.
   
   in the mass-spec context:
   V. Asgeirsson, C. Bauer and S. Grimme, Chem. Sci., 2017, 8, 4879.
   
   if GBSA is used:
   P. Shushkov, F. März and S. Grimme, unpublished.
   
   for ANC optimizer:
   S. Grimme, unpublished.
   Rational Function algorithm used in ANCopt:
   F. Eckert, P. Pulay, H.-J. Werner, J. Comput. Chem., 1997, 18, 1473.
   
   with help from (in alphabetical order)
   C. Bannwarth, F. Bohle, G. Brandenburg, E. Caldeweyher, M. Checinski,
   S. Dohm, S. Ehlert, S. Ehrlich, F. März, H. Neugebauer, J. Pisarek,
   P. Pracht, P. Shushkov, and S. Spicher.
   
 * started run on 2019/05/09 at 17:00:52.111     
========================================================================
 # omp threads = 2
========================================================================
number of atoms            : 355
number of electrons        : 946
charge                     : 2
spin                       : .0
first test random number   : .3053

########################################################################
# WARNING! Please study the warnings concerning your input carefully
#  - Process number higher than OMP_NUM_THREADS, I hope you know what you are doing.
########################################################################

           ------------------------------------------------- 
          |                 G F N 2 - x T B                 |
          | Geometry, Frequencies, Noncovalent interactions |
          |            JCTC 2018 parametrisation            |
           ------------------------------------------------- 
 
      method parameters     
 k(s)        :  1.8500
 k(p)        :  2.2300
 k(d)        :  2.2300
 k(f)        :  2.0000
 kEN (H0ij)  : -2.0000
 D4 a1       :  0.5200
 D4 a2       :  5.0000
 D4 s6       :  1.0000
 D4 s8       :  2.7000
 D4 s9       :  5.0000
 alphaj      :  2.0000

 Solvent             : h2o
 Using internal parameter file: .param_gbsa2_h2o
 Gsolv ref. state (COSMO-RS): gsolv [1 M gas/solution]
 temperature (mdtemp)       :    298.150000000000     
 dielectric constant        :    80.2000000000000     
 rho                        :    1.00000000000000     
 mass                       :    18.0000000000000     
 surface tension            :    15.5689454083859     
 probe radius               :   0.975313790000000     
 vdW radii scaling          :    1.00000000000000     
 Gshift (Eh)                :   1.857443126794793E-003
 c1                         :    1.55243817000000     
 soset                      :   0.130326360000000     
 HB correction              :  T

            Z     q(EN)     CN     RAES       Cart. coordinates
     1  N   5.0   -0.21    3.21    1.96   120.51824     4.13258    42.46792
     2  C   4.0    0.03    4.26    4.12   120.35701     5.22868    45.00842
     3  C   4.0    0.15    3.44    3.09   121.08255     3.24432    46.98924
     4  O   6.0   -0.28    1.26    1.80   121.25699     3.86295    49.21171
     5  C   4.0   -0.03    4.16    3.93   117.73815     6.38627    45.71758
     6  C   4.0   -0.02    4.10    3.80   117.92968     8.90302    47.17301
     7  C   4.0    0.27    3.03    3.02   115.50262    10.25521    48.36726
     8  O   6.0   -0.25    1.15    1.80   113.82074     9.07515    49.47295
     9  O   6.0   -0.23    1.18    1.80   115.55845    12.58515    48.19655
    10  H   1.0    0.09    1.02    1.43   119.01393     4.56685    41.35327
    11  H   1.0    0.06    1.05    1.44   121.74420     6.76185    45.20728
    12  H   1.0    0.06    1.02    1.43   116.65247     6.67029    43.98681
    13  H   1.0    0.06    1.03    1.43   116.69658     5.03139    46.87224
    14  H   1.0    0.07    1.02    1.43   119.19546     8.61981    48.78201
    15  H   1.0    0.07    1.03    1.43   118.74182    10.37275    45.96755
    16  N   5.0   -0.12    3.44    2.04   121.45094     0.83831    46.23091
    17  C   4.0    0.04    4.45    4.46   120.94689    -1.14341    48.04520
    18  C   4.0    0.16    3.35    3.06   122.96353    -3.19086    48.30851
    19  O   6.0   -0.29    1.19    1.80   124.64431    -3.55828    46.80618
    20  C   4.0   -0.03    4.27    4.14   118.41236    -2.46133    47.38599
    21  C   4.0   -0.02    3.61    3.17   115.99311    -1.01958    48.01536
    22  C   4.0   -0.00    3.63    3.18   115.78952     1.15351    49.41093
    23  C   4.0    0.01    3.90    3.46   113.42898    -1.93884    47.76007
    24  N   5.0   -0.11    3.49    2.07   113.33889     1.61533    50.06833
    25  C   4.0    0.04    3.89    3.44   111.85704    -0.26248    49.13678
    26  C   4.0   -0.04    3.55    3.14   112.29598    -4.02582    46.58914
    27  C   4.0   -0.03    3.40    3.08   109.31580    -0.77575    49.57641
    28  C   4.0   -0.03    3.38    3.07   109.73808    -4.42965    46.86746
    29  C   4.0   -0.03    3.36    3.07   108.25903    -2.87094    48.41696
    30  H   1.0    0.08    1.08    1.44   121.28578     0.48287    44.35929
    31  H   1.0    0.07    1.08    1.44   120.79642    -0.16856    49.86735
    32  H   1.0    0.05    1.03    1.43   118.53591    -2.98853    45.39808
    33  H   1.0    0.05    1.04    1.43   118.29591    -4.22517    48.45731
    34  H   1.0    0.07    1.03    1.43   117.23887     2.40743    50.07700
    35  H   1.0    0.10    1.05    1.44   112.75392     3.18840    50.96396
    36  H   1.0    0.06    1.08    1.44   113.44662    -5.41037    45.65164
    37  H   1.0    0.07    1.03    1.43   108.21494     0.46360    50.76642
    38  H   1.0    0.05    1.03    1.43   108.86438    -6.02851    45.95939
    39  H   1.0    0.06    1.03    1.43   106.28318    -3.28883    48.69638
    40  N   5.0   -0.14    3.43    2.03   122.52527    -4.58074    50.45071
    41  C   4.0    0.03    4.36    4.32   122.70808    -7.31260    50.70170
    42  C   4.0    0.14    3.40    3.08   121.14824    -8.35117    52.96861
    43  O   6.0   -0.29    1.22    1.80   119.88760    -7.09290    54.43304
    44  C   4.0    0.04    4.18    3.96   125.43680    -8.28930    50.91457
    45  O   6.0   -0.27    2.17    1.85   125.44881   -10.89355    50.31627
    46  H   1.0    0.09    1.09    1.44   121.19232    -3.88894    51.64316
    47  H   1.0    0.05    1.05    1.44   121.88872    -8.15279    48.98303
    48  H   1.0    0.06    1.01    1.43   126.61331    -7.23074    49.58870
    49  H   1.0    0.05    1.01    1.43   126.13188    -7.95332    52.83914
    50  H   1.0    0.13    1.02    1.43   127.17038   -11.50833    50.35648
    51  N   5.0   -0.14    3.63    2.18   121.35098   -10.85072    53.01501
    52  C   4.0    0.03    4.39    4.36   120.06026   -12.56966    54.68686
    53  C   4.0    0.15    3.34    3.06   120.95287   -15.18138    53.61618
    54  O   6.0   -0.30    1.23    1.80   120.67603   -15.56595    51.36140
    55  C   4.0   -0.02    4.35    4.29   117.20325   -12.02154    54.45901
    56  C   4.0   -0.01    3.56    3.15   115.70154   -13.22468    56.51987
    57  C   4.0   -0.04    3.47    3.10   115.92701   -12.34098    58.97988
    58  C   4.0   -0.04    3.46    3.10   114.14078   -15.27106    55.99998
    59  C   4.0   -0.03    3.37    3.07   114.64945   -13.54772    60.91193
    60  C   4.0   -0.03    3.37    3.07   112.84938   -16.46306    57.92935
    61  C   4.0   -0.03    3.38    3.07   113.12891   -15.61659    60.39202
    62  H   1.0    0.11    1.18    1.46   122.62403   -11.63532    51.80387
    63  H   1.0    0.05    1.04    1.43   120.66040   -12.28978    56.65165
    64  H   1.0    0.07    1.05    1.44   116.97359    -9.97618    54.55526
    65  H   1.0    0.05    1.03    1.43   116.54673   -12.67249    52.61915
    66  H   1.0    0.06    1.03    1.43   117.05990   -10.68624    59.36610
    67  H   1.0    0.05    1.03    1.43   113.92262   -15.91822    54.07950
    68  H   1.0    0.06    1.03    1.43   114.77943   -12.84682    62.82616
    69  H   1.0    0.06    1.03    1.43   111.60751   -18.02934    57.52491
    70  H   1.0    0.06    1.03    1.43   112.10778   -16.52564    61.90689
    71  N   5.0   -0.14    3.41    2.02   122.18850   -16.63656    55.29235
    72  C   4.0    0.03    4.34    4.27   123.55127   -19.11539    55.64496
    73  C   4.0    0.16    3.27    3.05   123.55519   -21.00882    53.39330
    74  O   6.0   -0.28    1.18    1.80   122.41240   -22.99553    53.30263
    75  C   4.0   -0.02    4.23    4.07   122.80422   -20.16424    58.29414
    76  C   4.0   -0.02    3.74    3.27   123.36466   -18.03772    60.10708
    77  C   4.0   -0.01    3.67    3.21   121.67456   -16.13519    60.68336
    78  C   4.0    0.01    3.83    3.37   125.84122   -17.07744    60.78355
    79  N   5.0   -0.12    3.45    2.05   122.91455   -14.03944    61.58241
    80  C   4.0    0.04    3.84    3.39   125.46517   -14.55645    61.67060
    81  C   4.0   -0.03    3.38    3.07   128.32052   -18.05304    60.71811
    82  C   4.0   -0.04    3.38    3.07   127.50871   -13.02552    62.34331
    83  C   4.0   -0.03    3.35    3.06   130.32144   -16.52754    61.42341
    84  C   4.0   -0.03    3.36    3.07   129.91990   -14.02649    62.20490
    85  H   1.0    0.08    1.20    1.47   122.29789   -15.79421    57.01903
    86  H   1.0    0.05    1.07    1.44   125.54681   -18.56066    55.84898
    87  H   1.0    0.06    1.02    1.43   120.80905   -20.67432    58.35781
    88  H   1.0    0.06    1.02    1.43   123.93880   -21.82549    58.70238
    89  H   1.0    0.05    1.02    1.43   119.64885   -16.14557    60.52842
    90  H   1.0    0.08    1.05    1.44   122.05581   -12.49551    62.28207
    91  H   1.0    0.06    1.03    1.43   128.63415   -19.96357    60.08095
    92  H   1.0    0.06    1.02    1.43   127.18413   -11.10468    62.95434
    93  H   1.0    0.07    1.03    1.43   132.22601   -17.25057    61.36564
    94  H   1.0    0.07    1.03    1.43   131.50636   -12.85616    62.73379
    95  N   5.0   -0.12    3.38    2.01   125.15927   -20.16234    51.57512
    96  C   4.0    0.01    4.18    3.97   124.86083   -20.31369    48.85272
    97  C   4.0    0.15    3.26    3.05   125.40580   -17.57948    47.81856
    98  O   6.0   -0.30    1.21    1.80   127.54096   -16.78072    48.12163
    99  H   1.0    0.09    1.09    1.44   126.29563   -18.70449    52.08021
   100  H   1.0    0.05    1.02    1.43   126.34077   -21.56118    48.12968
   101  H   1.0    0.05    1.03    1.43   122.98246   -21.04427    48.46743
   102  N   5.0   -0.14    3.32    1.99   123.48673   -16.39808    46.56443
   103  C   4.0    0.03    4.37    4.33   123.23199   -13.67294    45.82925
   104  C   4.0    0.14    3.45    3.09   120.87944   -13.22388    44.15072
   105  O   6.0   -0.31    1.29    1.80   120.60033   -13.99077    41.99682
   106  C   4.0   -0.01    4.28    4.15   125.62106   -12.56691    44.50465
   107  C   4.0   -0.04    4.17    3.94   125.63393    -9.64952    44.66166
   108  C   4.0   -0.06    4.11    3.82   125.90852   -13.44183    41.72719
   109  C   4.0   -0.07    4.00    3.62   128.29389    -8.53368    44.90880
   110  H   1.0    0.08    1.08    1.44   121.74478   -17.11194    46.89971
   111  H   1.0    0.06    1.07    1.44   122.96398   -12.61732    47.57924
   112  H   1.0    0.06    1.06    1.44   127.22198   -13.26516    45.60817
   113  H   1.0    0.06    1.03    1.43   124.72701    -8.85179    42.98625
   114  H   1.0    0.06    1.04    1.43   124.51247    -8.99424    46.24034
   115  H   1.0    0.04    1.00    1.43   127.54078   -12.48955    40.92248
   116  H   1.0    0.05    1.00    1.43   126.03771   -15.48430    41.62341
   117  H   1.0    0.07    1.01    1.43   124.29012   -12.85602    40.61051
   118  H   1.0    0.07    1.00    1.43   128.13940    -6.50987    45.22629
   119  H   1.0    0.05    1.00    1.43   129.32389    -9.36117    46.48221
   120  H   1.0    0.04    1.00    1.43   129.37472    -8.80375    43.18097
   121  N   5.0   -0.14    3.54    2.11   119.00995   -11.94250    45.29476
   122  C   4.0    0.04    4.52    4.57   117.01870   -11.04564    43.68006
   123  C   4.0    0.15    3.41    3.08   117.50668    -8.26763    43.07518
   124  O   6.0   -0.30    1.24    1.80   119.57922    -7.30645    43.30384
   125  C   4.0   -0.05    4.31    4.22   114.39053   -11.58967    44.80110
   126  C   4.0   -0.05    4.27    4.14   114.36495   -13.93147    46.42207
   127  C   4.0   -0.05    4.19    3.98   115.02519   -16.26192    44.88367
   128  C   4.0   -0.04    4.15    3.90   115.97978   -18.21954    46.76143
   129  N   5.0   -0.12    3.99    2.83   116.71653   -20.72338    45.64746
   130  H   1.0    0.08    1.06    1.44   119.30116   -10.97505    46.91176
   131  H   1.0    0.07    1.09    1.44   117.24364   -12.04147    41.87242
   132  H   1.0    0.04    1.03    1.43   113.79272    -9.98395    45.95429
   133  H   1.0    0.04    1.03    1.43   113.05114   -11.82744    43.25684
   134  H   1.0    0.05    1.04    1.43   115.71651   -13.69062    47.95769
   135  H   1.0    0.04    1.03    1.43   112.49674   -14.12451    47.26871
   136  H   1.0    0.04    1.02    1.43   113.36449   -16.93188    43.87093
   137  H   1.0    0.06    1.04    1.43   116.48982   -15.83616    43.49991
   138  H   1.0    0.05    1.02    1.43   117.61027   -17.45538    47.77661
   139  H   1.0    0.04    1.03    1.43   114.50967   -18.58411    48.16198
   140  H   1.0    0.06    1.02    1.43   117.20568   -21.94185    47.08658
   141  H   1.0    0.05    1.03    1.43   115.19213   -21.47718    44.68437
   142  H   1.0    0.05    1.02    1.43   118.15713   -20.51000    44.34915
   143  N   5.0   -0.15    3.51    2.09   115.32525    -7.05996    42.45854
   144  C   4.0    0.03    4.43    4.43   115.25744    -4.50088    41.53430
   145  C   4.0    0.14    3.42    3.09   112.81826    -2.85836    41.92027
   146  O   6.0   -0.32    1.22    1.80   110.64739    -3.38610    41.43479
   147  C   4.0   -0.03    4.34    4.27   116.02253    -4.65344    38.74037
   148  C   4.0   -0.00    3.53    3.13   118.85008    -4.84694    38.33786
   149  C   4.0   -0.03    3.44    3.09   119.89696    -6.51411    36.57681
   150  C   4.0   -0.03    3.47    3.10   120.44603    -3.09624    39.47772
   151  C   4.0   -0.03    3.40    3.08   122.43325    -6.39032    35.90707
   152  C   4.0   -0.03    3.43    3.09   122.99662    -3.02048    38.87511
   153  C   4.0    0.07    3.40    3.08   124.04996    -4.62512    37.05192
   154  O   6.0   -0.23    2.09    1.84   126.57974    -4.46459    36.45549
   155  H   1.0    0.08    1.08    1.44   113.83235    -8.14107    41.95543
   156  H   1.0    0.04    1.09    1.44   116.77074    -3.51772    42.52551
   157  H   1.0    0.05    1.04    1.43   115.09582    -6.30301    37.91325
   158  H   1.0    0.04    1.04    1.43   115.34489    -2.98384    37.74414
   159  H   1.0    0.07    1.03    1.43   118.70927    -7.88443    35.64445
   160  H   1.0    0.05    1.03    1.43   119.74395    -1.69474    40.78739
   161  H   1.0    0.07    1.03    1.43   123.16501    -7.64399    34.47901
   162  H   1.0    0.06    1.03    1.43   124.19285    -1.64060    39.79838
   163  H   1.0    0.13    1.04    1.43   127.36691    -3.17081    37.47245
   164  N   5.0   -0.15    3.54    2.11   113.59410    -0.47561    42.52674
   165  C   4.0    0.02    4.23    4.06   112.09059     1.76795    42.54398
   166  C   4.0    0.15    3.34    3.06   112.57003     3.22855    40.10876
   167  O   6.0   -0.26    1.21    1.80   111.30353     5.10096    39.55870
   168  H   1.0    0.07    1.08    1.44   115.26559    -0.28922    43.42658
   169  H   1.0    0.06    1.03    1.43   110.08486     1.26201    42.61338
   170  H   1.0    0.05    1.02    1.43   112.48776     2.95606    44.18710
   171  N   5.0   -0.14    3.51    2.09   114.19203     2.14228    38.49709
   172  C   4.0    0.03    4.38    4.35   114.04554     2.46610    35.73932
   173  C   4.0    0.16    3.39    3.08   111.35493     2.01962    34.71574
   174  O   6.0   -0.26    1.22    1.80   110.55267     3.38185    33.03900
   175  C   4.0   -0.05    4.40    4.37   115.98109     0.69909    34.57166
   176  C   4.0   -0.02    4.20    4.00   116.75737     1.40508    31.91148
   177  C   4.0   -0.06    4.10    3.81   119.45889     0.51933    31.40899
   178  C   4.0   -0.06    4.13    3.86   114.90309     0.26913    30.03013
   179  H   1.0    0.07    1.10    1.44   115.24841     0.68644    39.13827
   180  H   1.0    0.07    1.05    1.44   114.49468     4.43299    35.26798
   181  H   1.0    0.04    1.04    1.43   117.65335     0.76417    35.78361
   182  H   1.0    0.04    1.04    1.43   115.25032    -1.22710    34.55317
   183  H   1.0    0.06    1.06    1.44   116.72707     3.46995    31.73971
   184  H   1.0    0.06    1.00    1.43   120.05971     1.10738    29.53632
   185  H   1.0    0.05    1.00    1.43   120.76212     1.30457    32.78539
   186  H   1.0    0.05    1.00    1.43   119.56114    -1.53417    31.50608
   187  H   1.0    0.06    1.00    1.43   115.64546     0.46652    28.12446
   188  H   1.0    0.05    1.03    1.43   114.60660    -1.70914    30.44504
   189  H   1.0    0.07    1.01    1.43   113.11281     1.25969    30.13278
   190  N   5.0   -0.14    3.37    2.01   109.95585     0.16638    35.82630
   191  C   4.0    0.04    4.28    4.16   107.16996     0.12400    35.85197
   192  C   4.0    0.11    3.33    3.06   105.99461     2.70786    36.19068
   193  O   6.0   -0.24    1.12    1.80   104.38641     3.53939    34.73046
   194  C   4.0   -0.03    4.30    4.21   105.93636    -1.33753    38.08662
   195  C   4.0   -0.01    3.53    3.13   103.05883    -1.45343    37.76692
   196  C   4.0   -0.02    3.48    3.11   101.91842    -2.35142    35.56275
   197  C   4.0   -0.03    3.46    3.10   101.42770    -0.85791    39.72736
   198  C   4.0   -0.02    3.39    3.07    99.31736    -2.53321    35.30650
   199  C   4.0   -0.02    3.39    3.08    98.81098    -1.06256    39.46818
   200  C   4.0   -0.02    3.34    3.06    97.70456    -1.85079    37.24453
   201  H   1.0    0.09    1.07    1.44   110.73214    -0.88319    37.22369
   202  H   1.0    0.06    1.05    1.44   106.54068    -0.67828    34.05443
   203  H   1.0    0.05    1.02    1.43   106.69346    -3.25840    38.10557
   204  H   1.0    0.05    1.03    1.43   106.41133    -0.50071    39.90242
   205  H   1.0    0.06    1.03    1.43   103.08123    -2.94818    33.99811
   206  H   1.0    0.06    1.03    1.43   102.19501    -0.22620    41.51362
   207  H   1.0    0.07    1.03    1.43    98.56322    -3.11276    33.49762
   208  H   1.0    0.07    1.03    1.43    97.64323    -0.56457    41.06978
   209  H   1.0    0.07    1.03    1.43    95.68285    -1.97427    37.04718
   210  N   5.0   -0.21    3.21    1.96   111.17678   -11.76114    30.94376
   211  C   4.0    0.03    4.32    4.24   112.90361   -10.76588    32.87766
   212  C   4.0    0.14    3.36    3.07   112.48011   -11.76844    35.57704
   213  O   6.0   -0.31    1.21    1.80   114.20491   -11.87306    37.11509
   214  C   4.0   -0.04    4.30    4.19   112.77824    -7.87189    32.90840
   215  C   4.0    0.15    3.22    3.04   114.20734    -6.75753    30.63844
   216  O   6.0   -0.29    1.19    1.80   116.44929    -7.23551    30.30384
   217  N   5.0   -0.19    3.18    1.95   112.84836    -5.16365    29.15747
   218  H   1.0    0.09    1.02    1.43   109.47554   -10.90189    30.78594
   219  H   1.0    0.06    1.06    1.44   114.81276   -11.33506    32.31130
   220  H   1.0    0.04    1.03    1.43   110.83436    -7.24055    32.96984
   221  H   1.0    0.05    1.04    1.43   113.76718    -7.20706    34.59040
   222  H   1.0    0.11    1.03    1.43   113.62978    -4.62101    27.51051
   223  H   1.0    0.09    1.03    1.43   110.96213    -5.02705    29.46582
   224  N   5.0   -0.15    3.53    2.10   110.06774   -12.37261    36.02059
   225  C   4.0    0.03    4.49    4.52   109.13770   -13.64712    38.23301
   226  C   4.0    0.07    3.25    3.04   108.58074   -16.42282    37.72141
   227  O   6.0   -0.32    1.21    1.80   110.11335   -18.03319    38.38063
   228  C   4.0   -0.03    4.39    4.36   106.93621   -12.11613    39.20924
   229  C   4.0   -0.05    4.29    4.18   108.23970    -9.92501    40.52860
   230  C   4.0   -0.07    4.16    3.92   105.31371   -13.60747    40.98564
   231  C   4.0   -0.07    4.02    3.65   106.50014    -7.75642    41.23443
   232  H   1.0    0.08    1.09    1.44   108.80369   -12.19745    34.59490
   233  H   1.0    0.06    1.08    1.44   110.68958   -13.65333    39.60865
   234  H   1.0    0.04    1.06    1.44   105.81702   -11.42104    37.62274
   235  H   1.0    0.04    1.03    1.43   109.14427   -10.62100    42.24430
   236  H   1.0    0.05    1.04    1.43   109.70314    -9.17444    39.27670
   237  H   1.0    0.04    1.00    1.43   103.89147   -12.37114    41.80830
   238  H   1.0    0.05    1.00    1.43   104.32001   -15.14297    40.06937
   239  H   1.0    0.04    1.00    1.43   106.46504   -14.40308    42.49374
   240  H   1.0    0.06    1.01    1.43   107.58628    -6.14090    41.87580
   241  H   1.0    0.04    1.00    1.43   105.36183    -7.17844    39.62196
   242  H   1.0    0.04    1.00    1.43   105.21427    -8.29662    42.74290
   243  N   5.0   -0.14    3.53    2.10   113.68811   -20.88714    35.14268
   244  C   4.0    0.03    4.54    4.59   115.63873   -21.78573    36.78696
   245  C   4.0    0.15    3.46    3.10   114.40431   -23.77055    38.46296
   246  O   6.0   -0.29    1.30    1.80   115.59319   -25.63469    39.18973
   247  C   4.0   -0.04    4.37    4.33   116.57708   -19.45066    38.15152
   248  C   4.0   -0.04    4.28    4.16   116.40159   -17.44642    36.13883
   249  C   4.0    0.00    4.45    4.46   113.93414   -18.18552    34.81532
   250  H   1.0    0.05    1.05    1.44   117.15546   -22.73321    35.73933
   251  H   1.0    0.05    1.03    1.43   115.23859   -18.99370    39.65251
   252  H   1.0    0.04    1.02    1.43   118.47784   -19.70047    38.88305
   253  H   1.0    0.07    1.03    1.43   116.28943   -15.52830    36.86676
   254  H   1.0    0.05    1.02    1.43   117.97256   -17.55359    34.81110
   255  H   1.0    0.08    1.08    1.44   112.36189   -17.21288    35.67155
   256  H   1.0    0.05    1.02    1.43   113.96762   -17.68001    32.80857
   257  N   5.0   -0.14    3.44    2.04   112.02529   -23.36641    39.30342
   258  C   4.0    0.04    4.42    4.41   111.17030   -25.04043    41.39942
   259  C   4.0    0.11    3.33    3.06   111.33943   -27.73227    40.59356
   260  O   6.0   -0.29    1.22    1.80   112.69207   -29.23820    41.70476
   261  C   4.0   -0.05    4.36    4.31   108.55191   -24.49053    42.44289
   262  C   4.0   -0.02    4.23    4.07   108.53477   -21.76004    43.37959
   263  C   4.0   -0.07    4.11    3.82   105.80839   -21.06572    43.97290
   264  C   4.0   -0.08    4.12    3.84   110.34562   -21.39071    45.57216
   265  H   1.0    0.10    1.07    1.44   110.96508   -21.89222    38.68819
   266  H   1.0    0.06    1.08    1.44   112.61127   -24.90690    42.88182
   267  H   1.0    0.05    1.03    1.43   107.15762   -24.73752    40.94920
   268  H   1.0    0.05    1.03    1.43   108.14529   -25.81185    43.96514
   269  H   1.0    0.06    1.07    1.44   109.14067   -20.56286    41.80624
   270  H   1.0    0.04    1.00    1.43   105.67134   -19.12572    44.64149
   271  H   1.0    0.05    1.00    1.43   104.63476   -21.26226    42.30121
   272  H   1.0    0.05    1.00    1.43   105.04831   -22.30197    45.43000
   273  H   1.0    0.04    1.00    1.43   110.68724   -19.39504    45.86002
   274  H   1.0    0.05    1.00    1.43   109.49142   -22.15771    47.28476
   275  H   1.0    0.04    1.02    1.43   112.07282   -22.42342    45.25213
   276  N   5.0   -0.19    3.20    1.96   117.64797   -30.64876    41.16595
   277  C   4.0    0.04    4.26    4.13   118.84509   -31.02633    43.60664
   278  C   4.0    0.10    3.21    3.04   117.45632   -32.94596    45.23823
   279  O   6.0   -0.25    1.14    1.80   118.75395   -34.08115    46.77498
   280  C   4.0   -0.04    4.25    4.10   119.28581   -28.63251    45.19395
   281  C   4.0   -0.04    4.22    4.04   121.11155   -26.93176    43.75531
   282  C   4.0   -0.05    4.15    3.90   122.06844   -24.69529    45.28976
   283  C   4.0   -0.04    4.12    3.84   123.12613   -22.65378    43.52720
   284  N   5.0   -0.12    4.01    2.88   125.85853   -23.05543    42.92216
   285  H   1.0    0.14    1.08    1.44   115.85789   -29.97847    41.12656
   286  H   1.0    0.06    1.06    1.44   120.68156   -31.89344    43.18367
   287  H   1.0    0.05    1.02    1.43   117.47766   -27.69670    45.51187
   288  H   1.0    0.06    1.03    1.43   120.07546   -29.26177    46.98584
   289  H   1.0    0.05    1.03    1.43   122.68048   -28.10377    43.12107
   290  H   1.0    0.05    1.03    1.43   120.11326   -26.30297    42.05848
   291  H   1.0    0.04    1.03    1.43   120.50974   -23.96836    46.40297
   292  H   1.0    0.05    1.03    1.43   123.50667   -25.33170    46.61874
   293  H   1.0    0.04    1.03    1.43   122.09673   -22.70550    41.73767
   294  H   1.0    0.04    1.02    1.43   122.99560   -20.75904    44.32805
   295  H   1.0    0.06    1.02    1.43   126.52925   -21.66544    41.73834
   296  H   1.0    0.06    1.02    1.43   126.94412   -23.07451    44.54152
   297  H   1.0    0.06    1.02    1.43   126.08623   -24.77659    42.03057
   298  N   5.0   -0.20    3.24    1.96   141.01721    -8.85599    40.13457
   299  C   4.0    0.04    4.25    4.09   139.15591    -6.97952    39.43499
   300  C   4.0    0.10    3.22    3.04   139.08244    -4.79163    41.30127
   301  O   6.0   -0.27    1.16    1.80   137.13149    -3.70082    41.71695
   302  C   4.0   -0.03    4.32    4.23   136.56451    -8.16897    39.17036
   303  C   4.0   -0.04    4.22    4.04   135.83738    -9.70965    41.50800
   304  C   4.0   -0.05    4.20    4.01   134.35609   -12.02169    40.63378
   305  C   4.0   -0.03    4.12    3.84   133.81473   -13.83248    42.79751
   306  N   5.0   -0.12    4.02    2.91   132.02148   -15.81624    41.91276
   307  H   1.0    0.09    1.04    1.43   140.43557   -10.50347    40.88811
   308  H   1.0    0.06    1.05    1.44   139.79395    -6.17668    37.62892
   309  H   1.0    0.06    1.03    1.43   135.19793    -6.66441    38.85704
   310  H   1.0    0.05    1.03    1.43   136.58666    -9.37359    37.49658
   311  H   1.0    0.05    1.04    1.43   137.47797   -10.32707    42.59099
   312  H   1.0    0.05    1.02    1.43   134.70582    -8.54787    42.77935
   313  H   1.0    0.04    1.03    1.43   132.59220   -11.34771    39.80494
   314  H   1.0    0.05    1.03    1.43   135.42694   -12.99984    39.16758
   315  H   1.0    0.05    1.02    1.43   135.55433   -14.73919    43.43315
   316  H   1.0    0.04    1.02    1.43   132.97237   -12.82547    44.38301
   317  H   1.0    0.07    1.02    1.43   131.81860   -17.21123    43.25745
   318  H   1.0    0.05    1.03    1.43   130.26164   -15.04995    41.53580
   319  H   1.0    0.06    1.02    1.43   132.69071   -16.62857    40.26994
   320  N   5.0   -0.18    3.19    1.95   114.31106    -8.75912    75.65527
   321  C   4.0    0.04    4.20    4.00   111.83223    -7.39635    75.30265
   322  C   4.0    0.10    3.10    3.02   109.93880    -7.39243    77.55432
   323  O   6.0   -0.24    1.11    1.80   107.95209    -8.53522    77.64499
   324  C   4.0   -0.02    4.23    4.07   110.78338    -8.14340    72.65348
   325  C   4.0   -0.02    3.74    3.27   112.90990    -7.58296    70.84054
   326  C   4.0   -0.01    3.67    3.21   114.81243    -9.27306    70.26426
   327  C   4.0    0.01    3.83    3.37   113.87018    -5.10640    70.16406
   328  N   5.0   -0.12    3.45    2.05   116.90818    -8.03307    69.36521
   329  C   4.0    0.04    3.84    3.39   116.39117    -5.48245    69.27701
   330  C   4.0   -0.03    3.38    3.07   112.89458    -2.62709    70.22951
   331  C   4.0   -0.03    3.38    3.07   117.92210    -3.43891    68.60431
   332  C   4.0   -0.02    3.35    3.06   114.42008    -0.62618    69.52420
   333  C   4.0   -0.02    3.36    3.07   116.92113    -1.02771    68.74272
   334  H   1.0    0.09    1.14    1.45   115.15341    -8.64973    73.92859
   335  H   1.0    0.05    1.06    1.44   112.38696    -5.40081    75.09864
   336  H   1.0    0.07    1.02    1.43   110.27330   -10.13857    72.58980
   337  H   1.0    0.06    1.02    1.43   109.12213    -7.00882    72.24524
   338  H   1.0    0.06    1.02    1.43   114.80205   -11.29877    70.41920
   339  H   1.0    0.08    1.05    1.44   118.45211    -8.89181    68.66555
   340  H   1.0    0.06    1.03    1.43   110.98405    -2.31347    70.86667
   341  H   1.0    0.06    1.02    1.43   119.84294    -3.76349    67.99328
   342  H   1.0    0.07    1.03    1.43   113.69705     1.27839    69.58198
   343  H   1.0    0.07    1.03    1.43   118.09146     0.55874    68.21383
   344  H   1.0    0.11    1.07    1.44   121.91508     4.70991    41.68812
   345  H   1.0    0.08    1.05    1.44   106.51962     3.80219    37.63908
   346  H   1.0    0.11    1.07    1.44   111.90349   -11.62927    29.41174
   347  H   1.0    0.05    1.04    1.43   106.97687   -16.92058    36.85486
   348  H   1.0    0.09    1.22    1.47   114.12726   -21.18255    33.52637
   349  H   1.0    0.07    1.05    1.44   110.33306   -28.34075    39.11436
   350  H   1.0    0.11    1.08    1.44   118.55193   -29.53101    40.25708
   351  H   1.0    0.08    1.04    1.43   115.59875   -33.20980    45.01263
   352  H   1.0    0.11    1.07    1.44   141.90912    -9.31100    38.75979
   353  H   1.0    0.07    1.05    1.44   140.66139    -4.25388    42.18943
   354  H   1.0    0.11    1.06    1.44   115.22110    -7.97913    76.86191
   355  H   1.0    0.08    1.05    1.44   110.31786    -6.38242    79.10585

  Z AO/shell   Hii/eV     exponent
  1     Wed Apr 25 08:07:45 CEST 2018   EN: 2.200 GM2: 0.406  GM3: 0.0800  RAES: 1.40
     1s    -10.707211    1.230000
  6     Wed Apr 25 08:07:45 CEST 2018   EN: 2.550 GM2: 0.538  GM3: 0.1500  RAES: 3.00
     2s    -13.970922    2.096432
     2p    -10.063292    1.800000
  7     Wed Apr 25 08:07:45 CEST 2018   EN: 3.040 GM2: 0.461  GM3:-0.0640  RAES: 1.90
     2s    -16.686243    2.339881
     2p    -12.523956    2.014332
  8     Wed Apr 25 08:07:45 CEST 2018   EN: 3.440 GM2: 0.452  GM3:-0.0517  RAES: 1.80
     2s    -20.229985    2.439742
     2p    -15.503117    2.137023
 no old-style atom pair restraining (fixing) potential

molecular fragmentation (1/2 indicates fragments):
111111111111111111111111111111111111111111111111111111111111111111111111
111111111111111111111111111111111111111111111111111111111111111111111111
111111111111111111111111111111111111111111111111111111111111111112222222
222222222222222222222222222222222222222222222222222222222222222222222222
2222222222222222222222222222222222222222222222222222222112222222222
# atoms in fragment 1/2:   211   144
 fragment masses (1/2) :     1516.76      892.19
CMA distance (Bohr)    :   8.480
constraining FC (au)   :  0.0500
           ------------------------------------------------- 
          |        Self-Consistent Charge Iterations        |
           ------------------------------------------------- 

 Ncao       : 874
 Nao        : 874
 Nshell     : 528
 Nel        : 946
 T(el)      :   500.0
 intcut     :    35.0
 scfconv/Eh :  0.100E-06
   qconv/e  :  0.100E-04
 intneglect :  0.100E-08
 broydamp   :      0.400
 iter      E             dE          RMSdq      gap      omega  full diag
   1   -534.9278147 -0.534928E+03  0.442E+00    2.81       0.0  T
   2   -536.0151256 -0.108731E+01  0.219E+00    1.56       1.0  T
   3   -536.0738074 -0.586818E-01  0.122E+00    2.00       1.0  T
   4   -536.1658426 -0.920352E-01  0.302E-01    1.18       1.0  T
   5   -536.1772722 -0.114296E-01  0.165E-01    1.33       1.0  T
   6   -536.1803535 -0.308134E-02  0.801E-02    1.36       1.0  T
   7   -536.1809282 -0.574639E-03  0.374E-02    1.29       1.0  T
   8   -536.1810293 -0.101104E-03  0.195E-02    1.29       1.0  T
   9   -536.1810620 -0.326995E-04  0.854E-03    1.27       1.0  T
  10   -536.1810688 -0.677253E-05  0.399E-03    1.27       1.3  T
  11   -536.1810699 -0.114673E-05  0.183E-03    1.28       2.9  T
  12   -536.1810702 -0.316301E-06  0.785E-04    1.28       6.8  T
  13   -536.1810703 -0.514225E-07  0.363E-04    1.28      14.6  T
  14   -536.1810703 -0.777072E-08  0.193E-04    1.28      27.5  T
  15   -536.1810703 -0.320540E-08  0.706E-05    1.28      75.1  T
  16   -536.1810703 -0.547971E-09  0.364E-05    1.28     145.8  T
speedup  1.96
cpu  time for SCC   14.49 s
wall time for SCC    7.41 s

   *** convergence criteria satisfied after 16 iterations ***

          eigenvalues
 #    :         461        462        463        464        465        466        467        468
 occ. :        2.000      2.000      2.000      2.000      2.000      2.000      2.000      2.000
 eps  :       -10.555    -10.547    -10.395    -10.342    -10.269    -10.203    -10.103    -10.063
 #    :         469        470        471        472        473        474        475        476
 occ. :        2.000      2.000      2.000      2.000      2.000      0.000      0.000      0.000
 eps  :        -9.886     -9.876     -9.804     -9.539     -9.322     -8.046     -7.953     -7.788
 #    :         477        478        479        480        481        482        483        484
 occ. :        0.000      0.000      0.000      0.000      0.000      0.000      0.000      0.000
 eps  :        -7.469     -7.337     -7.217     -7.061     -6.937     -6.742     -6.621     -6.557


   #   Z            q   n(s)   n(p)   n(d)      C6AA      α(0)
   1   7 N     -0.383  1.316  4.067  0.000    29.915     8.123
   2   6 C      0.027  1.064  2.909  0.000    20.136     6.393
   3   6 C      0.274  1.050  2.676  0.000    22.367     7.745
   4   8 O     -0.513  1.759  4.754  0.000    24.073     6.578
   5   6 C     -0.042  1.055  2.987  0.000    21.325     6.576
   6   6 C     -0.096  1.076  3.020  0.000    22.345     6.733
   7   6 C      0.373  1.029  2.599  0.000    20.686     7.442
   8   8 O     -0.639  1.762  4.877  0.000    27.107     6.980
   9   8 O     -0.652  1.773  4.879  0.000    27.429     7.022
  10   1 H      0.156  0.844  0.000  0.000     1.363     1.829
  11   1 H      0.028  0.972  0.000  0.000     2.609     2.526
  12   1 H      0.024  0.976  0.000  0.000     2.675     2.558
  13   1 H      0.030  0.970  0.000  0.000     2.592     2.518
  14   1 H      0.016  0.984  0.000  0.000     2.790     2.612
  15   1 H      0.009  0.991  0.000  0.000     2.899     2.663
  16   7 N     -0.172  1.251  3.921  0.000    24.716     7.384
  17   6 C      0.015  1.063  2.923  0.000    20.322     6.417
  18   6 C      0.281  1.041  2.678  0.000    22.245     7.723
  19   8 O     -0.412  1.731  4.682  0.000    21.932     6.279
  20   6 C     -0.073  1.059  3.014  0.000    21.892     6.661
  21   6 C     -0.054  1.073  2.982  0.000    29.316     8.881
  22   6 C     -0.001  1.067  2.934  0.000    28.015     8.681
  23   6 C     -0.028  1.076  2.952  0.000    28.536     8.751
  24   7 N     -0.116  1.226  3.890  0.000    23.518     7.203
  25   6 C      0.046  1.062  2.892  0.000    26.873     8.499
  26   6 C     -0.057  1.080  2.977  0.000    29.420     8.894
  27   6 C     -0.054  1.073  2.981  0.000    29.333     8.881
  28   6 C     -0.043  1.080  2.963  0.000    29.070     8.841
  29   6 C     -0.041  1.081  2.960  0.000    29.012     8.833
  30   1 H      0.215  0.785  0.000  0.000     1.033     1.592
  31   1 H      0.070  0.930  0.000  0.000     2.088     2.260
  32   1 H      0.069  0.931  0.000  0.000     2.093     2.262
  33   1 H      0.070  0.930  0.000  0.000     2.088     2.260
  34   1 H      0.015  0.985  0.000  0.000     2.803     2.618
  35   1 H      0.163  0.837  0.000  0.000     1.313     1.795
  36   1 H      0.063  0.937  0.000  0.000     2.166     2.301
  37   1 H      0.014  0.986  0.000  0.000     2.833     2.632
  38   1 H      0.069  0.931  0.000  0.000     2.096     2.264
  39   1 H      0.040  0.960  0.000  0.000     2.446     2.446
  40   7 N     -0.214  1.260  3.954  0.000    25.663     7.524
  41   6 C      0.014  1.069  2.917  0.000    20.357     6.425
  42   6 C      0.269  1.038  2.693  0.000    22.452     7.759
  43   8 O     -0.497  1.761  4.736  0.000    23.717     6.529
  44   6 C      0.058  1.041  2.901  0.000    19.817     6.378
  45   8 O     -0.445  1.701  4.745  0.000    21.749     6.296
  46   1 H      0.194  0.806  0.000  0.000     1.138     1.671
  47   1 H      0.071  0.929  0.000  0.000     2.072     2.251
  48   1 H      0.076  0.924  0.000  0.000     2.021     2.223
  49   1 H      0.035  0.965  0.000  0.000     2.519     2.482
  50   1 H      0.364  0.636  0.000  0.000     0.556     1.171
  51   7 N     -0.184  1.243  3.941  0.000    24.977     7.423
  52   6 C      0.019  1.074  2.906  0.000    20.262     6.411
  53   6 C      0.260  1.050  2.690  0.000    22.622     7.788
  54   8 O     -0.440  1.711  4.729  0.000    22.507     6.361
  55   6 C     -0.078  1.052  3.027  0.000    21.979     6.673
  56   6 C      0.008  1.080  2.912  0.000    27.842     8.655
  57   6 C     -0.043  1.078  2.965  0.000    29.063     8.841
  58   6 C     -0.046  1.083  2.963  0.000    29.149     8.854
  59   6 C     -0.034  1.079  2.955  0.000    28.853     8.809
  60   6 C     -0.034  1.082  2.952  0.000    28.853     8.808
  61   6 C     -0.036  1.080  2.956  0.000    28.900     8.816
  62   1 H      0.246  0.754  0.000  0.000     0.900     1.486
  63   1 H      0.041  0.959  0.000  0.000     2.431     2.439
  64   1 H      0.069  0.931  0.000  0.000     2.098     2.265
  65   1 H      0.076  0.924  0.000  0.000     2.021     2.223
  66   1 H      0.023  0.977  0.000  0.000     2.684     2.562
  67   1 H      0.069  0.931  0.000  0.000     2.100     2.266
  68   1 H      0.019  0.981  0.000  0.000     2.749     2.593
  69   1 H      0.047  0.953  0.000  0.000     2.361     2.403
  70   1 H      0.023  0.977  0.000  0.000     2.683     2.561
  71   7 N     -0.195  1.256  3.940  0.000    25.242     7.462
  72   6 C      0.003  1.094  2.903  0.000    20.547     6.456
  73   6 C      0.278  1.038  2.684  0.000    22.291     7.730
  74   8 O     -0.428  1.746  4.683  0.000    22.257     6.325
  75   6 C     -0.072  1.053  3.018  0.000    21.873     6.659
  76   6 C     -0.039  1.084  2.956  0.000    28.943     8.824
  77   6 C     -0.016  1.073  2.943  0.000    28.392     8.741
  78   6 C     -0.022  1.080  2.942  0.000    28.478     8.749
  79   7 N     -0.120  1.229  3.891  0.000    23.614     7.217
  80   6 C      0.041  1.067  2.892  0.000    27.019     8.525
  81   6 C     -0.042  1.081  2.960  0.000    29.038     8.836
  82   6 C     -0.055  1.074  2.981  0.000    29.367     8.886
  83   6 C     -0.043  1.079  2.964  0.000    29.064     8.840
  84   6 C     -0.038  1.080  2.958  0.000    28.939     8.822
  85   1 H      0.195  0.805  0.000  0.000     1.134     1.668
  86   1 H      0.072  0.928  0.000  0.000     2.065     2.247
  87   1 H      0.069  0.931  0.000  0.000     2.095     2.263
  88   1 H      0.071  0.929  0.000  0.000     2.079     2.255
  89   1 H      0.050  0.950  0.000  0.000     2.314     2.379
  90   1 H      0.182  0.818  0.000  0.000     1.204     1.719
  91   1 H      0.044  0.956  0.000  0.000     2.394     2.420
  92   1 H      0.021  0.979  0.000  0.000     2.711     2.575
  93   1 H      0.032  0.968  0.000  0.000     2.564     2.504
  94   1 H      0.022  0.978  0.000  0.000     2.697     2.568
  95   7 N     -0.172  1.245  3.927  0.000    24.724     7.385
  96   6 C     -0.065  1.074  2.991  0.000    21.840     6.671
  97   6 C      0.258  1.051  2.691  0.000    22.656     7.793
  98   8 O     -0.436  1.742  4.694  0.000    22.412     6.347
  99   1 H      0.199  0.801  0.000  0.000     1.113     1.652
 100   1 H      0.120  0.880  0.000  0.000     1.613     1.986
 101   1 H      0.111  0.889  0.000  0.000     1.687     2.031
 102   7 N     -0.160  1.255  3.905  0.000    24.453     7.344
 103   6 C     -0.015  1.086  2.929  0.000    20.864     6.507
 104   6 C      0.266  1.045  2.690  0.000    22.514     7.771
 105   8 O     -0.421  1.734  4.687  0.000    22.101     6.303
 106   6 C     -0.042  1.075  2.966  0.000    21.284     6.563
 107   6 C     -0.066  1.049  3.017  0.000    21.763     6.642
 108   6 C     -0.144  1.047  3.097  0.000    23.351     6.891
 109   6 C     -0.115  1.039  3.076  0.000    22.765     6.805
 110   1 H      0.217  0.783  0.000  0.000     1.026     1.586
 111   1 H      0.070  0.930  0.000  0.000     2.085     2.258
 112   1 H      0.095  0.905  0.000  0.000     1.832     2.117
 113   1 H      0.033  0.967  0.000  0.000     2.544     2.495
 114   1 H      0.031  0.969  0.000  0.000     2.572     2.508
 115   1 H      0.055  0.945  0.000  0.000     2.254     2.348
 116   1 H      0.084  0.916  0.000  0.000     1.936     2.176
 117   1 H      0.065  0.935  0.000  0.000     2.140     2.288
 118   1 H      0.022  0.978  0.000  0.000     2.698     2.569
 119   1 H      0.043  0.957  0.000  0.000     2.405     2.425
 120   1 H      0.049  0.951  0.000  0.000     2.337     2.391
 121   7 N     -0.150  1.238  3.912  0.000    24.248     7.313
 122   6 C     -0.013  1.065  2.948  0.000    20.794     6.490
 123   6 C      0.270  1.044  2.686  0.000    22.441     7.757
 124   8 O     -0.459  1.752  4.708  0.000    22.903     6.416
 125   6 C     -0.091  1.055  3.036  0.000    22.223     6.711
 126   6 C     -0.081  1.048  3.033  0.000    22.037     6.682
 127   6 C     -0.108  1.055  3.053  0.000    22.568     6.763
 128   6 C     -0.069  1.069  3.000  0.000    21.898     6.677
 129   7 N     -0.127  1.224  3.903  0.000    23.745     7.237
 130   1 H      0.176  0.824  0.000  0.000     1.235     1.741
 131   1 H      0.133  0.867  0.000  0.000     1.515     1.925
 132   1 H      0.049  0.951  0.000  0.000     2.338     2.391
 133   1 H      0.066  0.934  0.000  0.000     2.134     2.285
 134   1 H      0.065  0.935  0.000  0.000     2.147     2.291
 135   1 H      0.070  0.930  0.000  0.000     2.082     2.257
 136   1 H      0.088  0.912  0.000  0.000     1.902     2.156
 137   1 H      0.097  0.903  0.000  0.000     1.808     2.103
 138   1 H      0.122  0.878  0.000  0.000     1.596     1.975
 139   1 H      0.122  0.878  0.000  0.000     1.599     1.978
 140   1 H      0.290  0.710  0.000  0.000     0.745     1.352
 141   1 H      0.265  0.735  0.000  0.000     0.826     1.424
 142   1 H      0.290  0.710  0.000  0.000     0.745     1.352
 143   7 N     -0.189  1.252  3.937  0.000    25.097     7.440
 144   6 C      0.006  1.066  2.928  0.000    20.482     6.444
 145   6 C      0.265  1.052  2.683  0.000    22.536     7.773
 146   8 O     -0.417  1.731  4.686  0.000    22.028     6.293
 147   6 C     -0.074  1.056  3.017  0.000    21.895     6.660
 148   6 C      0.001  1.077  2.922  0.000    27.997     8.679
 149   6 C     -0.036  1.084  2.952  0.000    28.896     8.815
 150   6 C     -0.038  1.078  2.960  0.000    28.938     8.821
 151   6 C     -0.055  1.078  2.977  0.000    29.368     8.886
 152   6 C     -0.069  1.081  2.988  0.000    29.730     8.941
 153   6 C      0.145  1.048  2.807  0.000    24.849     8.169
 154   8 O     -0.432  1.718  4.714  0.000    21.486     6.257
 155   1 H      0.215  0.785  0.000  0.000     1.032     1.591
 156   1 H      0.065  0.935  0.000  0.000     2.137     2.286
 157   1 H      0.069  0.931  0.000  0.000     2.102     2.267
 158   1 H      0.037  0.963  0.000  0.000     2.489     2.467
 159   1 H      0.060  0.940  0.000  0.000     2.203     2.321
 160   1 H      0.017  0.983  0.000  0.000     2.772     2.603
 161   1 H      0.066  0.934  0.000  0.000     2.133     2.284
 162   1 H      0.032  0.968  0.000  0.000     2.562     2.503
 163   1 H      0.343  0.657  0.000  0.000     0.604     1.221
 164   7 N     -0.199  1.242  3.957  0.000    25.331     7.475
 165   6 C     -0.021  1.044  2.976  0.000    21.019     6.541
 166   6 C      0.272  1.042  2.686  0.000    22.400     7.750
 167   8 O     -0.510  1.770  4.740  0.000    24.012     6.570
 168   1 H      0.195  0.805  0.000  0.000     1.131     1.666
 169   1 H      0.097  0.903  0.000  0.000     1.810     2.104
 170   1 H      0.066  0.934  0.000  0.000     2.133     2.284
 171   7 N     -0.198  1.254  3.944  0.000    25.303     7.471
 172   6 C      0.021  1.070  2.909  0.000    20.232     6.406
 173   6 C      0.283  1.046  2.671  0.000    22.210     7.717
 174   8 O     -0.470  1.758  4.712  0.000    23.132     6.448
 175   6 C     -0.080  1.061  3.019  0.000    22.014     6.678
 176   6 C     -0.009  1.053  2.957  0.000    20.710     6.473
 177   6 C     -0.121  1.044  3.077  0.000    22.869     6.818
 178   6 C     -0.130  1.041  3.089  0.000    23.046     6.844
 179   1 H      0.209  0.791  0.000  0.000     1.060     1.613
 180   1 H      0.073  0.927  0.000  0.000     2.054     2.241
 181   1 H      0.068  0.932  0.000  0.000     2.107     2.270
 182   1 H      0.064  0.936  0.000  0.000     2.158     2.297
 183   1 H      0.026  0.974  0.000  0.000     2.647     2.544
 184   1 H      0.046  0.954  0.000  0.000     2.373     2.409
 185   1 H      0.041  0.959  0.000  0.000     2.432     2.439
 186   1 H      0.056  0.944  0.000  0.000     2.252     2.347
 187   1 H      0.044  0.956  0.000  0.000     2.396     2.420
 188   1 H      0.058  0.942  0.000  0.000     2.221     2.330
 189   1 H      0.037  0.963  0.000  0.000     2.493     2.469
 190   7 N     -0.187  1.251  3.935  0.000    25.046     7.433
 191   6 C      0.027  1.061  2.911  0.000    20.129     6.391
 192   6 C      0.216  1.079  2.705  0.000    23.431     7.929
 193   8 O     -0.380  1.763  4.616  0.000    21.281     6.185
 194   6 C     -0.080  1.062  3.018  0.000    22.008     6.676
 195   6 C      0.009  1.085  2.906  0.000    27.818     8.651
 196   6 C     -0.041  1.081  2.960  0.000    29.011     8.833
 197   6 C     -0.040  1.082  2.958  0.000    28.991     8.830
 198   6 C     -0.032  1.081  2.951  0.000    28.786     8.799
 199   6 C     -0.031  1.081  2.950  0.000    28.775     8.797
 200   6 C     -0.033  1.079  2.954  0.000    28.821     8.803
 201   1 H      0.206  0.794  0.000  0.000     1.075     1.624
 202   1 H      0.098  0.902  0.000  0.000     1.799     2.098
 203   1 H      0.113  0.887  0.000  0.000     1.674     2.023
 204   1 H      0.061  0.939  0.000  0.000     2.193     2.316
 205   1 H      0.047  0.953  0.000  0.000     2.362     2.404
 206   1 H      0.032  0.968  0.000  0.000     2.560     2.502
 207   1 H      0.041  0.959  0.000  0.000     2.430     2.438
 208   1 H      0.032  0.968  0.000  0.000     2.560     2.502
 209   1 H      0.039  0.961  0.000  0.000     2.467     2.456
 210   7 N     -0.392  1.317  4.075  0.000    30.152     8.155
 211   6 C      0.025  1.063  2.912  0.000    20.170     6.397
 212   6 C      0.263  1.044  2.692  0.000    22.557     7.777
 213   8 O     -0.452  1.734  4.719  0.000    22.755     6.396
 214   6 C     -0.106  1.065  3.041  0.000    22.508     6.754
 215   6 C      0.280  1.043  2.677  0.000    22.251     7.723
 216   8 O     -0.482  1.756  4.726  0.000    23.390     6.484
 217   7 N     -0.291  1.279  4.012  0.000    27.502     7.789
 218   1 H      0.159  0.841  0.000  0.000     1.340     1.813
 219   1 H      0.072  0.928  0.000  0.000     2.060     2.244
 220   1 H      0.058  0.942  0.000  0.000     2.226     2.333
 221   1 H      0.072  0.928  0.000  0.000     2.065     2.247
 222   1 H      0.224  0.776  0.000  0.000     0.991     1.560
 223   1 H      0.223  0.777  0.000  0.000     0.994     1.562
 224   7 N     -0.161  1.239  3.922  0.000    24.484     7.349
 225   6 C      0.010  1.063  2.928  0.000    20.400     6.427
 226   6 C      0.189  1.085  2.726  0.000    23.958     8.016
 227   8 O     -0.313  1.735  4.577  0.000    20.011     5.998
 228   6 C     -0.029  1.058  2.970  0.000    21.041     6.523
 229   6 C     -0.069  1.054  3.015  0.000    21.795     6.643
 230   6 C     -0.123  1.035  3.088  0.000    22.910     6.824
 231   6 C     -0.120  1.036  3.084  0.000    22.858     6.818
 232   1 H      0.203  0.797  0.000  0.000     1.088     1.634
 233   1 H      0.110  0.890  0.000  0.000     1.696     2.037
 234   1 H      0.049  0.951  0.000  0.000     2.329     2.386
 235   1 H      0.057  0.943  0.000  0.000     2.232     2.336
 236   1 H      0.038  0.962  0.000  0.000     2.479     2.462
 237   1 H      0.053  0.947  0.000  0.000     2.288     2.365
 238   1 H      0.043  0.957  0.000  0.000     2.405     2.425
 239   1 H      0.061  0.939  0.000  0.000     2.192     2.315
 240   1 H      0.058  0.942  0.000  0.000     2.218     2.329
 241   1 H      0.027  0.973  0.000  0.000     2.635     2.538
 242   1 H      0.035  0.965  0.000  0.000     2.511     2.478
 243   7 N     -0.323  1.356  3.967  0.000    28.314     7.903
 244   6 C      0.030  1.057  2.913  0.000    20.033     6.367
 245   6 C      0.260  1.055  2.685  0.000    22.628     7.790
 246   8 O     -0.491  1.748  4.743  0.000    23.587     6.512
 247   6 C     -0.082  1.058  3.024  0.000    22.022     6.675
 248   6 C     -0.072  1.050  3.022  0.000    21.848     6.650
 249   6 C      0.011  1.040  2.949  0.000    20.389     6.428
 250   1 H      0.033  0.967  0.000  0.000     2.546     2.495
 251   1 H      0.077  0.923  0.000  0.000     2.008     2.216
 252   1 H      0.081  0.919  0.000  0.000     1.973     2.196
 253   1 H      0.065  0.935  0.000  0.000     2.146     2.291
 254   1 H      0.032  0.968  0.000  0.000     2.564     2.504
 255   1 H      0.042  0.958  0.000  0.000     2.421     2.433
 256   1 H     -0.010  1.010  0.000  0.000     3.230     2.811
 257   7 N     -0.181  1.256  3.924  0.000    24.913     7.413
 258   6 C      0.022  1.062  2.916  0.000    20.202     6.399
 259   6 C      0.211  1.071  2.718  0.000    23.536     7.946
 260   8 O     -0.377  1.748  4.628  0.000    21.218     6.176
 261   6 C     -0.076  1.057  3.019  0.000    21.937     6.666
 262   6 C     -0.025  1.057  2.967  0.000    20.973     6.513
 263   6 C     -0.116  1.039  3.077  0.000    22.769     6.803
 264   6 C     -0.146  1.045  3.101  0.000    23.368     6.892
 265   1 H      0.235  0.765  0.000  0.000     0.943     1.521
 266   1 H      0.092  0.908  0.000  0.000     1.860     2.133
 267   1 H      0.050  0.950  0.000  0.000     2.325     2.385
 268   1 H      0.059  0.941  0.000  0.000     2.214     2.327
 269   1 H      0.065  0.935  0.000  0.000     2.145     2.290
 270   1 H      0.048  0.952  0.000  0.000     2.346     2.395
 271   1 H      0.029  0.971  0.000  0.000     2.595     2.519
 272   1 H      0.033  0.967  0.000  0.000     2.541     2.493
 273   1 H      0.080  0.920  0.000  0.000     1.981     2.201
 274   1 H      0.056  0.944  0.000  0.000     2.244     2.343
 275   1 H      0.061  0.939  0.000  0.000     2.188     2.313
 276   7 N     -0.414  1.340  4.075  0.000    30.777     8.239
 277   6 C      0.033  1.061  2.906  0.000    20.025     6.374
 278   6 C      0.203  1.087  2.710  0.000    23.684     7.970
 279   8 O     -0.401  1.761  4.640  0.000    21.710     6.247
 280   6 C     -0.078  1.057  3.021  0.000    21.983     6.675
 281   6 C     -0.089  1.054  3.036  0.000    22.193     6.706
 282   6 C     -0.111  1.057  3.054  0.000    22.625     6.772
 283   6 C     -0.081  1.068  3.013  0.000    22.148     6.718
 284   7 N     -0.140  1.225  3.915  0.000    24.015     7.278
 285   1 H      0.184  0.816  0.000  0.000     1.192     1.710
 286   1 H      0.067  0.933  0.000  0.000     2.117     2.275
 287   1 H      0.055  0.945  0.000  0.000     2.253     2.347
 288   1 H      0.054  0.946  0.000  0.000     2.272     2.357
 289   1 H      0.060  0.940  0.000  0.000     2.201     2.320
 290   1 H      0.075  0.925  0.000  0.000     2.032     2.229
 291   1 H      0.086  0.914  0.000  0.000     1.914     2.164
 292   1 H      0.100  0.900  0.000  0.000     1.784     2.089
 293   1 H      0.136  0.864  0.000  0.000     1.488     1.908
 294   1 H      0.126  0.874  0.000  0.000     1.564     1.956
 295   1 H      0.304  0.696  0.000  0.000     0.702     1.312
 296   1 H      0.286  0.714  0.000  0.000     0.758     1.364
 297   1 H      0.296  0.704  0.000  0.000     0.726     1.335
 298   7 N     -0.406  1.316  4.090  0.000    30.552     8.209
 299   6 C      0.038  1.052  2.910  0.000    19.950     6.362
 300   6 C      0.205  1.085  2.711  0.000    23.653     7.965
 301   8 O     -0.376  1.748  4.628  0.000    21.203     6.174
 302   6 C     -0.076  1.052  3.025  0.000    21.950     6.668
 303   6 C     -0.071  1.047  3.024  0.000    21.858     6.656
 304   6 C     -0.094  1.057  3.038  0.000    22.292     6.721
 305   6 C     -0.053  1.061  2.992  0.000    21.621     6.637
 306   7 N     -0.142  1.227  3.915  0.000    24.069     7.287
 307   1 H      0.184  0.816  0.000  0.000     1.191     1.710
 308   1 H      0.054  0.946  0.000  0.000     2.273     2.358
 309   1 H      0.053  0.947  0.000  0.000     2.283     2.363
 310   1 H      0.057  0.943  0.000  0.000     2.238     2.339
 311   1 H      0.051  0.949  0.000  0.000     2.306     2.375
 312   1 H      0.050  0.950  0.000  0.000     2.318     2.381
 313   1 H      0.078  0.922  0.000  0.000     2.003     2.213
 314   1 H      0.073  0.927  0.000  0.000     2.049     2.239
 315   1 H      0.116  0.884  0.000  0.000     1.648     2.007
 316   1 H      0.118  0.882  0.000  0.000     1.632     1.998
 317   1 H      0.306  0.694  0.000  0.000     0.697     1.308
 318   1 H      0.286  0.714  0.000  0.000     0.757     1.363
 319   1 H      0.300  0.700  0.000  0.000     0.714     1.324
 320   7 N     -0.412  1.359  4.053  0.000    30.703     8.229
 321   6 C      0.032  1.072  2.896  0.000    20.064     6.381
 322   6 C      0.202  1.089  2.710  0.000    23.708     7.974
 323   8 O     -0.370  1.756  4.614  0.000    21.083     6.156
 324   6 C     -0.062  1.051  3.011  0.000    21.691     6.631
 325   6 C     -0.033  1.081  2.952  0.000    28.786     8.800
 326   6 C     -0.010  1.076  2.935  0.000    28.260     8.720
 327   6 C     -0.022  1.081  2.941  0.000    28.481     8.750
 328   7 N     -0.119  1.232  3.888  0.000    23.593     7.214
 329   6 C      0.043  1.066  2.891  0.000    26.985     8.519
 330   6 C     -0.041  1.080  2.960  0.000    29.010     8.832
 331   6 C     -0.057  1.074  2.982  0.000    29.406     8.892
 332   6 C     -0.044  1.078  2.966  0.000    29.083     8.843
 333   6 C     -0.040  1.079  2.961  0.000    28.994     8.830
 334   1 H      0.184  0.816  0.000  0.000     1.190     1.709
 335   1 H      0.038  0.962  0.000  0.000     2.475     2.461
 336   1 H      0.062  0.938  0.000  0.000     2.180     2.309
 337   1 H      0.043  0.957  0.000  0.000     2.412     2.429
 338   1 H      0.062  0.938  0.000  0.000     2.178     2.308
 339   1 H      0.205  0.795  0.000  0.000     1.081     1.629
 340   1 H      0.020  0.980  0.000  0.000     2.730     2.584
 341   1 H      0.036  0.964  0.000  0.000     2.502     2.474
 342   1 H      0.017  0.983  0.000  0.000     2.776     2.606
 343   1 H      0.023  0.977  0.000  0.000     2.692     2.566
 344   1 H      0.194  0.806  0.000  0.000     1.138     1.671
 345   1 H      0.056  0.944  0.000  0.000     2.243     2.342
 346   1 H      0.176  0.824  0.000  0.000     1.237     1.742
 347   1 H      0.073  0.927  0.000  0.000     2.049     2.238
 348   1 H      0.182  0.818  0.000  0.000     1.199     1.715
 349   1 H      0.045  0.955  0.000  0.000     2.380     2.412
 350   1 H      0.195  0.805  0.000  0.000     1.133     1.667
 351   1 H      0.058  0.942  0.000  0.000     2.225     2.333
 352   1 H      0.177  0.823  0.000  0.000     1.228     1.736
 353   1 H      0.056  0.944  0.000  0.000     2.247     2.344
 354   1 H      0.176  0.824  0.000  0.000     1.235     1.741
 355   1 H      0.067  0.933  0.000  0.000     2.117     2.275

 Mol. C6AA /au·bohr⁶  :    1209432.313501
 Mol. C8AA /au·bohr⁸  :   27506814.027142
 Mol. α(0) /au        :       1673.631118

 
molecular dipole:
                 x           y           z       tot (Debye)
 q only:      257.334     -70.486      80.699
   full:      256.770     -65.930      81.245     704.763
molecular quadrupole (traceless):
                xx          xy          yy          xz          yz          zz
 q only:    31174.636  -12873.896  -17369.553   15751.040   -4653.537  -13805.083
  q+dip:    31045.582  -12040.504  -17429.428   15827.687   -4302.789  -13616.155
   full:    31039.349  -12041.204  -17428.593   15828.139   -4309.848  -13610.756
speedup  1.96
cpu  time for grad   17.95 s
wall time for grad    9.14 s

SCC energy    :    -536.2020497
rep           :       7.1164398
ES            :       1.6729522
AES           :      -0.0925443
AXC           :       0.2197467
disp          :      -0.4460687
XB            :       0.0000000
fix           :       0.0000000
Gborn         :       0.0000000
Gsasa         :       0.0000000
Ghb           :       0.0000000
Gshift        :       0.0000000
Gsolv         :      -0.7235831     -454.06
Etot ala COSMO:    -536.2020497
grad norm     :       0.5606846
total E       :    -529.0465857
atomizationE  :     101.6419343    63781.28
(atE without considering molecular charge,
 total energy contains solvation terms)
H-L gap (eV)  :          1.2757

------------------------------------------------------------------------
 * finished run on 2019/05/09 at 17:01:01.692     
------------------------------------------------------------------------
 total:
 * wall-time:     0 d,  0 h,  0 min,  9.579 sec
 *  cpu-time:     0 d,  0 h,  0 min, 18.662 sec
 * ratio c/w:     1.948 speedup
 SCF:
 * wall-time:     0 d,  0 h,  0 min,  9.368 sec
 *  cpu-time:     0 d,  0 h,  0 min, 18.404 sec
 * ratio c/w:     1.964 speedup

