      -----------------------------------------------------------      
     |                   =====================                   |     
     |                           x T B                           |     
     |                   =====================                   |     
     |                         S. Grimme                         |     
     |          Mulliken Center for Theoretical Chemistry        |     
     |                    University of Bonn                     |     
     |                 Version 6.0.1 (SAW181210)                 |     
      -----------------------------------------------------------      

   This program is distributed in the hope that it will be useful,
   but WITHOUT ANY WARRANTY; without even the implied warranty of
   MERCHANTABILITY or FITNESS FOR A PARTICULAR PURPOSE.
   
   FOR NON-COMMERCIAL, ACADEMIA USE ONLY.
   
   Cite this work as:
   S. Grimme, C. Bannwarth, P. Shushkov, J. Comput. Theory Chem., 2017,
   13, 1989-2009.
   C. Bannwarth, S. Ehlert and S. Grimme., ChemRxiv, 2018, preprint.
   http://doi.org/10.26434/chemrxiv.7246238.v1
   
   for sTDA-xTB:
   S. Grimme and C. Bannwarth, J. Chem. Phys., 2016, 145, 054103.
   
   in the mass-spec context:
   V. Asgeirsson, C. Bauer and S. Grimme, Chem. Sci., 2017, 8, 4879.
   
   if GBSA is used:
   P. Shushkov, F. März and S. Grimme, unpublished.
   
   for ANC optimizer:
   S. Grimme, unpublished.
   Rational Function algorithm used in ANCopt:
   F. Eckert, P. Pulay, H.-J. Werner, J. Comput. Chem., 1997, 18, 1473.
   
   with help from (in alphabetical order)
   C. Bannwarth, F. Bohle, G. Brandenburg, E. Caldeweyher, M. Checinski,
   S. Dohm, S. Ehlert, S. Ehrlich, F. März, H. Neugebauer, J. Pisarek,
   P. Pracht, P. Shushkov, and S. Spicher.
   
 * started run on 2019/02/12 at 03:00:18.928     
========================================================================
 # omp threads = 12
========================================================================
number of atoms            : 89
number of electrons        : 222
charge                     : 0
spin                       : .0
first test random number   : .7786

########################################################################
# WARNING! Please study the warnings concerning your input carefully
#  - Process number higher than OMP_NUM_THREADS, I hope you know what you are doing.
########################################################################

           ------------------------------------------------- 
          |                 G F N 2 - x T B                 |
          | Geometry, Frequencies, Noncovalent interactions |
          |            JCTC 2018 parametrisation            |
           ------------------------------------------------- 
 
      method parameters     
 k(s)        :  1.8500
 k(p)        :  2.2300
 k(d)        :  2.2300
 k(f)        :  2.0000
 kEN (H0ij)  : -2.0000
 D4 a1       :  0.5200
 D4 a2       :  5.0000
 D4 s6       :  1.0000
 D4 s8       :  2.7000
 D4 s9       :  5.0000
 alphaj      :  2.0000

 Solvent             : h2o
 Using internal parameter file: .param_gbsa2_h2o
 Gsolv ref. state (COSMO-RS): gsolv [1 M gas/solution]
 temperature (mdtemp)       :    298.150000000000     
 dielectric constant        :    80.2000000000000     
 rho                        :    1.00000000000000     
 mass                       :    18.0000000000000     
 surface tension            :    15.5689454083859     
 probe radius               :   0.975313790000000     
 vdW radii scaling          :    1.00000000000000     
 Gshift (Eh)                :   1.857443126794793E-003
 c1                         :    1.55243817000000     
 soset                      :   0.130326360000000     
 HB correction              :  T

            Z     q(EN)     CN     RAES       Cart. coordinates
     1  N   5.0   -0.21    3.21    1.96    47.64853    15.19520    53.61461
     2  C   4.0    0.03    4.32    4.24    45.19635    15.02442    54.81052
     3  C   4.0    0.08    3.25    3.04    44.84396    12.39740    55.94485
     4  O   6.0   -0.32    1.20    1.80    44.13707    12.16344    58.14497
     5  C   4.0   -0.03    4.32    4.23    43.06259    15.74375    52.98217
     6  C   4.0   -0.05    4.19    3.98    43.14572    18.60910    52.53558
     7  C   4.0   -0.06    4.14    3.88    40.52430    14.89097    54.05940
     8  C   4.0   -0.08    4.01    3.64    41.32149    19.50448    50.49175
     9  H   1.0    0.08    1.02    1.43    47.73297    15.44374    51.71785
    10  H   1.0    0.04    1.06    1.44    45.17339    16.32233    56.43300
    11  H   1.0    0.04    1.05    1.44    43.43685    14.75223    51.20469
    12  H   1.0    0.04    1.03    1.43    42.70987    19.56586    54.30955
    13  H   1.0    0.04    1.03    1.43    45.06495    19.12043    51.97698
    14  H   1.0    0.06    1.00    1.43    38.96428    15.45015    52.85249
    15  H   1.0    0.06    1.00    1.43    40.46254    12.84546    54.26039
    16  H   1.0    0.06    1.00    1.43    40.23091    15.71755    55.91774
    17  H   1.0    0.04    1.00    1.43    41.55083    21.52492    50.20708
    18  H   1.0    0.04    1.00    1.43    41.72631    18.55030    48.71845
    19  H   1.0    0.04    1.00    1.43    39.37426    19.14777    51.03359
    20  N   5.0   -0.20    3.25    1.97    48.41887    11.85072    61.95672
    21  C   4.0    0.03    4.41    4.40    47.25176    13.23084    64.01196
    22  C   4.0    0.15    3.47    3.10    44.92510    11.81458    64.97636
    23  O   6.0   -0.28    1.23    1.80    44.53222    11.50044    67.24000
    24  C   4.0   -0.02    4.26    4.13    46.59899    15.93600    63.17866
    25  C   4.0   -0.07    4.13    3.86    44.81447    17.18567    65.07603
    26  C   4.0   -0.08    4.11    3.82    49.03084    17.46810    62.90777
    27  H   1.0    0.09    1.03    1.43    48.43073    12.63446    60.21058
    28  H   1.0    0.05    1.05    1.44    48.58515    13.28898    65.60140
    29  H   1.0    0.05    1.05    1.44    45.65867    15.79950    61.34061
    30  H   1.0    0.04    1.00    1.43    44.48392    19.14474    64.55812
    31  H   1.0    0.05    1.00    1.43    43.00815    16.20668    65.14310
    32  H   1.0    0.05    1.00    1.43    45.63745    17.13509    66.95740
    33  H   1.0    0.04    1.00    1.43    48.58955    19.38049    62.31708
    34  H   1.0    0.04    1.00    1.43    50.02768    17.56136    64.70111
    35  H   1.0    0.04    1.00    1.43    50.26400    16.63128    61.49535
    36  N   5.0   -0.14    3.40    2.02    43.35430    11.02112    63.17850
    37  C   4.0    0.03    4.17    3.94    41.07453     9.67302    63.80923
    38  C   4.0    0.10    3.16    3.03    41.59523     7.32831    65.38793
    39  O   6.0   -0.26    1.11    1.80    40.17072     6.67732    67.09486
    40  H   1.0    0.12    1.12    1.45    43.76194    11.31176    61.33037
    41  H   1.0    0.07    1.03    1.43    39.79244    10.87781    64.90084
    42  H   1.0    0.05    1.03    1.43    40.14056     9.09803    62.06647
    43  O   6.0   -0.32    1.97    1.82    38.94309    17.88191    59.89442
    44  H   1.0    0.12    0.97    1.43    39.84940    17.81137    61.46462
    45  H   1.0    0.12    0.97    1.43    38.11626    19.49843    59.80160
    46  O   6.0   -0.29    1.92    1.82    35.41407    13.92694    59.84562
    47  H   1.0    0.14    1.01    1.43    36.69786    15.24512    59.84310
    48  H   1.0    0.14    0.97    1.43    35.34377    13.34480    58.12579
    49  N   5.0   -0.21    3.21    1.96    27.86744    20.95817    51.09919
    50  C   4.0    0.03    4.22    4.04    28.98721    20.13179    53.46198
    51  C   4.0    0.08    3.21    3.04    30.01486    22.39263    54.95098
    52  O   6.0   -0.31    1.15    1.80    29.71046    22.57698    57.23661
    53  C   4.0   -0.04    4.29    4.18    31.13594    18.27932    52.96185
    54  C   4.0   -0.04    4.22    4.04    30.18510    15.75720    51.92163
    55  C   4.0    0.15    3.22    3.04    32.39771    14.22064    50.92066
    56  O   6.0   -0.30    1.21    1.80    34.36062    13.88317    52.09947
    57  N   5.0   -0.19    3.18    1.95    32.06066    13.24516    48.60875
    58  H   1.0    0.08    1.02    1.43    28.60035    20.32939    49.44529
    59  H   1.0    0.05    1.05    1.44    27.50819    19.26655    54.63210
    60  H   1.0    0.05    1.03    1.43    32.40193    19.16536    51.59391
    61  H   1.0    0.06    1.03    1.43    32.17396    17.95989    54.71030
    62  H   1.0    0.05    1.02    1.43    29.24166    14.69931    53.41938
    63  H   1.0    0.04    1.03    1.43    28.83797    16.09986    50.40160
    64  H   1.0    0.08    1.03    1.43    30.52457    13.68658    47.58520
    65  H   1.0    0.09    1.02    1.43    33.56003    12.35794    47.78021
    66  N   5.0   -0.20    3.22    1.96    28.12551    25.01336    61.95672
    67  C   4.0    0.03    4.31    4.21    29.90428    25.33405    64.01196
    68  C   4.0    0.08    3.24    3.04    29.84109    28.05713    64.97636
    69  O   6.0   -0.28    1.11    1.80    29.76548    28.55444    67.24000
    70  C   4.0   -0.02    4.26    4.11    32.57340    24.54678    63.17866
    71  C   4.0   -0.07    4.13    3.86    34.54791    25.46738    65.07603
    72  C   4.0   -0.07    4.11    3.82    32.68431    21.67469    62.90777
    73  H   1.0    0.11    1.05    1.44    28.79831    24.61122    60.21058
    74  H   1.0    0.05    1.05    1.44    29.28794    24.15023    65.60140
    75  H   1.0    0.05    1.05    1.44    32.92534    25.42937    61.34061
    76  H   1.0    0.04    1.00    1.43    36.40979    24.77412    64.55812
    77  H   1.0    0.05    1.00    1.43    34.60324    27.52120    65.14310
    78  H   1.0    0.05    1.00    1.43    34.09262    24.77996    66.95740
    79  H   1.0    0.04    1.00    1.43    34.56114    21.10066    62.31708
    80  H   1.0    0.05    1.00    1.43    32.26666    20.76477    64.70111
    81  H   1.0    0.06    1.00    1.43    31.34303    21.02515    61.49535
    82  H   1.0    0.09    1.07    1.44    48.50394    16.51615    54.25955
    83  H   1.0    0.05    1.04    1.43    45.18822    10.86225    54.89802
    84  H   1.0    0.09    1.07    1.44    50.05860    11.57690    62.31572
    85  H   1.0    0.06    1.05    1.44    43.12842     6.27866    65.04351
    86  H   1.0    0.09    1.07    1.44    26.23607    20.48027    51.04629
    87  H   1.0    0.05    1.05    1.44    30.95996    23.76262    54.05601
    88  H   1.0    0.10    1.07    1.44    27.06851    23.73022    62.31572
    89  H   1.0    0.06    1.05    1.44    29.86100    29.49459    63.74982

  Z AO/shell   Hii/eV     exponent
  1     Wed Apr 25 08:07:45 CEST 2018   EN: 2.200 GM2: 0.406  GM3: 0.0800  RAES: 1.40
     1s    -10.707211    1.230000
  6     Wed Apr 25 08:07:45 CEST 2018   EN: 2.550 GM2: 0.538  GM3: 0.1500  RAES: 3.00
     2s    -13.970922    2.096432
     2p    -10.063292    1.800000
  7     Wed Apr 25 08:07:45 CEST 2018   EN: 3.040 GM2: 0.461  GM3:-0.0640  RAES: 1.90
     2s    -16.686243    2.339881
     2p    -12.523956    2.014332
  8     Wed Apr 25 08:07:45 CEST 2018   EN: 3.440 GM2: 0.452  GM3:-0.0517  RAES: 1.80
     2s    -20.229985    2.439742
     2p    -15.503117    2.137023
 no old-style atom pair restraining (fixing) potential

molecular fragmentation (1/2 indicates fragments):
111111111111111111122222222222222222222222222222222222222222222222222222
22222222211222222
# atoms in fragment 1/2:    21    68
 fragment masses (1/2) :      115.17      425.52
CMA distance (Bohr)    :   9.740
constraining FC (au)   :  0.0500
           ------------------------------------------------- 
          |        Self-Consistent Charge Iterations        |
           ------------------------------------------------- 

 Ncao       : 200
 Nao        : 200
 Nshell     : 126
 Nel        : 222
 T(el)      :   500.0
 intcut     :    35.0
 scfconv/Eh :  0.100E-06
   qconv/e  :  0.100E-04
 intneglect :  0.100E-08
 broydamp   :      0.400
 iter      E             dE          RMSdq      gap      omega  full diag
   1   -126.9113011 -0.126911E+03  0.463E+00    3.37       0.0  T
   2   -127.2210092 -0.309708E+00  0.214E+00    2.15       1.0  T
   3   -127.2433178 -0.223085E-01  0.125E+00    2.26       1.0  T
   4   -127.2670113 -0.236936E-01  0.249E-01    1.78       1.0  T
   5   -127.2678977 -0.886384E-03  0.998E-02    1.91       1.0  T
   6   -127.2680984 -0.200683E-03  0.358E-02    1.88       1.0  T
   7   -127.2681152 -0.168125E-04  0.165E-02    1.87       1.0  T
   8   -127.2681177 -0.244580E-05  0.653E-03    1.86       1.6  T
   9   -127.2681189 -0.117717E-05  0.238E-03    1.86       4.5  T
  10   -127.2681189 -0.808651E-07  0.946E-04    1.86      11.2  T
  11   -127.2681189 -0.116670E-07  0.453E-04    1.86      23.4  T
  12   -127.2681189 -0.221392E-08  0.101E-04    1.86     105.1  T
  13   -127.2681189 -0.167176E-09  0.517E-05    1.86     205.2  T
  14   -127.2681189 -0.350440E-10  0.181E-05    1.86     587.2  T
speedup 11.89
cpu  time for SCC    1.22 s
wall time for SCC    0.10 s

   *** convergence criteria satisfied after 14 iterations ***

          eigenvalues
 #    :          99        100        101        102        103        104        105        106
 occ. :        2.000      2.000      2.000      2.000      2.000      2.000      2.000      2.000
 eps  :       -11.602    -11.557    -11.546    -11.540    -11.386    -11.217    -11.016    -10.984
 #    :         107        108        109        110        111        112        113        114
 occ. :        2.000      2.000      2.000      2.000      2.000      0.000      0.000      0.000
 eps  :       -10.760    -10.144    -10.079     -9.793     -9.725     -7.861     -7.815     -7.566
 #    :         115        116        117        118        119        120        121        122
 occ. :        0.000      0.000      0.000      0.000      0.000      0.000      0.000      0.000
 eps  :        -7.560     -5.903     -5.649      0.181      0.457      0.956      1.132      1.233


   #   Z            q   n(s)   n(p)   n(d)      C6AA      α(0)
   1   7 N     -0.391  1.312  4.079  0.000    30.122     8.151
   2   6 C      0.037  1.059  2.904  0.000    19.970     6.365
   3   6 C      0.200  1.094  2.706  0.000    23.741     7.980
   4   8 O     -0.365  1.742  4.622  0.000    20.986     6.142
   5   6 C     -0.020  1.069  2.951  0.000    20.889     6.501
   6   6 C     -0.060  1.051  3.008  0.000    21.644     6.623
   7   6 C     -0.117  1.038  3.079  0.000    22.800     6.808
   8   6 C     -0.110  1.037  3.073  0.000    22.666     6.789
   9   1 H      0.166  0.834  0.000  0.000     1.300     1.786
  10   1 H      0.051  0.949  0.000  0.000     2.314     2.379
  11   1 H      0.040  0.960  0.000  0.000     2.443     2.444
  12   1 H      0.042  0.958  0.000  0.000     2.426     2.436
  13   1 H      0.035  0.965  0.000  0.000     2.521     2.483
  14   1 H      0.058  0.942  0.000  0.000     2.226     2.333
  15   1 H      0.027  0.973  0.000  0.000     2.626     2.534
  16   1 H      0.056  0.944  0.000  0.000     2.250     2.346
  17   1 H      0.041  0.959  0.000  0.000     2.438     2.442
  18   1 H      0.038  0.962  0.000  0.000     2.480     2.463
  19   1 H      0.042  0.958  0.000  0.000     2.426     2.436
  20   7 N     -0.393  1.313  4.080  0.000    30.171     8.158
  21   6 C      0.028  1.062  2.909  0.000    20.107     6.386
  22   6 C      0.273  1.046  2.682  0.000    22.391     7.749
  23   8 O     -0.523  1.760  4.763  0.000    24.305     6.610
  24   6 C     -0.020  1.065  2.955  0.000    20.899     6.502
  25   6 C     -0.113  1.039  3.073  0.000    22.708     6.795
  26   6 C     -0.113  1.039  3.074  0.000    22.715     6.795
  27   1 H      0.157  0.843  0.000  0.000     1.356     1.824
  28   1 H      0.034  0.966  0.000  0.000     2.536     2.491
  29   1 H      0.046  0.954  0.000  0.000     2.367     2.406
  30   1 H      0.051  0.949  0.000  0.000     2.313     2.378
  31   1 H      0.029  0.971  0.000  0.000     2.601     2.522
  32   1 H      0.038  0.962  0.000  0.000     2.481     2.463
  33   1 H      0.049  0.951  0.000  0.000     2.337     2.390
  34   1 H      0.039  0.961  0.000  0.000     2.462     2.453
  35   1 H      0.042  0.958  0.000  0.000     2.423     2.434
  36   7 N     -0.174  1.242  3.932  0.000    24.776     7.393
  37   6 C     -0.025  1.048  2.977  0.000    21.080     6.549
  38   6 C      0.213  1.080  2.707  0.000    23.501     7.939
  39   8 O     -0.384  1.759  4.625  0.000    21.366     6.197
  40   1 H      0.252  0.748  0.000  0.000     0.876     1.467
  41   1 H      0.094  0.906  0.000  0.000     1.842     2.123
  42   1 H      0.119  0.881  0.000  0.000     1.624     1.993
  43   8 O     -0.612  1.752  4.860  0.000    25.471     6.812
  44   1 H      0.316  0.684  0.000  0.000     0.675     1.291
  45   1 H      0.325  0.675  0.000  0.000     0.650     1.267
  46   8 O     -0.653  1.771  4.881  0.000    26.478     6.945
  47   1 H      0.320  0.680  0.000  0.000     0.663     1.279
  48   1 H      0.303  0.697  0.000  0.000     0.710     1.324
  49   7 N     -0.392  1.312  4.080  0.000    30.146     8.154
  50   6 C      0.039  1.056  2.905  0.000    19.942     6.361
  51   6 C      0.197  1.095  2.707  0.000    23.793     7.988
  52   8 O     -0.372  1.750  4.621  0.000    21.123     6.162
  53   6 C     -0.056  1.050  3.007  0.000    21.577     6.612
  54   6 C     -0.096  1.058  3.038  0.000    22.329     6.727
  55   6 C      0.287  1.039  2.674  0.000    22.136     7.704
  56   8 O     -0.500  1.754  4.746  0.000    23.792     6.540
  57   7 N     -0.293  1.275  4.017  0.000    27.544     7.795
  58   1 H      0.171  0.829  0.000  0.000     1.266     1.762
  59   1 H      0.055  0.945  0.000  0.000     2.259     2.351
  60   1 H      0.055  0.945  0.000  0.000     2.259     2.350
  61   1 H      0.056  0.944  0.000  0.000     2.247     2.344
  62   1 H      0.074  0.926  0.000  0.000     2.044     2.236
  63   1 H      0.061  0.939  0.000  0.000     2.183     2.310
  64   1 H      0.229  0.771  0.000  0.000     0.969     1.542
  65   1 H      0.231  0.769  0.000  0.000     0.960     1.535
  66   7 N     -0.400  1.313  4.088  0.000    30.378     8.186
  67   6 C      0.038  1.059  2.903  0.000    19.952     6.362
  68   6 C      0.204  1.092  2.704  0.000    23.666     7.967
  69   8 O     -0.392  1.761  4.630  0.000    21.515     6.219
  70   6 C     -0.015  1.065  2.950  0.000    20.812     6.489
  71   6 C     -0.114  1.040  3.074  0.000    22.743     6.800
  72   6 C     -0.114  1.040  3.074  0.000    22.728     6.797
  73   1 H      0.183  0.817  0.000  0.000     1.200     1.716
  74   1 H      0.045  0.955  0.000  0.000     2.383     2.414
  75   1 H      0.046  0.954  0.000  0.000     2.364     2.405
  76   1 H      0.053  0.947  0.000  0.000     2.289     2.366
  77   1 H      0.029  0.971  0.000  0.000     2.602     2.522
  78   1 H      0.041  0.959  0.000  0.000     2.431     2.438
  79   1 H      0.045  0.955  0.000  0.000     2.380     2.412
  80   1 H      0.042  0.958  0.000  0.000     2.424     2.435
  81   1 H      0.053  0.947  0.000  0.000     2.278     2.360
  82   1 H      0.183  0.817  0.000  0.000     1.196     1.713
  83   1 H      0.076  0.924  0.000  0.000     2.019     2.222
  84   1 H      0.181  0.819  0.000  0.000     1.207     1.721
  85   1 H      0.073  0.927  0.000  0.000     2.051     2.240
  86   1 H      0.184  0.816  0.000  0.000     1.191     1.710
  87   1 H      0.079  0.921  0.000  0.000     1.987     2.204
  88   1 H      0.179  0.821  0.000  0.000     1.220     1.730
  89   1 H      0.069  0.931  0.000  0.000     2.101     2.267

 Mol. C6AA /au·bohr⁶  :      61999.411930
 Mol. C8AA /au·bohr⁸  :    1318698.144860
 Mol. α(0) /au        :        370.539699

 
 Wiberg/Mayer (AO) data. WBOs > 0.1 written file <wbo>
 largest (>0.05) Wiberg bond orders for each atom
           total WBO             WBO to atom ...
     1  N   3.002    C    2 1.011    H   82 0.955    H    9 0.952
     2  C   3.982    N    1 1.011    C    3 0.979    H   10 0.958    C    5 0.947    O    4 0.052
     3  C   3.886    O    4 1.865    C    2 0.979    H   83 0.953
     4  O   2.065    C    3 1.865    C    2 0.052
     5  C   3.991    C    7 1.009    C    6 0.994    H   11 0.964    C    2 0.947
     6  C   3.997    C    8 1.018    C    5 0.994    H   12 0.977    H   13 0.975
     7  C   3.992    C    5 1.009    H   16 0.981    H   15 0.980    H   14 0.979
     8  C   3.995    C    6 1.018    H   18 0.988    H   17 0.986    H   19 0.984
     9  H   0.973    N    1 0.952
    10  H   0.997    C    2 0.958
    11  H   0.998    C    5 0.964
    12  H   0.998    C    6 0.977
    13  H   0.999    C    6 0.975
    14  H   0.997    C    7 0.979
    15  H   0.999    C    7 0.980
    16  H   0.997    C    7 0.981
    17  H   0.997    C    8 0.986
    18  H   0.999    C    8 0.988
    19  H   0.998    C    8 0.984
    20  N   2.996    C   21 1.013    H   84 0.957    H   27 0.953
    21  C   3.982    N   20 1.013    H   28 0.964    C   24 0.964    C   22 0.936
    22  C   3.942    O   23 1.614    N   36 1.315    C   21 0.936
    23  O   1.934    C   22 1.614    N   36 0.196
    24  C   3.993    C   26 1.009    C   25 1.008    C   21 0.964    H   29 0.963
    25  C   3.996    C   24 1.008    H   32 0.987    H   30 0.985    H   31 0.985
    26  C   3.995    C   24 1.009    H   34 0.986    H   35 0.984    H   33 0.984
    27  H   0.975    N   20 0.953
    28  H   0.998    C   21 0.964
    29  H   0.998    C   24 0.963
    30  H   0.997    C   25 0.985
    31  H   0.999    C   25 0.985
    32  H   0.999    C   25 0.987
    33  H   0.997    C   26 0.984
    34  H   0.998    C   26 0.986
    35  H   0.998    C   26 0.984
    36  N   3.472    C   22 1.315    C   37 1.001    H   40 0.870    O   23 0.196
    37  C   3.972    N   36 1.001    C   38 0.998    H   41 0.952    H   42 0.931    O   39 0.061
    38  C   3.901    O   39 1.881    C   37 0.998    H   85 0.954
    39  O   2.026    C   38 1.881    C   37 0.061
    40  H   0.937    N   36 0.870
    41  H   0.991    C   37 0.952
    42  H   0.986    C   37 0.931
    43  O   1.853    H   44 0.898    H   45 0.890
    44  H   0.900    O   43 0.898
    45  H   0.894    O   43 0.890
    46  O   1.786    H   48 0.907    H   47 0.857
    47  H   0.897    O   46 0.857
    48  H   0.908    O   46 0.907
    49  N   2.998    C   50 1.014    H   86 0.955    H   58 0.950
    50  C   3.985    N   49 1.014    C   51 0.973    C   53 0.963    H   59 0.958    O   52 0.055
    51  C   3.888    O   52 1.883    C   50 0.973    H   87 0.953
    52  O   2.044    C   51 1.883    C   50 0.055
    53  C   3.991    C   54 0.994    H   61 0.974    H   60 0.973    C   50 0.963
    54  C   3.995    C   53 0.994    H   63 0.969    C   55 0.966    H   62 0.957    O   56 0.054
    55  C   3.943    O   56 1.646    N   57 1.305    C   54 0.966
    56  O   1.946    C   55 1.646    N   57 0.199    C   54 0.054
    57  N   3.389    C   55 1.305    H   64 0.927    H   65 0.924    O   56 0.199
    58  H   0.971    N   49 0.950
    59  H   0.997    C   50 0.958
    60  H   0.997    C   53 0.973
    61  H   0.997    C   53 0.974
    62  H   0.995    C   54 0.957
    63  H   0.996    C   54 0.969
    64  H   0.948    N   57 0.927
    65  H   0.946    N   57 0.924
    66  N   2.996    C   67 1.014    H   88 0.956    H   73 0.929
    67  C   3.985    N   66 1.014    C   68 0.977    H   74 0.960    C   70 0.947    O   69 0.055
    68  C   3.888    O   69 1.882    C   67 0.977    H   89 0.954
    69  O   2.020    C   68 1.882    C   67 0.055
    70  C   3.992    C   72 1.008    C   71 1.008    H   75 0.965    C   67 0.947
    71  C   3.995    C   70 1.008    H   78 0.986    H   76 0.985    H   77 0.983
    72  C   3.994    C   70 1.008    H   80 0.986    H   81 0.981    H   79 0.981
    73  H   0.967    N   66 0.929
    74  H   0.998    C   67 0.960
    75  H   0.998    C   70 0.965
    76  H   0.997    C   71 0.985
    77  H   0.999    C   71 0.983
    78  H   0.998    C   71 0.986
    79  H   0.997    C   72 0.981
    80  H   0.998    C   72 0.986
    81  H   0.997    C   72 0.981
    82  H   0.966    N    1 0.955
    83  H   0.994    C    3 0.953
    84  H   0.967    N   20 0.957
    85  H   0.995    C   38 0.954
    86  H   0.966    N   49 0.955
    87  H   0.994    C   51 0.953
    88  H   0.968    N   66 0.956
    89  H   0.995    C   68 0.954
 
molecular dipole:
                 x           y           z       tot (Debye)
 q only:        0.270       1.072      -8.513
   full:        0.651       1.269      -9.433      24.249
molecular quadrupole (traceless):
                xx          xy          yy          xz          yz          zz
 q only:      546.477     104.284     488.427    -430.823    -100.558   -1034.905
  q+dip:      633.319     136.691     523.023    -443.210    -102.294   -1156.342
   full:      636.341     136.690     521.859    -441.930    -101.886   -1158.200
speedup 11.89
cpu  time for grad    1.39 s
wall time for grad    0.12 s

SCC energy    :    -127.2744932
rep           :       1.6207255
ES            :       0.3479416
AES           :       0.0087019
AXC           :       0.0548713
disp          :      -0.0715310
XB            :       0.0000000
fix           :       0.0000000
Gborn         :       0.0000000
Gsasa         :       0.0000000
Ghb           :       0.0000000
Gshift        :       0.0000000
Gsolv         :      -0.0675152      -42.37
Etot ala COSMO:    -127.2744932
grad norm     :       0.4387846
total E       :    -125.6518005
atomizationE  :      22.5540681    14152.89
(atE without considering molecular charge,
 total energy contains solvation terms)
H-L gap (eV)  :          1.8635

------------------------------------------------------------------------
 * finished run on 2019/02/12 at 03:00:19.118     
------------------------------------------------------------------------
 total:
 * wall-time:     0 d,  0 h,  0 min,  0.188 sec
 *  cpu-time:     0 d,  0 h,  0 min,  2.055 sec
 * ratio c/w:    10.953 speedup
 SCF:
 * wall-time:     0 d,  0 h,  0 min,  0.133 sec
 *  cpu-time:     0 d,  0 h,  0 min,  1.574 sec
 * ratio c/w:    11.818 speedup

