      -----------------------------------------------------------      
     |                   =====================                   |     
     |                           x T B                           |     
     |                   =====================                   |     
     |                         S. Grimme                         |     
     |          Mulliken Center for Theoretical Chemistry        |     
     |                    University of Bonn                     |     
     |                 Version 6.0.1 (SAW181210)                 |     
      -----------------------------------------------------------      

   This program is distributed in the hope that it will be useful,
   but WITHOUT ANY WARRANTY; without even the implied warranty of
   MERCHANTABILITY or FITNESS FOR A PARTICULAR PURPOSE.
   
   FOR NON-COMMERCIAL, ACADEMIA USE ONLY.
   
   Cite this work as:
   S. Grimme, C. Bannwarth, P. Shushkov, J. Comput. Theory Chem., 2017,
   13, 1989-2009.
   C. Bannwarth, S. Ehlert and S. Grimme., ChemRxiv, 2018, preprint.
   http://doi.org/10.26434/chemrxiv.7246238.v1
   
   for sTDA-xTB:
   S. Grimme and C. Bannwarth, J. Chem. Phys., 2016, 145, 054103.
   
   in the mass-spec context:
   V. Asgeirsson, C. Bauer and S. Grimme, Chem. Sci., 2017, 8, 4879.
   
   if GBSA is used:
   P. Shushkov, F. März and S. Grimme, unpublished.
   
   for ANC optimizer:
   S. Grimme, unpublished.
   Rational Function algorithm used in ANCopt:
   F. Eckert, P. Pulay, H.-J. Werner, J. Comput. Chem., 1997, 18, 1473.
   
   with help from (in alphabetical order)
   C. Bannwarth, F. Bohle, G. Brandenburg, E. Caldeweyher, M. Checinski,
   S. Dohm, S. Ehlert, S. Ehrlich, F. März, H. Neugebauer, J. Pisarek,
   P. Pracht, P. Shushkov, and S. Spicher.
   
 * started run on 2019/05/04 at 19:51:51.556     
========================================================================
 # omp threads = 2
========================================================================
number of atoms            : 296
number of electrons        : 808
charge                     : 0
spin                       : .0
first test random number   : .9393

########################################################################
# WARNING! Please study the warnings concerning your input carefully
#  - Process number higher than OMP_NUM_THREADS, I hope you know what you are doing.
########################################################################

           ------------------------------------------------- 
          |                 G F N 2 - x T B                 |
          | Geometry, Frequencies, Noncovalent interactions |
          |            JCTC 2018 parametrisation            |
           ------------------------------------------------- 
 
      method parameters     
 k(s)        :  1.8500
 k(p)        :  2.2300
 k(d)        :  2.2300
 k(f)        :  2.0000
 kEN (H0ij)  : -2.0000
 D4 a1       :  0.5200
 D4 a2       :  5.0000
 D4 s6       :  1.0000
 D4 s8       :  2.7000
 D4 s9       :  5.0000
 alphaj      :  2.0000

 Solvent             : h2o
 Using internal parameter file: .param_gbsa2_h2o
 Gsolv ref. state (COSMO-RS): gsolv [1 M gas/solution]
 temperature (mdtemp)       :    298.150000000000     
 dielectric constant        :    80.2000000000000     
 rho                        :    1.00000000000000     
 mass                       :    18.0000000000000     
 surface tension            :    15.5689454083859     
 probe radius               :   0.975313790000000     
 vdW radii scaling          :    1.00000000000000     
 Gshift (Eh)                :   1.857443126794793E-003
 c1                         :    1.55243817000000     
 soset                      :   0.130326360000000     
 HB correction              :  T

            Z     q(EN)     CN     RAES       Cart. coordinates
     1  N   5.0   -0.21    3.23    1.96    15.37481    39.60110    13.20540
     2  C   4.0    0.03    4.28    4.17    12.70274    40.32675    12.84258
     3  C   4.0    0.14    3.39    3.08    12.44196    42.90245    11.64449
     4  O   6.0   -0.32    1.24    1.80    10.62782    43.43346    10.21397
     5  C   4.0   -0.02    4.24    4.07    11.19663    40.03951    15.35402
     6  C   4.0    0.25    3.13    3.03    12.33802    41.45492    17.57256
     7  O   6.0   -0.29    1.26    1.80    14.70207    41.24327    17.89193
     8  O   6.0   -0.30    1.22    1.80    10.98687    42.67946    19.01064
     9  H   1.0    0.12    1.07    1.44    16.03810    40.02251    14.97041
    10  H   1.0    0.04    1.05    1.44    11.88071    38.99072    11.47064
    11  H   1.0    0.07    1.03    1.43     9.25777    40.65367    15.03088
    12  H   1.0    0.05    1.03    1.43    11.14938    38.02885    15.83968
    13  N   5.0   -0.13    3.31    1.98    14.04066    44.72603    12.59313
    14  C   4.0    0.01    4.13    3.87    13.94429    47.27338    11.38938
    15  C   4.0    0.09    3.13    3.03    14.54144    47.20535     8.57747
    16  O   6.0   -0.30    1.14    1.80    13.42272    48.48848     7.00143
    17  H   1.0    0.09    1.07    1.44    15.83779    44.14211    12.93895
    18  H   1.0    0.05    1.03    1.43    12.03189    48.01227    11.62559
    19  H   1.0    0.05    1.02    1.43    15.31245    48.45824    12.37015
    20  N   5.0   -0.20    3.26    1.97    13.90838    42.19947     4.86415
    21  C   4.0    0.04    4.32    4.23    12.07157    40.71604     3.44686
    22  C   4.0    0.15    3.44    3.09     9.68485    42.31852     2.96309
    23  O   6.0   -0.30    1.29    1.80     8.32235    42.15034     1.06392
    24  C   4.0   -0.03    4.32    4.24    11.21741    38.46726     4.99455
    25  C   4.0   -0.04    4.21    4.02    12.99754    36.15802     4.70731
    26  C   4.0    0.15    3.22    3.04    12.54778    34.81820     2.23744
    27  O   6.0   -0.28    1.24    1.80    11.00009    35.56086     0.71432
    28  N   5.0   -0.18    3.18    1.95    13.84602    32.67714     1.86705
    29  H   1.0    0.08    1.02    1.43    14.71719    41.38122     6.39672
    30  H   1.0    0.06    1.05    1.44    12.82746    40.16046     1.60060
    31  H   1.0    0.05    1.03    1.43    11.10592    39.03040     6.97687
    32  H   1.0    0.06    1.04    1.43     9.32769    37.89090     4.38605
    33  H   1.0    0.04    1.03    1.43    14.95718    36.77596     4.85660
    34  H   1.0    0.04    1.03    1.43    12.63471    34.83521     6.24932
    35  H   1.0    0.08    1.02    1.43    14.97419    31.86834     3.18041
    36  H   1.0    0.10    1.03    1.43    13.59091    31.69448     0.23811
    37  N   5.0   -0.14    3.54    2.11     9.10659    43.84920     4.84337
    38  C   4.0    0.04    4.43    4.42     6.83892    45.44035     4.69219
    39  C   4.0    0.15    3.41    3.08     7.20930    47.88377     3.22009
    40  O   6.0   -0.30    1.25    1.80     5.51989    49.52027     3.14639
    41  C   4.0   -0.03    4.27    4.15     5.94886    45.97703     7.40584
    42  C   4.0   -0.04    4.21    4.01     4.59392    43.58842     8.37338
    43  C   4.0   -0.00    4.19    3.98     3.85882    43.83030    11.17395
    44  N   5.0   -0.14    3.41    2.03     1.84626    45.69735    11.34214
    45  C   4.0    0.10    3.34    3.06     1.53635    47.29039    13.28855
    46  N   5.0   -0.18    3.27    1.97     3.09537    47.29984    15.27654
    47  N   5.0   -0.17    3.25    1.97    -0.24944    49.04406    13.11470
    48  H   1.0    0.11    1.10    1.44    10.15728    43.89833     6.44208
    49  H   1.0    0.06    1.06    1.44     5.36304    44.38399     3.67552
    50  H   1.0    0.06    1.03    1.43     7.58914    46.39088     8.57180
    51  H   1.0    0.06    1.03    1.43     4.65628    47.57574     7.40395
    52  H   1.0    0.05    1.02    1.43     2.91207    43.19725     7.24332
    53  H   1.0    0.05    1.03    1.43     5.85437    41.96514     8.17306
    54  H   1.0    0.04    1.01    1.43     3.24466    41.98215    11.90149
    55  H   1.0    0.06    1.03    1.43     5.49910    44.43502    12.25865
    56  H   1.0    0.10    1.09    1.44     0.40251    45.51972    10.08358
    57  H   1.0    0.11    1.07    1.44     4.25188    45.83152    15.69228
    58  H   1.0    0.12    1.08    1.44     2.75711    48.67556    16.57668
    59  H   1.0    0.11    1.05    1.44    -1.53257    49.03839    11.68229
    60  H   1.0    0.12    1.05    1.44    -0.49133    50.24214    14.58302
    61  N   5.0   -0.13    3.39    2.01     9.43729    48.30140     2.11271
    62  C   4.0    0.03    4.26    4.12     9.69240    50.44623     0.44787
    63  C   4.0    0.16    3.31    3.06    10.16295    52.94445     1.87272
    64  O   6.0   -0.28    1.22    1.80     9.31068    54.90977     0.92408
    65  H   1.0    0.09    1.07    1.44    10.82057    46.98426     2.10138
    66  H   1.0    0.05    1.02    1.43    11.28544    50.17978    -0.83715
    67  H   1.0    0.07    1.03    1.43     7.94819    50.69946    -0.62361
    68  N   5.0   -0.14    3.43    2.04    11.48009    52.89910     4.02512
    69  C   4.0    0.04    4.32    4.24    11.63504    55.08740     5.66540
    70  C   4.0    0.09    3.19    3.04    14.28633    56.27604     5.65784
    71  O   6.0   -0.28    1.12    1.80    14.90238    57.90309     7.20741
    72  C   4.0   -0.04    4.36    4.31    10.96797    54.35230     8.39227
    73  C   4.0   -0.02    4.17    3.94     8.21842    53.45657     8.63038
    74  C   4.0   -0.08    4.09    3.79     7.76299    52.59674    11.40072
    75  C   4.0   -0.07    4.11    3.82     6.37216    55.59196     8.03511
    76  H   1.0    0.11    1.09    1.44    12.02055    51.21535     4.77534
    77  H   1.0    0.06    1.06    1.44    10.31034    56.50092     4.93974
    78  H   1.0    0.06    1.03    1.43    12.24353    52.83296     8.96108
    79  H   1.0    0.05    1.03    1.43    11.29111    55.99258     9.59225
    80  H   1.0    0.06    1.05    1.44     7.88583    51.87487     7.34536
    81  H   1.0    0.05    1.00    1.43     5.83925    51.91644    11.61615
    82  H   1.0    0.04    1.00    1.43     9.05746    51.08307    11.89394
    83  H   1.0    0.04    1.00    1.43     8.06913    54.18978    12.65549
    84  H   1.0    0.04    1.00    1.43     4.47298    55.08551     8.62849
    85  H   1.0    0.05    1.00    1.43     6.89750    57.31728     9.02344
    86  H   1.0    0.06    1.00    1.43     6.27767    55.98691     6.01878
    87  N   5.0   -0.22    3.20    1.96     1.18675    58.27726    19.51520
    88  C   4.0    0.03    4.29    4.18     1.54391    56.12297    17.84279
    89  C   4.0    0.15    3.39    3.08     1.49288    53.50948    19.13725
    90  O   6.0   -0.32    1.35    1.80     1.52501    51.63487    17.76342
    91  C   4.0   -0.04    4.32    4.24     4.14606    56.38564    16.49353
    92  C   4.0   -0.02    3.56    3.14     4.18007    58.57584    14.70585
    93  C   4.0   -0.04    3.46    3.10     2.27145    58.95945    12.90683
    94  C   4.0   -0.04    3.50    3.12     6.10381    60.32950    14.83057
    95  C   4.0   -0.04    3.40    3.08     2.38294    61.09862    11.40450
    96  C   4.0   -0.04    3.37    3.07     6.24743    62.41387    13.28288
    97  C   4.0   -0.04    3.37    3.07     4.35204    62.80882    11.53867
    98  H   1.0    0.08    1.02    1.43     2.70420    58.83284    20.55077
    99  H   1.0    0.06    1.05    1.44     0.01323    56.11541    16.45384
   100  H   1.0    0.04    1.03    1.43     5.60115    56.63887    17.93161
   101  H   1.0    0.05    1.03    1.43     4.48621    54.62820    15.46741
   102  H   1.0    0.06    1.03    1.43     0.72188    57.64798    12.70463
   103  H   1.0    0.05    1.03    1.43     7.55323    60.04037    16.24219
   104  H   1.0    0.05    1.03    1.43     0.90896    61.38019    10.00799
   105  H   1.0    0.05    1.03    1.43     7.80268    63.71967    13.43595
   106  H   1.0    0.05    1.03    1.43     4.38227    64.42832    10.30279
   107  N   5.0   -0.13    3.42    2.03     1.44753    53.24681    21.64114
   108  C   4.0    0.04    4.24    4.08     1.74989    50.76182    22.74474
   109  C   4.0    0.09    3.20    3.04    -0.12094    50.27805    24.90281
   110  O   6.0   -0.30    1.19    1.80    -1.25667    51.95424    26.05743
   111  C   4.0   -0.07    4.08    3.76     4.46353    50.49726    23.88803
   112  H   1.0    0.09    1.05    1.44     1.38328    54.73591    22.85246
   113  H   1.0    0.06    1.07    1.44     1.44186    49.38610    21.24052
   114  H   1.0    0.05    1.00    1.43     4.69975    48.58485    24.58533
   115  H   1.0    0.04    1.00    1.43     5.83547    50.86008    22.40459
   116  H   1.0    0.05    1.00    1.43     4.66951    51.87298    25.39603
   117  N   5.0   -0.21    3.23    1.96    12.68762    46.96725    21.92460
   118  C   4.0    0.04    4.33    4.25    13.55878    48.17856    19.64748
   119  C   4.0    0.08    3.20    3.04    16.28755    49.16878    19.63803
   120  O   6.0   -0.28    1.12    1.80    17.42327    49.20846    17.59713
   121  C   4.0   -0.02    4.27    4.15    11.64638    50.34041    19.05033
   122  C   4.0   -0.07    4.14    3.87    12.54589    52.22258    17.19840
   123  C   4.0   -0.07    4.14    3.89     9.24454    48.94957    18.18861
   124  H   1.0    0.12    1.05    1.44    11.99220    45.20224    21.60335
   125  H   1.0    0.07    1.06    1.44    13.48697    46.78584    18.12247
   126  H   1.0    0.04    1.06    1.44    11.24576    51.31551    20.83045
   127  H   1.0    0.04    1.00    1.43    11.02655    53.52271    16.70707
   128  H   1.0    0.05    1.00    1.43    14.10114    53.33940    17.94862
   129  H   1.0    0.05    1.00    1.43    13.20163    51.32496    15.46174
   130  H   1.0    0.04    1.00    1.43     7.72709    50.27994    17.78799
   131  H   1.0    0.05    1.00    1.43     9.61682    47.89510    16.46518
   132  H   1.0    0.06    1.00    1.43     8.60392    47.62298    19.61347
   133  O   6.0   -0.28    1.93    1.82     3.95898    41.05619    -1.36438
   134  H   1.0    0.17    1.03    1.43     5.51044    41.43791    -0.47621
   135  H   1.0    0.14    0.97    1.43     3.44875    42.62277    -2.12972
   136  O   6.0   -0.30    1.95    1.82    -0.26645    47.42456     3.45820
   137  H   1.0    0.15    0.97    1.43     1.22265    48.45635     3.25222
   138  H   1.0    0.15    0.98    1.43    -1.71398    48.40155     2.94230
   139  O   6.0   -0.30    1.99    1.83    -3.90606    49.75837     8.98187
   140  H   1.0    0.16    1.03    1.43    -2.77412    51.07362     8.36582
   141  H   1.0    0.16    0.99    1.43    -5.46509    50.59552     9.42784
   142  O   6.0   -0.28    1.93    1.82    -3.95898    41.05619     1.36438
   143  H   1.0    0.14    0.97    1.43    -5.51044    41.43791     0.47621
   144  H   1.0    0.14    0.97    1.43    -3.44875    42.62277     2.12972
   145  O   6.0   -0.28    1.92    1.82   -10.91573    47.71566     9.57902
   146  H   1.0    0.15    1.01    1.43    -9.48031    46.60762     9.91539
   147  H   1.0    0.15    1.00    1.43   -10.23891    49.42841     9.79445
   148  O   6.0   -0.28    1.92    1.82     0.26645    47.42456    -3.45820
   149  H   1.0    0.14    0.97    1.43    -1.22265    48.45635    -3.25222
   150  H   1.0    0.14    0.97    1.43     1.71398    48.40155    -2.94230
   151  O   6.0   -0.31    1.98    1.82     5.98551    43.29943    17.27021
   152  H   1.0    0.16    1.01    1.43     5.74222    41.46075    17.07178
   153  H   1.0    0.14    0.97    1.43     6.32933    43.55479    19.04088
   154  O   6.0   -0.28    1.89    1.82    -6.63410    54.39089     3.61694
   155  H   1.0    0.13    0.94    1.42    -7.69588    54.71369     2.07303
   156  H   1.0    0.16    1.00    1.43    -6.05200    55.99249     4.29724
   157  O   6.0   -0.32    2.05    1.83    -2.39697    44.80922     7.81213
   158  H   1.0    0.14    1.00    1.43    -2.50335    43.07916     7.20553
   159  H   1.0    0.15    1.00    1.43    -1.70786    45.75333     6.39672
   160  O   6.0   -0.30    2.00    1.83    -0.72267    53.60513     8.47542
   161  H   1.0    0.13    0.97    1.43     1.07644    53.84511     8.41117
   162  H   1.0    0.15    1.01    1.43    -1.25470    54.03667    10.20074
   163  O   6.0   -0.30    2.00    1.83    -6.82689    44.52142    10.03256
   164  H   1.0    0.14    0.97    1.43    -7.38957    43.38430     8.73431
   165  H   1.0    0.16    1.04    1.43    -5.15008    45.03712     9.49209
   166  O   6.0   -0.28    1.92    1.82    -5.83169    47.63621     4.16685
   167  H   1.0    0.14    0.97    1.43    -6.74632    49.19902     4.03268
   168  H   1.0    0.15    0.99    1.43    -5.16651    47.65133     5.88650
   169  N   5.0   -0.21    3.23    1.96   -13.84952    56.42919    11.63126
   170  C   4.0    0.02    4.26    4.12   -12.75959    54.58669     9.81902
   171  C   4.0    0.15    3.42    3.08    -9.89285    54.50267    10.17428
   172  O   6.0   -0.32    1.32    1.80    -8.65546    52.50739    10.28389
   173  C   4.0   -0.03    4.29    4.17   -13.50959    55.54777     7.18852
   174  C   4.0   -0.02    4.13    3.85   -13.23911    53.65031     5.08714
   175  C   4.0    0.26    3.06    3.02   -14.43744    54.73058     2.51145
   176  O   6.0   -0.27    1.17    1.80   -14.44783    57.08230     2.23555
   177  O   6.0   -0.26    1.16    1.80   -15.27098    53.14323     1.02423
   178  H   1.0    0.09    1.03    1.43   -14.86838    57.86189    10.88104
   179  H   1.0    0.05    1.04    1.43   -13.52744    52.69738    10.18940
   180  H   1.0    0.05    1.03    1.43   -15.48898    56.14069     7.27356
   181  H   1.0    0.06    1.03    1.43   -12.38617    57.22524     6.74065
   182  H   1.0    0.06    1.02    1.43   -11.25846    53.23342     4.67518
   183  H   1.0    0.06    1.02    1.43   -14.20731    51.87886     5.49154
   184  N   5.0   -0.14    3.55    2.11    -8.67904    56.74112    10.47664
   185  C   4.0    0.05    4.51    4.55    -5.94148    56.70549    10.65805
   186  C   4.0    0.15    3.46    3.10    -5.00759    55.50733    13.03911
   187  O   6.0   -0.31    1.25    1.80    -2.85173    54.53976    13.24131
   188  C   4.0   -0.04    4.37    4.32    -5.12696    59.44287    10.62404
   189  C   4.0    0.15    3.24    3.04    -5.19992    60.42765     7.88772
   190  O   6.0   -0.30    1.26    1.80    -5.64640    59.06851     6.05846
   191  N   5.0   -0.18    3.18    1.95    -4.82743    62.90963     7.67229
   192  H   1.0    0.08    1.06    1.44    -9.57336    58.40086    10.15539
   193  H   1.0    0.07    1.06    1.44    -5.13307    55.70197     9.02344
   194  H   1.0    0.04    1.03    1.43    -6.41436    60.57674    11.75599
   195  H   1.0    0.04    1.03    1.43    -3.21051    59.66310    11.36103
   196  H   1.0    0.10    1.03    1.43    -5.05520    63.71321     5.96020
   197  H   1.0    0.08    1.03    1.43    -4.86939    64.01615     9.23698
   198  N   5.0   -0.15    3.52    2.09    -6.68634    55.60809    14.98364
   199  C   4.0    0.03    4.39    4.36    -6.00710    54.65296    17.51776
   200  C   4.0    0.16    3.40    3.08    -5.76993    51.74917    17.47430
   201  O   6.0   -0.29    1.21    1.80    -4.48032    50.63803    19.06167
   202  C   4.0   -0.05    4.23    4.05    -7.97075    55.46591    19.45851
   203  C   4.0   -0.04    4.15    3.90    -7.12417    54.92913    22.24396
   204  C   4.0   -0.01    4.17    3.93    -5.28509    56.93532    23.23229
   205  N   5.0   -0.14    3.41    2.02    -4.34004    56.19113    25.70594
   206  C   4.0    0.09    3.35    3.06    -4.76372    57.21474    27.95661
   207  N   5.0   -0.18    3.24    1.97    -6.04759    59.35251    28.23629
   208  N   5.0   -0.18    3.24    1.96    -4.03490    55.97132    30.05231
   209  H   1.0    0.08    1.08    1.44    -8.33776    56.53099    14.77199
   210  H   1.0    0.06    1.05    1.44    -4.14148    55.40878    17.99775
   211  H   1.0    0.04    1.03    1.43    -8.32719    57.48282    19.22985
   212  H   1.0    0.05    1.02    1.43    -9.72106    54.44495    19.06922
   213  H   1.0    0.05    1.02    1.43    -8.79465    54.88547    23.44394
   214  H   1.0    0.07    1.03    1.43    -6.22273    53.07762    22.31577
   215  H   1.0    0.05    1.02    1.43    -3.66555    57.11750    21.96051
   216  H   1.0    0.04    1.03    1.43    -6.20510    58.77355    23.35890
   217  H   1.0    0.12    1.13    1.45    -3.32421    54.55288    25.70216
   218  H   1.0    0.08    1.03    1.43    -5.86220    60.66382    26.85679
   219  H   1.0    0.09    1.04    1.43    -6.11859    59.98920    30.04853
   220  H   1.0    0.10    1.04    1.43    -2.75778    54.58154    29.83310
   221  H   1.0    0.09    1.03    1.43    -4.01349    56.99107    31.68503
   222  N   5.0   -0.14    3.36    2.01    -7.16533    50.63240    15.70929
   223  C   4.0    0.02    4.14    3.87    -7.34425    47.87719    15.45607
   224  C   4.0    0.09    3.10    3.02    -9.81893    46.67874    16.26109
   225  O   6.0   -0.27    1.11    1.80   -10.04865    44.36090    16.32156
   226  H   1.0    0.10    1.09    1.44    -8.06117    51.68859    14.39593
   227  H   1.0    0.07    1.03    1.43    -6.99156    47.33535    13.49453
   228  H   1.0    0.07    1.04    1.43    -5.84371    47.07850    16.63337
   229  N   5.0   -0.20    3.20    1.96    -3.77500    34.43264     5.05880
   230  C   4.0    0.03    4.27    4.13    -1.74496    35.10662     6.79923
   231  C   4.0    0.07    3.19    3.04    -2.46471    34.59697     9.53934
   232  O   6.0   -0.32    1.18    1.80    -1.10842    35.45702    11.33080
   233  C   4.0    0.05    4.23    4.05    -0.79806    37.77848     6.42696
   234  O   6.0   -0.25    2.14    1.85    -2.85685    39.54537     6.27956
   235  C   4.0   -0.06    4.07    3.75     0.74079    38.05525     3.99299
   236  H   1.0    0.10    1.02    1.43    -5.08915    35.76961     4.69408
   237  H   1.0    0.04    1.06    1.44    -0.14779    33.84410     6.34570
   238  H   1.0    0.05    1.04    1.43     0.39769    38.27734     8.06346
   239  H   1.0    0.12    1.01    1.43    -3.99719    39.27855     7.70252
   240  H   1.0    0.06    1.00    1.43     1.36940    39.99440     3.77378
   241  H   1.0    0.04    1.00    1.43     2.38122    36.82230     4.02701
   242  H   1.0    0.06    1.00    1.43    -0.44236    37.59712     2.37916
   243  N   5.0   -0.20    3.27    1.97     2.95915    32.69837    13.49075
   244  C   4.0    0.04    4.34    4.27     4.77041    34.72063    13.89138
   245  C   4.0    0.15    3.41    3.08     3.82727    36.68131    15.69795
   246  O   6.0   -0.32    1.31    1.80     5.37188    38.19636    16.61258
   247  C   4.0   -0.04    4.26    4.12     5.51117    35.94696    11.29678
   248  C   4.0   -0.02    3.69    3.23     6.71021    33.91927     9.73776
   249  C   4.0   -0.01    3.60    3.16     5.77316    32.51169     7.78945
   250  C   4.0   -0.00    3.86    3.41     9.32611    33.19671     9.99665
   251  N   5.0   -0.12    3.44    2.04     7.56998    30.92223     6.78223
   252  C   4.0    0.04    3.89    3.45     9.73899    31.27377     8.16929
   253  C   4.0   -0.05    3.38    3.07    11.25135    33.76099    11.73520
   254  C   4.0   -0.05    3.40    3.08    12.06564    30.07668     7.93118
   255  C   4.0   -0.04    3.37    3.07    13.54960    32.49956    11.49331
   256  C   4.0   -0.04    3.35    3.07    13.98210    30.72023     9.59981
   257  H   1.0    0.11    1.06    1.44     1.29440    33.25802    12.69140
   258  H   1.0    0.05    1.05    1.44     6.47675    33.86640    14.70963
   259  H   1.0    0.05    1.02    1.43     3.79182    36.66905    10.41428
   260  H   1.0    0.05    1.02    1.43     6.81101    37.50294    11.66150
   261  H   1.0    0.05    1.02    1.43     3.89066    32.54679     7.00899
   262  H   1.0    0.08    1.04    1.43     7.31169    29.60937     5.41029
   263  H   1.0    0.05    1.02    1.43    10.94326    35.15865    13.19596
   264  H   1.0    0.05    1.03    1.43    12.33490    28.69490     6.45341
   265  H   1.0    0.05    1.03    1.43    15.04734    32.96590    12.80289
   266  H   1.0    0.05    1.03    1.43    15.80426    29.82095     9.45997
   267  N   5.0   -0.14    3.49    2.07     1.36216    36.84113    16.19873
   268  C   4.0    0.04    4.45    4.46     0.37413    38.61825    18.06389
   269  C   4.0    0.08    3.26    3.04     0.21281    37.34105    20.64337
   270  O   6.0   -0.28    1.12    1.80     0.51599    38.68255    22.56711
   271  C   4.0   -0.02    4.29    4.19    -2.22252    39.50645    17.26454
   272  C   4.0   -0.06    4.12    3.85    -3.50110    41.04109    19.34135
   273  C   4.0   -0.06    4.13    3.86    -1.96622    40.89901    14.76632
   274  H   1.0    0.09    1.08    1.44     0.14840    35.56276    15.47875
   275  H   1.0    0.07    1.06    1.44     1.69495    40.19922    18.25097
   276  H   1.0    0.05    1.06    1.44    -3.34777    37.78421    16.95651
   277  H   1.0    0.06    1.00    1.43    -5.27602    41.81054    18.64404
   278  H   1.0    0.06    1.00    1.43    -3.87430    39.87313    20.99108
   279  H   1.0    0.06    1.00    1.43    -2.29619    42.59515    19.95551
   280  H   1.0    0.06    1.00    1.43    -3.74709    41.75264    14.20318
   281  H   1.0    0.05    1.00    1.43    -0.58291    42.40680    14.95718
   282  H   1.0    0.06    1.00    1.43    -1.32032    39.61400    13.29800
   283  H   1.0    0.09    1.07    1.44    15.54372    37.92421    12.97720
   284  H   1.0    0.06    1.05    1.44    15.90794    46.07263     7.92886
   285  H   1.0    0.10    1.07    1.44    15.20385    42.62175     3.84631
   286  H   1.0    0.07    1.04    1.44    15.56173    55.73272     4.37361
   287  H   1.0    0.09    1.07    1.44     0.73357    59.63735    18.60014
   288  H   1.0    0.06    1.05    1.44    -0.48698    48.50895    25.45720
   289  H   1.0    0.10    1.08    1.44    13.97859    46.82772    23.02301
   290  H   1.0    0.06    1.04    1.43    17.08612    49.75342    21.24786
   291  H   1.0    0.10    1.07    1.44   -14.89911    55.62238    12.69896
   292  H   1.0    0.06    1.04    1.44   -11.28262    47.76996    16.74887
   293  H   1.0    0.10    1.07    1.44    -3.11344    34.02117     3.54698
   294  H   1.0    0.06    1.04    1.43    -4.00864    33.58277     9.93775
   295  H   1.0    0.10    1.08    1.44     3.63360    31.52879    12.45646
   296  H   1.0    0.06    1.04    1.43    -0.12637    35.48565    20.75947

  Z AO/shell   Hii/eV     exponent
  1     Wed Apr 25 08:07:45 CEST 2018   EN: 2.200 GM2: 0.406  GM3: 0.0800  RAES: 1.40
     1s    -10.707211    1.230000
  6     Wed Apr 25 08:07:45 CEST 2018   EN: 2.550 GM2: 0.538  GM3: 0.1500  RAES: 3.00
     2s    -13.970922    2.096432
     2p    -10.063292    1.800000
  7     Wed Apr 25 08:07:45 CEST 2018   EN: 3.040 GM2: 0.461  GM3:-0.0640  RAES: 1.90
     2s    -16.686243    2.339881
     2p    -12.523956    2.014332
  8     Wed Apr 25 08:07:45 CEST 2018   EN: 3.440 GM2: 0.452  GM3:-0.0517  RAES: 1.80
     2s    -20.229985    2.439742
     2p    -15.503117    2.137023
 no old-style atom pair restraining (fixing) potential

molecular fragmentation (1/2 indicates fragments):
111111111111111111122222222222222222222222222222222222222222222222222222
222222222222222222222222222222222222222222222222222222222222222222222222
222222222222222222222222222222222222222222222222222222222222222222222222
222222222222222222222222222222222222222222222222222222222222222222112222
22222222
# atoms in fragment 1/2:    21   275
 fragment masses (1/2) :      173.15     1844.11
CMA distance (Bohr)    :  12.426
constraining FC (au)   :  0.0500
           ------------------------------------------------- 
          |        Self-Consistent Charge Iterations        |
           ------------------------------------------------- 

 Ncao       : 713
 Nao        : 713
 Nshell     : 435
 Nel        : 808
 T(el)      :   500.0
 intcut     :    35.0
 scfconv/Eh :  0.100E-06
   qconv/e  :  0.100E-04
 intneglect :  0.100E-08
 broydamp   :      0.400
 iter      E             dE          RMSdq      gap      omega  full diag
   1   -468.7098311 -0.468710E+03  0.493E+00    2.77       0.0  T
   2   -469.8880747 -0.117824E+01  0.232E+00    1.35       1.0  T
   3   -469.9731781 -0.851034E-01  0.131E+00    1.82       1.0  T
   4   -470.0715169 -0.983388E-01  0.311E-01    1.02       1.0  T
   5   -470.0757112 -0.419437E-02  0.160E-01    1.25       1.0  T
   6   -470.0781350 -0.242376E-02  0.668E-02    1.17       1.0  T
   7   -470.0785639 -0.428879E-03  0.338E-02    1.18       1.0  T
   8   -470.0786307 -0.668516E-04  0.172E-02    1.19       1.0  T
   9   -470.0786546 -0.238844E-04  0.677E-03    1.19       1.0  T
  10   -470.0786582 -0.362104E-05  0.350E-03    1.19       1.7  T
  11   -470.0786589 -0.677014E-06  0.150E-03    1.19       3.9  T
  12   -470.0786591 -0.183041E-06  0.635E-04    1.19       9.2  T
  13   -470.0786591 -0.258875E-07  0.289E-04    1.19      20.1  T
  14   -470.0786591 -0.420238E-08  0.150E-04    1.19      38.9  T
  15   -470.0786591 -0.170417E-08  0.526E-05    1.19     110.5  T
  16   -470.0786591 -0.185992E-09  0.250E-05    1.19     232.8  T
speedup  1.53
cpu  time for SCC    8.42 s
wall time for SCC    5.52 s

   *** convergence criteria satisfied after 16 iterations ***

          eigenvalues
 #    :         392        393        394        395        396        397        398        399
 occ. :        2.000      2.000      2.000      2.000      2.000      2.000      2.000      2.000
 eps  :       -10.447    -10.352    -10.255    -10.172    -10.158    -10.138    -10.098     -9.920
 #    :         400        401        402        403        404        405        406        407
 occ. :        2.000      2.000      2.000      2.000      2.000      0.000      0.000      0.000
 eps  :        -9.894     -9.891     -9.592     -9.496     -9.479     -8.288     -8.104     -7.882
 #    :         408        409        410        411        412        413        414        415
 occ. :        0.000      0.000      0.000      0.000      0.000      0.000      0.000      0.000
 eps  :        -7.862     -7.763     -7.560     -7.429     -6.738     -6.723     -6.629     -6.555


   #   Z            q   n(s)   n(p)   n(d)      C6AA      α(0)
   1   7 N     -0.423  1.330  4.094  0.000    31.035     8.274
   2   6 C      0.051  1.060  2.890  0.000    19.745     6.330
   3   6 C      0.260  1.065  2.675  0.000    22.621     7.788
   4   8 O     -0.468  1.746  4.721  0.000    23.084     6.442
   5   6 C     -0.083  1.067  3.016  0.000    22.083     6.691
   6   6 C      0.371  1.020  2.609  0.000    20.709     7.447
   7   8 O     -0.668  1.780  4.888  0.000    27.844     7.075
   8   8 O     -0.586  1.749  4.838  0.000    25.782     6.808
   9   1 H      0.179  0.821  0.000  0.000     1.220     1.730
  10   1 H      0.029  0.971  0.000  0.000     2.600     2.522
  11   1 H      0.048  0.952  0.000  0.000     2.350     2.397
  12   1 H      0.018  0.982  0.000  0.000     2.768     2.602
  13   7 N     -0.188  1.307  3.881  0.000    25.076     7.437
  14   6 C     -0.024  1.053  2.970  0.000    21.080     6.552
  15   6 C      0.202  1.085  2.713  0.000    23.695     7.972
  16   8 O     -0.352  1.738  4.614  0.000    20.752     6.108
  17   1 H      0.206  0.794  0.000  0.000     1.076     1.625
  18   1 H      0.113  0.887  0.000  0.000     1.674     2.023
  19   1 H      0.117  0.883  0.000  0.000     1.639     2.002
  20   7 N     -0.392  1.314  4.078  0.000    30.143     8.154
  21   6 C      0.034  1.055  2.910  0.000    20.008     6.371
  22   6 C      0.263  1.050  2.688  0.000    22.573     7.781
  23   8 O     -0.521  1.753  4.768  0.000    24.262     6.604
  24   6 C     -0.054  1.050  3.004  0.000    21.528     6.604
  25   6 C     -0.100  1.057  3.043  0.000    22.409     6.739
  26   6 C      0.294  1.033  2.673  0.000    22.005     7.681
  27   8 O     -0.496  1.754  4.743  0.000    23.705     6.528
  28   7 N     -0.293  1.264  4.029  0.000    27.555     7.796
  29   1 H      0.152  0.848  0.000  0.000     1.389     1.846
  30   1 H      0.037  0.963  0.000  0.000     2.485     2.465
  31   1 H      0.048  0.952  0.000  0.000     2.347     2.396
  32   1 H      0.051  0.949  0.000  0.000     2.308     2.376
  33   1 H      0.066  0.934  0.000  0.000     2.133     2.284
  34   1 H      0.067  0.933  0.000  0.000     2.114     2.274
  35   1 H      0.217  0.783  0.000  0.000     1.025     1.586
  36   1 H      0.229  0.771  0.000  0.000     0.972     1.544
  37   7 N     -0.167  1.248  3.919  0.000    24.604     7.367
  38   6 C      0.015  1.065  2.920  0.000    20.325     6.419
  39   6 C      0.268  1.047  2.685  0.000    22.479     7.764
  40   8 O     -0.490  1.751  4.740  0.000    23.567     6.509
  41   6 C     -0.083  1.060  3.023  0.000    22.079     6.689
  42   6 C     -0.079  1.058  3.022  0.000    22.011     6.679
  43   6 C     -0.015  1.050  2.965  0.000    20.931     6.529
  44   7 N     -0.166  1.225  3.941  0.000    24.600     7.366
  45   6 C      0.223  1.025  2.752  0.000    23.309     7.905
  46   7 N     -0.274  1.249  4.025  0.000    27.089     7.730
  47   7 N     -0.258  1.240  4.018  0.000    26.702     7.674
  48   1 H      0.231  0.769  0.000  0.000     0.962     1.537
  49   1 H      0.097  0.903  0.000  0.000     1.812     2.105
  50   1 H      0.077  0.923  0.000  0.000     2.005     2.214
  51   1 H      0.090  0.910  0.000  0.000     1.879     2.144
  52   1 H      0.068  0.932  0.000  0.000     2.112     2.272
  53   1 H      0.051  0.949  0.000  0.000     2.305     2.374
  54   1 H      0.054  0.946  0.000  0.000     2.273     2.358
  55   1 H      0.080  0.920  0.000  0.000     1.974     2.197
  56   1 H      0.239  0.761  0.000  0.000     0.927     1.509
  57   1 H      0.238  0.762  0.000  0.000     0.931     1.512
  58   1 H      0.251  0.749  0.000  0.000     0.880     1.470
  59   1 H      0.246  0.754  0.000  0.000     0.898     1.485
  60   1 H      0.239  0.761  0.000  0.000     0.928     1.509
  61   7 N     -0.160  1.232  3.928  0.000    24.457     7.345
  62   6 C     -0.031  1.053  2.978  0.000    21.186     6.564
  63   6 C      0.275  1.043  2.682  0.000    22.352     7.742
  64   8 O     -0.509  1.759  4.750  0.000    23.983     6.566
  65   1 H      0.198  0.802  0.000  0.000     1.115     1.654
  66   1 H      0.085  0.915  0.000  0.000     1.924     2.169
  67   1 H      0.095  0.905  0.000  0.000     1.830     2.116
  68   7 N     -0.169  1.243  3.927  0.000    24.662     7.376
  69   6 C      0.022  1.061  2.916  0.000    20.208     6.402
  70   6 C      0.196  1.090  2.714  0.000    23.815     7.992
  71   8 O     -0.372  1.759  4.613  0.000    21.121     6.162
  72   6 C     -0.077  1.061  3.016  0.000    21.971     6.672
  73   6 C     -0.016  1.059  2.957  0.000    20.832     6.492
  74   6 C     -0.126  1.048  3.078  0.000    22.975     6.834
  75   6 C     -0.113  1.039  3.074  0.000    22.721     6.796
  76   1 H      0.229  0.771  0.000  0.000     0.968     1.542
  77   1 H      0.112  0.888  0.000  0.000     1.677     2.025
  78   1 H      0.057  0.943  0.000  0.000     2.237     2.339
  79   1 H      0.079  0.921  0.000  0.000     1.988     2.205
  80   1 H      0.038  0.962  0.000  0.000     2.472     2.459
  81   1 H      0.060  0.940  0.000  0.000     2.196     2.318
  82   1 H      0.041  0.959  0.000  0.000     2.439     2.442
  83   1 H      0.055  0.945  0.000  0.000     2.260     2.351
  84   1 H      0.046  0.954  0.000  0.000     2.366     2.405
  85   1 H      0.046  0.954  0.000  0.000     2.373     2.409
  86   1 H      0.029  0.971  0.000  0.000     2.602     2.523
  87   7 N     -0.384  1.305  4.079  0.000    29.920     8.124
  88   6 C      0.018  1.067  2.915  0.000    20.290     6.417
  89   6 C      0.260  1.053  2.686  0.000    22.617     7.788
  90   8 O     -0.488  1.735  4.753  0.000    23.508     6.501
  91   6 C     -0.080  1.058  3.022  0.000    22.010     6.678
  92   6 C      0.015  1.081  2.904  0.000    27.675     8.629
  93   6 C     -0.049  1.083  2.966  0.000    29.226     8.865
  94   6 C     -0.041  1.077  2.964  0.000    29.020     8.835
  95   6 C     -0.037  1.080  2.957  0.000    28.915     8.818
  96   6 C     -0.033  1.078  2.955  0.000    28.817     8.803
  97   6 C     -0.037  1.077  2.960  0.000    28.915     8.818
  98   1 H      0.160  0.840  0.000  0.000     1.337     1.812
  99   1 H      0.078  0.922  0.000  0.000     2.003     2.213
 100   1 H      0.047  0.953  0.000  0.000     2.355     2.400
 101   1 H      0.070  0.930  0.000  0.000     2.086     2.258
 102   1 H      0.051  0.949  0.000  0.000     2.304     2.374
 103   1 H      0.031  0.969  0.000  0.000     2.569     2.507
 104   1 H      0.026  0.974  0.000  0.000     2.648     2.545
 105   1 H      0.024  0.976  0.000  0.000     2.668     2.554
 106   1 H      0.023  0.977  0.000  0.000     2.689     2.564
 107   7 N     -0.143  1.227  3.917  0.000    24.104     7.292
 108   6 C      0.017  1.062  2.921  0.000    20.300     6.416
 109   6 C      0.197  1.096  2.708  0.000    23.806     7.991
 110   8 O     -0.359  1.728  4.631  0.000    20.878     6.126
 111   6 C     -0.135  1.051  3.083  0.000    23.150     6.861
 112   1 H      0.223  0.777  0.000  0.000     0.997     1.564
 113   1 H      0.114  0.886  0.000  0.000     1.665     2.018
 114   1 H      0.069  0.931  0.000  0.000     2.098     2.265
 115   1 H      0.082  0.918  0.000  0.000     1.958     2.188
 116   1 H      0.076  0.924  0.000  0.000     2.026     2.226
 117   7 N     -0.387  1.312  4.075  0.000    30.020     8.137
 118   6 C      0.042  1.057  2.902  0.000    19.888     6.352
 119   6 C      0.193  1.093  2.714  0.000    23.875     8.002
 120   8 O     -0.402  1.763  4.639  0.000    21.727     6.249
 121   6 C     -0.012  1.063  2.949  0.000    20.751     6.479
 122   6 C     -0.113  1.034  3.078  0.000    22.713     6.795
 123   6 C     -0.123  1.046  3.078  0.000    22.913     6.824
 124   1 H      0.174  0.826  0.000  0.000     1.251     1.752
 125   1 H      0.044  0.956  0.000  0.000     2.396     2.420
 126   1 H      0.058  0.942  0.000  0.000     2.218     2.329
 127   1 H      0.065  0.935  0.000  0.000     2.139     2.287
 128   1 H      0.028  0.972  0.000  0.000     2.618     2.530
 129   1 H      0.037  0.963  0.000  0.000     2.495     2.470
 130   1 H      0.062  0.938  0.000  0.000     2.173     2.305
 131   1 H      0.036  0.964  0.000  0.000     2.501     2.473
 132   1 H      0.062  0.938  0.000  0.000     2.173     2.305
 133   8 O     -0.653  1.766  4.886  0.000    26.488     6.946
 134   1 H      0.320  0.680  0.000  0.000     0.663     1.279
 135   1 H      0.309  0.691  0.000  0.000     0.695     1.310
 136   8 O     -0.617  1.741  4.876  0.000    25.589     6.827
 137   1 H      0.310  0.690  0.000  0.000     0.692     1.306
 138   1 H      0.313  0.687  0.000  0.000     0.683     1.298
 139   8 O     -0.626  1.746  4.880  0.000    25.828     6.859
 140   1 H      0.327  0.673  0.000  0.000     0.646     1.262
 141   1 H      0.298  0.702  0.000  0.000     0.728     1.340
 142   8 O     -0.628  1.763  4.866  0.000    25.876     6.866
 143   1 H      0.317  0.683  0.000  0.000     0.673     1.288
 144   1 H      0.312  0.688  0.000  0.000     0.687     1.302
 145   8 O     -0.684  1.788  4.896  0.000    27.290     7.051
 146   1 H      0.321  0.679  0.000  0.000     0.662     1.279
 147   1 H      0.300  0.700  0.000  0.000     0.722     1.335
 148   8 O     -0.648  1.770  4.878  0.000    26.366     6.930
 149   1 H      0.330  0.670  0.000  0.000     0.637     1.253
 150   1 H      0.318  0.682  0.000  0.000     0.670     1.285
 151   8 O     -0.613  1.742  4.871  0.000    25.503     6.816
 152   1 H      0.306  0.694  0.000  0.000     0.704     1.318
 153   1 H      0.306  0.694  0.000  0.000     0.703     1.317
 154   8 O     -0.629  1.760  4.869  0.000    25.908     6.869
 155   1 H      0.288  0.712  0.000  0.000     0.759     1.369
 156   1 H      0.326  0.674  0.000  0.000     0.649     1.265
 157   8 O     -0.614  1.745  4.868  0.000    25.515     6.817
 158   1 H      0.317  0.683  0.000  0.000     0.672     1.288
 159   1 H      0.329  0.671  0.000  0.000     0.640     1.257
 160   8 O     -0.637  1.766  4.872  0.000    26.098     6.895
 161   1 H      0.305  0.695  0.000  0.000     0.707     1.321
 162   1 H      0.331  0.669  0.000  0.000     0.635     1.252
 163   8 O     -0.650  1.762  4.888  0.000    26.417     6.937
 164   1 H      0.306  0.694  0.000  0.000     0.702     1.316
 165   1 H      0.345  0.655  0.000  0.000     0.601     1.217
 166   8 O     -0.635  1.760  4.875  0.000    26.039     6.887
 167   1 H      0.286  0.714  0.000  0.000     0.765     1.374
 168   1 H      0.336  0.664  0.000  0.000     0.622     1.239
 169   7 N     -0.396  1.314  4.082  0.000    30.258     8.170
 170   6 C      0.025  1.066  2.909  0.000    20.168     6.397
 171   6 C      0.266  1.060  2.675  0.000    22.515     7.770
 172   8 O     -0.488  1.744  4.744  0.000    23.523     6.503
 173   6 C     -0.040  1.052  2.988  0.000    21.290     6.568
 174   6 C     -0.101  1.066  3.035  0.000    22.431     6.745
 175   6 C      0.368  1.031  2.601  0.000    20.760     7.456
 176   8 O     -0.654  1.774  4.880  0.000    27.482     7.028
 177   8 O     -0.645  1.773  4.872  0.000    27.245     6.998
 178   1 H      0.160  0.840  0.000  0.000     1.337     1.812
 179   1 H      0.047  0.953  0.000  0.000     2.358     2.402
 180   1 H      0.027  0.973  0.000  0.000     2.625     2.534
 181   1 H      0.038  0.962  0.000  0.000     2.476     2.461
 182   1 H      0.024  0.976  0.000  0.000     2.668     2.554
 183   1 H      0.014  0.986  0.000  0.000     2.820     2.626
 184   7 N     -0.166  1.245  3.921  0.000    24.595     7.366
 185   6 C      0.026  1.050  2.924  0.000    20.123     6.385
 186   6 C      0.262  1.046  2.692  0.000    22.580     7.782
 187   8 O     -0.466  1.750  4.716  0.000    23.054     6.437
 188   6 C     -0.118  1.066  3.052  0.000    22.731     6.785
 189   6 C      0.288  1.036  2.677  0.000    22.124     7.701
 190   8 O     -0.505  1.762  4.743  0.000    23.897     6.554
 191   7 N     -0.282  1.271  4.011  0.000    27.293     7.759
 192   1 H      0.212  0.788  0.000  0.000     1.049     1.604
 193   1 H      0.111  0.889  0.000  0.000     1.691     2.033
 194   1 H      0.098  0.902  0.000  0.000     1.799     2.098
 195   1 H      0.109  0.891  0.000  0.000     1.706     2.042
 196   1 H      0.231  0.769  0.000  0.000     0.959     1.534
 197   1 H      0.245  0.755  0.000  0.000     0.901     1.487
 198   7 N     -0.180  1.251  3.929  0.000    24.900     7.411
 199   6 C      0.002  1.072  2.925  0.000    20.550     6.456
 200   6 C      0.270  1.039  2.691  0.000    22.433     7.756
 201   8 O     -0.468  1.745  4.723  0.000    23.084     6.442
 202   6 C     -0.087  1.060  3.027  0.000    22.162     6.703
 203   6 C     -0.088  1.058  3.030  0.000    22.189     6.707
 204   6 C     -0.031  1.056  2.974  0.000    21.214     6.573
 205   7 N     -0.140  1.216  3.924  0.000    24.039     7.282
 206   6 C      0.229  1.022  2.750  0.000    23.196     7.885
 207   7 N     -0.262  1.266  3.996  0.000    26.793     7.688
 208   7 N     -0.271  1.268  4.003  0.000    27.004     7.718
 209   1 H      0.214  0.786  0.000  0.000     1.039     1.596
 210   1 H      0.102  0.898  0.000  0.000     1.765     2.078
 211   1 H      0.085  0.915  0.000  0.000     1.930     2.172
 212   1 H      0.062  0.938  0.000  0.000     2.180     2.309
 213   1 H      0.078  0.922  0.000  0.000     2.001     2.212
 214   1 H      0.076  0.924  0.000  0.000     2.021     2.223
 215   1 H      0.093  0.907  0.000  0.000     1.854     2.129
 216   1 H      0.091  0.909  0.000  0.000     1.867     2.137
 217   1 H      0.247  0.753  0.000  0.000     0.895     1.482
 218   1 H      0.250  0.750  0.000  0.000     0.882     1.471
 219   1 H      0.243  0.757  0.000  0.000     0.911     1.495
 220   1 H      0.245  0.755  0.000  0.000     0.901     1.487
 221   1 H      0.245  0.755  0.000  0.000     0.903     1.489
 222   7 N     -0.160  1.230  3.930  0.000    24.456     7.345
 223   6 C     -0.044  1.053  2.990  0.000    21.435     6.606
 224   6 C      0.203  1.079  2.718  0.000    23.685     7.970
 225   8 O     -0.381  1.765  4.617  0.000    21.310     6.189
 226   1 H      0.199  0.801  0.000  0.000     1.109     1.649
 227   1 H      0.137  0.863  0.000  0.000     1.479     1.902
 228   1 H      0.135  0.865  0.000  0.000     1.494     1.911
 229   7 N     -0.389  1.311  4.078  0.000    30.070     8.144
 230   6 C      0.030  1.057  2.913  0.000    20.081     6.383
 231   6 C      0.175  1.105  2.720  0.000    24.226     8.061
 232   8 O     -0.394  1.768  4.626  0.000    21.561     6.225
 233   6 C      0.114  1.048  2.838  0.000    18.806     6.192
 234   8 O     -0.458  1.727  4.730  0.000    22.000     6.332
 235   6 C     -0.122  1.040  3.082  0.000    22.898     6.824
 236   1 H      0.176  0.824  0.000  0.000     1.237     1.742
 237   1 H      0.082  0.918  0.000  0.000     1.958     2.188
 238   1 H      0.037  0.963  0.000  0.000     2.487     2.466
 239   1 H      0.315  0.685  0.000  0.000     0.679     1.294
 240   1 H      0.067  0.933  0.000  0.000     2.121     2.278
 241   1 H      0.040  0.960  0.000  0.000     2.448     2.447
 242   1 H      0.067  0.933  0.000  0.000     2.118     2.276
 243   7 N     -0.403  1.330  4.073  0.000    30.469     8.198
 244   6 C      0.038  1.059  2.903  0.000    19.940     6.360
 245   6 C      0.268  1.046  2.686  0.000    22.483     7.765
 246   8 O     -0.526  1.755  4.771  0.000    24.365     6.618
 247   6 C     -0.063  1.054  3.010  0.000    21.715     6.634
 248   6 C     -0.031  1.069  2.962  0.000    28.728     8.791
 249   6 C     -0.005  1.067  2.937  0.000    28.095     8.693
 250   6 C     -0.023  1.080  2.943  0.000    28.463     8.744
 251   7 N     -0.122  1.233  3.889  0.000    23.651     7.223
 252   6 C      0.044  1.065  2.891  0.000    26.907     8.501
 253   6 C     -0.043  1.081  2.961  0.000    29.057     8.839
 254   6 C     -0.063  1.075  2.988  0.000    29.557     8.915
 255   6 C     -0.045  1.076  2.969  0.000    29.122     8.849
 256   6 C     -0.044  1.078  2.966  0.000    29.091     8.845
 257   1 H      0.176  0.824  0.000  0.000     1.235     1.741
 258   1 H      0.048  0.952  0.000  0.000     2.351     2.398
 259   1 H      0.049  0.951  0.000  0.000     2.328     2.386
 260   1 H      0.044  0.956  0.000  0.000     2.392     2.419
 261   1 H      0.036  0.964  0.000  0.000     2.499     2.472
 262   1 H      0.202  0.798  0.000  0.000     1.096     1.640
 263   1 H      0.015  0.985  0.000  0.000     2.803     2.618
 264   1 H      0.040  0.960  0.000  0.000     2.452     2.449
 265   1 H      0.011  0.989  0.000  0.000     2.878     2.653
 266   1 H      0.036  0.964  0.000  0.000     2.508     2.477
 267   7 N     -0.161  1.241  3.920  0.000    24.478     7.348
 268   6 C      0.022  1.064  2.914  0.000    20.210     6.400
 269   6 C      0.194  1.093  2.714  0.000    23.867     8.001
 270   8 O     -0.372  1.767  4.606  0.000    21.137     6.164
 271   6 C     -0.012  1.059  2.954  0.000    20.759     6.480
 272   6 C     -0.124  1.040  3.084  0.000    22.930     6.828
 273   6 C     -0.134  1.042  3.092  0.000    23.123     6.855
 274   1 H      0.224  0.776  0.000  0.000     0.993     1.561
 275   1 H      0.109  0.891  0.000  0.000     1.708     2.044
 276   1 H      0.047  0.953  0.000  0.000     2.358     2.402
 277   1 H      0.065  0.935  0.000  0.000     2.142     2.289
 278   1 H      0.037  0.963  0.000  0.000     2.494     2.470
 279   1 H      0.063  0.937  0.000  0.000     2.165     2.301
 280   1 H      0.074  0.926  0.000  0.000     2.043     2.235
 281   1 H      0.058  0.942  0.000  0.000     2.218     2.329
 282   1 H      0.054  0.946  0.000  0.000     2.271     2.357
 283   1 H      0.166  0.834  0.000  0.000     1.296     1.783
 284   1 H      0.078  0.922  0.000  0.000     2.003     2.213
 285   1 H      0.181  0.819  0.000  0.000     1.205     1.720
 286   1 H      0.074  0.926  0.000  0.000     2.042     2.234
 287   1 H      0.179  0.821  0.000  0.000     1.217     1.728
 288   1 H      0.086  0.914  0.000  0.000     1.920     2.167
 289   1 H      0.160  0.840  0.000  0.000     1.334     1.809
 290   1 H      0.057  0.943  0.000  0.000     2.229     2.334
 291   1 H      0.192  0.808  0.000  0.000     1.148     1.678
 292   1 H      0.077  0.923  0.000  0.000     2.006     2.215
 293   1 H      0.183  0.817  0.000  0.000     1.198     1.714
 294   1 H      0.096  0.904  0.000  0.000     1.824     2.112
 295   1 H      0.179  0.821  0.000  0.000     1.217     1.728
 296   1 H      0.076  0.924  0.000  0.000     2.021     2.223

 Mol. C6AA /au·bohr⁶  :     768841.163828
 Mol. C8AA /au·bohr⁸  :   16802865.096875
 Mol. α(0) /au        :       1312.861277

 
molecular dipole:
                 x           y           z       tot (Debye)
 q only:       -0.074      10.734      25.313
   full:        1.353      10.158      24.097      66.558
molecular quadrupole (traceless):
                xx          xy          yy          xz          yz          zz
 q only:    -1199.257      27.097    1012.149    -419.411    2441.147     187.108
  q+dip:    -1119.474      75.679     983.681    -372.321    2332.159     135.793
   full:    -1120.232      74.947     984.466    -375.453    2328.928     135.766
speedup  1.54
cpu  time for grad    9.58 s
wall time for grad    6.22 s

SCC energy    :    -470.0896091
rep           :       5.4125067
ES            :       1.7040222
AES           :      -0.1100282
AXC           :       0.1474796
disp          :      -0.3519038
XB            :       0.0000000
fix           :       0.0000000
Gborn         :       0.0000000
Gsasa         :       0.0000000
Ghb           :       0.0000000
Gshift        :       0.0000000
Gsolv         :      -0.3766472     -236.35
Etot ala COSMO:    -470.0896091
grad norm     :       0.6488851
total E       :    -464.6440804
atomizationE  :      79.5901502    49943.57
(atE without considering molecular charge,
 total energy contains solvation terms)
H-L gap (eV)  :          1.1914

------------------------------------------------------------------------
 * finished run on 2019/05/04 at 19:51:58.526     
------------------------------------------------------------------------
 total:
 * wall-time:     0 d,  0 h,  0 min,  6.968 sec
 *  cpu-time:     0 d,  0 h,  0 min, 10.265 sec
 * ratio c/w:     1.473 speedup
 SCF:
 * wall-time:     0 d,  0 h,  0 min,  6.576 sec
 *  cpu-time:     0 d,  0 h,  0 min, 10.008 sec
 * ratio c/w:     1.522 speedup

