      -----------------------------------------------------------      
     |                   =====================                   |     
     |                           x T B                           |     
     |                   =====================                   |     
     |                         S. Grimme                         |     
     |          Mulliken Center for Theoretical Chemistry        |     
     |                    University of Bonn                     |     
     |                 Version 6.0.1 (SAW181210)                 |     
      -----------------------------------------------------------      

   This program is distributed in the hope that it will be useful,
   but WITHOUT ANY WARRANTY; without even the implied warranty of
   MERCHANTABILITY or FITNESS FOR A PARTICULAR PURPOSE.
   
   FOR NON-COMMERCIAL, ACADEMIA USE ONLY.
   
   Cite this work as:
   S. Grimme, C. Bannwarth, P. Shushkov, J. Comput. Theory Chem., 2017,
   13, 1989-2009.
   C. Bannwarth, S. Ehlert and S. Grimme., ChemRxiv, 2018, preprint.
   http://doi.org/10.26434/chemrxiv.7246238.v1
   
   for sTDA-xTB:
   S. Grimme and C. Bannwarth, J. Chem. Phys., 2016, 145, 054103.
   
   in the mass-spec context:
   V. Asgeirsson, C. Bauer and S. Grimme, Chem. Sci., 2017, 8, 4879.
   
   if GBSA is used:
   P. Shushkov, F. März and S. Grimme, unpublished.
   
   for ANC optimizer:
   S. Grimme, unpublished.
   Rational Function algorithm used in ANCopt:
   F. Eckert, P. Pulay, H.-J. Werner, J. Comput. Chem., 1997, 18, 1473.
   
   with help from (in alphabetical order)
   C. Bannwarth, F. Bohle, G. Brandenburg, E. Caldeweyher, M. Checinski,
   S. Dohm, S. Ehlert, S. Ehrlich, F. März, H. Neugebauer, J. Pisarek,
   P. Pracht, P. Shushkov, and S. Spicher.
   
 * started run on 2019/05/12 at 13:11:14.776     
========================================================================
 # omp threads = 2
========================================================================
number of atoms            : 660
number of electrons        : 1736
charge                     : 0
spin                       : .0
first test random number   : .9881

########################################################################
# WARNING! Please study the warnings concerning your input carefully
#  - Process number higher than OMP_NUM_THREADS, I hope you know what you are doing.
########################################################################

           ------------------------------------------------- 
          |                 G F N 2 - x T B                 |
          | Geometry, Frequencies, Noncovalent interactions |
          |            JCTC 2018 parametrisation            |
           ------------------------------------------------- 
 
      method parameters     
 k(s)        :  1.8500
 k(p)        :  2.2300
 k(d)        :  2.2300
 k(f)        :  2.0000
 kEN (H0ij)  : -2.0000
 D4 a1       :  0.5200
 D4 a2       :  5.0000
 D4 s6       :  1.0000
 D4 s8       :  2.7000
 D4 s9       :  5.0000
 alphaj      :  2.0000

 Solvent             : h2o
 Using internal parameter file: .param_gbsa2_h2o
 Gsolv ref. state (COSMO-RS): gsolv [1 M gas/solution]
 temperature (mdtemp)       :    298.150000000000     
 dielectric constant        :    80.2000000000000     
 rho                        :    1.00000000000000     
 mass                       :    18.0000000000000     
 surface tension            :    15.5689454083859     
 probe radius               :   0.975313790000000     
 vdW radii scaling          :    1.00000000000000     
 Gshift (Eh)                :   1.857443126794793E-003
 c1                         :    1.55243817000000     
 soset                      :   0.130326360000000     
 HB correction              :  T

            Z     q(EN)     CN     RAES       Cart. coordinates
     1  N   5.0   -0.15    4.17    3.35   143.90280   102.61149   396.21835
     2  C   4.0    0.00    4.32    4.23   142.25011   104.11172   394.47957
     3  C   4.0    0.15    3.41    3.08   139.91127   105.17706   395.84148
     4  O   6.0   -0.27    1.18    1.80   138.78251   103.87915   397.56505
     5  C   4.0    0.02    4.16    3.91   141.39448   102.46309   392.17738
     6  O   6.0   -0.26    2.02    1.83   139.72428   100.33423   392.86816
     7  H   1.0    0.07    1.08    1.44   144.69165   101.34075   395.32400
     8  H   1.0    0.07    1.07    1.44   145.09546   103.63348   396.92647
     9  H   1.0    0.09    1.08    1.44   142.93416   101.89289   397.46751
    10  H   1.0    0.04    1.11    1.45   143.24796   105.55307   393.85436
    11  H   1.0    0.04    1.06    1.44   140.50872   103.57210   390.97257
    12  H   1.0    0.04    1.06    1.44   142.94388   101.76905   391.36640
    13  H   1.0    0.13    1.06    1.44   139.51177    99.43606   391.51031
    14  N   5.0   -0.17    3.47    2.06   139.16511   107.48885   395.05066
    15  C   4.0    0.03    4.49    4.53   136.64719   108.38437   395.67185
    16  C   4.0    0.15    3.46    3.10   134.59374   106.54723   394.81925
    17  O   6.0   -0.31    1.26    1.80   132.94286   105.83987   396.30718
    18  C   4.0   -0.05    4.39    4.35   136.25490   110.90238   394.54777
    19  C   4.0   -0.04    4.15    3.90   134.05719   112.56992   395.57535
    20  C   4.0    0.24    3.06    3.02   134.56787   115.53752   395.22293
    21  O   6.0   -0.29    1.16    1.80   135.61145   116.36775   393.23462
    22  O   6.0   -0.26    1.14    1.80   134.06172   117.11047   396.96483
    23  H   1.0    0.09    1.12    1.45   140.09576   108.53095   394.14278
    24  H   1.0    0.06    1.13    1.45   136.46777   108.50613   397.53888
    25  H   1.0    0.06    1.09    1.44   137.83771   111.92022   394.77657
    26  H   1.0    0.04    1.09    1.44   135.93226   110.72568   392.71113
    27  H   1.0    0.04    1.07    1.44   132.49317   112.16423   394.71302
    28  H   1.0    0.06    1.07    1.44   133.89417   112.26615   397.42437
    29  N   5.0   -0.16    3.47    2.06   134.80369   105.58661   392.49403
    30  C   4.0    0.03    4.41    4.39   133.02664   103.94829   391.23123
    31  C   4.0    0.16    3.48    3.10   131.76643   101.80486   392.77211
    32  O   6.0   -0.31    1.24    1.80   129.40064   101.63913   392.89321
    33  C   4.0   -0.05    4.40    4.38   134.33745   102.79017   388.87865
    34  C   4.0   -0.01    3.60    3.17   132.56995   101.72277   386.91377
    35  C   4.0   -0.03    3.53    3.13   131.31250    99.41665   387.23906
    36  C   4.0   -0.05    3.53    3.13   132.14374   103.06044   384.70510
    37  C   4.0   -0.04    3.44    3.09   129.64538    98.54696   385.49262
    38  C   4.0   -0.04    3.45    3.09   130.48945   102.19251   382.94921
    39  C   4.0   -0.04    3.46    3.10   129.21309    99.93442   383.34163
    40  H   1.0    0.08    1.13    1.45   136.20791   105.86344   391.51839
    41  H   1.0    0.05    1.13    1.45   131.58947   105.05034   390.80647
    42  H   1.0    0.04    1.09    1.44   135.38806   104.09506   388.07013
    43  H   1.0    0.05    1.08    1.44   135.45388   101.37596   389.45994
    44  H   1.0    0.06    1.09    1.44   131.63407    98.45164   388.76026
    45  H   1.0    0.05    1.09    1.44   133.03315   104.62274   384.43893
    46  H   1.0    0.06    1.09    1.44   128.78620    96.95451   385.74087
    47  H   1.0    0.05    1.09    1.44   130.20661   103.14123   381.40883
    48  H   1.0    0.06    1.08    1.44   128.03089    99.31364   382.07113
    49  N   5.0   -0.16    3.56    2.12   133.25901   100.04868   393.84115
    50  C   4.0    0.04    4.60    4.67   132.12281    97.99847   395.10280
    51  C   4.0    0.15    3.43    3.09   130.71614    98.78625   397.45581
    52  O   6.0   -0.27    1.17    1.80   128.93098    97.40270   398.33352
    53  C   4.0   -0.04    4.44    4.45   134.04675    95.95431   395.47749
    54  C   4.0   -0.04    4.26    4.12   134.42847    94.49721   393.04436
    55  C   4.0    0.22    3.13    3.03   131.91474    93.04163   392.43509
    56  O   6.0   -0.27    1.13    1.80   130.41415    92.44950   394.37301
    57  O   6.0   -0.29    1.11    1.80   131.50716    92.70288   390.01699
    58  H   1.0    0.10    1.12    1.45   134.96242   100.09312   393.79707
    59  H   1.0    0.07    1.16    1.45   130.75989    97.22261   394.03523
    60  H   1.0    0.05    1.09    1.44   135.66184    96.68191   396.03987
    61  H   1.0    0.07    1.08    1.44   133.43964    94.75620   396.86671
    62  H   1.0    0.05    1.09    1.44   134.80542    95.60856   391.67529
    63  H   1.0    0.05    1.08    1.44   135.76429    93.18777   393.26894
    64  N   5.0   -0.15    3.50    2.08   131.48220   101.01520   398.50042
    65  C   4.0    0.04    4.41    4.40   130.37205   102.10424   400.78868
    66  C   4.0    0.16    3.46    3.10   127.87214   103.35529   400.25682
    67  O   6.0   -0.27    1.23    1.80   126.07499   103.08680   401.74478
    68  C   4.0   -0.07    4.22    4.04   132.14472   103.94235   402.05764
    69  H   1.0    0.12    1.14    1.45   132.72019   101.95745   397.86881
    70  H   1.0    0.07    1.12    1.45   130.07473   100.63908   401.98453
    71  H   1.0    0.06    1.05    1.44   131.36550   104.59598   403.61913
    72  H   1.0    0.06    1.05    1.44   133.75798   103.05680   402.51475
    73  H   1.0    0.07    1.06    1.44   132.52459   105.33224   400.89555
    74  N   5.0   -0.15    3.55    2.11   127.70942   104.76184   398.19257
    75  C   4.0    0.04    4.61    4.67   125.40965   105.92979   397.33088
    76  C   4.0    0.16    3.53    3.13   123.39219   103.92755   396.86004
    77  O   6.0   -0.31    1.26    1.80   121.14602   104.26869   397.53559
    78  C   4.0   -0.03    4.44    4.45   125.77286   107.67615   395.10576
    79  C   4.0   -0.08    4.35    4.30   123.39297   108.50093   394.12985
    80  C   4.0   -0.08    4.25    4.11   127.40630   109.93803   395.74427
    81  H   1.0    0.11    1.13    1.45   129.05674   105.07765   397.14337
    82  H   1.0    0.06    1.13    1.45   124.77672   107.00373   398.77992
    83  H   1.0    0.05    1.13    1.45   126.66429   106.66185   393.74417
    84  H   1.0    0.05    1.06    1.44   123.62635   109.70917   392.70668
    85  H   1.0    0.05    1.06    1.44   122.34655   107.06528   393.53723
    86  H   1.0    0.05    1.06    1.44   122.43480   109.40130   395.49877
    87  H   1.0    0.04    1.05    1.44   127.67684   110.98602   394.24183
    88  H   1.0    0.05    1.06    1.44   126.61318   110.90124   397.10053
    89  H   1.0    0.05    1.05    1.44   129.10895   109.31268   396.35392
    90  N   5.0   -0.15    3.50    2.07   124.09896   101.78395   395.79161
    91  C   4.0    0.04    4.51    4.55   122.31787    99.69075   395.52225
    92  C   4.0    0.10    3.28    3.05   121.21259    98.91574   398.08239
    93  O   6.0   -0.29    1.11    1.80   118.93122    98.39421   398.31860
    94  C   4.0   -0.02    4.47    4.50   123.41550    97.46606   394.07532
    95  C   4.0   -0.05    4.34    4.28   124.36113    98.21476   391.51225
    96  C   4.0   -0.07    4.29    4.18   121.50663    95.38819   394.06050
    97  C   4.0   -0.07    4.16    3.92   125.75762    96.16822   390.15103
    98  H   1.0    0.11    1.12    1.45   125.67218   101.44423   395.21867
    99  H   1.0    0.05    1.12    1.45   120.88415   100.37013   394.47752
   100  H   1.0    0.07    1.12    1.45   124.96210    96.82934   395.01642
   101  H   1.0    0.04    1.09    1.44   122.86413    98.65494   390.45876
   102  H   1.0    0.06    1.10    1.44   125.47581    99.68836   391.65776
   103  H   1.0    0.05    1.05    1.44   122.21113    93.87108   393.15600
   104  H   1.0    0.06    1.06    1.44   121.06978    94.85460   395.80906
   105  H   1.0    0.05    1.06    1.44   119.97066    95.94386   393.17888
   106  H   1.0    0.05    1.06    1.44   126.19858    96.69911   388.43426
   107  H   1.0    0.07    1.05    1.44   127.35365    95.77408   391.10325
   108  H   1.0    0.05    1.05    1.44   124.72223    94.60467   390.09076
   109  N   5.0   -0.21    3.28    1.97   116.46369   104.26773   400.74970
   110  C   4.0    0.04    4.42    4.41   114.20098   104.31266   399.26906
   111  C   4.0    0.08    3.27    3.05   112.57087   101.99683   399.84049
   112  O   6.0   -0.28    1.10    1.80   110.25222   102.12560   400.21197
   113  C   4.0   -0.02    4.52    4.56   114.79831   104.60948   396.53165
   114  C   4.0   -0.05    4.34    4.28   115.54407   107.32640   396.06101
   115  C   4.0   -0.09    4.25    4.10   112.67592   103.58821   394.80820
   116  C   4.0   -0.09    4.21    4.02   116.33732   107.50707   393.34010
   117  H   1.0    0.13    1.10    1.44   117.87604   104.22426   399.80366
   118  H   1.0    0.05    1.12    1.45   113.13808   105.80893   399.83331
   119  H   1.0    0.06    1.13    1.45   116.25642   103.49036   396.05904
   120  H   1.0    0.04    1.09    1.44   114.09390   108.44130   396.28655
   121  H   1.0    0.05    1.09    1.44   116.96508   107.80810   397.11289
   122  H   1.0    0.03    1.05    1.44   113.10947   103.83847   393.04194
   123  H   1.0    0.05    1.05    1.44   112.38726   101.78339   395.17778
   124  H   1.0    0.05    1.05    1.44   111.09579   104.54761   395.22348
   125  H   1.0    0.04    1.05    1.44   116.86902   109.32682   393.02141
   126  H   1.0    0.04    1.05    1.44   117.82237   106.42773   393.05384
   127  H   1.0    0.04    1.06    1.44   114.95772   107.08385   392.22933
   128  N   5.0   -0.23    3.29    1.98   113.99912    88.19484   391.88044
   129  C   4.0    0.02    4.40    4.37   116.40675    89.40017   391.81132
   130  C   4.0    0.15    3.44    3.09   117.59136    89.28497   389.24093
   131  O   6.0   -0.31    1.26    1.80   118.71199    91.12986   388.36686
   132  C   4.0   -0.06    4.34    4.27   118.08334    88.36156   393.88888
   133  C   4.0   -0.06    4.21    4.02   117.48012    89.26028   396.67681
   134  C   4.0   -0.06    4.22    4.05   116.85516    87.06620   398.44727
   135  C   4.0   -0.04    4.23    4.06   114.13470    85.98989   397.98497
   136  N   5.0   -0.15    4.11    3.18   113.59992    83.70111   399.43159
   137  H   1.0    0.09    1.08    1.44   113.85133    86.90020   392.98320
   138  H   1.0    0.04    1.13    1.45   116.21792    91.25480   392.21325
   139  H   1.0    0.04    1.09    1.44   117.97000    86.47789   393.87629
   140  H   1.0    0.05    1.08    1.44   119.89171    88.82734   393.54620
   141  H   1.0    0.05    1.08    1.44   118.91968    90.19401   397.35016
   142  H   1.0    0.04    1.08    1.44   115.97314    90.37949   396.57410
   143  H   1.0    0.04    1.08    1.44   118.06216    85.66192   398.12231
   144  H   1.0    0.05    1.08    1.44   116.98424    87.62358   400.19680
   145  H   1.0    0.04    1.07    1.44   112.90429    87.32214   398.50021
   146  H   1.0    0.04    1.08    1.44   113.92287    85.61623   396.18244
   147  H   1.0    0.07    1.08    1.44   111.98172    83.14452   399.18588
   148  H   1.0    0.06    1.08    1.44   114.69795    82.41748   399.01551
   149  H   1.0    0.06    1.07    1.44   113.79448    83.99236   401.16847
   150  N   5.0   -0.16    3.48    2.07   117.36505    87.13989   387.95507
   151  C   4.0    0.03    4.38    4.35   118.17875    86.82625   385.28973
   152  C   4.0    0.16    3.42    3.08   117.06686    88.95815   383.66119
   153  O   6.0   -0.30    1.22    1.80   118.47379    90.29634   382.28752
   154  C   4.0   -0.06    4.28    4.16   117.44168    84.16182   384.31839
   155  C   4.0   -0.05    4.20    4.00   117.70670    83.35491   381.48072
   156  C   4.0   -0.05    4.23    4.06   120.35060    83.40191   380.36304
   157  C   4.0   -0.04    4.24    4.07   122.16130    81.34617   381.28625
   158  N   5.0   -0.15    4.10    3.15   121.87855    78.81998   380.13617
   159  H   1.0    0.08    1.12    1.45   116.68892    85.69681   388.58344
   160  H   1.0    0.06    1.11    1.45   120.03914    86.98639   385.16616
   161  H   1.0    0.04    1.08    1.44   118.48046    82.94735   385.29729
   162  H   1.0    0.04    1.08    1.44   115.63869    83.93047   384.76539
   163  H   1.0    0.04    1.09    1.44   117.07415    81.62930   381.30403
   164  H   1.0    0.05    1.08    1.44   116.64886    84.53344   380.46459
   165  H   1.0    0.04    1.08    1.44   120.24195    83.25176   378.49691
   166  H   1.0    0.05    1.08    1.44   121.15541    85.08684   380.75971
   167  H   1.0    0.04    1.07    1.44   123.93251    81.92380   380.97799
   168  H   1.0    0.04    1.08    1.44   121.90945    81.15832   383.13295
   169  H   1.0    0.07    1.07    1.44   123.09893    77.73518   380.71797
   170  H   1.0    0.06    1.08    1.44   120.32449    78.16453   380.48415
   171  H   1.0    0.06    1.08    1.44   122.05086    78.93446   378.39561
   172  N   5.0   -0.16    3.50    2.08   114.55210    89.37870   383.88303
   173  C   4.0    0.03    4.44    4.44   113.14860    91.12075   382.33132
   174  C   4.0    0.15    3.40    3.08   113.89726    93.88545   382.82375
   175  O   6.0   -0.31    1.21    1.80   113.91532    95.46041   381.05034
   176  C   4.0   -0.05    4.39    4.37   110.31026    90.74215   382.70697
   177  C   4.0   -0.04    4.27    4.14   109.28800    88.15677   382.07180
   178  C   4.0    0.25    3.13    3.03   106.52826    87.79929   382.87403
   179  O   6.0   -0.28    1.20    1.80   105.76113    89.11387   384.65161
   180  O   6.0   -0.27    1.16    1.80   105.16291    86.22334   381.73927
   181  H   1.0    0.09    1.12    1.45   113.57170    88.59301   385.06827
   182  H   1.0    0.05    1.12    1.45   113.58170    90.76598   380.52371
   183  H   1.0    0.06    1.09    1.44   109.92674    91.07108   384.51167
   184  H   1.0    0.06    1.09    1.44   109.40053    92.01456   381.65637
   185  H   1.0    0.05    1.08    1.44   109.35894    87.92097   380.18577
   186  H   1.0    0.05    1.09    1.44   110.30583    86.85139   382.88405
   187  N   5.0   -0.15    3.51    2.09   114.42198    94.51765   385.24988
   188  C   4.0    0.03    4.58    4.64   115.25867    96.99170   386.07369
   189  C   4.0    0.16    3.51    3.12   117.75527    97.63197   384.90927
   190  O   6.0   -0.32    1.31    1.80   118.14057    99.65609   383.81263
   191  C   4.0   -0.03    4.49    4.52   115.30962    97.22081   388.95149
   192  C   4.0   -0.06    4.37    4.33   112.60028    96.85503   389.95424
   193  C   4.0   -0.09    4.27    4.14   116.42816    99.63718   389.82053
   194  C   4.0   -0.08    4.19    3.99   112.44284    96.33900   392.59943
   195  H   1.0    0.09    1.12    1.45   114.29355    93.37847   386.55626
   196  H   1.0    0.05    1.12    1.45   113.97045    98.23176   385.40588
   197  H   1.0    0.05    1.13    1.45   116.38655    95.84804   389.62805
   198  H   1.0    0.04    1.10    1.44   111.64662    98.44892   389.63990
   199  H   1.0    0.04    1.10    1.44   111.77922    95.46098   389.02369
   200  H   1.0    0.04    1.06    1.44   116.36620    99.76189   391.64961
   201  H   1.0    0.05    1.06    1.44   118.20512    99.74907   389.21337
   202  H   1.0    0.04    1.05    1.44   115.45990   101.07276   389.04656
   203  H   1.0    0.05    1.06    1.44   110.65181    96.14471   393.14099
   204  H   1.0    0.04    1.06    1.44   113.33571    94.70147   392.98405
   205  H   1.0    0.04    1.06    1.44   113.24337    97.68936   393.60318
   206  N   5.0   -0.15    3.46    2.05   119.55511    95.92707   385.10177
   207  C   4.0    0.01    4.36    4.31   121.99943    96.21350   383.90424
   208  C   4.0    0.16    3.39    3.07   121.91664    96.42953   381.09526
   209  O   6.0   -0.32    1.32    1.80   123.29578    97.95983   379.94481
   210  H   1.0    0.11    1.12    1.45   119.39632    94.42452   385.98029
   211  H   1.0    0.05    1.09    1.44   122.80715    97.77284   384.59772
   212  H   1.0    0.05    1.08    1.44   123.11525    94.76038   384.36219
   213  N   5.0   -0.14    3.51    2.08   120.27745    94.92903   379.90875
   214  C   4.0    0.04    4.42    4.41   119.76895    95.14476   377.18280
   215  C   4.0    0.16    3.45    3.10   119.11999    97.81705   376.47879
   216  O   6.0   -0.30    1.21    1.80   120.26789    98.98821   374.71692
   217  C   4.0   -0.08    4.22    4.04   117.73306    93.31176   376.37471
   218  H   1.0    0.12    1.14    1.45   119.36177    93.69385   380.65508
   219  H   1.0    0.06    1.12    1.45   121.36926    94.68809   376.26522
   220  H   1.0    0.05    1.05    1.44   117.48035    93.43469   374.52652
   221  H   1.0    0.05    1.05    1.44   118.24924    91.55740   376.80560
   222  H   1.0    0.06    1.05    1.44   116.15011    93.72643   377.25706
   223  N   5.0   -0.15    3.48    2.07   117.20269    98.86501   377.85714
   224  C   4.0    0.03    4.49    4.53   116.43829   101.51035   377.69358
   225  C   4.0    0.16    3.51    3.12   118.69489   103.27443   378.06749
   226  O   6.0   -0.31    1.25    1.80   119.40304   104.82314   376.38422
   227  C   4.0   -0.05    4.53    4.58   114.36946   102.15104   379.41737
   228  C   4.0   -0.05    4.24    4.08   113.50353   104.79251   379.22078
   229  S   6.0   -0.05    2.68    3.10   111.21482   105.68453   381.59169
   230  C   4.0   -0.08    4.02    3.66   113.30103   105.90198   384.09645
   231  H   1.0    0.12    1.13    1.45   116.29168    97.99434   379.00143
   232  H   1.0    0.05    1.12    1.45   115.82733   101.73288   375.87685
   233  H   1.0    0.05    1.10    1.44   112.89872   101.01681   379.11858
   234  H   1.0    0.06    1.12    1.45   114.96289   101.89461   381.19203
   235  H   1.0    0.04    1.15    1.45   114.93936   105.95943   379.33346
   236  H   1.0    0.04    1.13    1.45   112.66023   105.03713   377.52383
   237  H   1.0    0.04    1.11    1.44   112.33913   106.40960   385.67382
   238  H   1.0    0.04    1.11    1.45   114.06507   104.21880   384.43380
   239  H   1.0    0.04    1.11    1.45   114.60877   107.14985   383.77040
   240  N   5.0   -0.16    3.54    2.10   119.87791   103.09286   380.29476
   241  C   4.0    0.03    4.57    4.63   122.01076   104.68775   380.89423
   242  C   4.0    0.16    3.49    3.11   124.03050   104.61145   378.86044
   243  O   6.0   -0.31    1.23    1.80   125.01281   106.61540   378.12307
   244  C   4.0   -0.05    4.57    4.63   123.06766   104.14975   383.40094
   245  C   4.0   -0.03    4.37    4.32   121.76601   105.39104   385.52875
   246  C   4.0   -0.09    4.22    4.03   122.95707   104.36471   388.00498
   247  C   4.0   -0.09    4.28    4.16   121.95722   108.16569   385.32852
   248  H   1.0    0.12    1.16    1.45   119.46210   101.97980   381.50929
   249  H   1.0    0.05    1.14    1.45   121.31823   106.45662   380.89568
   250  H   1.0    0.05    1.10    1.44   123.05072   102.28322   383.67656
   251  H   1.0    0.05    1.11    1.44   124.88514   104.71193   383.43309
   252  H   1.0    0.04    1.12    1.45   119.91908   105.00350   385.59070
   253  H   1.0    0.04    1.04    1.43   122.08863   105.13063   389.48323
   254  H   1.0    0.04    1.05    1.44   122.73414   102.50631   388.06721
   255  H   1.0    0.04    1.05    1.44   124.75340   104.79429   388.03480
   256  H   1.0    0.04    1.05    1.44   121.22147   108.98820   386.86132
   257  H   1.0    0.04    1.06    1.44   123.76123   108.65819   385.20319
   258  H   1.0    0.04    1.06    1.44   121.04079   108.75207   383.82426
   259  N   5.0   -0.15    3.51    2.09   124.72106   102.29394   377.99465
   260  C   4.0    0.04    4.42    4.41   126.86162   101.95155   376.30677
   261  C   4.0    0.16    3.42    3.08   126.34306   103.22629   373.75667
   262  O   6.0   -0.30    1.22    1.80   127.94703   104.84734   372.84085
   263  C   4.0    0.02    4.21    4.02   127.58984    99.16872   376.13591
   264  O   6.0   -0.27    2.04    1.83   130.13791    98.88467   375.12520
   265  H   1.0    0.13    1.17    1.46   123.95858   100.85268   378.42766
   266  H   1.0    0.06    1.11    1.45   128.41009   102.84101   377.03461
   267  H   1.0    0.06    1.07    1.44   127.51749    98.39764   377.79822
   268  H   1.0    0.05    1.07    1.44   126.37340    98.34477   374.96650
   269  H   1.0    0.13    1.06    1.44   130.36478    97.25421   374.80198
   270  N   5.0   -0.15    3.50    2.08   124.04819   102.59825   372.70277
   271  C   4.0    0.03    4.48    4.51   123.05110   103.82299   370.54689
   272  C   4.0    0.16    3.52    3.12   123.20976   106.74027   370.69567
   273  O   6.0   -0.32    1.28    1.80   124.03162   108.03449   368.93429
   274  C   4.0   -0.05    4.51    4.55   120.40256   103.03748   370.13853
   275  C   4.0   -0.03    4.35    4.29   118.90784   104.39341   368.04844
   276  C   4.0   -0.08    4.26    4.12   119.91518   104.10869   365.49381
   277  C   4.0   -0.08    4.23    4.06   116.14614   103.52794   368.13488
   278  H   1.0    0.12    1.15    1.45   123.07678   101.38925   373.33296
   279  H   1.0    0.05    1.12    1.45   124.13235   103.35317   369.04249
   280  H   1.0    0.05    1.10    1.44   120.36259   101.22487   369.71476
   281  H   1.0    0.06    1.10    1.44   119.45368   103.33333   371.72809
   282  H   1.0    0.05    1.14    1.45   119.07529   106.23313   368.38064
   283  H   1.0    0.05    1.06    1.44   118.90752   105.02827   364.25519
   284  H   1.0    0.05    1.05    1.44   121.70830   104.69978   365.41875
   285  H   1.0    0.05    1.05    1.44   119.92551   102.25494   365.02291
   286  H   1.0    0.04    1.05    1.44   115.17295   104.44111   366.82390
   287  H   1.0    0.05    1.05    1.44   116.06054   101.70012   367.82936
   288  H   1.0    0.04    1.05    1.44   115.43011   103.92461   369.82028
   289  N   5.0   -0.15    3.58    2.14   122.29362   107.85621   372.72497
   290  C   4.0    0.04    4.56    4.61   122.35365   110.56415   372.96175
   291  C   4.0    0.16    3.47    3.10   124.98844   111.60217   373.06776
   292  O   6.0   -0.30    1.23    1.80   125.35418   113.71530   372.12533
   293  C   4.0   -0.05    4.53    4.57   120.78602   111.33954   375.10523
   294  C   4.0   -0.03    4.33    4.26   117.96629   110.80561   375.11649
   295  C   4.0   -0.09    4.24    4.09   116.83629   111.05206   377.77116
   296  C   4.0   -0.09    4.28    4.17   116.51125   112.56363   373.53626
   297  H   1.0    0.12    1.14    1.45   121.64553   106.99834   374.08296
   298  H   1.0    0.05    1.14    1.45   121.56012   111.27301   371.39732
   299  H   1.0    0.05    1.09    1.44   121.49898   110.54815   376.69462
   300  H   1.0    0.04    1.09    1.44   120.96891   113.23462   375.34179
   301  H   1.0    0.05    1.13    1.45   117.81060   109.07050   374.45312
   302  H   1.0    0.04    1.05    1.44   115.00922   110.72915   377.71462
   303  H   1.0    0.04    1.04    1.43   117.64475   109.76114   378.91372
   304  H   1.0    0.03    1.05    1.44   117.17804   112.74275   378.46020
   305  H   1.0    0.04    1.06    1.44   114.72583   112.17883   373.59832
   306  H   1.0    0.04    1.06    1.44   116.84075   114.32712   374.07692
   307  H   1.0    0.04    1.05    1.44   117.12685   112.39838   371.72680
   308  N   5.0   -0.14    3.49    2.07   126.80956   110.19349   374.17654
   309  C   4.0    0.04    4.45    4.46   129.51006   110.83343   374.07940
   310  C   4.0    0.16    3.46    3.10   130.37443   110.88274   371.42680
   311  O   6.0   -0.27    1.21    1.80   131.46083   112.80226   370.55971
   312  C   4.0   -0.05    4.31    4.22   131.22923   109.16141   375.63176
   313  C   4.0   -0.04    4.22    4.04   131.25194   109.22217   378.71135
   314  C   4.0    0.17    3.25    3.04   132.12765   111.64378   379.91513
   315  O   6.0   -0.29    1.24    1.80   131.18625   112.45046   381.82193
   316  N   5.0   -0.20    3.30    1.98   133.77694   112.93301   378.63478
   317  H   1.0    0.12    1.12    1.45   126.49060   108.74170   375.10651
   318  H   1.0    0.07    1.12    1.45   129.61548   112.55926   374.88411
   319  H   1.0    0.06    1.08    1.44   130.80517   107.37516   375.19754
   320  H   1.0    0.05    1.09    1.44   132.97765   109.51987   375.15584
   321  H   1.0    0.06    1.08    1.44   129.47015   108.89831   379.24191
   322  H   1.0    0.04    1.08    1.44   132.33348   107.83989   379.27664
   323  H   1.0    0.10    1.09    1.44   134.36762   112.39659   377.12046
   324  H   1.0    0.14    1.10    1.44   134.40092   114.41669   379.22629
   325  N   5.0   -0.15    3.44    2.04   129.82513   108.82353   370.04111
   326  C   4.0    0.03    4.44    4.44   130.73348   108.43093   367.31052
   327  C   4.0    0.17    3.44    3.09   129.82072   110.47859   365.57228
   328  O   6.0   -0.27    1.24    1.80   131.26568   111.49740   364.10171
   329  C   4.0   -0.05    4.34    4.28   130.03311   105.87074   366.14731
   330  C   4.0   -0.05    4.31    4.22   131.59724   103.79160   367.26388
   331  C   4.0   -0.06    4.20    3.99   130.88382   101.09191   366.59309
   332  C   4.0   -0.04    4.20    4.00   132.33793    99.14594   368.36909
   333  N   5.0   -0.15    4.09    3.12   133.14919    96.76807   367.16312
   334  H   1.0    0.12    1.14    1.45   128.86067   107.52693   370.53444
   335  H   1.0    0.06    1.11    1.45   132.63647   108.52256   367.49910
   336  H   1.0    0.06    1.09    1.44   128.24439   105.51031   366.62483
   337  H   1.0    0.06    1.10    1.44   130.27028   105.91609   364.37869
   338  H   1.0    0.05    1.09    1.44   133.39466   104.03620   366.71622
   339  H   1.0    0.06    1.09    1.44   131.57989   103.89966   369.16658
   340  H   1.0    0.05    1.08    1.44   129.06306   100.85125   366.83387
   341  H   1.0    0.05    1.08    1.44   131.36645   100.73648   364.83355
   342  H   1.0    0.05    1.08    1.44   133.87467   100.00748   369.02658
   343  H   1.0    0.05    1.07    1.44   131.21900    98.71270   369.79337
   344  H   1.0    0.07    1.07    1.44   134.08058    95.79706   368.24497
   345  H   1.0    0.07    1.08    1.44   131.77458    95.84893   366.62684
   346  H   1.0    0.07    1.07    1.44   134.14125    97.10315   365.74993
   347  N   5.0   -0.15    3.54    2.11   127.41131   111.12605   365.73330
   348  C   4.0    0.04    4.47    4.50   126.10729   112.99487   364.23005
   349  C   4.0    0.16    3.43    3.09   126.86658   115.68933   364.77265
   350  O   6.0   -0.28    1.23    1.80   125.92410   117.35574   363.43328
   351  C   4.0   -0.04    4.40    4.39   123.23565   112.70553   364.45465
   352  C   4.0   -0.04    4.28    4.16   122.09587   110.28796   363.43182
   353  C   4.0    0.24    3.17    3.03   122.30172   110.15459   360.59377
   354  O   6.0   -0.27    1.17    1.80   121.44582   111.97003   359.30480
   355  O   6.0   -0.27    1.17    1.80   123.33248   108.22855   359.64025
   356  H   1.0    0.11    1.15    1.45   126.32895   110.42092   366.90566
   357  H   1.0    0.07    1.12    1.45   126.57979   112.64573   362.42534
   358  H   1.0    0.05    1.09    1.44   122.79934   112.80475   366.27449
   359  H   1.0    0.07    1.09    1.44   122.43079   114.14629   363.55436
   360  H   1.0    0.06    1.09    1.44   122.99076   108.82812   364.14490
   361  H   1.0    0.05    1.09    1.44   120.28362   110.21475   363.86053
   362  N   5.0   -0.14    3.43    2.04   128.38516   116.15917   366.75263
   363  C   4.0    0.03    4.34    4.27   129.36317   118.63344   367.31924
   364  C   4.0    0.16    3.33    3.06   127.78072   120.28180   368.95841
   365  O   6.0   -0.27    1.20    1.80   128.40956   122.55530   369.30808
   366  H   1.0    0.12    1.12    1.45   128.91174   114.95271   367.85116
   367  H   1.0    0.06    1.09    1.44   131.04758   118.45943   368.12157
   368  H   1.0    0.07    1.09    1.44   129.59991   119.54826   365.68411
   369  N   5.0   -0.14    3.49    2.07   125.70579   119.24900   370.06771
   370  C   4.0    0.03    4.54    4.59   123.90842   120.69265   371.63538
   371  C   4.0    0.15    3.46    3.10   124.88011   121.10765   374.25449
   372  O   6.0   -0.29    1.20    1.80   125.32719   123.30807   375.05427
   373  C   4.0   -0.06    4.63    4.70   121.44758   119.40065   371.80606
   374  C   4.0   -0.03    4.40    4.39   119.59636   120.42135   369.96918
   375  C   4.0   -0.08    4.27    4.14   120.32683   119.43503   367.32891
   376  C   4.0   -0.09    4.32    4.23   117.10761   119.53993   370.64124
   377  H   1.0    0.11    1.12    1.45   125.29533   117.60642   369.90392
   378  H   1.0    0.06    1.13    1.45   123.75790   122.35166   370.75554
   379  H   1.0    0.05    1.11    1.44   121.66070   117.55990   371.45423
   380  H   1.0    0.04    1.12    1.45   120.74462   119.61653   373.51758
   381  H   1.0    0.04    1.13    1.45   119.55479   122.29385   369.88884
   382  H   1.0    0.05    1.04    1.43   119.11411   120.08166   366.04335
   383  H   1.0    0.06    1.05    1.44   122.04367   120.06032   366.89813
   384  H   1.0    0.05    1.05    1.44   120.30908   117.58416   367.32682
   385  H   1.0    0.05    1.05    1.44   115.79623   120.21459   369.44261
   386  H   1.0    0.04    1.06    1.44   117.02967   117.66858   370.58942
   387  H   1.0    0.04    1.06    1.44   116.66101   120.12270   372.36872
   388  N   5.0   -0.15    3.51    2.08   125.22575   119.01357   375.69216
   389  C   4.0    0.03    4.49    4.52   126.42924   119.02063   378.16181
   390  C   4.0    0.16    3.48    3.10   129.31268   119.10731   378.01178
   391  O   6.0   -0.27    1.22    1.80   130.45508   117.34619   376.83847
   392  C   4.0   -0.04    4.60    4.66   125.75326   116.66881   379.49922
   393  C   4.0   -0.03    4.36    4.31   123.12121   116.28797   380.49511
   394  C   4.0   -0.09    4.24    4.07   123.11292   113.85116   382.05630
   395  C   4.0   -0.08    4.31    4.21   122.27480   118.45353   381.90028
   396  H   1.0    0.10    1.13    1.45   124.79915   117.48225   375.16751
   397  H   1.0    0.05    1.13    1.45   125.86384   120.57465   379.03152
   398  H   1.0    0.06    1.11    1.44   126.11453   115.22328   378.38140
   399  H   1.0    0.06    1.11    1.45   126.87275   116.53977   381.03129
   400  H   1.0    0.04    1.13    1.45   121.86847   116.10035   379.09245
   401  H   1.0    0.03    1.04    1.43   121.37014   113.53803   382.73855
   402  H   1.0    0.05    1.05    1.44   123.60245   112.40044   380.99606
   403  H   1.0    0.05    1.05    1.44   124.28976   114.02024   383.49011
   404  H   1.0    0.04    1.06    1.44   120.57001   118.17744   382.61664
   405  H   1.0    0.05    1.06    1.44   123.47345   118.75582   383.35689
   406  H   1.0    0.04    1.06    1.44   122.26834   119.97945   380.83378
   407  N   5.0   -0.16    3.46    2.05   130.53895   121.04909   379.17587
   408  C   4.0    0.04    4.56    4.61   133.29047   120.92455   379.17247
   409  C   4.0    0.16    3.39    3.08   134.23974   119.09636   381.20805
   410  O   6.0   -0.29    1.21    1.80   135.99978   117.56505   380.80322
   411  C   4.0   -0.04    4.53    4.58   134.44120   123.47028   379.26344
   412  C   4.0   -0.04    4.23    4.06   134.90079   124.52440   376.76663
   413  S   6.0   -0.02    2.59    3.10   135.33753   127.84426   376.82372
   414  C   4.0   -0.07    3.96    3.56   134.39421   128.48734   373.48346
   415  H   1.0    0.09    1.11    1.45   129.83627   122.34619   379.89177
   416  H   1.0    0.07    1.14    1.45   133.86710   120.16311   377.51073
   417  H   1.0    0.05    1.12    1.45   133.32157   124.61555   380.24671
   418  H   1.0    0.06    1.10    1.44   136.10991   123.37218   380.19989
   419  H   1.0    0.05    1.15    1.45   136.43183   123.76086   376.00920
   420  H   1.0    0.06    1.16    1.45   133.41992   124.14428   375.66941
   421  H   1.0    0.05    1.08    1.44   134.36707   130.34490   373.24343
   422  H   1.0    0.05    1.09    1.44   135.63344   127.70947   372.36983
   423  H   1.0    0.06    1.09    1.44   132.70049   127.78872   373.21749
   424  N   5.0   -0.12    3.60    2.15   133.01539   119.20302   383.43441
   425  C   4.0    0.04    4.47    4.49   133.48561   117.91661   385.76915
   426  C   4.0    0.15    3.61    3.17   131.00848   116.72473   386.47653
   427  O   6.0   -0.29    1.35    1.80   129.02972   117.89313   386.26557
   428  C   4.0    0.04    4.24    4.07   134.46951   119.83321   387.66332
   429  O   6.0   -0.25    2.06    1.83   136.07191   121.75976   386.59258
   430  H   1.0    0.10    1.15    1.45   131.66152   120.26364   383.60115
   431  H   1.0    0.06    1.13    1.45   134.83771   116.62265   385.60031
   432  H   1.0    0.06    1.06    1.44   132.97367   120.71471   388.46157
   433  H   1.0    0.06    1.06    1.44   135.35693   118.90607   389.07734
   434  H   1.0    0.14    1.05    1.44   137.36039   121.99835   387.71420
   435  N   5.0   -0.09    3.67    2.24   130.97412   114.42435   387.22302
   436  C   4.0    0.04    4.56    4.62   128.45597   113.27509   387.74540
   437  C   4.0    0.09    3.23    3.04   126.98424   114.66546   389.78967
   438  O   6.0   -0.31    1.13    1.80   124.69789   114.60033   389.70559
   439  C   4.0   -0.05    4.38    4.35   129.00726   110.48180   388.45231
   440  C   4.0   -0.05    4.36    4.31   131.75953   110.15762   388.24533
   441  C   4.0   -0.02    4.38    4.34   133.07239   112.76685   387.84430
   442  H   1.0    0.06    1.12    1.45   127.44581   113.21578   386.20109
   443  H   1.0    0.04    1.09    1.44   128.46569   110.17778   390.24185
   444  H   1.0    0.04    1.09    1.44   128.11232   109.34642   387.32552
   445  H   1.0    0.04    1.08    1.44   132.43006   109.33824   389.80045
   446  H   1.0    0.05    1.08    1.44   132.13385   109.05819   386.77566
   447  H   1.0    0.05    1.07    1.44   133.94709   113.26933   389.44964
   448  H   1.0    0.05    1.07    1.44   134.32326   112.65535   386.48004
   449  N   5.0   -0.22    3.23    1.96   121.32478   119.75915   388.72638
   450  C   4.0    0.03    4.35    4.29   118.76580   118.86447   388.27502
   451  C   4.0    0.09    3.27    3.05   117.06936   119.50182   390.44658
   452  O   6.0   -0.30    1.17    1.80   114.82911   119.24051   390.23822
   453  C   4.0   -0.04    4.71    4.77   118.69838   116.05986   387.72710
   454  C   4.0   -0.03    4.57    4.63   116.26869   114.93515   387.31977
   455  C   4.0   -0.07    4.67    4.74   116.46506   112.95073   385.60973
   456  C   4.0   -0.05    4.71    4.77   115.45310   113.63654   389.31722
   457  H   1.0    0.12    1.08    1.44   122.40393   118.49356   389.14805
   458  H   1.0    0.04    1.12    1.45   118.10054   119.73581   386.73683
   459  H   1.0    0.04    1.11    1.45   119.77588   115.72935   386.20914
   460  H   1.0    0.05    1.11    1.45   119.53611   115.19008   389.20554
   461  H   1.0    0.05    1.17    1.46   115.09622   116.33100   386.85827
   462  H   1.0    0.03    1.08    1.44   114.82642   112.08259   385.31272
   463  H   1.0    0.03    1.06    1.44   117.02469   113.63985   383.87830
   464  H   1.0    0.03    1.08    1.44   117.74529   111.69675   386.11846
   465  H   1.0    0.03    1.09    1.44   113.74625   112.89814   389.06377
   466  H   1.0    0.03    1.10    1.44   116.63675   112.32157   389.85926
   467  H   1.0    0.06    1.07    1.44   115.25440   114.85165   390.85943
   468  N   5.0   -0.16    3.47    2.06   108.32367   127.61635   374.01900
   469  C   4.0    0.03    4.61    4.68   110.06650   126.48495   372.26244
   470  C   4.0    0.14    3.45    3.10   110.12270   123.59798   371.95175
   471  O   6.0   -0.30    1.29    1.80   109.97706   122.54984   369.82919
   472  C   4.0   -0.05    4.53    4.58   112.60835   127.44459   373.14160
   473  C   4.0   -0.05    4.47    4.49   112.03134   129.95171   374.07455
   474  C   4.0   -0.02    4.52    4.56   109.47030   129.79052   375.23444
   475  H   1.0    0.05    1.10    1.44   109.53698   127.18424   370.52495
   476  H   1.0    0.04    1.10    1.44   113.31271   126.34001   374.41857
   477  H   1.0    0.04    1.08    1.44   113.83161   127.54835   371.66143
   478  H   1.0    0.04    1.08    1.44   113.32666   130.48115   375.35511
   479  H   1.0    0.04    1.09    1.44   112.02943   131.22967   372.69380
   480  H   1.0    0.04    1.07    1.44   109.60141   129.54473   377.14036
   481  H   1.0    0.04    1.07    1.44   108.45918   131.35700   374.96435
   482  N   5.0   -0.16    3.56    2.12   110.39393   122.32405   373.90329
   483  C   4.0    0.03    4.55    4.61   110.34564   119.60885   373.99738
   484  C   4.0    0.09    3.35    3.07   107.95960   118.65572   372.84624
   485  O   6.0   -0.31    1.17    1.80   107.99962   117.10011   371.15859
   486  C   4.0   -0.03    4.50    4.53   110.73412   118.50020   376.70203
   487  C   4.0   -0.06    4.39    4.36   113.35184   118.98975   377.57614
   488  C   4.0   -0.08    4.31    4.22   110.09081   115.77660   376.64940
   489  C   4.0   -0.09    4.20    4.00   113.55616   119.15206   380.30588
   490  H   1.0    0.07    1.12    1.45   110.59731   123.04487   375.56394
   491  H   1.0    0.05    1.13    1.45   111.80386   119.01426   372.97610
   492  H   1.0    0.04    1.13    1.45   109.54672   119.38730   377.89374
   493  H   1.0    0.03    1.10    1.44   114.47526   117.62958   376.97817
   494  H   1.0    0.04    1.10    1.44   113.96974   120.64068   376.87729
   495  H   1.0    0.04    1.05    1.44   110.46825   115.03114   378.36233
   496  H   1.0    0.05    1.06    1.44   108.27449   115.53024   376.30068
   497  H   1.0    0.04    1.06    1.44   111.11788   114.90787   375.38381
   498  H   1.0    0.04    1.05    1.44   115.33685   119.47640   380.81887
   499  H   1.0    0.04    1.06    1.44   112.47265   120.51715   380.96462
   500  H   1.0    0.04    1.06    1.44   113.01170   117.51422   381.06492
   501  N   5.0   -0.21    3.30    1.98   107.68771   119.37592   365.90740
   502  C   4.0    0.04    4.35    4.29   109.49410   117.94196   364.50886
   503  C   4.0    0.15    3.46    3.10   108.79748   115.14589   364.49479
   504  O   6.0   -0.30    1.25    1.80   108.84120   113.91579   362.45322
   505  C   4.0   -0.08    4.24    4.09   112.08007   118.51193   365.38519
   506  H   1.0    0.13    1.10    1.44   108.25940   119.99533   367.38000
   507  H   1.0    0.05    1.12    1.45   109.39168   118.48907   362.65994
   508  H   1.0    0.05    1.05    1.44   113.32923   117.45045   364.40584
   509  H   1.0    0.05    1.06    1.44   112.49900   120.28623   365.17267
   510  H   1.0    0.05    1.06    1.44   112.22858   118.01725   367.19447
   511  N   5.0   -0.16    3.54    2.10   108.10501   114.05757   366.59004
   512  C   4.0    0.04    4.47    4.50   107.24667   111.50320   366.66716
   513  C   4.0    0.09    3.25    3.04   104.74575   111.15327   365.25456
   514  O   6.0   -0.29    1.13    1.80   104.25302   109.10416   364.34387
   515  C   4.0   -0.05    4.53    4.58   107.00213   110.60456   369.28862
   516  C   4.0   -0.03    4.33    4.24   109.41606   110.19235   370.78118
   517  C   4.0   -0.09    4.20    4.00   108.85600   109.74290   373.55724
   518  C   4.0   -0.09    4.23    4.07   110.89464   108.08419   369.53219
   519  H   1.0    0.11    1.14    1.45   108.08881   114.88686   368.14516
   520  H   1.0    0.05    1.14    1.45   108.51485   110.45078   365.80887
   521  H   1.0    0.05    1.09    1.44   105.95707   111.88179   370.27885
   522  H   1.0    0.05    1.10    1.44   106.04202   108.98392   369.32377
   523  H   1.0    0.04    1.13    1.45   110.49372   111.72386   370.72076
   524  H   1.0    0.04    1.05    1.44   110.44084   109.48500   374.49054
   525  H   1.0    0.04    1.05    1.44   107.92252   111.19453   374.26391
   526  H   1.0    0.05    1.05    1.44   107.78591   108.19352   373.71895
   527  H   1.0    0.04    1.05    1.44   112.44523   107.75490   370.54219
   528  H   1.0    0.04    1.05    1.44   109.83634   106.52681   369.54549
   529  H   1.0    0.04    1.06    1.44   111.33136   108.55019   367.81465
   530  N   5.0   -0.21    3.28    1.98   106.79339   110.39815   358.30328
   531  C   4.0    0.04    4.35    4.29   107.72136   107.92315   358.06927
   532  C   4.0    0.09    3.24    3.04   105.57024   105.99667   357.79354
   533  O   6.0   -0.27    1.12    1.80   105.67644   104.35854   356.15371
   534  C   4.0   -0.05    4.48    4.51   109.41037   107.24992   360.18939
   535  C   4.0   -0.05    4.40    4.38   110.90168   104.92375   359.89860
   536  C   4.0   -0.01    4.43    4.43   111.67385   103.89843   362.37204
   537  N   5.0   -0.15    3.47    2.06   112.84704   101.49689   362.30470
   538  C   4.0    0.11    3.46    3.10   115.09855   101.12239   361.24527
   539  N   5.0   -0.23    3.31    1.99   116.30673   103.07032   360.07311
   540  N   5.0   -0.21    3.27    1.97   116.06093    98.81327   361.15951
   541  H   1.0    0.12    1.09    1.44   107.33284   111.27549   359.70979
   542  H   1.0    0.06    1.13    1.45   108.73162   107.80740   356.48129
   543  H   1.0    0.05    1.10    1.44   110.62479   108.65319   360.50126
   544  H   1.0    0.06    1.10    1.44   108.36088   107.04673   361.77347
   545  H   1.0    0.06    1.10    1.44   109.82968   103.60178   359.04756
   546  H   1.0    0.05    1.10    1.44   112.40339   105.23374   358.85400
   547  H   1.0    0.04    1.09    1.44   112.91842   105.12667   363.15212
   548  H   1.0    0.05    1.09    1.44   110.18108   103.82329   363.52000
   549  H   1.0    0.12    1.14    1.45   112.01581   100.14318   362.93186
   550  H   1.0    0.10    1.09    1.44   115.61621   104.57389   360.04875
   551  H   1.0    0.11    1.07    1.44   117.83459   102.79548   359.39198
   552  H   1.0    0.11    1.07    1.44   115.21243    97.48751   361.83381
   553  H   1.0    0.10    1.07    1.44   117.58183    98.51199   360.47260
   554  N   5.0   -0.21    3.25    1.97   107.23668    98.07440   371.17391
   555  C   4.0    0.03    4.26    4.13   108.33809    99.99113   372.73701
   556  C   4.0    0.09    3.19    3.03   106.41905   102.06112   373.40308
   557  O   6.0   -0.32    1.16    1.80   106.14440   102.75461   375.51007
   558  C   4.0   -0.06    4.31    4.22   110.78568   101.00546   371.48990
   559  C   4.0   -0.04    4.24    4.08   112.81023    99.00793   370.68288
   560  C   4.0    0.24    3.15    3.03   112.38284    97.87636   368.09196
   561  O   6.0   -0.30    1.21    1.80   110.95669    98.87892   366.43194
   562  O   6.0   -0.28    1.19    1.80   113.38620    95.79258   367.73684
   563  H   1.0    0.11    1.08    1.44   107.92975    98.00062   369.55689
   564  H   1.0    0.05    1.12    1.45   108.85708    99.22944   374.36655
   565  H   1.0    0.05    1.08    1.44   110.28399   101.97309   369.95803
   566  H   1.0    0.04    1.08    1.44   111.60326   102.18269   372.70277
   567  H   1.0    0.04    1.09    1.44   114.45142    99.79183   370.69292
   568  H   1.0    0.05    1.09    1.44   112.71616    97.60362   371.92157
   569  N   5.0   -0.20    3.25    1.97   102.49233    99.56358   378.99811
   570  C   4.0    0.04    4.44    4.44   104.01353    99.88951   381.22359
   571  C   4.0    0.14    3.48    3.11   103.95518   102.63974   382.15354
   572  O   6.0   -0.31    1.29    1.80   103.50247   103.19926   384.44963
   573  C   4.0    0.05    4.35    4.30   106.75995    99.05148   380.88074
   574  O   6.0   -0.27    2.16    1.85   107.03692    96.65714   379.68266
   575  C   4.0   -0.08    4.25    4.11   108.04996    98.84459   383.32112
   576  H   1.0    0.11    1.07    1.44   103.43016    98.86774   377.68224
   577  H   1.0    0.06    1.12    1.45   103.19646    98.79084   382.55024
   578  H   1.0    0.05    1.11    1.45   107.52975   100.38314   379.79600
   579  H   1.0    0.14    1.08    1.44   108.60001    96.28420   379.49477
   580  H   1.0    0.05    1.05    1.44   109.85268    98.34233   383.10982
   581  H   1.0    0.05    1.05    1.44   108.04409   100.49104   384.25972
   582  H   1.0    0.05    1.05    1.44   107.23121    97.57169   384.43218
   583  N   5.0   -0.16    3.54    2.11   104.49728   104.40072   380.55966
   584  C   4.0    0.04    4.53    4.58   104.60839   107.01673   381.26748
   585  C   4.0    0.10    3.37    3.07   102.17409   107.96193   382.33151
   586  O   6.0   -0.28    1.14    1.80   102.17005   109.42428   384.13540
   587  C   4.0   -0.04    4.50    4.54   105.33371   108.63165   379.15988
   588  C   4.0   -0.02    3.90    3.46   105.00676   111.33028   379.56395
   589  C   4.0   -0.01    3.73    3.27   103.59646   112.99343   378.16011
   590  C   4.0    0.02    4.06    3.72   106.16925   112.77614   381.39757
   591  N   5.0   -0.13    3.59    2.15   103.93645   115.30999   378.97967
   592  C   4.0    0.04    4.07    3.74   105.46961   115.28546   381.03539
   593  C   4.0   -0.05    3.54    3.13   107.86554   112.26602   383.24993
   594  C   4.0   -0.05    3.50    3.11   106.28519   117.21485   382.56611
   595  C   4.0   -0.05    3.48    3.11   108.74499   114.15683   384.74625
   596  C   4.0   -0.04    3.50    3.11   107.87853   116.61583   384.41813
   597  H   1.0    0.11    1.14    1.45   104.81318   104.10828   378.86123
   598  H   1.0    0.05    1.14    1.45   105.92224   107.14438   382.61496
   599  H   1.0    0.04    1.10    1.44   107.14540   108.33599   378.69139
   600  H   1.0    0.05    1.10    1.44   104.28910   108.15586   377.62434
   601  H   1.0    0.05    1.07    1.44   102.49969   112.49970   376.75260
   602  H   1.0    0.08    1.09    1.44   103.16086   116.74359   378.33923
   603  H   1.0    0.05    1.09    1.44   108.46898   110.53115   383.53949
   604  H   1.0    0.06    1.09    1.44   105.72216   118.94629   382.33062
   605  H   1.0    0.05    1.08    1.44   109.94811   113.79868   386.09148
   606  H   1.0    0.06    1.09    1.44   108.49426   117.92725   385.56927
   607  N   5.0   -0.21    3.29    1.98   101.92275   105.54178   388.88650
   608  C   4.0    0.04    4.51    4.55   103.74976   106.80621   390.49103
   609  C   4.0    0.09    3.32    3.06   102.93320   109.43430   391.10711
   610  O   6.0   -0.28    1.14    1.80   103.00294   110.16566   393.25800
   611  C   4.0   -0.02    4.49    4.52   106.31918   106.74309   389.37456
   612  C   4.0   -0.08    4.35    4.29   107.94241   108.57887   390.73766
   613  C   4.0   -0.08    4.32    4.24   107.28115   104.16787   389.51730
   614  H   1.0    0.13    1.11    1.44   102.45652   105.05885   387.36371
   615  H   1.0    0.05    1.14    1.45   103.76708   105.82153   392.10180
   616  H   1.0    0.05    1.13    1.45   106.34717   107.25679   387.54545
   617  H   1.0    0.03    1.05    1.44   109.74465   108.42805   390.13885
   618  H   1.0    0.05    1.06    1.44   107.36433   110.31479   390.43514
   619  H   1.0    0.05    1.06    1.44   107.90966   108.20166   392.56796
   620  H   1.0    0.04    1.05    1.44   108.97563   104.03906   388.64593
   621  H   1.0    0.04    1.06    1.44   107.48470   103.64279   391.28053
   622  H   1.0    0.06    1.06    1.44   106.11110   102.98606   388.63421
   623  N   5.0   -0.23    3.23    1.96   124.16586   133.65573   379.17587
   624  C   4.0    0.03    4.33    4.26   121.41435   133.78027   379.17247
   625  C   4.0    0.08    3.20    3.04   120.46507   135.60845   381.20805
   626  O   6.0   -0.27    1.10    1.80   118.70503   137.13977   380.80322
   627  C   4.0   -0.05    4.53    4.58   120.26361   131.23453   379.26344
   628  C   4.0   -0.05    4.23    4.06   119.80402   130.18041   376.76663
   629  S   6.0   -0.04    2.59    3.10   119.36729   126.86056   376.82372
   630  C   4.0   -0.07    3.97    3.56   120.31061   126.21748   373.48346
   631  H   1.0    0.10    1.07    1.44   124.86854   132.35863   379.89177
   632  H   1.0    0.05    1.13    1.45   120.83772   134.54170   377.51073
   633  H   1.0    0.05    1.12    1.45   121.38325   130.08927   380.24671
   634  H   1.0    0.05    1.10    1.44   118.59490   131.33263   380.19989
   635  H   1.0    0.04    1.15    1.45   118.27299   130.94396   376.00920
   636  H   1.0    0.04    1.16    1.45   121.28490   130.56054   375.66941
   637  H   1.0    0.05    1.09    1.44   120.33774   124.35992   373.24343
   638  H   1.0    0.04    1.09    1.44   119.07137   126.99535   372.36983
   639  H   1.0    0.06    1.09    1.44   122.00432   126.91610   373.21749
   640  H   1.0    0.08    1.04    1.43   122.32918    98.82131   399.60403
   641  H   1.0    0.10    1.08    1.44   116.53513   105.66283   401.71983
   642  H   1.0    0.07    1.05    1.44   113.36208   100.28300   399.92904
   643  H   1.0    0.09    1.08    1.44   112.80866    89.32907   392.31505
   644  H   1.0    0.06    1.04    1.44   127.90715   115.59723   391.15022
   645  H   1.0    0.10    1.08    1.44   121.92185   120.50507   387.31937
   646  H   1.0    0.06    1.05    1.44   117.80587   120.14325   392.06435
   647  H   1.0    0.09    1.24    1.48   107.28025   128.66912   373.18504
   648  H   1.0    0.05    1.05    1.44   106.29179   119.29677   373.46149
   649  H   1.0    0.10    1.08    1.44   107.17878   120.70746   364.97973
   650  H   1.0    0.06    1.04    1.44   103.54237   112.60108   365.09099
   651  H   1.0    0.10    1.09    1.44   107.27573   111.31520   356.95460
   652  H   1.0    0.07    1.04    1.43   104.07835   106.07416   358.95083
   653  H   1.0    0.10    1.08    1.44   107.46741    96.55160   371.89530
   654  H   1.0    0.06    1.05    1.44   105.37121   102.85107   372.04328
   655  H   1.0    0.10    1.08    1.44   101.19252    98.52344   379.34622
   656  H   1.0    0.06    1.05    1.44   100.53353   107.40562   381.57642
   657  H   1.0    0.10    1.08    1.44   101.37784   104.12507   389.65367
   658  H   1.0    0.07    1.05    1.44   102.32982   110.58283   389.73311
   659  H   1.0    0.10    1.08    1.44   124.73562   133.64411   377.57344
   660  H   1.0    0.06    1.04    1.43   121.25492   135.60385   382.92478

  Z AO/shell   Hii/eV     exponent
  1     Wed Apr 25 08:07:45 CEST 2018   EN: 2.200 GM2: 0.406  GM3: 0.0800  RAES: 1.40
     1s    -10.707211    1.230000
  6     Wed Apr 25 08:07:45 CEST 2018   EN: 2.550 GM2: 0.538  GM3: 0.1500  RAES: 3.00
     2s    -13.970922    2.096432
     2p    -10.063292    1.800000
  7     Wed Apr 25 08:07:45 CEST 2018   EN: 3.040 GM2: 0.461  GM3:-0.0640  RAES: 1.90
     2s    -16.686243    2.339881
     2p    -12.523956    2.014332
  8     Wed Apr 25 08:07:45 CEST 2018   EN: 3.440 GM2: 0.452  GM3:-0.0517  RAES: 1.80
     2s    -20.229985    2.439742
     2p    -15.503117    2.137023
 16     Tue Apr 24 11:44:34 CEST 2018   EN: 2.580 GM2: 0.340  GM3:-0.0502  RAES: 3.10
     3s    -20.029654    1.981333
     3p    -11.377694    2.025643
     3d     -0.420282    1.702555
 no old-style atom pair restraining (fixing) potential

molecular fragmentation (1/2 indicates fragments):
111111111111111111111111111111111111111111111111111111111111111111111111
111111111111111111111111111111111111222222222222222222222222222222222222
222222222222222222222222222222222222222222222222222222222222222222222222
222222222222222222222222222222222222222222222222222222222222222222222222
222222222222222222222222222222222222222222222222222222222222222222222222
222222222222222222222222222222222222222222222222222222222222222222222222
222222222222222222222222222222222222222222222222222222222222222222222222
222222222222222222222222222222222222222222222222222222222222222222222222
222222222222222222222222222222222222222222222222222222222222222122222222
222222222222
# atoms in fragment 1/2:   109   551
 fragment masses (1/2) :      776.86     3613.62
CMA distance (Bohr)    :  21.611
constraining FC (au)   :  0.0500
           ------------------------------------------------- 
          |        Self-Consistent Charge Iterations        |
           ------------------------------------------------- 

 Ncao       : 1593
 Nao        : 1590
 Nshell     : 968
 Nel        : 1736
 T(el)      :   500.0
 intcut     :    35.0
 scfconv/Eh :  0.100E-06
   qconv/e  :  0.100E-04
 intneglect :  0.100E-08
 broydamp   :      0.400
 iter      E             dE          RMSdq      gap      omega  full diag
   1   -991.8364616 -0.991836E+03  0.455E+00    2.61       0.0  T
   2   -994.1707665 -0.233430E+01  0.215E+00    1.28       1.0  T
   3   -994.2958242 -0.125058E+00  0.124E+00    1.80       1.0  T
   4   -994.4630788 -0.167255E+00  0.253E-01    1.15       1.0  T
   5   -994.4755403 -0.124615E-01  0.119E-01    1.33       1.0  T
   6   -994.4769728 -0.143250E-02  0.539E-02    1.29       1.0  T
   7   -994.4774553 -0.482446E-03  0.218E-02    1.29       1.0  T
   8   -994.4775129 -0.576488E-04  0.109E-02    1.28       1.0  T
   9   -994.4775348 -0.218782E-04  0.472E-03    1.28       1.0  T
  10   -994.4775379 -0.314398E-05  0.203E-03    1.28       1.9  T
  11   -994.4775384 -0.496355E-06  0.916E-04    1.28       4.3  T
  12   -994.4775385 -0.100274E-06  0.468E-04    1.28       8.3  T
  13   -994.4775386 -0.324350E-07  0.221E-04    1.28      17.6  T
  14   -994.4775386 -0.591660E-08  0.116E-04    1.28      33.6  T
  15   -994.4775386 -0.165596E-08  0.466E-05    1.28      83.5  T
  16   -994.4775386 -0.287173E-09  0.202E-05    1.28     192.3  T
speedup  1.98
cpu  time for SCC   32.18 s
wall time for SCC   16.26 s

   *** convergence criteria satisfied after 16 iterations ***

          eigenvalues
 #    :         856        857        858        859        860        861        862        863
 occ. :        2.000      2.000      2.000      2.000      2.000      2.000      2.000      2.000
 eps  :        -9.783     -9.763     -9.751     -9.734     -9.730     -9.700     -9.655     -9.634
 #    :         864        865        866        867        868        869        870        871
 occ. :        2.000      2.000      2.000      2.000      2.000      0.000      0.000      0.000
 eps  :        -9.621     -9.594     -9.494     -9.447     -9.318     -8.036     -7.928     -7.903
 #    :         872        873        874        875        876        877        878        879
 occ. :        0.000      0.000      0.000      0.000      0.000      0.000      0.000      0.000
 eps  :        -7.789     -7.642     -7.539     -7.528     -7.524     -7.512     -7.341     -7.192


   #   Z            q   n(s)   n(p)   n(d)      C6AA      α(0)
   1   7 N     -0.134  1.159  3.975  0.000    23.892     7.260
   2   6 C     -0.036  1.060  2.976  0.000    21.243     6.566
   3   6 C      0.251  1.045  2.705  0.000    22.791     7.818
   4   8 O     -0.466  1.789  4.677  0.000    23.044     6.436
   5   6 C      0.028  1.023  2.949  0.000    20.327     6.461
   6   8 O     -0.489  1.709  4.780  0.000    22.661     6.426
   7   1 H      0.313  0.687  0.000  0.000     0.676     1.287
   8   1 H      0.307  0.693  0.000  0.000     0.694     1.305
   9   1 H      0.301  0.699  0.000  0.000     0.710     1.320
  10   1 H      0.154  0.846  0.000  0.000     1.362     1.825
  11   1 H      0.101  0.899  0.000  0.000     1.776     2.084
  12   1 H      0.121  0.879  0.000  0.000     1.605     1.981
  13   1 H      0.337  0.663  0.000  0.000     0.620     1.237
  14   7 N     -0.175  1.218  3.957  0.000    24.794     7.395
  15   6 C      0.010  1.037  2.953  0.000    20.409     6.431
  16   6 C      0.267  1.045  2.689  0.000    22.497     7.767
  17   8 O     -0.493  1.753  4.740  0.000    23.635     6.518
  18   6 C     -0.087  1.012  3.075  0.000    22.135     6.695
  19   6 C     -0.119  1.030  3.089  0.000    22.779     6.796
  20   6 C      0.350  1.047  2.603  0.000    21.051     7.508
  21   8 O     -0.644  1.776  4.868  0.000    27.225     6.996
  22   8 O     -0.661  1.797  4.864  0.000    27.659     7.051
  23   1 H      0.242  0.758  0.000  0.000     0.915     1.498
  24   1 H      0.101  0.899  0.000  0.000     1.773     2.082
  25   1 H      0.074  0.926  0.000  0.000     2.045     2.236
  26   1 H      0.069  0.931  0.000  0.000     2.100     2.266
  27   1 H      0.050  0.950  0.000  0.000     2.321     2.382
  28   1 H      0.043  0.957  0.000  0.000     2.406     2.425
  29   7 N     -0.182  1.220  3.962  0.000    24.941     7.417
  30   6 C      0.003  1.046  2.951  0.000    20.538     6.454
  31   6 C      0.264  1.051  2.684  0.000    22.543     7.776
  32   8 O     -0.505  1.768  4.737  0.000    23.892     6.553
  33   6 C     -0.109  1.027  3.082  0.000    22.562     6.760
  34   6 C     -0.005  1.080  2.925  0.000    28.134     8.700
  35   6 C     -0.042  1.058  2.984  0.000    29.048     8.839
  36   6 C     -0.057  1.058  2.999  0.000    29.406     8.893
  37   6 C     -0.041  1.056  2.985  0.000    29.012     8.833
  38   6 C     -0.048  1.058  2.989  0.000    29.183     8.859
  39   6 C     -0.051  1.063  2.988  0.000    29.266     8.873
  40   1 H      0.229  0.771  0.000  0.000     0.971     1.543
  41   1 H      0.096  0.904  0.000  0.000     1.822     2.110
  42   1 H      0.099  0.901  0.000  0.000     1.796     2.095
  43   1 H      0.083  0.917  0.000  0.000     1.944     2.180
  44   1 H      0.037  0.963  0.000  0.000     2.486     2.465
  45   1 H      0.069  0.931  0.000  0.000     2.098     2.265
  46   1 H      0.051  0.949  0.000  0.000     2.309     2.376
  47   1 H      0.057  0.943  0.000  0.000     2.238     2.339
  48   1 H      0.056  0.944  0.000  0.000     2.241     2.341
  49   7 N     -0.179  1.215  3.963  0.000    24.870     7.407
  50   6 C      0.039  1.022  2.939  0.000    19.904     6.348
  51   6 C      0.260  1.059  2.681  0.000    22.614     7.787
  52   8 O     -0.527  1.788  4.739  0.000    24.386     6.621
  53   6 C     -0.075  1.014  3.061  0.000    21.907     6.660
  54   6 C     -0.113  1.021  3.093  0.000    22.659     6.775
  55   6 C      0.332  1.058  2.610  0.000    21.357     7.563
  56   8 O     -0.668  1.826  4.842  0.000    27.852     7.076
  57   8 O     -0.643  1.800  4.843  0.000    27.206     6.993
  58   1 H      0.230  0.770  0.000  0.000     0.963     1.537
  59   1 H      0.090  0.910  0.000  0.000     1.882     2.145
  60   1 H      0.074  0.926  0.000  0.000     2.047     2.237
  61   1 H      0.060  0.940  0.000  0.000     2.196     2.317
  62   1 H      0.067  0.933  0.000  0.000     2.121     2.277
  63   1 H      0.063  0.937  0.000  0.000     2.168     2.302
  64   7 N     -0.195  1.224  3.971  0.000    25.226     7.460
  65   6 C      0.022  1.039  2.938  0.000    20.205     6.400
  66   6 C      0.274  1.040  2.686  0.000    22.366     7.745
  67   8 O     -0.522  1.765  4.757  0.000    24.276     6.606
  68   6 C     -0.158  0.991  3.167  0.000    23.591     6.921
  69   1 H      0.227  0.773  0.000  0.000     0.978     1.549
  70   1 H      0.084  0.916  0.000  0.000     1.934     2.175
  71   1 H      0.078  0.922  0.000  0.000     2.003     2.213
  72   1 H      0.089  0.911  0.000  0.000     1.884     2.146
  73   1 H      0.084  0.916  0.000  0.000     1.942     2.179
  74   7 N     -0.185  1.219  3.966  0.000    25.004     7.427
  75   6 C      0.017  1.041  2.943  0.000    20.281     6.409
  76   6 C      0.272  1.046  2.682  0.000    22.404     7.751
  77   8 O     -0.504  1.756  4.748  0.000    23.883     6.552
  78   6 C     -0.020  1.026  2.993  0.000    20.883     6.498
  79   6 C     -0.139  0.979  3.159  0.000    23.170     6.854
  80   6 C     -0.144  0.987  3.156  0.000    23.286     6.874
  81   1 H      0.223  0.777  0.000  0.000     0.995     1.562
  82   1 H      0.082  0.918  0.000  0.000     1.956     2.187
  83   1 H      0.055  0.945  0.000  0.000     2.263     2.353
  84   1 H      0.069  0.931  0.000  0.000     2.091     2.261
  85   1 H      0.057  0.943  0.000  0.000     2.228     2.334
  86   1 H      0.056  0.944  0.000  0.000     2.245     2.343
  87   1 H      0.056  0.944  0.000  0.000     2.251     2.346
  88   1 H      0.059  0.941  0.000  0.000     2.213     2.326
  89   1 H      0.050  0.950  0.000  0.000     2.324     2.384
  90   7 N     -0.177  1.218  3.959  0.000    24.828     7.400
  91   6 C      0.022  1.046  2.933  0.000    20.203     6.398
  92   6 C      0.208  1.086  2.706  0.000    23.592     7.954
  93   8 O     -0.353  1.752  4.600  0.000    20.756     6.108
  94   6 C     -0.019  1.034  2.985  0.000    20.866     6.496
  95   6 C     -0.083  1.006  3.077  0.000    22.067     6.685
  96   6 C     -0.142  0.985  3.157  0.000    23.253     6.870
  97   6 C     -0.127  0.981  3.146  0.000    22.976     6.831
  98   1 H      0.212  0.788  0.000  0.000     1.045     1.601
  99   1 H      0.100  0.900  0.000  0.000     1.784     2.088
 100   1 H      0.047  0.953  0.000  0.000     2.353     2.399
 101   1 H      0.052  0.948  0.000  0.000     2.293     2.368
 102   1 H      0.061  0.939  0.000  0.000     2.191     2.315
 103   1 H      0.067  0.933  0.000  0.000     2.120     2.277
 104   1 H      0.051  0.949  0.000  0.000     2.304     2.373
 105   1 H      0.071  0.929  0.000  0.000     2.072     2.251
 106   1 H      0.060  0.940  0.000  0.000     2.194     2.316
 107   1 H      0.030  0.970  0.000  0.000     2.580     2.512
 108   1 H      0.053  0.947  0.000  0.000     2.279     2.360
 109   7 N     -0.411  1.290  4.121  0.000    30.691     8.228
 110   6 C      0.038  1.033  2.930  0.000    19.942     6.358
 111   6 C      0.197  1.098  2.705  0.000    23.808     7.991
 112   8 O     -0.400  1.768  4.632  0.000    21.690     6.244
 113   6 C     -0.030  1.043  2.986  0.000    21.056     6.524
 114   6 C     -0.082  1.004  3.078  0.000    22.052     6.682
 115   6 C     -0.147  0.989  3.158  0.000    23.385     6.892
 116   6 C     -0.143  0.985  3.158  0.000    23.274     6.873
 117   1 H      0.188  0.812  0.000  0.000     1.170     1.695
 118   1 H      0.052  0.948  0.000  0.000     2.295     2.369
 119   1 H      0.061  0.939  0.000  0.000     2.191     2.315
 120   1 H      0.049  0.951  0.000  0.000     2.327     2.385
 121   1 H      0.051  0.949  0.000  0.000     2.303     2.373
 122   1 H      0.074  0.926  0.000  0.000     2.039     2.233
 123   1 H      0.048  0.952  0.000  0.000     2.340     2.392
 124   1 H      0.045  0.955  0.000  0.000     2.387     2.416
 125   1 H      0.043  0.957  0.000  0.000     2.406     2.425
 126   1 H      0.050  0.950  0.000  0.000     2.322     2.383
 127   1 H      0.065  0.935  0.000  0.000     2.145     2.290
 128   7 N     -0.414  1.285  4.129  0.000    30.753     8.236
 129   6 C      0.022  1.030  2.948  0.000    20.208     6.401
 130   6 C      0.261  1.048  2.690  0.000    22.598     7.784
 131   8 O     -0.521  1.755  4.765  0.000    24.251     6.603
 132   6 C     -0.105  1.030  3.075  0.000    22.496     6.751
 133   6 C     -0.095  1.020  3.075  0.000    22.318     6.726
 134   6 C     -0.114  1.026  3.087  0.000    22.666     6.778
 135   6 C     -0.072  1.022  3.050  0.000    21.960     6.687
 136   7 N     -0.138  1.160  3.978  0.000    23.975     7.272
 137   1 H      0.194  0.806  0.000  0.000     1.139     1.672
 138   1 H      0.053  0.947  0.000  0.000     2.287     2.365
 139   1 H      0.082  0.918  0.000  0.000     1.953     2.185
 140   1 H      0.051  0.949  0.000  0.000     2.301     2.372
 141   1 H      0.064  0.936  0.000  0.000     2.147     2.291
 142   1 H      0.067  0.933  0.000  0.000     2.118     2.275
 143   1 H      0.093  0.907  0.000  0.000     1.846     2.125
 144   1 H      0.091  0.909  0.000  0.000     1.866     2.136
 145   1 H      0.123  0.877  0.000  0.000     1.592     1.973
 146   1 H      0.117  0.883  0.000  0.000     1.637     2.001
 147   1 H      0.297  0.703  0.000  0.000     0.722     1.331
 148   1 H      0.296  0.704  0.000  0.000     0.726     1.334
 149   1 H      0.293  0.707  0.000  0.000     0.735     1.343
 150   7 N     -0.188  1.226  3.962  0.000    25.078     7.438
 151   6 C     -0.002  1.053  2.949  0.000    20.625     6.468
 152   6 C      0.265  1.056  2.679  0.000    22.520     7.770
 153   8 O     -0.494  1.760  4.734  0.000    23.648     6.520
 154   6 C     -0.116  1.028  3.088  0.000    22.715     6.785
 155   6 C     -0.101  1.018  3.083  0.000    22.425     6.741
 156   6 C     -0.112  1.020  3.092  0.000    22.634     6.772
 157   6 C     -0.075  1.023  3.052  0.000    22.015     6.694
 158   7 N     -0.140  1.160  3.980  0.000    24.017     7.279
 159   1 H      0.235  0.765  0.000  0.000     0.945     1.523
 160   1 H      0.111  0.889  0.000  0.000     1.691     2.034
 161   1 H      0.102  0.898  0.000  0.000     1.763     2.076
 162   1 H      0.074  0.926  0.000  0.000     2.044     2.236
 163   1 H      0.096  0.904  0.000  0.000     1.825     2.113
 164   1 H      0.058  0.942  0.000  0.000     2.219     2.329
 165   1 H      0.095  0.905  0.000  0.000     1.827     2.113
 166   1 H      0.089  0.911  0.000  0.000     1.885     2.147
 167   1 H      0.129  0.871  0.000  0.000     1.539     1.940
 168   1 H      0.131  0.869  0.000  0.000     1.528     1.933
 169   1 H      0.298  0.702  0.000  0.000     0.719     1.328
 170   1 H      0.290  0.710  0.000  0.000     0.744     1.351
 171   1 H      0.292  0.708  0.000  0.000     0.739     1.346
 172   7 N     -0.185  1.219  3.967  0.000    25.020     7.429
 173   6 C      0.015  1.044  2.941  0.000    20.327     6.420
 174   6 C      0.259  1.058  2.683  0.000    22.634     7.790
 175   8 O     -0.510  1.760  4.750  0.000    24.001     6.568
 176   6 C     -0.070  1.012  3.058  0.000    21.820     6.648
 177   6 C     -0.113  1.022  3.091  0.000    22.656     6.775
 178   6 C      0.372  1.021  2.607  0.000    20.699     7.446
 179   8 O     -0.647  1.770  4.877  0.000    27.303     7.006
 180   8 O     -0.674  1.786  4.888  0.000    27.997     7.094
 181   1 H      0.215  0.785  0.000  0.000     1.033     1.592
 182   1 H      0.089  0.911  0.000  0.000     1.887     2.148
 183   1 H      0.064  0.936  0.000  0.000     2.154     2.295
 184   1 H      0.049  0.951  0.000  0.000     2.328     2.386
 185   1 H      0.039  0.961  0.000  0.000     2.458     2.452
 186   1 H      0.064  0.936  0.000  0.000     2.148     2.292
 187   7 N     -0.183  1.224  3.959  0.000    24.970     7.422
 188   6 C      0.011  1.043  2.946  0.000    20.381     6.426
 189   6 C      0.273  1.037  2.691  0.000    22.395     7.750
 190   8 O     -0.500  1.738  4.762  0.000    23.779     6.538
 191   6 C     -0.041  1.042  2.999  0.000    21.262     6.557
 192   6 C     -0.084  1.004  3.080  0.000    22.077     6.687
 193   6 C     -0.142  0.982  3.160  0.000    23.262     6.872
 194   6 C     -0.134  0.978  3.156  0.000    23.103     6.849
 195   1 H      0.211  0.789  0.000  0.000     1.050     1.605
 196   1 H      0.083  0.917  0.000  0.000     1.944     2.180
 197   1 H      0.068  0.932  0.000  0.000     2.108     2.270
 198   1 H      0.055  0.945  0.000  0.000     2.253     2.347
 199   1 H      0.047  0.953  0.000  0.000     2.360     2.402
 200   1 H      0.077  0.923  0.000  0.000     2.010     2.217
 201   1 H      0.051  0.949  0.000  0.000     2.308     2.376
 202   1 H      0.057  0.943  0.000  0.000     2.229     2.335
 203   1 H      0.056  0.944  0.000  0.000     2.248     2.345
 204   1 H      0.047  0.953  0.000  0.000     2.358     2.401
 205   1 H      0.055  0.945  0.000  0.000     2.252     2.347
 206   7 N     -0.167  1.215  3.952  0.000    24.612     7.368
 207   6 C     -0.039  1.011  3.028  0.000    21.317     6.581
 208   6 C      0.271  1.039  2.690  0.000    22.414     7.752
 209   8 O     -0.505  1.746  4.760  0.000    23.903     6.555
 210   1 H      0.229  0.771  0.000  0.000     0.967     1.541
 211   1 H      0.102  0.898  0.000  0.000     1.769     2.080
 212   1 H      0.115  0.885  0.000  0.000     1.655     2.011
 213   7 N     -0.181  1.225  3.956  0.000    24.928     7.415
 214   6 C      0.019  1.040  2.941  0.000    20.260     6.408
 215   6 C      0.263  1.056  2.682  0.000    22.572     7.780
 216   8 O     -0.502  1.764  4.739  0.000    23.841     6.546
 217   6 C     -0.159  0.991  3.169  0.000    23.617     6.925
 218   1 H      0.233  0.767  0.000  0.000     0.951     1.528
 219   1 H      0.105  0.895  0.000  0.000     1.742     2.064
 220   1 H      0.080  0.920  0.000  0.000     1.978     2.199
 221   1 H      0.098  0.902  0.000  0.000     1.800     2.098
 222   1 H      0.069  0.931  0.000  0.000     2.095     2.263
 223   7 N     -0.192  1.228  3.963  0.000    25.159     7.450
 224   6 C      0.027  1.035  2.938  0.000    20.126     6.387
 225   6 C      0.260  1.053  2.688  0.000    22.628     7.790
 226   8 O     -0.512  1.762  4.751  0.000    24.056     6.576
 227   6 C     -0.086  1.002  3.084  0.000    22.098     6.685
 228   6 C     -0.031  1.022  3.010  0.000    21.118     6.541
 229  16 S     -0.205  1.908  4.248  0.048   149.775    20.598
 230   6 C     -0.074  0.989  3.084  0.000    21.952     6.678
 231   1 H      0.223  0.777  0.000  0.000     0.996     1.563
 232   1 H      0.075  0.925  0.000  0.000     2.035     2.230
 233   1 H      0.066  0.934  0.000  0.000     2.130     2.282
 234   1 H      0.076  0.924  0.000  0.000     2.025     2.225
 235   1 H      0.065  0.935  0.000  0.000     2.139     2.287
 236   1 H      0.060  0.940  0.000  0.000     2.197     2.318
 237   1 H      0.066  0.934  0.000  0.000     2.126     2.280
 238   1 H      0.059  0.941  0.000  0.000     2.212     2.325
 239   1 H      0.074  0.926  0.000  0.000     2.043     2.235
 240   7 N     -0.184  1.227  3.957  0.000    24.983     7.423
 241   6 C      0.020  1.033  2.947  0.000    20.229     6.402
 242   6 C      0.270  1.050  2.680  0.000    22.437     7.757
 243   8 O     -0.497  1.752  4.745  0.000    23.710     6.528
 244   6 C     -0.092  1.012  3.080  0.000    22.214     6.704
 245   6 C     -0.030  1.029  3.002  0.000    21.072     6.528
 246   6 C     -0.153  0.993  3.159  0.000    23.483     6.905
 247   6 C     -0.151  0.986  3.165  0.000    23.447     6.898
 248   1 H      0.241  0.759  0.000  0.000     0.919     1.501
 249   1 H      0.092  0.908  0.000  0.000     1.863     2.134
 250   1 H      0.070  0.930  0.000  0.000     2.083     2.257
 251   1 H      0.073  0.927  0.000  0.000     2.048     2.238
 252   1 H      0.056  0.944  0.000  0.000     2.245     2.343
 253   1 H      0.055  0.945  0.000  0.000     2.262     2.352
 254   1 H      0.049  0.951  0.000  0.000     2.329     2.386
 255   1 H      0.058  0.942  0.000  0.000     2.218     2.329
 256   1 H      0.060  0.940  0.000  0.000     2.198     2.318
 257   1 H      0.054  0.946  0.000  0.000     2.275     2.359
 258   1 H      0.054  0.946  0.000  0.000     2.270     2.356
 259   7 N     -0.200  1.226  3.973  0.000    25.336     7.476
 260   6 C      0.013  1.045  2.942  0.000    20.355     6.424
 261   6 C      0.247  1.067  2.686  0.000    22.852     7.828
 262   8 O     -0.501  1.777  4.724  0.000    23.816     6.543
 263   6 C      0.043  1.012  2.946  0.000    20.057     6.413
 264   8 O     -0.494  1.712  4.783  0.000    22.766     6.441
 265   1 H      0.237  0.763  0.000  0.000     0.934     1.514
 266   1 H      0.106  0.894  0.000  0.000     1.730     2.057
 267   1 H      0.087  0.913  0.000  0.000     1.911     2.162
 268   1 H      0.067  0.933  0.000  0.000     2.121     2.277
 269   1 H      0.360  0.640  0.000  0.000     0.566     1.181
 270   7 N     -0.172  1.218  3.955  0.000    24.730     7.386
 271   6 C      0.022  1.031  2.947  0.000    20.208     6.400
 272   6 C      0.271  1.046  2.683  0.000    22.421     7.754
 273   8 O     -0.522  1.754  4.769  0.000    24.280     6.606
 274   6 C     -0.104  1.015  3.089  0.000    22.451     6.741
 275   6 C     -0.024  1.028  2.996  0.000    20.958     6.511
 276   6 C     -0.144  0.984  3.159  0.000    23.293     6.876
 277   6 C     -0.148  0.992  3.156  0.000    23.381     6.890
 278   1 H      0.236  0.764  0.000  0.000     0.941     1.519
 279   1 H      0.084  0.916  0.000  0.000     1.937     2.176
 280   1 H      0.082  0.918  0.000  0.000     1.959     2.188
 281   1 H      0.074  0.926  0.000  0.000     2.046     2.237
 282   1 H      0.038  0.962  0.000  0.000     2.481     2.463
 283   1 H      0.051  0.949  0.000  0.000     2.309     2.376
 284   1 H      0.046  0.954  0.000  0.000     2.370     2.407
 285   1 H      0.057  0.943  0.000  0.000     2.240     2.340
 286   1 H      0.057  0.943  0.000  0.000     2.232     2.336
 287   1 H      0.055  0.945  0.000  0.000     2.255     2.348
 288   1 H      0.051  0.949  0.000  0.000     2.301     2.372
 289   7 N     -0.182  1.223  3.959  0.000    24.937     7.417
 290   6 C      0.033  1.026  2.941  0.000    20.012     6.367
 291   6 C      0.271  1.046  2.683  0.000    22.428     7.755
 292   8 O     -0.526  1.756  4.770  0.000    24.376     6.620
 293   6 C     -0.092  1.016  3.077  0.000    22.233     6.708
 294   6 C     -0.029  1.028  3.002  0.000    21.059     6.526
 295   6 C     -0.148  0.994  3.155  0.000    23.377     6.887
 296   6 C     -0.147  0.985  3.162  0.000    23.354     6.882
 297   1 H      0.230  0.770  0.000  0.000     0.963     1.537
 298   1 H      0.079  0.921  0.000  0.000     1.989     2.205
 299   1 H      0.064  0.936  0.000  0.000     2.149     2.292
 300   1 H      0.059  0.941  0.000  0.000     2.213     2.326
 301   1 H      0.057  0.943  0.000  0.000     2.239     2.340
 302   1 H      0.072  0.928  0.000  0.000     2.063     2.246
 303   1 H      0.037  0.963  0.000  0.000     2.482     2.463
 304   1 H      0.066  0.934  0.000  0.000     2.132     2.283
 305   1 H      0.073  0.927  0.000  0.000     2.047     2.237
 306   1 H      0.057  0.943  0.000  0.000     2.230     2.335
 307   1 H      0.032  0.968  0.000  0.000     2.560     2.502
 308   7 N     -0.196  1.233  3.963  0.000    25.261     7.465
 309   6 C      0.027  1.032  2.940  0.000    20.115     6.385
 310   6 C      0.278  1.041  2.681  0.000    22.304     7.734
 311   8 O     -0.533  1.773  4.760  0.000    24.517     6.639
 312   6 C     -0.110  1.028  3.082  0.000    22.601     6.769
 313   6 C     -0.136  1.035  3.101  0.000    23.112     6.845
 314   6 C      0.294  1.022  2.684  0.000    22.019     7.683
 315   8 O     -0.504  1.735  4.769  0.000    23.860     6.549
 316   7 N     -0.283  1.210  4.073  0.000    27.305     7.761
 317   1 H      0.233  0.767  0.000  0.000     0.951     1.527
 318   1 H      0.085  0.915  0.000  0.000     1.931     2.173
 319   1 H      0.103  0.897  0.000  0.000     1.760     2.074
 320   1 H      0.079  0.921  0.000  0.000     1.992     2.207
 321   1 H      0.091  0.909  0.000  0.000     1.868     2.137
 322   1 H      0.108  0.892  0.000  0.000     1.710     2.045
 323   1 H      0.221  0.779  0.000  0.000     1.004     1.569
 324   1 H      0.212  0.788  0.000  0.000     1.046     1.602
 325   7 N     -0.206  1.242  3.964  0.000    25.478     7.497
 326   6 C      0.004  1.062  2.934  0.000    20.518     6.451
 327   6 C      0.285  1.032  2.683  0.000    22.167     7.710
 328   8 O     -0.512  1.749  4.763  0.000    24.048     6.575
 329   6 C     -0.092  1.008  3.084  0.000    22.233     6.710
 330   6 C     -0.100  1.016  3.084  0.000    22.399     6.736
 331   6 C     -0.112  1.025  3.087  0.000    22.646     6.775
 332   6 C     -0.080  1.032  3.048  0.000    22.125     6.714
 333   7 N     -0.141  1.162  3.979  0.000    24.045     7.283
 334   1 H      0.243  0.757  0.000  0.000     0.912     1.496
 335   1 H      0.099  0.901  0.000  0.000     1.795     2.095
 336   1 H      0.070  0.930  0.000  0.000     2.080     2.255
 337   1 H      0.083  0.917  0.000  0.000     1.946     2.181
 338   1 H      0.075  0.925  0.000  0.000     2.034     2.230
 339   1 H      0.076  0.924  0.000  0.000     2.025     2.225
 340   1 H      0.085  0.915  0.000  0.000     1.931     2.173
 341   1 H      0.097  0.903  0.000  0.000     1.810     2.104
 342   1 H      0.132  0.868  0.000  0.000     1.520     1.928
 343   1 H      0.130  0.870  0.000  0.000     1.532     1.935
[...]
 374   6 C     -0.022  1.023  2.999  0.000    20.916     6.503
 375   6 C     -0.144  0.991  3.154  0.000    23.304     6.877
 376   6 C     -0.144  0.984  3.160  0.000    23.269     6.868
 377   1 H      0.214  0.786  0.000  0.000     1.038     1.596
 378   1 H      0.092  0.908  0.000  0.000     1.863     2.135
 379   1 H      0.075  0.925  0.000  0.000     2.033     2.229
 380   1 H      0.077  0.923  0.000  0.000     2.009     2.216
 381   1 H      0.048  0.952  0.000  0.000     2.347     2.395
 382   1 H      0.051  0.949  0.000  0.000     2.301     2.372
 383   1 H      0.035  0.965  0.000  0.000     2.520     2.482
 384   1 H      0.047  0.953  0.000  0.000     2.355     2.400
 385   1 H      0.055  0.945  0.000  0.000     2.256     2.349
 386   1 H      0.061  0.939  0.000  0.000     2.188     2.313
 387   1 H      0.060  0.940  0.000  0.000     2.200     2.319
 388   7 N     -0.182  1.216  3.966  0.000    24.934     7.416
 389   6 C      0.026  1.032  2.942  0.000    20.136     6.389
 390   6 C      0.256  1.062  2.682  0.000    22.693     7.802
 391   8 O     -0.498  1.774  4.724  0.000    23.747     6.533
 392   6 C     -0.084  1.008  3.076  0.000    22.071     6.682
 393   6 C     -0.023  1.024  2.999  0.000    20.943     6.508
 394   6 C     -0.150  0.993  3.157  0.000    23.422     6.895
 395   6 C     -0.142  0.980  3.162  0.000    23.253     6.869
 396   1 H      0.214  0.786  0.000  0.000     1.038     1.596
 397   1 H      0.082  0.918  0.000  0.000     1.953     2.185
 398   1 H      0.062  0.938  0.000  0.000     2.175     2.306
 399   1 H      0.067  0.933  0.000  0.000     2.122     2.278
 400   1 H      0.049  0.951  0.000  0.000     2.335     2.389
 401   1 H      0.069  0.931  0.000  0.000     2.098     2.265
 402   1 H      0.054  0.946  0.000  0.000     2.266     2.354
 403   1 H      0.053  0.947  0.000  0.000     2.288     2.365
 404   1 H      0.065  0.935  0.000  0.000     2.141     2.288
 405   1 H      0.043  0.957  0.000  0.000     2.403     2.424
 406   1 H      0.049  0.951  0.000  0.000     2.335     2.389
 407   7 N     -0.197  1.221  3.976  0.000    25.285     7.468
 408   6 C      0.018  1.039  2.943  0.000    20.262     6.406
 409   6 C      0.265  1.052  2.683  0.000    22.530     7.772
 410   8 O     -0.492  1.752  4.740  0.000    23.613     6.515
 411   6 C     -0.078  1.004  3.074  0.000    21.925     6.657
 412   6 C     -0.012  1.012  3.000  0.000    20.774     6.486
 413  16 S     -0.224  1.916  4.270  0.039   150.642    20.657
 414   6 C     -0.088  1.010  3.078  0.000    22.237     6.724
 415   1 H      0.222  0.778  0.000  0.000     1.001     1.567
 416   1 H      0.096  0.904  0.000  0.000     1.825     2.113
 417   1 H      0.076  0.924  0.000  0.000     2.015     2.220
 418   1 H      0.075  0.925  0.000  0.000     2.029     2.227
 419   1 H      0.057  0.943  0.000  0.000     2.230     2.335
 420   1 H      0.052  0.948  0.000  0.000     2.293     2.368
 421   1 H      0.082  0.918  0.000  0.000     1.962     2.190
 422   1 H      0.070  0.930  0.000  0.000     2.082     2.256
 423   1 H      0.063  0.937  0.000  0.000     2.161     2.298
 424   7 N     -0.154  1.208  3.946  0.000    24.340     7.327
 425   6 C      0.016  1.034  2.950  0.000    20.302     6.415
 426   6 C      0.264  1.029  2.707  0.000    22.557     7.780
 427   8 O     -0.525  1.742  4.783  0.000    24.337     6.614
 428   6 C      0.063  1.006  2.931  0.000    19.705     6.353
 429   8 O     -0.495  1.717  4.778  0.000    22.788     6.444
 430   1 H      0.213  0.787  0.000  0.000     1.043     1.600
 431   1 H      0.087  0.913  0.000  0.000     1.905     2.158
 432   1 H      0.048  0.952  0.000  0.000     2.349     2.397
 433   1 H      0.063  0.937  0.000  0.000     2.163     2.300
 434   1 H      0.350  0.650  0.000  0.000     0.587     1.203
 435   7 N     -0.064  1.230  3.834  0.000    22.484     7.042
 436   6 C      0.013  1.054  2.933  0.000    20.344     6.418
 437   6 C      0.210  1.076  2.714  0.000    23.547     7.947
 438   8 O     -0.344  1.737  4.607  0.000    20.599     6.085
 439   6 C     -0.083  1.014  3.069  0.000    22.066     6.685
 440   6 C     -0.093  1.015  3.078  0.000    22.241     6.710
 441   6 C     -0.035  1.021  3.013  0.000    21.248     6.572
 442   1 H      0.112  0.888  0.000  0.000     1.677     2.025
 443   1 H      0.068  0.932  0.000  0.000     2.107     2.270
 444   1 H      0.098  0.902  0.000  0.000     1.802     2.099
 445   1 H      0.075  0.925  0.000  0.000     2.031     2.228
 446   1 H      0.095  0.905  0.000  0.000     1.834     2.118
 447   1 H      0.078  0.922  0.000  0.000     2.000     2.212
 448   1 H      0.092  0.908  0.000  0.000     1.857     2.131
 449   7 N     -0.417  1.303  4.114  0.000    30.855     8.250
 450   6 C      0.026  1.033  2.940  0.000    20.136     6.390
 451   6 C      0.206  1.078  2.715  0.000    23.621     7.960
 452   8 O     -0.375  1.740  4.636  0.000    21.192     6.172
 453   6 C     -0.089  1.018  3.071  0.000    22.129     6.686
 454   6 C     -0.006  0.975  3.031  0.000    20.643     6.460
 455   6 C     -0.135  0.989  3.146  0.000    22.988     6.810
 456   6 C     -0.114  0.979  3.136  0.000    22.588     6.750
 457   1 H      0.173  0.827  0.000  0.000     1.257     1.756
 458   1 H      0.075  0.925  0.000  0.000     2.028     2.227
 459   1 H      0.068  0.932  0.000  0.000     2.110     2.271
 460   1 H      0.055  0.945  0.000  0.000     2.256     2.349
 461   1 H      0.053  0.947  0.000  0.000     2.283     2.363
 462   1 H      0.058  0.942  0.000  0.000     2.225     2.332
 463   1 H      0.031  0.969  0.000  0.000     2.567     2.505
 464   1 H      0.056  0.944  0.000  0.000     2.241     2.341
 465   1 H      0.047  0.953  0.000  0.000     2.351     2.398
 466   1 H      0.049  0.951  0.000  0.000     2.336     2.390
 467   1 H      0.008  0.992  0.000  0.000     2.916     2.670
 468   7 N     -0.340  1.354  3.986  0.000    28.741     7.962
 469   6 C      0.025  1.044  2.931  0.000    20.114     6.378
 470   6 C      0.264  1.038  2.698  0.000    22.555     7.778
 471   8 O     -0.553  1.765  4.788  0.000    24.998     6.704
 472   6 C     -0.072  1.007  3.065  0.000    21.833     6.644
 473   6 C     -0.072  1.002  3.070  0.000    21.819     6.641
 474   6 C      0.004  1.009  2.988  0.000    20.503     6.444
 475   1 H      0.031  0.969  0.000  0.000     2.573     2.508
 476   1 H      0.064  0.936  0.000  0.000     2.152     2.294
 477   1 H      0.041  0.959  0.000  0.000     2.435     2.440
 478   1 H      0.049  0.951  0.000  0.000     2.336     2.390
 479   1 H      0.042  0.958  0.000  0.000     2.426     2.436
 480   1 H      0.046  0.954  0.000  0.000     2.367     2.406
 481   1 H      0.033  0.967  0.000  0.000     2.541     2.492
 482   7 N     -0.135  1.214  3.921  0.000    23.933     7.266
 483   6 C      0.002  1.042  2.956  0.000    20.524     6.447
 484   6 C      0.212  1.073  2.715  0.000    23.515     7.942
 485   8 O     -0.354  1.738  4.616  0.000    20.790     6.113
 486   6 C     -0.038  1.047  2.991  0.000    21.200     6.547
 487   6 C     -0.086  1.001  3.084  0.000    22.110     6.691
 488   6 C     -0.150  0.985  3.165  0.000    23.412     6.893
 489   6 C     -0.141  0.980  3.160  0.000    23.233     6.867
 490   1 H      0.226  0.774  0.000  0.000     0.983     1.553
 491   1 H      0.101  0.899  0.000  0.000     1.779     2.085
 492   1 H      0.070  0.930  0.000  0.000     2.085     2.258
 493   1 H      0.067  0.933  0.000  0.000     2.120     2.277
 494   1 H      0.047  0.953  0.000  0.000     2.360     2.402
 495   1 H      0.079  0.921  0.000  0.000     1.993     2.207
 496   1 H      0.053  0.947  0.000  0.000     2.280     2.361
 497   1 H      0.071  0.929  0.000  0.000     2.072     2.251
 498   1 H      0.052  0.948  0.000  0.000     2.294     2.369
 499   1 H      0.051  0.949  0.000  0.000     2.305     2.374
 500   1 H      0.059  0.941  0.000  0.000     2.206     2.322
 501   7 N     -0.416  1.283  4.133  0.000    30.826     8.246
 502   6 C      0.042  1.026  2.932  0.000    19.883     6.350
 503   6 C      0.255  1.056  2.690  0.000    22.717     7.806
 504   8 O     -0.559  1.767  4.792  0.000    25.141     6.723
 505   6 C     -0.138  0.985  3.154  0.000    23.188     6.861
 506   1 H      0.190  0.810  0.000  0.000     1.156     1.684
 507   1 H      0.039  0.961  0.000  0.000     2.459     2.452
 508   1 H      0.041  0.959  0.000  0.000     2.431     2.438
 509   1 H      0.063  0.937  0.000  0.000     2.168     2.302
 510   1 H      0.065  0.935  0.000  0.000     2.136     2.285
 511   7 N     -0.157  1.217  3.940  0.000    24.394     7.335
 512   6 C      0.021  1.027  2.951  0.000    20.207     6.398
 513   6 C      0.204  1.085  2.711  0.000    23.665     7.967
 514   8 O     -0.358  1.747  4.611  0.000    20.861     6.124
 515   6 C     -0.097  1.018  3.079  0.000    22.323     6.722
 516   6 C     -0.033  1.034  2.999  0.000    21.123     6.536
 517   6 C     -0.153  0.991  3.163  0.000    23.499     6.908
 518   6 C     -0.153  0.987  3.166  0.000    23.490     6.906
 519   1 H      0.241  0.759  0.000  0.000     0.918     1.501
 520   1 H      0.103  0.897  0.000  0.000     1.753     2.071
 521   1 H      0.072  0.928  0.000  0.000     2.062     2.246
 522   1 H      0.077  0.923  0.000  0.000     2.013     2.219
 523   1 H      0.059  0.941  0.000  0.000     2.215     2.327
 524   1 H      0.063  0.937  0.000  0.000     2.158     2.297
 525   1 H      0.065  0.935  0.000  0.000     2.141     2.288
 526   1 H      0.051  0.949  0.000  0.000     2.313     2.378
 527   1 H      0.058  0.942  0.000  0.000     2.218     2.329
 528   1 H      0.050  0.950  0.000  0.000     2.325     2.384
 529   1 H      0.052  0.948  0.000  0.000     2.292     2.367
 530   7 N     -0.401  1.280  4.120  0.000    30.393     8.188
 531   6 C      0.041  1.021  2.938  0.000    19.889     6.351
 532   6 C      0.196  1.097  2.707  0.000    23.818     7.993
 533   8 O     -0.380  1.757  4.623  0.000    21.282     6.185
 534   6 C     -0.085  1.009  3.075  0.000    22.087     6.686
 535   6 C     -0.101  1.005  3.096  0.000    22.413     6.737
 536   6 C     -0.025  1.006  3.019  0.000    21.057     6.539
 537   7 N     -0.130  1.188  3.942  0.000    23.815     7.248
 538   6 C      0.224  1.024  2.752  0.000    23.281     7.900
 539   7 N     -0.263  1.181  4.082  0.000    26.818     7.691
 540   7 N     -0.255  1.186  4.069  0.000    26.636     7.665
 541   1 H      0.181  0.819  0.000  0.000     1.208     1.722
 542   1 H      0.061  0.939  0.000  0.000     2.182     2.310
 543   1 H      0.067  0.933  0.000  0.000     2.122     2.278
 544   1 H      0.064  0.936  0.000  0.000     2.153     2.295
 545   1 H      0.070  0.930  0.000  0.000     2.084     2.257
 546   1 H      0.070  0.930  0.000  0.000     2.089     2.260
 547   1 H      0.072  0.928  0.000  0.000     2.064     2.247
 548   1 H      0.095  0.905  0.000  0.000     1.833     2.117
 549   1 H      0.241  0.759  0.000  0.000     0.919     1.501
 550   1 H      0.231  0.769  0.000  0.000     0.962     1.536
 551   1 H      0.245  0.755  0.000  0.000     0.901     1.487
 552   1 H      0.245  0.755  0.000  0.000     0.903     1.489
 553   1 H      0.265  0.735  0.000  0.000     0.828     1.426
 554   7 N     -0.405  1.293  4.113  0.000    30.518     8.205
 555   6 C      0.031  1.035  2.934  0.000    20.072     6.381
 556   6 C      0.202  1.085  2.712  0.000    23.694     7.971
 557   8 O     -0.342  1.720  4.622  0.000    20.560     6.079
 558   6 C     -0.082  1.023  3.059  0.000    22.055     6.685
 559   6 C     -0.113  1.021  3.092  0.000    22.660     6.776
 560   6 C      0.362  1.026  2.611  0.000    20.853     7.473
 561   8 O     -0.660  1.778  4.883  0.000    27.654     7.050
 562   8 O     -0.650  1.770  4.880  0.000    27.375     7.015
 563   1 H      0.175  0.825  0.000  0.000     1.242     1.746
 564   1 H      0.052  0.948  0.000  0.000     2.291     2.367
 565   1 H      0.061  0.939  0.000  0.000     2.189     2.313
 566   1 H      0.045  0.955  0.000  0.000     2.378     2.412
 567   1 H      0.066  0.934  0.000  0.000     2.133     2.284
 568   1 H      0.039  0.961  0.000  0.000     2.458     2.452
 569   7 N     -0.403  1.296  4.108  0.000    30.467     8.198
 570   6 C      0.022  1.040  2.938  0.000    20.202     6.400
 571   6 C      0.253  1.054  2.693  0.000    22.753     7.812
 572   8 O     -0.539  1.766  4.773  0.000    24.662     6.658
 573   6 C      0.116  1.018  2.866  0.000    18.769     6.182
 574   8 O     -0.503  1.682  4.821  0.000    22.962     6.469
 575   6 C     -0.143  0.985  3.158  0.000    23.279     6.874
 576   1 H      0.175  0.825  0.000  0.000     1.243     1.746
 577   1 H      0.051  0.949  0.000  0.000     2.310     2.377
 578   1 H      0.045  0.955  0.000  0.000     2.382     2.413
 579   1 H      0.316  0.684  0.000  0.000     0.674     1.290
 580   1 H      0.058  0.942  0.000  0.000     2.226     2.333
 581   1 H      0.061  0.939  0.000  0.000     2.190     2.314
 582   1 H      0.059  0.941  0.000  0.000     2.214     2.327
 583   7 N     -0.147  1.217  3.930  0.000    24.179     7.303
 584   6 C      0.028  1.024  2.948  0.000    20.096     6.379
 585   6 C      0.211  1.074  2.714  0.000    23.526     7.945
 586   8 O     -0.361  1.756  4.605  0.000    20.919     6.132
 587   6 C     -0.092  1.007  3.085  0.000    22.220     6.705
 588   6 C     -0.048  1.047  3.001  0.000    29.013     8.822
 589   6 C     -0.024  1.040  2.984  0.000    28.374     8.718
 590   6 C     -0.016  1.055  2.961  0.000    27.724     8.566
 591   7 N     -0.099  1.196  3.903  0.000    23.178     7.150
 592   6 C      0.032  1.054  2.913  0.000    26.681     8.412
 593   6 C     -0.048  1.052  2.995  0.000    29.184     8.860
 594   6 C     -0.065  1.042  3.024  0.000    29.629     8.927
 595   6 C     -0.061  1.055  3.006  0.000    29.517     8.911
 596   6 C     -0.052  1.052  3.000  0.000    29.292     8.877
 597   1 H      0.236  0.764  0.000  0.000     0.939     1.518
 598   1 H      0.108  0.892  0.000  0.000     1.710     2.045
 599   1 H      0.096  0.904  0.000  0.000     1.818     2.108
 600   1 H      0.071  0.929  0.000  0.000     2.073     2.251
 601   1 H      0.055  0.945  0.000  0.000     2.258     2.350
 602   1 H      0.193  0.807  0.000  0.000     1.140     1.673
 603   1 H      0.042  0.958  0.000  0.000     2.417     2.431
 604   1 H      0.047  0.953  0.000  0.000     2.351     2.397
 605   1 H      0.041  0.959  0.000  0.000     2.431     2.438
 606   1 H      0.040  0.960  0.000  0.000     2.445     2.445
 607   7 N     -0.425  1.289  4.136  0.000    31.087     8.281
 608   6 C      0.033  1.031  2.937  0.000    20.004     6.364
 609   6 C      0.213  1.080  2.707  0.000    23.501     7.940
 610   8 O     -0.387  1.744  4.643  0.000    21.424     6.206
 611   6 C     -0.011  1.020  2.991  0.000    20.730     6.474
 612   6 C     -0.137  0.985  3.152  0.000    23.153     6.853
 613   6 C     -0.136  0.983  3.153  0.000    23.127     6.848
 614   1 H      0.192  0.808  0.000  0.000     1.146     1.676
 615   1 H      0.059  0.941  0.000  0.000     2.212     2.325
 616   1 H      0.050  0.950  0.000  0.000     2.319     2.381
 617   1 H      0.056  0.944  0.000  0.000     2.244     2.343
 618   1 H      0.043  0.957  0.000  0.000     2.405     2.425
 619   1 H      0.051  0.949  0.000  0.000     2.312     2.378
 620   1 H      0.048  0.952  0.000  0.000     2.344     2.394
 621   1 H      0.056  0.944  0.000  0.000     2.251     2.346
 622   1 H      0.055  0.945  0.000  0.000     2.256     2.348
 623   7 N     -0.414  1.279  4.135  0.000    30.778     8.240
 624   6 C      0.032  1.034  2.934  0.000    20.042     6.374
 625   6 C      0.193  1.100  2.708  0.000    23.886     8.004
 626   8 O     -0.386  1.774  4.612  0.000    21.406     6.203
 627   6 C     -0.073  1.005  3.068  0.000    21.831     6.643
 628   6 C     -0.010  1.012  2.998  0.000    20.745     6.482
 629  16 S     -0.219  1.915  4.266  0.037   150.395    20.641
 630   6 C     -0.084  1.008  3.076  0.000    22.160     6.713
 631   1 H      0.190  0.810  0.000  0.000     1.158     1.686
 632   1 H      0.074  0.926  0.000  0.000     2.040     2.234
 633   1 H      0.070  0.930  0.000  0.000     2.080     2.255
 634   1 H      0.057  0.943  0.000  0.000     2.232     2.336
 635   1 H      0.055  0.945  0.000  0.000     2.260     2.351
 636   1 H      0.052  0.948  0.000  0.000     2.289     2.366
 637   1 H      0.067  0.933  0.000  0.000     2.120     2.277
 638   1 H      0.066  0.934  0.000  0.000     2.126     2.280
 639   1 H      0.059  0.941  0.000  0.000     2.207     2.323
 640   1 H      0.058  0.942  0.000  0.000     2.224     2.332
 641   1 H      0.176  0.824  0.000  0.000     1.235     1.741
 642   1 H      0.073  0.927  0.000  0.000     2.052     2.240
 643   1 H      0.173  0.827  0.000  0.000     1.252     1.753
 644   1 H      0.053  0.947  0.000  0.000     2.276     2.359
 645   1 H      0.176  0.824  0.000  0.000     1.238     1.743
 646   1 H      0.053  0.947  0.000  0.000     2.286     2.364
 647   1 H      0.199  0.801  0.000  0.000     1.108     1.648
 648   1 H      0.068  0.932  0.000  0.000     2.102     2.267
 649   1 H      0.173  0.827  0.000  0.000     1.253     1.753
 650   1 H      0.070  0.930  0.000  0.000     2.089     2.260
 651   1 H      0.183  0.817  0.000  0.000     1.199     1.715
 652   1 H      0.074  0.926  0.000  0.000     2.040     2.233
 653   1 H      0.173  0.827  0.000  0.000     1.253     1.753
 654   1 H      0.066  0.934  0.000  0.000     2.134     2.284
 655   1 H      0.184  0.816  0.000  0.000     1.193     1.711
 656   1 H      0.064  0.936  0.000  0.000     2.146     2.291
 657   1 H      0.174  0.826  0.000  0.000     1.248     1.750
 658   1 H      0.058  0.942  0.000  0.000     2.220     2.330
 659   1 H      0.184  0.816  0.000  0.000     1.193     1.711
 660   1 H      0.085  0.915  0.000  0.000     1.931     2.173

 Mol. C6AA /au·bohr⁶  :    3881173.631657
 Mol. C8AA /au·bohr⁸  :   87260652.594650
 Mol. α(0) /au        :       2945.082487

 
molecular dipole:
                 x           y           z       tot (Debye)
 q only:       28.860     -58.333      16.195
   full:       31.188     -59.984      16.964     177.172
molecular quadrupole (traceless):
                xx          xy          yy          xz          yz          zz
 q only:     7000.531   -6629.331  -21255.529   19388.913  -30898.751   14254.998
  q+dip:     7415.854   -6557.966  -22126.798   20896.825  -31776.266   14710.944
   full:     7416.020   -6557.295  -22126.560   20895.643  -31776.769   14710.541
speedup  1.98
cpu  time for grad   37.84 s
wall time for grad   19.09 s

SCC energy    :    -994.4973013
rep           :      18.8298916
ES            :       3.3731715
AES           :      -0.1128133
AXC           :       0.2075180
disp          :      -0.8687798
XB            :       0.0000000
fix           :       0.0000000
Gborn         :       0.0000000
Gsasa         :       0.0000000
Ghb           :       0.0000000
Gshift        :       0.0000000
Gsolv         :      -0.9626265     -604.06
Etot ala COSMO:    -994.4973013
grad norm     :       2.2533151
total E       :    -975.5709372
atomizationE  :     177.9572524   111669.86
(atE without considering molecular charge,
 total energy contains solvation terms)
H-L gap (eV)  :          1.2826

------------------------------------------------------------------------
 * finished run on 2019/05/12 at 13:11:35.274     
------------------------------------------------------------------------
 total:
 * wall-time:     0 d,  0 h,  0 min, 20.495 sec
 *  cpu-time:     0 d,  0 h,  0 min, 40.204 sec
 * ratio c/w:     1.962 speedup
 SCF:
 * wall-time:     0 d,  0 h,  0 min, 19.941 sec
 *  cpu-time:     0 d,  0 h,  0 min, 39.465 sec
 * ratio c/w:     1.979 speedup

