      -----------------------------------------------------------      
     |                   =====================                   |     
     |                           x T B                           |     
     |                   =====================                   |     
     |                         S. Grimme                         |     
     |          Mulliken Center for Theoretical Chemistry        |     
     |                    University of Bonn                     |     
     |                 Version 6.0.1 (SAW181210)                 |     
      -----------------------------------------------------------      

   This program is distributed in the hope that it will be useful,
   but WITHOUT ANY WARRANTY; without even the implied warranty of
   MERCHANTABILITY or FITNESS FOR A PARTICULAR PURPOSE.
   
   FOR NON-COMMERCIAL, ACADEMIA USE ONLY.
   
   Cite this work as:
   S. Grimme, C. Bannwarth, P. Shushkov, J. Comput. Theory Chem., 2017,
   13, 1989-2009.
   C. Bannwarth, S. Ehlert and S. Grimme., ChemRxiv, 2018, preprint.
   http://doi.org/10.26434/chemrxiv.7246238.v1
   
   for sTDA-xTB:
   S. Grimme and C. Bannwarth, J. Chem. Phys., 2016, 145, 054103.
   
   in the mass-spec context:
   V. Asgeirsson, C. Bauer and S. Grimme, Chem. Sci., 2017, 8, 4879.
   
   if GBSA is used:
   P. Shushkov, F. März and S. Grimme, unpublished.
   
   for ANC optimizer:
   S. Grimme, unpublished.
   Rational Function algorithm used in ANCopt:
   F. Eckert, P. Pulay, H.-J. Werner, J. Comput. Chem., 1997, 18, 1473.
   
   with help from (in alphabetical order)
   C. Bannwarth, F. Bohle, G. Brandenburg, E. Caldeweyher, M. Checinski,
   S. Dohm, S. Ehlert, S. Ehrlich, F. März, H. Neugebauer, J. Pisarek,
   P. Pracht, P. Shushkov, and S. Spicher.
   
 * started run on 2019/05/10 at 00:41:57.943     
========================================================================
 # omp threads = 2
========================================================================
number of atoms            : 716
number of electrons        : 1892
charge                     : -2
spin                       : .0
first test random number   : .2146

########################################################################
# WARNING! Please study the warnings concerning your input carefully
#  - Process number higher than OMP_NUM_THREADS, I hope you know what you are doing.
########################################################################

           ------------------------------------------------- 
          |                 G F N 2 - x T B                 |
          | Geometry, Frequencies, Noncovalent interactions |
          |            JCTC 2018 parametrisation            |
           ------------------------------------------------- 
 
      method parameters     
 k(s)        :  1.8500
 k(p)        :  2.2300
 k(d)        :  2.2300
 k(f)        :  2.0000
 kEN (H0ij)  : -2.0000
 D4 a1       :  0.5200
 D4 a2       :  5.0000
 D4 s6       :  1.0000
 D4 s8       :  2.7000
 D4 s9       :  5.0000
 alphaj      :  2.0000

 Solvent             : h2o
 Using internal parameter file: .param_gbsa2_h2o
 Gsolv ref. state (COSMO-RS): gsolv [1 M gas/solution]
 temperature (mdtemp)       :    298.150000000000     
 dielectric constant        :    80.2000000000000     
 rho                        :    1.00000000000000     
 mass                       :    18.0000000000000     
 surface tension            :    15.5689454083859     
 probe radius               :   0.975313790000000     
 vdW radii scaling          :    1.00000000000000     
 Gshift (Eh)                :   1.857443126794793E-003
 c1                         :    1.55243817000000     
 soset                      :   0.130326360000000     
 HB correction              :  T

            Z     q(EN)     CN     RAES       Cart. coordinates
     1  N   5.0   -0.22    3.21    1.96     4.68381   179.87777    -2.15625
     2  C   4.0    0.02    4.23    4.07     3.19640   177.68452    -1.45362
     3  C   4.0    0.14    3.41    3.08     4.79778   175.74005    -0.00406
     4  O   6.0   -0.33    1.33    1.80     4.38695   175.15375     2.18207
     5  C   4.0   -0.09    4.11    3.82     2.06724   176.50918    -3.86058
     6  H   1.0    0.07    1.02    1.43     5.63365   179.78421    -3.83210
     7  H   1.0    0.04    1.05    1.44     1.70354   178.31967    -0.17421
     8  H   1.0    0.03    0.99    1.43     1.11292   174.73310    -3.38272
     9  H   1.0    0.03    1.00    1.43     0.68396   177.77599    -4.66552
    10  H   1.0    0.03    1.00    1.43     3.51755   176.11586    -5.25302
    11  N   5.0   -0.15    3.53    2.10     6.68953   174.78623    -1.29787
    12  C   4.0    0.03    4.37    4.33     8.63836   173.13040    -0.30324
    13  C   4.0    0.16    3.46    3.10     9.43441   174.04925     2.35640
    14  O   6.0   -0.30    1.31    1.80     9.44195   172.61368     4.16373
    15  C   4.0   -0.06    4.29    4.18    10.80798   173.08072    -2.28143
    16  C   4.0   -0.03    4.13    3.86    10.51645   171.12756    -4.48182
    17  C   4.0   -0.08    4.09    3.78     7.81477   170.83023    -5.50586
    18  C   4.0   -0.09    4.10    3.80    12.29471   171.88551    -6.63926
    19  H   1.0    0.06    1.08    1.44     6.99305   175.37279    -3.12177
    20  H   1.0    0.05    1.05    1.44     7.89985   171.20824    -0.02708
    21  H   1.0    0.03    1.03    1.43    10.95752   174.95408    -3.10870
    22  H   1.0    0.04    1.03    1.43    12.57199   172.64582    -1.31850
    23  H   1.0    0.03    1.05    1.44    11.06991   169.27632    -3.74183
    24  H   1.0    0.03    1.00    1.43     7.81434   169.35347    -6.92321
    25  H   1.0    0.04    1.00    1.43     6.48795   170.29311    -4.03242
    26  H   1.0    0.03    1.00    1.43     7.17200   172.57134    -6.40012
    27  H   1.0    0.03    1.00    1.43    12.27324   170.47382    -8.11851
    28  H   1.0    0.03    1.00    1.43    11.68701   173.66940    -7.45541
    29  H   1.0    0.03    1.00    1.43    14.21287   172.09066    -5.94860
    30  N   5.0   -0.14    3.48    2.07    10.04339   176.48897     2.49145
    31  C   4.0    0.03    4.34    4.27    10.22567   178.00888     4.78518
    32  C   4.0    0.16    3.44    3.09     9.13749   176.52381     7.07172
    33  O   6.0   -0.30    1.20    1.80    10.40469   175.95667     8.93316
    34  C   4.0   -0.05    4.25    4.11     8.82740   180.54887     4.26251
    35  C   4.0   -0.06    4.14    3.89     9.71318   182.83695     5.79106
    36  C   4.0   -0.06    4.15    3.89    11.91726   184.19609     4.45109
    37  C   4.0   -0.05    4.10    3.80    12.73419   186.55562     5.92214
    38  N   5.0   -0.13    3.99    2.84    14.81120   188.00952     4.61387
    39  H   1.0    0.07    1.08    1.44    10.08891   177.50431     0.86505
    40  H   1.0    0.04    1.04    1.43    12.24450   178.35360     5.20636
    41  H   1.0    0.04    1.04    1.43     9.14776   180.98505     2.27120
    42  H   1.0    0.04    1.04    1.43     6.83501   180.27420     4.52426
    43  H   1.0    0.03    1.04    1.43     8.15462   184.11746     6.00004
    44  H   1.0    0.04    1.02    1.43    10.31538   182.21846     7.68370
    45  H   1.0    0.03    1.02    1.43    13.51431   182.88290     4.28401
    46  H   1.0    0.03    1.03    1.43    11.30870   184.71112     2.57126
    47  H   1.0    0.03    1.03    1.43    11.13164   187.78452     6.20230
    48  H   1.0    0.03    1.01    1.43    13.42822   185.96341     7.80545
    49  H   1.0    0.04    1.02    1.43    15.34983   189.49280     5.72428
    50  H   1.0    0.04    1.02    1.43    16.34370   186.81509     4.35531
    51  H   1.0    0.04    1.03    1.43    14.17794   188.61914     2.91004
    52  N   5.0   -0.14    3.59    2.15     6.69353   176.07744     6.83592
    53  C   4.0    0.04    4.45    4.46     5.09358   174.97106     8.76641
    54  C   4.0    0.15    3.59    3.16     4.59718   172.12266     8.53201
    55  O   6.0   -0.32    1.39    1.80     4.16412   170.90086    10.42162
    56  C   4.0   -0.02    4.29    4.19     2.49797   176.33403     8.80770
    57  C   4.0   -0.04    4.20    4.00     0.42712   174.86020     7.33412
    58  C   4.0   -0.08    4.11    3.83     2.82967   179.10741     7.77976
    59  C   4.0   -0.07    4.02    3.66    -1.03135   172.93906     8.88117
    60  H   1.0    0.11    1.12    1.45     5.82443   176.26399     5.13162
    61  H   1.0    0.06    1.06    1.44     6.04141   175.25547    10.58022
    62  H   1.0    0.05    1.06    1.44     1.89228   176.41917    10.76896
    63  H   1.0    0.03    1.02    1.43    -0.94854   176.28725     6.66480
    64  H   1.0    0.05    1.04    1.43     1.22758   174.02386     5.63222
    65  H   1.0    0.03    1.00    1.43     1.14288   180.15574     8.29987
    66  H   1.0    0.04    1.01    1.43     4.44774   179.96071     8.63621
    67  H   1.0    0.04    1.00    1.43     2.95810   179.09805     5.74449
    68  H   1.0    0.03    1.00    1.43    -2.36556   171.95200     7.64620
    69  H   1.0    0.06    1.02    1.43     0.17836   171.54585     9.75010
    70  H   1.0    0.05    1.00    1.43    -2.10222   173.85699    10.36261
    71  N   5.0   -0.15    3.49    2.07     4.58263   171.10455     6.18153
    72  C   4.0    0.04    4.44    4.44     4.32673   168.41083     6.07620
    73  C   4.0    0.16    3.47    3.10     6.41564   167.19208     7.68775
    74  O   6.0   -0.30    1.21    1.80     6.04861   165.08482     8.61749
    75  C   4.0   -0.05    4.26    4.12     4.05780   167.09983     3.47684
    76  C   4.0   -0.02    4.18    3.96     2.23819   164.76985     3.67914
    77  C   4.0   -0.09    4.12    3.85    -0.43326   165.53729     3.02071
    78  C   4.0   -0.08    4.11    3.83     2.96134   162.56857     2.03014
    79  H   1.0    0.11    1.07    1.44     5.07147   172.14551     4.63387
    80  H   1.0    0.05    1.08    1.44     2.59346   167.98465     7.14962
    81  H   1.0    0.04    1.03    1.43     3.29354   168.46113     2.14462
    82  H   1.0    0.05    1.06    1.44     5.90856   166.48580     2.83901
    83  H   1.0    0.05    1.06    1.44     2.33507   164.10856     5.64399
    84  H   1.0    0.03    1.01    1.43    -1.75006   164.03267     3.33993
    85  H   1.0    0.03    0.99    1.43    -1.02934   167.17176     4.19449
    86  H   1.0    0.03    1.01    1.43    -0.51529   166.13276     1.06850
    87  H   1.0    0.03    1.01    1.43     1.48221   161.16846     2.02328
    88  H   1.0    0.03    1.00    1.43     3.38071   163.14070     0.10968
    89  H   1.0    0.05    0.99    1.43     4.66182   161.63411     2.79684
    90  N   5.0   -0.14    3.49    2.07     8.53199   168.58315     8.14212
    91  C   4.0    0.04    4.42    4.42    10.52317   167.66354     9.77720
    92  C   4.0    0.16    3.48    3.11    10.04689   168.01379    12.63319
    93  O   6.0   -0.31    1.35    1.80    11.36101   166.99334    14.22940
    94  C   4.0   -0.03    4.32    4.24    13.08389   168.84784     9.20337
    95  C   4.0    0.17    3.30    3.05    15.06771   167.38581    10.70242
    96  O   6.0   -0.29    1.23    1.80    15.17675   165.10945    10.68316
    97  N   5.0   -0.18    3.19    1.95    16.63749   168.80987    12.08872
    98  H   1.0    0.11    1.09    1.44     8.89739   170.12157     7.06417
    99  H   1.0    0.07    1.06    1.44    10.69502   165.59335     9.51100
   100  H   1.0    0.05    1.03    1.43    13.50453   168.62990     7.19567
   101  H   1.0    0.05    1.03    1.43    13.06173   170.84618     9.69053
   102  H   1.0    0.10    1.03    1.43    18.10496   167.95404    12.94796
   103  H   1.0    0.08    1.03    1.43    16.62912   170.69947    11.94490
   104  N   5.0   -0.14    3.49    2.07     8.23138   169.60839    13.31774
   105  C   4.0    0.05    4.63    4.70     7.93869   170.06560    15.95258
   106  C   4.0    0.17    3.60    3.16     5.65457   168.77655    17.08767
   107  O   6.0   -0.31    1.38    1.80     3.51032   169.38579    16.53984
   108  C   4.0   -0.03    4.36    4.32     7.69524   172.87513    16.53027
   109  C   4.0    0.15    3.40    3.08     7.51146   172.77484    19.36622
   110  O   6.0   -0.32    1.37    1.80     5.55320   172.21027    20.45601
   111  N   5.0   -0.20    3.20    1.96     9.70485   172.98730    20.59290
   112  H   1.0    0.12    1.13    1.45     6.81543   170.18115    12.10651
   113  H   1.0    0.06    1.11    1.44     9.66148   169.35099    16.83916
   114  H   1.0    0.04    1.02    1.43     9.36168   173.92847    15.86856
   115  H   1.0    0.07    1.04    1.43     6.00956   173.68277    15.66251
   116  H   1.0    0.08    1.02    1.43     9.75021   172.91173    22.51102
   117  H   1.0    0.08    1.03    1.43    11.28509   173.56010    19.70728
   118  N   5.0   -0.14    3.47    2.06     6.22747   167.10802    18.91043
   119  C   4.0    0.03    4.51    4.55     4.22276   165.61949    20.06286
   120  C   4.0    0.16    3.59    3.16     2.05874   167.19729    21.03910
   121  O   6.0   -0.32    1.40    1.80    -0.05985   166.83844    20.23838
   122  C   4.0   -0.03    4.37    4.33     5.04190   163.90390    22.25543
   123  C   4.0   -0.05    4.20    3.99     7.45929   164.82005    23.54951
   124  C   4.0   -0.08    4.09    3.79     5.19525   161.16606    21.34720
   125  C   4.0   -0.08    4.01    3.64     7.64666   163.71977    26.21592
   126  H   1.0    0.07    1.07    1.44     7.97776   166.37117    19.02044
   127  H   1.0    0.05    1.06    1.44     3.36780   164.42195    18.57929
   128  H   1.0    0.04    1.08    1.44     3.53718   163.94214    23.67339
   129  H   1.0    0.04    1.02    1.43     9.10873   164.15874    22.47982
   130  H   1.0    0.04    1.04    1.43     7.47470   166.83340    23.69000
   131  H   1.0    0.05    0.99    1.43     5.85040   159.88108    22.85866
   132  H   1.0    0.04    1.00    1.43     3.39285   160.45569    20.70469
   133  H   1.0    0.04    1.00    1.43     6.54009   160.94421    19.80505
   134  H   1.0    0.04    1.00    1.43     9.33179   164.39506    27.17775
   135  H   1.0    0.04    1.00    1.43     6.00588   164.11372    27.33918
   136  H   1.0    0.04    0.98    1.43     7.86749   161.61934    26.14818
   137  N   5.0   -0.15    3.50    2.08     2.43110   168.66460    23.08634
   138  C   4.0    0.03    4.47    4.49     0.14335   169.77355    24.13595
   139  C   4.0    0.16    3.53    3.13    -1.31060   171.21732    22.06683
   140  O   6.0   -0.31    1.27    1.80    -3.60197   171.28215    21.99077
   141  C   4.0   -0.05    4.27    4.13     0.64498   171.48641    26.36987
   142  C   4.0   -0.06    4.12    3.85     1.35621   170.14721    28.85651
   143  C   4.0   -0.02    4.18    3.95     1.96451   172.27559    30.80034
   144  N   5.0   -0.15    3.32    1.99     2.99222   171.31672    33.21139
   145  C   4.0    0.08    3.31    3.05     4.06283   172.83741    35.01105
   146  N   5.0   -0.20    3.20    1.95     4.12387   175.40948    34.84440
   147  N   5.0   -0.20    3.21    1.96     5.07209   171.66711    37.03444
   148  H   1.0    0.09    1.07    1.44     4.12338   169.39770    23.47272
   149  H   1.0    0.05    1.07    1.44    -1.10475   168.23639    24.69213
   150  H   1.0    0.04    1.02    1.43     2.16534   172.81502    25.83325
   151  H   1.0    0.04    1.03    1.43    -1.04941   172.61718    26.68914
   152  H   1.0    0.04    1.03    1.43    -0.18031   169.02845    29.54124
   153  H   1.0    0.04    1.02    1.43     3.03525   168.98795    28.58679
   154  H   1.0    0.04    1.02    1.43     3.39448   173.54511    29.96840
   155  H   1.0    0.04    1.03    1.43     0.26843   173.34712    31.19121
   156  H   1.0    0.07    1.07    1.44     3.01589   169.46607    33.48872
   157  H   1.0    0.07    1.03    1.43     3.29986   176.26699    33.37017
   158  H   1.0    0.08    1.04    1.43     4.99958   176.37257    36.17152
   159  H   1.0    0.07    1.03    1.43     5.22260   169.76901    37.10601
   160  H   1.0    0.07    1.03    1.43     5.98019   172.67591    38.36440
   161  N   5.0   -0.14    3.54    2.11     0.14831   172.50050    20.44963
   162  C   4.0    0.03    4.45    4.46    -1.04252   174.10262    18.53116
   163  C   4.0    0.17    3.53    3.13    -2.77108   172.41248    16.94190
   164  O   6.0   -0.32    1.32    1.80    -4.86490   172.97403    16.17959
   165  C   4.0    0.05    4.16    3.92     0.82791   175.70689    16.86969
   166  O   6.0   -0.26    2.12    1.84     2.19714   174.28667    15.09002
   167  C   4.0   -0.08    4.05    3.70     2.55884   177.37382    18.51882
   168  H   1.0    0.11    1.10    1.44     2.08842   172.39236    20.46026
   169  H   1.0    0.05    1.05    1.44    -2.26575   175.46936    19.52310
   170  H   1.0    0.04    1.05    1.44    -0.40340   176.95793    15.78431
   171  H   1.0    0.15    1.06    1.44     2.40529   172.53578    15.61753
   172  H   1.0    0.04    1.01    1.43     3.75847   178.46896    17.29841
   173  H   1.0    0.03    1.00    1.43     1.42861   178.60443    19.69607
   174  H   1.0    0.06    1.00    1.43     3.73661   176.18554    19.73687
   175  N   5.0   -0.13    3.62    2.18    -1.72397   170.19767    16.49817
   176  C   4.0    0.04    4.46    4.48    -3.13081   168.42327    15.02897
   177  C   4.0    0.15    3.45    3.09    -5.54496   167.73927    16.51843
   178  O   6.0   -0.32    1.48    1.80    -7.56322   168.49458    15.61277
   179  C   4.0   -0.05    4.25    4.11    -1.31089   166.29080    14.10173
   180  C   4.0   -0.03    4.11    3.83    -2.23793   164.74424    11.75319
   181  C   4.0   -0.08    4.09    3.78    -4.53523   165.93111    10.33983
   182  C   4.0   -0.07    4.11    3.82    -0.07449   164.36403     9.90072
   183  H   1.0    0.12    1.12    1.45     0.02422   169.66928    17.09548
   184  H   1.0    0.05    1.08    1.44    -3.85623   169.42571    13.36906
   185  H   1.0    0.06    1.05    1.44     0.40589   167.23125    13.57417
   186  H   1.0    0.05    1.02    1.43    -0.94127   165.01012    15.65507
   187  H   1.0    0.03    1.04    1.43    -2.88460   162.87815    12.43266
   188  H   1.0    0.03    1.00    1.43    -5.11037   164.66210     8.84678
   189  H   1.0    0.05    0.99    1.43    -6.15102   166.19286    11.60849
   190  H   1.0    0.04    1.00    1.43    -4.01111   167.72876     9.53823
   191  H   1.0    0.03    1.00    1.43    -0.70750   163.25887     8.30014
   192  H   1.0    0.05    1.01    1.43     0.56439   166.19957     9.27617
   193  H   1.0    0.05    1.00    1.43     1.49481   163.39034    10.78995
   194  N   5.0   -0.14    3.46    2.05    -5.27403   166.48511    18.72030
   195  C   4.0    0.03    4.41    4.40    -7.23824   165.49530    20.36840
   196  C   4.0    0.15    3.47    3.10    -9.53243   167.17565    20.46991
   197  O   6.0   -0.30    1.20    1.80   -11.57871   166.20697    20.99625
   198  C   4.0   -0.04    4.38    4.34    -6.42999   165.42399    23.12428
   199  C   4.0   -0.05    4.19    3.98    -4.29528   163.60049    23.68981
   200  C   4.0   -0.01    4.20    3.99    -3.76411   163.78376    26.52108
   201  N   5.0   -0.15    3.40    2.02    -1.62472   162.21030    27.19644
   202  C   4.0    0.09    3.31    3.06    -1.41132   160.26984    28.82399
   203  N   5.0   -0.19    3.18    1.95    -3.27715   159.56823    30.62209
   204  N   5.0   -0.17    3.27    1.97     0.75993   159.32626    29.07193
   205  H   1.0    0.10    1.10    1.44    -3.45452   166.12392    19.26752
   206  H   1.0    0.04    1.05    1.44    -7.79117   163.61533    19.72941
   207  H   1.0    0.06    1.03    1.43    -5.86733   167.33641    23.68020
   208  H   1.0    0.05    1.04    1.44    -8.08929   164.88191    24.20673
   209  H   1.0    0.04    1.02    1.43    -4.83885   161.66646    23.19857
   210  H   1.0    0.05    1.03    1.43    -2.60351   164.08709    22.63780
   211  H   1.0    0.04    1.03    1.43    -3.35129   165.70633    27.07488
   212  H   1.0    0.04    1.02    1.43    -5.43454   163.13653    27.57518
   213  H   1.0    0.07    1.10    1.44    -0.17234   162.37555    26.01222
   214  H   1.0    0.08    1.02    1.43    -5.07363   159.99851    30.06515
   215  H   1.0    0.09    1.05    1.44    -2.98871   157.96362    31.38023
   216  H   1.0    0.08    1.02    1.43     2.15848   159.63436    27.68428
   217  H   1.0    0.11    1.04    1.43     1.22340   157.59583    29.95990
   218  N   5.0   -0.13    3.55    2.11    -8.98505   169.70413    20.20842
   219  C   4.0    0.04    4.31    4.22   -10.67968   171.89192    20.14364
   220  C   4.0    0.16    3.60    3.16   -11.85952   172.17574    17.54218
   221  O   6.0   -0.28    1.34    1.80   -14.09895   172.10018    17.11637
   222  C   4.0   -0.07    4.16    3.91    -9.20068   174.22915    20.78741
   223  H   1.0    0.11    1.12    1.45    -7.14963   170.13193    20.10989
   224  H   1.0    0.06    1.04    1.43   -12.22005   171.54731    21.53176
   225  H   1.0    0.05    1.01    1.43   -10.40618   175.87678    20.59680
   226  H   1.0    0.05    1.00    1.43    -8.47673   174.13408    22.71268
   227  H   1.0    0.06    1.01    1.43    -7.61045   174.43375    19.50152
   228  N   5.0   -0.13    3.71    2.28   -10.20136   172.39067    15.76270
   229  C   4.0    0.06    4.60    4.66   -11.15391   172.30981    13.24529
   230  C   4.0    0.17    3.58    3.15   -12.71642   170.00553    12.89457
   231  O   6.0   -0.29    1.27    1.80   -14.41251   169.87926    11.34789
   232  C   4.0   -0.04    4.21    4.02    -9.05366   172.76563    11.26250
   233  C   4.0   -0.04    4.18    3.96    -9.64630   175.20729     9.77993
   234  C   4.0    0.14    3.21    3.04   -10.42218   177.52516    11.35921
   235  O   6.0   -0.29    1.23    1.80   -12.21687   177.52138    12.88984
   236  N   5.0   -0.19    3.17    1.95    -9.13549   179.68788    10.96609
   237  H   1.0    0.12    1.12    1.45    -8.29042   172.42871    16.02450
   238  H   1.0    0.09    1.11    1.45   -12.55705   173.87266    13.06038
   239  H   1.0    0.06    1.04    1.43    -7.28738   173.01294    12.25200
   240  H   1.0    0.04    1.03    1.43    -8.93026   171.22515     9.94236
   241  H   1.0    0.03    1.03    1.43    -8.07640   175.72298     8.58126
   242  H   1.0    0.05    1.02    1.43   -11.30517   174.84817     8.56893
   243  H   1.0    0.07    1.02    1.43    -7.79751   179.78192     9.58142
   244  H   1.0    0.09    1.04    1.43    -9.71112   181.24425    11.80284
   245  N   5.0   -0.13    3.66    2.22   -12.24420   168.12242    14.40898
   246  C   4.0    0.04    4.30    4.20   -13.41614   165.69501    13.93877
   247  C   4.0    0.10    3.25    3.04   -16.01173   165.61852    15.09265
   248  O   6.0   -0.28    1.12    1.80   -17.69772   164.27204    14.25705
   249  C   4.0   -0.07    4.12    3.85   -11.82911   163.60166    15.14702
   250  H   1.0    0.12    1.19    1.46   -10.58435   168.06704    15.38628
   251  H   1.0    0.06    1.06    1.44   -13.60495   165.39138    11.89867
   252  H   1.0    0.05    1.00    1.43   -12.58437   161.75937    14.62618
   253  H   1.0    0.04    1.00    1.43    -9.89523   163.72364    14.45556
   254  H   1.0    0.06    1.01    1.43   -11.85856   163.79966    17.18477
   255  N   5.0   -0.22    3.21    1.96   -13.21607   152.37654    -4.49830
   256  C   4.0    0.03    4.27    4.15   -11.19566   153.95406    -5.50842
   257  C   4.0    0.14    3.55    3.14    -8.48301   153.33293    -4.38663
   258  O   6.0   -0.30    1.31    1.80    -6.45268   153.67270    -5.70544
   259  C   4.0   -0.05    4.27    4.13   -11.89440   156.71332    -5.03986
   260  C   4.0   -0.04    4.06    3.73   -11.13116   157.48840    -2.33452
   261  S   6.0   -0.04    2.47    3.10    -7.61932   158.39344    -1.95197
   262  C   4.0   -0.07    3.91    3.48    -8.10361   161.56376    -3.38016
   263  H   1.0    0.07    1.03    1.43   -14.26635   153.21167    -3.14811
   264  H   1.0    0.05    1.05    1.44   -11.04433   153.57757    -7.52606
   265  H   1.0    0.06    1.03    1.43   -10.87777   157.90808    -6.39025
   266  H   1.0    0.03    1.03    1.43   -13.90482   156.95489    -5.29384
   267  H   1.0    0.03    1.05    1.44   -12.23048   159.11638    -1.70690
   268  H   1.0    0.04    1.06    1.44   -11.39641   155.94088    -1.02421
   269  H   1.0    0.04    1.06    1.44    -6.49403   162.62209    -2.83676
   270  H   1.0    0.07    1.06    1.44    -8.28779   161.29113    -5.39215
   271  H   1.0    0.04    1.02    1.43    -9.84426   162.39594    -2.62082
   272  N   5.0   -0.15    3.54    2.11    -8.31271   152.35702    -2.20371
   273  C   4.0    0.04    4.41    4.40    -6.11240   151.15263    -1.38780
   274  C   4.0    0.09    3.40    3.08    -5.21097   149.17117    -3.20912
   275  O   6.0   -0.33    1.33    1.80    -3.12008   149.14540    -3.92017
   276  C   4.0   -0.06    4.36    4.31    -6.67961   149.77355     1.09284
   277  C   4.0   -0.03    4.14    3.89    -5.35183   147.24164     1.61440
   278  C   4.0   -0.08    4.01    3.64    -2.30864   147.23121     1.39518
   279  C   4.0   -0.08    4.07    3.74    -6.24919   146.39737     4.29531
   280  H   1.0    0.06    1.06    1.44    -9.96044   152.09395    -1.08955
   281  H   1.0    0.05    1.06    1.44    -4.60386   152.54135    -1.13911
   282  H   1.0    0.03    1.00    1.43    -6.29873   151.06469     2.73517
   283  H   1.0    0.03    1.04    1.44    -8.68494   149.32576     1.17831
   284  H   1.0    0.04    1.07    1.44    -6.00497   145.83822     0.31823
   285  H   1.0    0.04    1.00    1.43    -1.68137   145.32369     1.71801
   286  H   1.0    0.06    1.03    1.43    -1.73433   147.90729    -0.36306
   287  H   1.0    0.03    0.99    1.43    -1.53308   148.40986     2.92637
   288  H   1.0    0.04    0.99    1.43    -5.39539   144.58789     4.79248
   289  H   1.0    0.03    0.99    1.43    -5.67062   147.76021     5.73217
   290  H   1.0    0.03    1.00    1.43    -8.26875   146.16935     4.32949
   291  N   5.0   -0.19    3.30    1.98    -1.89701   151.77082    -7.82189
   292  C   4.0    0.03    4.53    4.58     0.57954   152.44697    -7.01366
   293  C   4.0    0.18    3.54    3.13     2.50981   150.31920    -7.25004
   294  O   6.0   -0.34    1.37    1.80     4.28013   150.42165    -8.09738
   295  C   4.0   -0.04    4.47    4.50     0.48759   153.32103    -4.30927
   296  C   4.0   -0.03    4.24    4.07     3.09162   154.25246    -3.65906
   297  C   4.0   -0.08    4.14    3.89     4.21004   155.95516    -5.72406
   298  C   4.0   -0.09    4.05    3.71     2.88900   155.63805    -0.99784
   299  H   1.0    0.13    1.07    1.44    -3.41868   152.43668    -6.86879
   300  H   1.0    0.04    1.08    1.44     1.27586   153.96680    -8.25676
   301  H   1.0    0.04    1.03    1.43    -0.83729   154.91889    -4.11948
   302  H   1.0    0.06    1.06    1.44    -0.04518   151.82039    -3.05610
   303  H   1.0    0.04    1.04    1.43     4.41682   152.63493    -3.41579
   304  H   1.0    0.04    0.99    1.43     5.77801   157.07148    -4.95236
   305  H   1.0    0.05    1.01    1.43     4.89270   154.89492    -7.29055
   306  H   1.0    0.04    1.01    1.43     2.77102   157.28987    -6.31163
   307  H   1.0    0.04    0.98    1.43     4.78893   156.33532    -0.42217
   308  H   1.0    0.04    1.01    1.43     1.63011   157.15790    -1.15142
   309  H   1.0    0.03    1.00    1.43     2.28309   154.26891     0.37327
   310  N   5.0   -0.16    3.66    2.22     1.62001   148.45798    -5.56384
   311  C   4.0    0.04    4.35    4.30     3.12132   146.27363    -5.40010
   312  C   4.0    0.13    3.29    3.05     4.11227   145.49568    -8.05870
   313  O   6.0   -0.29    1.21    1.80     6.04349   145.22007    -8.61971
   314  C   4.0   -0.05    4.20    4.00     1.70889   144.40514    -3.67264
   315  C   4.0   -0.03    4.07    3.75     2.67935   141.68296    -3.70585
   316  C   4.0    0.25    3.06    3.02     5.61209   141.21277    -4.48067
   317  O   6.0   -0.28    1.16    1.80     6.10871   140.53857    -6.69168
   318  O   6.0   -0.32    1.26    1.80     7.13700   141.51215    -2.72207
   319  H   1.0    0.12    1.16    1.46    -0.10555   148.40866    -5.06974
   320  H   1.0    0.05    1.04    1.43     4.94763   146.69196    -4.38026
   321  H   1.0    0.04    1.04    1.43     1.82551   145.08214    -1.77253
   322  H   1.0    0.04    1.03    1.43    -0.27208   144.38222    -4.29133
   323  H   1.0    0.05    1.02    1.43     2.35251   140.73237    -1.92359
   324  H   1.0    0.05    1.00    1.43     1.60369   140.59579    -5.20156
   325  N   5.0   -0.19    3.27    1.97     9.64315   149.53084   -10.53967
   326  C   4.0    0.04    4.43    4.43    11.61351   148.56043    -9.05297
   327  C   4.0    0.11    3.25    3.04    12.49551   146.09129   -10.33849
   328  O   6.0   -0.30    1.19    1.80    14.25574   146.31721   -11.47901
   329  C   4.0   -0.02    4.30    4.20    10.75451   148.14270    -6.38772
   330  C   4.0   -0.06    4.14    3.88    12.82915   146.92574    -4.89648
   331  C   4.0   -0.07    4.11    3.83     9.58184   150.51739    -5.24812
   332  H   1.0    0.11    1.02    1.43     7.81031   149.27960    -9.68602
   333  H   1.0    0.05    1.07    1.44    13.18847   149.89101    -9.09352
   334  H   1.0    0.07    1.05    1.44     9.17413   146.70633    -6.43012
   335  H   1.0    0.06    0.99    1.43    12.36425   146.74092    -2.87631
   336  H   1.0    0.06    1.01    1.43    13.27589   145.07900    -5.60108
   337  H   1.0    0.05    1.00    1.43    14.54314   148.08425    -4.97097
   338  H   1.0    0.04    0.99    1.43     9.06052   150.17875    -3.26456
   339  H   1.0    0.04    1.00    1.43    10.97189   152.02741    -5.23520
   340  H   1.0    0.06    1.01    1.43     7.92659   151.13267    -6.26769
   341  N   5.0   -0.23    3.17    1.95   -10.21342   172.55181    -2.09890
   342  C   4.0    0.03    4.26    4.12   -10.46986   170.02229    -3.09630
   343  C   4.0    0.06    3.28    3.05   -11.75391   169.86261    -5.59059
   344  O   6.0   -0.32    1.20    1.80   -11.58456   167.90598    -6.79646
   345  C   4.0   -0.05    4.37    4.33   -12.03276   168.22553    -1.42714
   346  C   4.0   -0.03    4.14    3.88   -10.95392   167.49256     1.20119
   347  C   4.0   -0.08    4.10    3.81   -11.95662   164.92003     2.04125
   348  C   4.0   -0.08    4.12    3.84    -8.07811   167.44784     1.24696
   349  H   1.0    0.07    1.02    1.43   -10.71440   172.81256    -0.24809
   350  H   1.0    0.04    1.08    1.44    -8.60781   169.16420    -3.29833
   351  H   1.0    0.04    1.02    1.43   -13.90775   169.05288    -1.09375
   352  H   1.0    0.05    1.05    1.44   -12.28012   166.49190    -2.49602
   353  H   1.0    0.04    1.04    1.43   -11.61723   168.90805     2.58880
   354  H   1.0    0.04    1.00    1.43   -11.53123   164.62331     4.02716
   355  H   1.0    0.04    1.00    1.43   -14.00399   164.83777     1.81554
   356  H   1.0    0.03    1.01    1.43   -11.08527   163.42392     0.96490
   357  H   1.0    0.03    1.00    1.43    -7.43460   166.86570     3.12051
   358  H   1.0    0.03    1.01    1.43    -7.33246   166.16425    -0.12544
   359  H   1.0    0.03    0.99    1.43    -7.29258   169.34779     0.93970
   360  N   5.0   -0.22    3.22    1.96    -7.85678   167.67316   -10.59187
   361  C   4.0    0.03    4.19    3.98    -6.65792   165.41295    -9.80942
   362  C   4.0    0.08    3.20    3.04    -8.38044   163.10812   -10.29022
   363  O   6.0   -0.31    1.14    1.80    -7.88503   161.02428    -9.41771
   364  C   4.0   -0.04    4.36    4.30    -5.96355   165.46589    -6.95476
   365  C   4.0   -0.03    4.12    3.85    -3.74648   167.11438    -6.04403
   366  C   4.0   -0.08    4.11    3.82    -4.45837   169.61062    -4.81993
   367  C   4.0   -0.09    4.12    3.84    -2.23182   165.56844    -4.07374
   368  H   1.0    0.11    1.07    1.44    -9.06998   168.45074    -9.31656
   369  H   1.0    0.04    1.04    1.43    -4.95644   165.11085   -10.98995
   370  H   1.0    0.05    1.05    1.44    -7.66579   165.88698    -5.95022
   371  H   1.0    0.05    1.07    1.44    -5.41233   163.51722    -6.63238
   372  H   1.0    0.03    1.03    1.43    -2.48780   167.48580    -7.70234
   373  H   1.0    0.03    1.00    1.43    -2.78512   170.83848    -4.78644
   374  H   1.0    0.04    1.00    1.43    -5.91718   170.60119    -5.84278
   375  H   1.0    0.03    1.02    1.43    -4.99203   169.28769    -2.88721
   376  H   1.0    0.03    0.99    1.43    -0.55642   166.64522    -3.50926
   377  H   1.0    0.03    1.01    1.43    -3.35957   165.15804    -2.48218
   378  H   1.0    0.04    0.99    1.43    -1.54501   163.80118    -4.91489
   379  N   5.0   -0.21    3.20    1.95    19.52404   166.41618   -11.65604
   380  C   4.0    0.03    4.15    3.91    20.92703   165.78076    -9.41518
   381  C   4.0    0.08    3.15    3.03    22.30496   163.20680    -9.44659
   382  O   6.0   -0.30    1.12    1.80    22.47744   161.68596   -11.11304
   383  C   4.0    0.02    4.12    3.84    19.46162   166.57706    -7.05409
   384  O   6.0   -0.27    2.06    1.83    21.08983   166.66145    -4.97475
   385  H   1.0    0.07    1.03    1.43    17.65987   166.56126   -11.63344
   386  H   1.0    0.04    1.05    1.44    22.60732   167.10495    -9.45374
   387  H   1.0    0.03    1.02    1.43    18.68084   168.46281    -7.37258
   388  H   1.0    0.03    1.04    1.43    17.92741   165.26336    -6.71588
   389  H   1.0    0.13    1.07    1.44    20.70084   165.39696    -3.70571
   390  N   5.0   -0.22    3.29    1.98    23.60440   158.45561     0.68244
   391  C   4.0    0.03    4.45    4.46    21.86579   160.01940     1.86283
   392  C   4.0    0.16    3.62    3.18    19.21474   159.09482     1.40334
   393  O   6.0   -0.31    1.43    1.80    17.60825   158.95651     2.80680
   394  C   4.0    0.06    4.34    4.27    21.73616   162.69552     0.70779
   395  O   6.0   -0.28    2.26    1.87    21.37661   162.65425    -1.90403
   396  C   4.0   -0.07    4.05    3.71    24.06159   164.31575     1.39717
   397  H   1.0    0.07    1.02    1.43    24.57971   159.22265    -0.83400
   398  H   1.0    0.07    1.08    1.44    22.14555   160.19629     3.91568
   399  H   1.0    0.05    1.04    1.43    20.07083   163.64085     1.54800
   400  H   1.0    0.11    1.03    1.43    22.77651   161.87266    -2.73522
   401  H   1.0    0.04    0.99    1.43    23.78304   166.24896     0.72436
   402  H   1.0    0.05    1.00    1.43    24.28682   164.34141     3.43417
   403  H   1.0    0.04    1.00    1.43    25.73719   163.53750     0.54475
   404  N   5.0   -0.14    3.77    2.37    18.84148   158.67689    -1.07620
   405  C   4.0    0.03    4.58    4.64    16.38287   158.03106    -1.92982
   406  C   4.0    0.18    3.62    3.18    15.43116   155.87494    -0.24871
   407  O   6.0   -0.33    1.44    1.80    13.81601   155.92744     0.93862
   408  C   4.0   -0.05    4.40    4.38    16.52063   157.57286    -4.69002
   409  C   4.0   -0.02    4.21    4.02    17.17988   160.01369    -6.11984
   410  C   4.0   -0.07    4.10    3.80    17.28862   159.53991    -8.97978
   411  C   4.0   -0.08    4.16    3.91    15.30450   162.08377    -5.50357
   412  H   1.0    0.08    1.09    1.44    20.31545   158.64201    -2.30887
   413  H   1.0    0.05    1.05    1.44    15.08404   159.65061    -1.47502
   414  H   1.0    0.04    1.04    1.43    17.89323   156.10691    -5.04090
   415  H   1.0    0.04    1.03    1.43    14.66476   156.92971    -5.37752
   416  H   1.0    0.05    1.05    1.44    19.06162   160.65806    -5.48060
   417  H   1.0    0.05    1.00    1.43    17.63171   161.27169   -10.01454
   418  H   1.0    0.05    0.99    1.43    18.87759   158.25773    -9.37866
   419  H   1.0    0.04    1.01    1.43    15.56283   158.69141    -9.59909
   420  H   1.0    0.03    1.01    1.43    14.94234   163.31471    -7.10349
   421  H   1.0    0.03    1.00    1.43    13.44928   161.24099    -5.05218
   422  H   1.0    0.04    1.00    1.43    15.85610   163.20899    -3.88118
   423  N   5.0   -0.15    3.65    2.21    16.98168   153.85981    -0.46873
   424  C   4.0    0.04    4.57    4.63    16.76734   151.82491     1.20952
   425  C   4.0    0.15    3.66    3.21    15.82277   152.40892     3.71712
   426  O   6.0   -0.31    1.27    1.80    14.43904   150.96190     5.11734
   427  C   4.0   -0.04    4.41    4.40    19.41979   150.78846     1.67287
   428  C   4.0   -0.03    4.18    3.95    19.36745   148.09937     2.65186
   429  C   4.0    0.24    3.16    3.03    17.84882   146.48864     0.70042
   430  O   6.0   -0.29    1.16    1.80    19.04981   144.92500    -0.59382
   431  O   6.0   -0.31    1.23    1.80    15.49506   146.84271     0.54594
   432  H   1.0    0.07    1.09    1.44    18.70682   154.15607    -1.26796
   433  H   1.0    0.07    1.11    1.45    15.59191   150.31191     0.36701
   434  H   1.0    0.04    1.02    1.43    20.46971   150.75848    -0.14070
   435  H   1.0    0.04    1.03    1.43    20.49541   152.00138     2.95199
   436  H   1.0    0.05    1.01    1.43    21.28125   147.30681     2.83639
   437  H   1.0    0.06    1.02    1.43    18.43320   148.01874     4.48832
   438  N   5.0   -0.13    3.93    2.68    16.74617   154.47426     4.75050
   439  C   4.0    0.04    4.52    4.56    16.71263   154.85428     7.42305
   440  C   4.0    0.12    3.54    3.13    14.78679   156.47521     7.78929
   441  O   6.0   -0.31    1.05    1.80    14.03047   156.81560    10.66853
   442  C   4.0   -0.04    4.26    4.12    19.49020   155.73036     8.14663
   443  C   4.0   -0.02    4.13    3.86    19.68666   157.73629    10.24355
   444  C   4.0    0.24    3.09    3.02    21.40271   159.98446     9.23994
   445  O   6.0   -0.29    1.13    1.80    23.29295   160.64916    10.53680
   446  O   6.0   -0.29    1.20    1.80    20.63616   160.97685     7.20318
   447  H   1.0    0.10    1.16    1.46    17.90661   155.52102     3.79891
   448  H   1.0    0.05    1.09    1.44    16.45124   153.07103     8.40103
   449  H   1.0    0.05    1.02    1.43    20.62892   154.12343     8.70054
   450  H   1.0    0.06    1.05    1.44    20.34955   156.55555     6.47266
   451  H   1.0    0.08    1.03    1.43    17.85168   158.61362    10.64496
   452  H   1.0    0.06    1.02    1.43    20.46602   157.00592    11.98050
   453  N   5.0   -0.13    3.57    2.13    13.49179   157.36529     6.26138
   454  C   4.0    0.03    4.37    4.33    11.08917   158.83189     6.63148
   455  C   4.0    0.15    3.39    3.08     8.54388   157.41325     6.08140
   456  O   6.0   -0.32    1.26    1.80     6.62989   158.03821     7.13139
   457  C   4.0   -0.03    4.28    4.16    11.18434   161.26363     5.09865
   458  C   4.0   -0.04    4.01    3.63    10.16212   161.09155     2.33568
   459  S   6.0   -0.06    2.37    3.10    10.01592   164.35894     0.91190
   460  C   4.0   -0.07    3.84    3.38    13.48505   165.18686     0.73945
   461  H   1.0    0.12    1.19    1.46    14.04789   157.25591     4.48188
   462  H   1.0    0.06    1.07    1.44    11.06238   159.33251     8.62874
   463  H   1.0    0.06    1.03    1.43    10.02266   162.69622     6.07919
   464  H   1.0    0.06    1.02    1.43    13.14777   161.93807     5.11070
   465  H   1.0    0.05    1.06    1.44    11.36449   159.92467     1.18205
   466  H   1.0    0.05    1.08    1.44     8.25537   160.44217     2.33935
   467  H   1.0    0.04    1.04    1.43    13.60786   166.74211    -0.55898
   468  H   1.0    0.05    1.02    1.43    14.17439   165.69981     2.60924
   469  H   1.0    0.05    1.03    1.43    14.49239   163.53275     0.07403
   470  N   5.0   -0.14    3.48    2.07     8.69673   155.53786     4.40865
   471  C   4.0    0.03    4.50    4.54     7.35554   153.21574     4.59067
   472  C   4.0    0.16    3.64    3.19     7.60429   151.95054     7.11630
   473  O   6.0   -0.32    1.58    1.80     5.85295   151.64874     8.30303
   474  C   4.0   -0.05    4.41    4.39     8.25154   151.51436     2.53576
   475  C   4.0   -0.02    4.20    4.00     7.34261   148.89559     2.87923
   476  C   4.0   -0.08    4.04    3.69     4.35820   148.71802     2.53483
   477  C   4.0   -0.07    4.01    3.64     8.92395   146.90710     1.21243
   478  H   1.0    0.09    1.08    1.44    10.54228   155.31585     3.64717
   479  H   1.0    0.05    1.06    1.44     5.33789   153.70994     4.33057
   480  H   1.0    0.04    1.01    1.43     7.67956   152.21579     0.62725
   481  H   1.0    0.06    1.03    1.43    10.34232   151.47035     2.51453
   482  H   1.0    0.06    1.08    1.44     7.67672   148.26244     4.81943
   483  H   1.0    0.06    1.00    1.43     3.76823   146.80935     2.94819
   484  H   1.0    0.04    1.02    1.43     3.51308   150.01251     3.78550
   485  H   1.0    0.04    0.99    1.43     3.89984   149.16009     0.55145
   486  H   1.0    0.06    0.99    1.43     8.31343   145.00900     1.74662
   487  H   1.0    0.04    1.00    1.43     8.48983   147.16594    -0.76931
   488  H   1.0    0.06    1.01    1.43    10.87064   147.15004     1.59536
   489  N   5.0   -0.14    3.55    2.11     9.81853   151.39362     8.10953
   490  C   4.0    0.04    4.57    4.63     9.99821   150.44901    10.62906
   491  C   4.0    0.21    3.56    3.14     7.84121   151.39178    12.28159
   492  O   6.0   -0.33    1.32    1.80     6.71410   150.50244    13.48065
   493  C   4.0   -0.04    4.32    4.23    12.43017   151.08025    12.03537
   494  C   4.0   -0.03    4.11    3.81    14.60872   149.32972    11.38935
   495  C   4.0    0.24    3.04    3.02    16.38748   148.86480    13.85812
   496  O   6.0   -0.28    1.17    1.80    14.94615   148.51993    15.85694
   497  O   6.0   -0.28    1.12    1.80    18.68902   148.79318    13.84161
   498  H   1.0    0.10    1.07    1.44    11.46453   151.36153     6.99192
   499  H   1.0    0.05    1.04    1.43     9.75962   148.33998    10.57444
   500  H   1.0    0.07    1.05    1.44    12.99665   153.01299    11.69920
   501  H   1.0    0.07    1.06    1.44    12.03928   150.81098    14.04325
   502  H   1.0    0.05    1.02    1.43    13.93445   147.43298    10.91917
   503  H   1.0    0.06    1.02    1.43    15.83609   149.95110     9.87694
   504  N   5.0   -0.12    3.64    2.20     8.00062   154.04332    11.92672
   505  C   4.0    0.03    4.22    4.04     6.61023   155.83747    13.58736
   506  C   4.0    0.17    3.42    3.08     3.63139   155.34794    13.30717
   507  O   6.0   -0.32    1.38    1.80     2.19740   154.55326    14.80860
   508  C   4.0   -0.05    4.12    3.84     7.43813   158.71221    12.93833
   509  C   4.0   -0.04    4.15    3.89    10.14080   159.58689    13.69717
   510  C   4.0   -0.04    4.12    3.85    10.40631   161.28597    16.01017
   511  C   4.0   -0.02    4.14    3.87    13.22023   161.95134    16.28984
   512  N   5.0   -0.12    3.99    2.83    13.71186   163.99704    18.22791
   513  H   1.0    0.09    1.10    1.44     9.34741   154.83192    10.99574
   514  H   1.0    0.05    1.03    1.43     7.08124   155.44059    15.57619
   515  H   1.0    0.07    1.05    1.44     7.14639   158.94922    10.95506
   516  H   1.0    0.04    1.01    1.43     6.03207   159.89805    13.93266
   517  H   1.0    0.06    1.03    1.43    11.34723   157.93539    13.88268
   518  H   1.0    0.06    1.04    1.43    10.85706   160.66373    12.09527
   519  H   1.0    0.06    1.03    1.43     9.31274   162.99594    15.70731
   520  H   1.0    0.04    1.02    1.43     9.76636   160.26936    17.68762
   521  H   1.0    0.05    1.02    1.43    14.27036   160.24479    16.79968
   522  H   1.0    0.07    1.03    1.43    13.92856   162.62647    14.47673
   523  H   1.0    0.06    1.03    1.43    15.61705   164.15411    18.45753
   524  H   1.0    0.08    1.05    1.44    12.94145   165.61307    17.47141
   525  H   1.0    0.06    1.02    1.43    12.93566   163.43651    19.93522
   526  N   5.0   -0.14    3.56    2.12     2.81768   156.12231    11.09092
   527  C   4.0    0.03    4.59    4.66     0.20999   155.68368    10.54363
   528  C   4.0    0.17    3.99    3.60    -0.49625   153.00671    11.07750
   529  O   6.0   -0.33    1.62    1.81    -2.55731   152.42065    11.75777
   530  C   4.0   -0.05    4.52    4.56    -0.34966   156.19786     7.80888
   531  C   4.0   -0.02    4.34    4.28    -2.44682   154.72196     6.94441
   532  C   4.0   -0.09    4.07    3.75    -4.04811   156.25722     4.95255
   533  C   4.0   -0.08    4.25    4.11    -1.32868   152.30620     5.95747
   534  H   1.0    0.10    1.06    1.44     4.04060   156.69856     9.63439
   535  H   1.0    0.04    1.06    1.44    -0.89666   156.94974    11.76257
   536  H   1.0    0.03    1.01    1.43    -0.65310   158.30753     7.58388
   537  H   1.0    0.05    1.05    1.44     1.35404   155.82532     6.67704
   538  H   1.0    0.05    1.10    1.44    -3.81696   154.37183     8.45030
   539  H   1.0    0.03    0.98    1.43    -5.75500   155.20307     4.38873
   540  H   1.0    0.03    1.00    1.43    -4.64951   158.01421     5.76575
   541  H   1.0    0.04    1.00    1.43    -2.95592   156.61527     3.25596
   542  H   1.0    0.03    0.97    1.43    -2.76226   150.72380     6.06340
   543  H   1.0    0.03    0.98    1.43    -1.06292   152.51748     3.85339
   544  H   1.0    0.05    1.07    1.44     0.33654   151.73067     6.71438
   545  N   5.0   -0.14    3.86    2.53     1.03545   151.17764    10.58175
   546  C   4.0    0.04    4.68    4.75    -0.12390   148.87650    10.71938
   547  C   4.0    0.17    3.77    3.30    -0.90276   148.61429    13.40784
   548  O   6.0   -0.30    1.39    1.80    -2.94372   147.74936    13.97406
   549  C   4.0   -0.04    4.28    4.16     1.40529   146.98532     9.27044
   550  C   4.0   -0.03    4.10    3.81     4.07714   146.28452    10.20159
   551  C   4.0    0.24    3.05    3.02     5.29982   144.13584     8.44423
   552  O   6.0   -0.30    1.17    1.80     4.09300   143.69501     6.38410
   553  O   6.0   -0.31    1.14    1.80     7.36213   143.11906     9.11496
   554  H   1.0    0.11    1.10    1.44     2.90794   151.41383    10.03166
   555  H   1.0    0.05    1.11    1.44    -1.92185   148.96862     9.67285
   556  H   1.0    0.05    1.01    1.43     0.35115   145.14738     9.18121
   557  H   1.0    0.05    1.04    1.43     1.61183   147.56412     7.31673
   558  H   1.0    0.07    1.04    1.44     5.32657   147.88990    10.12739
   559  H   1.0    0.05    1.01    1.43     4.08231   145.54170    12.13580
   560  N   5.0   -0.13    3.65    2.21     0.50049   149.62320    15.17016
   561  C   4.0    0.04    4.64    4.70    -0.44368   149.08127    17.67453
   562  C   4.0    0.17    3.70    3.24    -2.92462   150.35418    18.13744
   563  O   6.0   -0.31    1.35    1.80    -4.67424   149.49312    19.27809
   564  C   4.0   -0.02    4.23    4.06     1.31153   149.70162    19.94709
   565  C   4.0   -0.06    4.10    3.80     3.82467   150.98147    19.15560
   566  C   4.0   -0.06    4.17    3.94    -0.06276   151.15802    22.03903
   567  H   1.0    0.10    1.07    1.44     2.41253   149.93421    14.94246
   568  H   1.0    0.06    1.06    1.44    -0.82098   147.00685    17.77884
   569  H   1.0    0.05    1.04    1.44     1.88583   147.88167    20.83038
   570  H   1.0    0.05    0.99    1.43     4.92081   151.38369    20.87063
   571  H   1.0    0.06    1.00    1.43     4.93534   149.75975    17.97433
   572  H   1.0    0.07    1.02    1.43     3.43744   152.73683    18.19019
   573  H   1.0    0.05    0.99    1.43     1.25152   151.37160    23.66752
   574  H   1.0    0.05    1.00    1.43    -0.51511   153.07392    21.43311
   575  H   1.0    0.06    1.02    1.43    -1.70223   150.21404    22.69142
   576  N   5.0   -0.14    3.68    2.25    -2.83451   152.73550    17.32422
   577  C   4.0    0.04    4.61    4.68    -4.91858   154.46536    17.63835
   578  C   4.0    0.17    3.72    3.26    -7.31414   153.19765    16.97885
   579  O   6.0   -0.30    1.30    1.80    -9.25287   153.68504    17.98308
   580  C   4.0   -0.02    4.34    4.27    -4.48634   156.71631    15.93466
   581  C   4.0   -0.07    4.21    4.02    -6.40997   156.84051    13.82402
   582  C   4.0   -0.08    4.12    3.83    -4.39918   159.08376    17.55416
   583  H   1.0    0.11    1.11    1.45    -1.25337   153.28617    16.38427
   584  H   1.0    0.05    1.06    1.44    -4.99327   155.12592    19.62238
   585  H   1.0    0.05    1.07    1.44    -2.59909   156.50828    15.07378
   586  H   1.0    0.03    0.98    1.43    -6.15540   158.65724    12.76819
   587  H   1.0    0.05    1.02    1.43    -6.14272   155.33530    12.48983
   588  H   1.0    0.05    1.02    1.43    -8.32750   156.83726    14.52389
   589  H   1.0    0.04    0.99    1.43    -4.12157   160.79228    16.38872
   590  H   1.0    0.04    1.00    1.43    -6.19343   159.30657    18.56132
   591  H   1.0    0.04    1.01    1.43    -2.93063   158.98428    18.95053
   592  N   5.0   -0.14    3.77    2.37    -7.18283   151.71100    15.04589
   593  C   4.0    0.05    4.66    4.72    -9.27255   150.38304    14.24679
   594  C   4.0    0.16    3.69    3.23   -10.08232   148.34252    16.00485
   595  O   6.0   -0.29    1.37    1.80   -12.36515   147.88234    16.34106
   596  C   4.0   -0.02    4.33    4.25    -8.95668   149.30763    11.66861
   597  C   4.0   -0.07    4.12    3.84   -11.59150   148.34586    10.75594
   598  C   4.0   -0.08    4.13    3.86    -7.75682   151.18230     9.85055
   599  H   1.0    0.11    1.12    1.45    -5.44445   151.14219    14.34377
   600  H   1.0    0.06    1.07    1.44   -10.89379   151.74158    14.17076
   601  H   1.0    0.06    1.05    1.44    -7.70170   147.63110    11.75508
   602  H   1.0    0.04    0.98    1.43   -11.40133   147.23721     8.98367
   603  H   1.0    0.06    1.03    1.43   -12.46518   147.19991    12.11291
   604  H   1.0    0.04    0.99    1.43   -12.77512   149.98446    10.29923
   605  H   1.0    0.03    0.98    1.43    -7.89109   150.48084     7.87389
   606  H   1.0    0.04    1.00    1.43    -8.78270   152.96940     9.89606
   607  H   1.0    0.07    1.04    1.43    -5.80238   151.46026    10.27524
   608  N   5.0   -0.11    3.66    2.23    -8.46060   147.12334    17.33030
   609  C   4.0    0.07    4.72    4.77    -9.54752   145.65846    19.24984
   610  C   4.0    0.10    3.38    3.07   -10.86325   147.24804    21.10388
   611  O   6.0   -0.28    1.12    1.80   -12.75245   146.47186    22.29447
   612  C   4.0   -0.03    4.37    4.32    -7.64525   144.06314    20.68022
   613  C   4.0    0.15    3.37    3.07    -7.46355   141.96974    18.76094
   614  O   6.0   -0.29    1.29    1.80    -7.16371   142.60003    16.53851
   615  N   5.0   -0.20    3.11    1.94    -8.03021   139.49764    19.69348
   616  H   1.0    0.12    1.09    1.44    -6.56351   147.09083    16.98023
   617  H   1.0    0.07    1.09    1.44   -10.96613   144.35530    18.42776
   618  H   1.0    0.06    1.03    1.43    -5.86720   145.06495    20.86616
   619  H   1.0    0.05    1.02    1.43    -8.32733   143.41058    22.51436
   620  H   1.0    0.10    1.04    1.43    -7.81268   138.09581    18.59379
   621  H   1.0    0.08    1.02    1.43    -8.21305   139.37479    21.62409
   622  N   5.0   -0.22    3.18    1.95    14.21312   152.20489    33.26570
   623  C   4.0    0.03    4.20    3.99    13.75694   152.62355    30.59294
   624  C   4.0    0.09    3.24    3.04    13.67824   150.19407    29.24397
   625  O   6.0   -0.28    1.14    1.80    12.32641   149.82706    27.47431
   626  C   4.0   -0.04    4.24    4.08    15.76797   154.47398    29.38974
   627  C   4.0   -0.03    4.14    3.87    14.58523   156.43048    27.59552
   628  C   4.0    0.26    3.09    3.02    16.04825   156.49052    25.02295
   629  O   6.0   -0.28    1.22    1.80    17.75680   154.95213    24.73611
   630  O   6.0   -0.29    1.18    1.80    15.31473   158.02735    23.45409
   631  H   1.0    0.07    1.01    1.43    15.39447   153.55240    34.11391
   632  H   1.0    0.05    1.03    1.43    11.84941   153.55468    30.38939
   633  H   1.0    0.04    1.03    1.43    16.70079   155.49138    30.89294
   634  H   1.0    0.07    1.06    1.44    17.09455   153.36327    28.33191
   635  H   1.0    0.06    1.00    1.43    12.58605   155.89023    27.15075
   636  H   1.0    0.04    1.02    1.43    14.48886   158.29211    28.43829
   637  N   5.0   -0.20    3.25    1.97     7.87059   145.67375    30.82254
   638  C   4.0    0.03    4.30    4.20     5.65840   146.15375    29.33591
   639  C   4.0    0.09    3.26    3.05     5.60385   144.47895    27.06030
   640  O   6.0   -0.30    1.14    1.80     3.71083   143.53404    26.37466
   641  C   4.0   -0.03    4.40    4.37     5.74610   148.85527    28.51725
   642  C   4.0   -0.04    4.25    4.10     5.05048   150.55990    30.71505
   643  C   4.0    0.24    3.15    3.03     4.86107   153.23428    29.63027
   644  O   6.0   -0.30    1.20    1.80     6.48827   153.80653    28.01930
   645  O   6.0   -0.32    1.20    1.80     3.06142   154.57889    30.45767
   646  H   1.0    0.08    1.01    1.43     8.81190   147.22844    31.59194
   647  H   1.0    0.04    1.07    1.44     3.96292   145.80057    30.44486
   648  H   1.0    0.07    1.03    1.43     7.59360   149.40104    27.76188
   649  H   1.0    0.05    1.02    1.43     4.35942   149.16910    26.96805
   650  H   1.0    0.05    1.04    1.43     3.24246   150.09042    31.50815
   651  H   1.0    0.04    1.03    1.43     6.50327   150.57383    32.15349
   652  N   5.0   -0.21    3.22    1.96    16.43267   139.73364    15.70415
   653  C   4.0    0.03    4.35    4.29    14.29272   138.31259    14.82416
   654  C   4.0    0.13    3.49    3.11    15.07765   136.38278    12.76265
   655  O   6.0   -0.30    1.39    1.80    14.44278   134.14967    13.11459
   656  C   4.0   -0.02    4.31    4.22    12.07977   140.07855    14.08251
   657  C   4.0   -0.04    4.24    4.08    10.40371   138.70247    12.13731
   658  C   4.0   -0.06    4.12    3.85    12.87838   142.64018    13.05618
   659  C   4.0   -0.07    4.05    3.70     9.14384   136.38214    13.32950
   660  H   1.0    0.09    1.03    1.43    16.13541   141.55280    16.29406
   661  H   1.0    0.05    1.06    1.44    13.58606   137.10153    16.34954
   662  H   1.0    0.04    1.06    1.44    10.92770   140.40353    15.76557
   663  H   1.0    0.06    1.03    1.43     8.94062   140.02444    11.49346
   664  H   1.0    0.05    1.04    1.43    11.47560   138.17375    10.49067
   665  H   1.0    0.06    1.01    1.43    11.23691   143.51361    12.17037
   666  H   1.0    0.06    1.00    1.43    13.52246   143.92105    14.53369
   667  H   1.0    0.05    1.00    1.43    14.33942   142.49117    11.63150
   668  H   1.0    0.05    1.01    1.43     7.60895   135.80618    12.15735
   669  H   1.0    0.06    1.02    1.43    10.46374   134.90284    13.66610
   670  H   1.0    0.04    1.00    1.43     8.30391   136.97888    15.13579
   671  N   5.0   -0.15    3.41    2.03    16.23951   136.88633    10.54586
   672  C   4.0    0.04    4.39    4.37    16.09682   134.85021     8.65389
   673  C   4.0    0.10    3.38    3.07    17.01670   132.43750     9.85636
   674  O   6.0   -0.28    1.10    1.80    16.01214   130.30778     9.56424
   675  C   4.0   -0.05    4.28    4.16    17.77095   135.45584     6.41908
   676  C   4.0   -0.05    4.19    3.98    16.52690   137.36120     4.67436
   677  C   4.0   -0.01    4.18    3.96    14.38482   136.17907     3.10914
   678  N   5.0   -0.14    3.36    2.00    12.94134   138.20170     1.83932
   679  C   4.0    0.10    3.33    3.06    11.97270   138.07305    -0.54011
   680  N   5.0   -0.18    3.23    1.96    11.67380   135.85959    -1.68656
   681  N   5.0   -0.17    3.26    1.97    11.64282   140.23018    -1.87693
   682  H   1.0    0.07    1.05    1.44    16.46197   138.68952     9.94001
   683  H   1.0    0.05    1.06    1.44    14.14356   134.60227     8.05475
   684  H   1.0    0.04    1.02    1.43    19.60003   136.20928     7.07804
   685  H   1.0    0.04    1.03    1.43    18.16651   133.71706     5.36804
   686  H   1.0    0.04    1.03    1.43    15.72878   138.90349     5.78919
   687  H   1.0    0.05    1.02    1.43    17.90792   138.22184     3.39246
   688  H   1.0    0.04    1.02    1.43    15.15852   134.91314     1.67629
   689  H   1.0    0.04    1.03    1.43    13.08974   135.16787     4.32315
   690  H   1.0    0.09    1.08    1.44    13.16345   139.94146     2.54244
   691  H   1.0    0.08    1.03    1.43    11.46615   134.26528    -0.60982
   692  H   1.0    0.09    1.04    1.43    10.66252   135.86227    -3.30016
   693  H   1.0    0.10    1.04    1.43    11.92009   141.87503    -0.97728
   694  H   1.0    0.13    1.09    1.44    10.19574   140.30521    -3.11150
   695  H   1.0    0.08    1.07    1.44     3.66849   181.23667    -2.27900
   696  H   1.0    0.07    1.05    1.44   -16.40941   166.69212    16.59608
   697  H   1.0    0.09    1.07    1.44   -14.27811   151.94151    -5.75344
   698  H   1.0    0.05    1.05    1.44    -6.40622   147.84670    -3.83222
   699  H   1.0    0.09    1.08    1.44    -2.13908   152.30564    -9.41812
   700  H   1.0    0.06    1.08    1.44     2.89300   145.19541    -9.47089
   701  H   1.0    0.09    1.08    1.44     9.87978   151.19814   -10.77779
   702  H   1.0    0.06    1.05    1.44    11.50672   144.49817   -10.10325
   703  H   1.0    0.08    1.07    1.44    -8.58924   173.04399    -2.21015
   704  H   1.0    0.05    1.05    1.44   -12.73092   171.34113    -6.24672
   705  H   1.0    0.08    1.08    1.44    -6.67971   168.85684   -10.91739
   706  H   1.0    0.05    1.05    1.44    -9.94292   163.29806   -11.33599
   707  H   1.0    0.08    1.08    1.44    20.02360   167.93873   -12.22598
   708  H   1.0    0.05    1.06    1.44    23.22640   162.60951    -7.90865
   709  H   1.0    0.09    1.09    1.44    24.79031   157.97686     1.80358
   710  H   1.0    0.07    1.05    1.44   -10.25396   149.00415    21.44437
   711  H   1.0    0.09    1.07    1.44    12.73512   152.24113    34.10639
   712  H   1.0    0.05    1.06    1.44    14.78602   148.76790    29.80067
   713  H   1.0    0.09    1.08    1.44     7.45965   144.69713    32.15292
   714  H   1.0    0.06    1.05    1.44     7.19324   144.14600    26.09384
   715  H   1.0    0.09    1.08    1.44    17.12740   138.94442    17.04096
   716  H   1.0    0.06    1.05    1.44    18.53437   132.46168    10.98203

  Z AO/shell   Hii/eV     exponent
  1     Wed Apr 25 08:07:45 CEST 2018   EN: 2.200 GM2: 0.406  GM3: 0.0800  RAES: 1.40
     1s    -10.707211    1.230000
  6     Wed Apr 25 08:07:45 CEST 2018   EN: 2.550 GM2: 0.538  GM3: 0.1500  RAES: 3.00
     2s    -13.970922    2.096432
     2p    -10.063292    1.800000
  7     Wed Apr 25 08:07:45 CEST 2018   EN: 3.040 GM2: 0.461  GM3:-0.0640  RAES: 1.90
     2s    -16.686243    2.339881
     2p    -12.523956    2.014332
  8     Wed Apr 25 08:07:45 CEST 2018   EN: 3.440 GM2: 0.452  GM3:-0.0517  RAES: 1.80
     2s    -20.229985    2.439742
     2p    -15.503117    2.137023
 16     Tue Apr 24 11:44:34 CEST 2018   EN: 2.580 GM2: 0.340  GM3:-0.0502  RAES: 3.10
     3s    -20.029654    1.981333
     3p    -11.377694    2.025643
     3d     -0.420282    1.702555
 no old-style atom pair restraining (fixing) potential

molecular fragmentation (1/2 indicates fragments):
111111111111111111111111111111111111111111111111111111111111111111111111
111111111111111111111111111111111111111111111111111111111111111111111111
111111111111111111111111111111111111111111111111111111111111111111111111
111111111111111111111111111111111111112222222222222222222222222222222222
222222222222222222222222222222222222222222222222222222222222222222222222
222222222222222222222222222222222222222222222222222222222222222222222222
222222222222222222222222222222222222222222222222222222222222222222222222
222222222222222222222222222222222222222222222222222222222222222222222222
222222222222222222222222222222222222222222222222222222222222222222222222
22222222222222222222222222222222222222222222221122222222222222222222
# atoms in fragment 1/2:   256   460
 fragment masses (1/2) :     1682.06     3069.76
CMA distance (Bohr)    :  20.194
constraining FC (au)   :  0.0500
           ------------------------------------------------- 
          |        Self-Consistent Charge Iterations        |
           ------------------------------------------------- 

 Ncao       : 1718
 Nao        : 1716
 Nshell     : 1048
 Nel        : 1892
 T(el)      :   500.0
 intcut     :    35.0
 scfconv/Eh :  0.100E-06
   qconv/e  :  0.100E-04
 intneglect :  0.100E-08
 broydamp   :      0.400
 iter      E             dE          RMSdq      gap      omega  full diag
   1  -1079.8455455 -0.107985E+04  0.447E+00    2.59       0.0  T
   2  -1082.5226072 -0.267706E+01  0.210E+00    1.12       1.0  T
   3  -1082.6955224 -0.172915E+00  0.119E+00    1.51       1.0  T
   4  -1082.8614029 -0.165880E+00  0.283E-01    1.09       1.0  T
   5  -1082.8742767 -0.128739E-01  0.154E-01    1.32       1.0  T
   6  -1082.8785586 -0.428185E-02  0.793E-02    1.33       1.0  T
   7  -1082.8796879 -0.112933E-02  0.348E-02    1.33       1.0  T
   8  -1082.8798418 -0.153840E-03  0.174E-02    1.34       1.0  T
   9  -1082.8798866 -0.448738E-04  0.778E-03    1.34       1.0  T
  10  -1082.8798948 -0.817547E-05  0.351E-03    1.35       1.1  T
  11  -1082.8798968 -0.201824E-05  0.152E-03    1.35       2.5  T
  12  -1082.8798971 -0.241863E-06  0.705E-04    1.35       5.3  T
  13  -1082.8798972 -0.661821E-07  0.333E-04    1.35      11.2  T
  14  -1082.8798972 -0.890350E-08  0.139E-04    1.35      26.9  T
  15  -1082.8798972 -0.256114E-08  0.658E-05    1.35      56.8  T
  16  -1082.8798972 -0.479076E-09  0.307E-05    1.35     121.7  T
speedup  1.96
cpu  time for SCC    1 m 16.3 s
wall time for SCC    0 m 38.9 s

   *** convergence criteria satisfied after 16 iterations ***

          eigenvalues
 #    :         934        935        936        937        938        939        940        941
 occ. :        2.000      2.000      2.000      2.000      2.000      2.000      2.000      2.000
 eps  :       -10.073    -10.069    -10.028     -9.969     -9.958     -9.956     -9.911     -9.815
 #    :         942        943        944        945        946        947        948        949
 occ. :        2.000      2.000      2.000      2.000      2.000      0.000      0.000      0.000
 eps  :        -9.780     -9.735     -9.515     -9.420     -9.181     -7.828     -7.699     -7.565
 #    :         950        951        952        953        954        955        956        957
 occ. :        0.000      0.000      0.000      0.000      0.000      0.000      0.000      0.000
 eps  :        -7.511     -7.504     -7.485     -7.441     -7.423     -7.379     -7.291     -7.256


   #   Z            q   n(s)   n(p)   n(d)      C6AA      α(0)
   1   7 N     -0.386  1.312  4.074  0.000    29.974     8.131
   2   6 C      0.021  1.061  2.918  0.000    20.233     6.407
   3   6 C      0.268  1.045  2.687  0.000    22.471     7.762
   4   8 O     -0.496  1.735  4.760  0.000    23.690     6.526
   5   6 C     -0.129  1.046  3.082  0.000    23.025     6.842
   6   1 H      0.161  0.839  0.000  0.000     1.329     1.806
   7   1 H      0.064  0.936  0.000  0.000     2.158     2.297
   8   1 H      0.035  0.965  0.000  0.000     2.516     2.481
   9   1 H      0.062  0.938  0.000  0.000     2.176     2.307
  10   1 H      0.049  0.951  0.000  0.000     2.336     2.390
  11   7 N     -0.162  1.247  3.915  0.000    24.499     7.351
  12   6 C      0.005  1.071  2.923  0.000    20.501     6.449
  13   6 C      0.276  1.040  2.684  0.000    22.334     7.738
  14   8 O     -0.499  1.752  4.747  0.000    23.767     6.536
  15   6 C     -0.090  1.069  3.021  0.000    22.223     6.712
  16   6 C     -0.018  1.063  2.955  0.000    20.866     6.498
  17   6 C     -0.122  1.043  3.079  0.000    22.895     6.823
  18   6 C     -0.121  1.042  3.080  0.000    22.882     6.820
  19   1 H      0.218  0.782  0.000  0.000     1.018     1.581
  20   1 H      0.070  0.930  0.000  0.000     2.081     2.256
  21   1 H      0.077  0.923  0.000  0.000     2.015     2.220
  22   1 H      0.057  0.943  0.000  0.000     2.229     2.335
  23   1 H      0.031  0.969  0.000  0.000     2.571     2.507
  24   1 H      0.043  0.957  0.000  0.000     2.407     2.426
  25   1 H      0.041  0.959  0.000  0.000     2.432     2.439
  26   1 H      0.048  0.952  0.000  0.000     2.342     2.393
  27   1 H      0.041  0.959  0.000  0.000     2.436     2.441
  28   1 H      0.055  0.945  0.000  0.000     2.255     2.348
  29   1 H      0.043  0.957  0.000  0.000     2.412     2.429
  30   7 N     -0.179  1.250  3.929  0.000    24.875     7.407
  31   6 C     -0.000  1.081  2.919  0.000    20.605     6.466
  32   6 C      0.284  1.038  2.679  0.000    22.192     7.714
  33   8 O     -0.503  1.753  4.751  0.000    23.854     6.548
  34   6 C     -0.095  1.063  3.032  0.000    22.312     6.725
  35   6 C     -0.080  1.052  3.028  0.000    22.019     6.681
  36   6 C     -0.098  1.058  3.040  0.000    22.378     6.735
  37   6 C     -0.054  1.064  2.990  0.000    21.647     6.643
  38   7 N     -0.151  1.230  3.921  0.000    24.251     7.314
  39   1 H      0.223  0.777  0.000  0.000     0.994     1.562
  40   1 H      0.087  0.913  0.000  0.000     1.912     2.162
  41   1 H      0.081  0.919  0.000  0.000     1.967     2.193
  42   1 H      0.068  0.932  0.000  0.000     2.103     2.268
  43   1 H      0.080  0.920  0.000  0.000     1.980     2.201
  44   1 H      0.056  0.944  0.000  0.000     2.248     2.345
  45   1 H      0.072  0.928  0.000  0.000     2.063     2.246
  46   1 H      0.087  0.913  0.000  0.000     1.913     2.163
  47   1 H      0.124  0.876  0.000  0.000     1.583     1.967
  48   1 H      0.114  0.886  0.000  0.000     1.663     2.017
  49   1 H      0.302  0.698  0.000  0.000     0.707     1.317
  50   1 H      0.297  0.703  0.000  0.000     0.724     1.333
  51   1 H      0.300  0.700  0.000  0.000     0.714     1.324
  52   7 N     -0.175  1.241  3.934  0.000    24.785     7.394
  53   6 C      0.009  1.066  2.924  0.000    20.433     6.438
  54   6 C      0.277  1.048  2.675  0.000    22.318     7.737
  55   8 O     -0.475  1.738  4.738  0.000    23.246     6.464
  56   6 C     -0.037  1.078  2.958  0.000    21.193     6.548
  57   6 C     -0.076  1.057  3.020  0.000    21.961     6.673
  58   6 C     -0.136  1.048  3.088  0.000    23.183     6.867
  59   6 C     -0.110  1.034  3.076  0.000    22.656     6.788
  60   1 H      0.227  0.773  0.000  0.000     0.980     1.550
  61   1 H      0.083  0.917  0.000  0.000     1.945     2.181
  62   1 H      0.072  0.928  0.000  0.000     2.064     2.247
  63   1 H      0.053  0.947  0.000  0.000     2.285     2.364
  64   1 H      0.043  0.957  0.000  0.000     2.403     2.424
  65   1 H      0.065  0.935  0.000  0.000     2.139     2.287
  66   1 H      0.068  0.932  0.000  0.000     2.106     2.270
  67   1 H      0.057  0.943  0.000  0.000     2.232     2.336
  68   1 H      0.027  0.973  0.000  0.000     2.632     2.537
  69   1 H      0.035  0.965  0.000  0.000     2.520     2.482
  70   1 H      0.038  0.962  0.000  0.000     2.479     2.462
  71   7 N     -0.182  1.250  3.932  0.000    24.933     7.416
  72   6 C      0.023  1.061  2.916  0.000    20.176     6.394
  73   6 C      0.273  1.053  2.674  0.000    22.376     7.746
  74   8 O     -0.501  1.767  4.734  0.000    23.798     6.541
  75   6 C     -0.082  1.064  3.018  0.000    22.062     6.688
  76   6 C     -0.016  1.057  2.959  0.000    20.825     6.491
  77   6 C     -0.121  1.043  3.078  0.000    22.862     6.816
  78   6 C     -0.106  1.037  3.068  0.000    22.570     6.773
  79   1 H      0.224  0.776  0.000  0.000     0.992     1.560
  80   1 H      0.083  0.917  0.000  0.000     1.947     2.182
  81   1 H      0.075  0.925  0.000  0.000     2.033     2.230
  82   1 H      0.050  0.950  0.000  0.000     2.322     2.383
  83   1 H      0.041  0.959  0.000  0.000     2.429     2.437
  84   1 H      0.043  0.957  0.000  0.000     2.404     2.425
  85   1 H      0.045  0.955  0.000  0.000     2.388     2.417
  86   1 H      0.058  0.942  0.000  0.000     2.226     2.333
  87   1 H      0.042  0.958  0.000  0.000     2.428     2.437
  88   1 H      0.049  0.951  0.000  0.000     2.331     2.388
  89   1 H      0.001  0.999  0.000  0.000     3.042     2.727
  90   7 N     -0.203  1.249  3.954  0.000    25.409     7.486
  91   6 C      0.037  1.051  2.911  0.000    19.953     6.360
  92   6 C      0.266  1.047  2.687  0.000    22.515     7.772
  93   8 O     -0.492  1.724  4.769  0.000    23.613     6.515
  94   6 C     -0.105  1.062  3.043  0.000    22.488     6.750
  95   6 C      0.301  1.029  2.670  0.000    21.892     7.661
  96   8 O     -0.512  1.766  4.746  0.000    24.057     6.576
  97   7 N     -0.294  1.269  4.025  0.000    27.574     7.799
  98   1 H      0.229  0.771  0.000  0.000     0.968     1.541
  99   1 H      0.052  0.948  0.000  0.000     2.298     2.371
 100   1 H      0.075  0.925  0.000  0.000     2.030     2.228
 101   1 H      0.093  0.907  0.000  0.000     1.846     2.125
 102   1 H      0.225  0.775  0.000  0.000     0.988     1.557
 103   1 H      0.253  0.747  0.000  0.000     0.873     1.463
 104   7 N     -0.174  1.251  3.923  0.000    24.765     7.391
 105   6 C      0.018  1.052  2.930  0.000    20.228     6.395
 106   6 C      0.278  1.040  2.682  0.000    22.297     7.733
 107   8 O     -0.445  1.724  4.721  0.000    22.601     6.374
 108   6 C     -0.124  1.064  3.060  0.000    22.867     6.805
 109   6 C      0.283  1.037  2.679  0.000    22.206     7.719
 110   8 O     -0.484  1.728  4.756  0.000    23.430     6.490
 111   7 N     -0.277  1.269  4.008  0.000    27.172     7.742
 112   1 H      0.236  0.764  0.000  0.000     0.938     1.518
 113   1 H      0.077  0.923  0.000  0.000     2.006     2.215
 114   1 H      0.087  0.913  0.000  0.000     1.911     2.162
 115   1 H      0.120  0.880  0.000  0.000     1.611     1.985
 116   1 H      0.254  0.746  0.000  0.000     0.869     1.460
 117   1 H      0.238  0.762  0.000  0.000     0.930     1.511
 118   7 N     -0.180  1.252  3.928  0.000    24.895     7.410
 119   6 C      0.007  1.062  2.931  0.000    20.467     6.441
 120   6 C      0.270  1.041  2.689  0.000    22.438     7.759
 121   8 O     -0.474  1.732  4.741  0.000    23.209     6.459
 122   6 C     -0.038  1.071  2.967  0.000    21.215     6.550
 123   6 C     -0.079  1.051  3.027  0.000    22.003     6.678
 124   6 C     -0.116  1.039  3.078  0.000    22.783     6.807
 125   6 C     -0.120  1.040  3.080  0.000    22.862     6.819
 126   1 H      0.207  0.793  0.000  0.000     1.072     1.622
 127   1 H      0.064  0.936  0.000  0.000     2.150     2.293
 128   1 H      0.071  0.929  0.000  0.000     2.071     2.251
 129   1 H      0.036  0.964  0.000  0.000     2.506     2.475
 130   1 H      0.088  0.912  0.000  0.000     1.894     2.152
 131   1 H      0.036  0.964  0.000  0.000     2.498     2.472
 132   1 H      0.041  0.959  0.000  0.000     2.433     2.439
 133   1 H      0.027  0.973  0.000  0.000     2.632     2.537
 134   1 H      0.059  0.941  0.000  0.000     2.213     2.326
 135   1 H      0.072  0.928  0.000  0.000     2.059     2.244
 136   1 H      0.007  0.993  0.000  0.000     2.933     2.678
 137   7 N     -0.175  1.249  3.926  0.000    24.793     7.395
 138   6 C      0.001  1.065  2.934  0.000    20.558     6.453
 139   6 C      0.278  1.041  2.681  0.000    22.298     7.733
 140   8 O     -0.486  1.744  4.742  0.000    23.476     6.496
 141   6 C     -0.089  1.057  3.032  0.000    22.195     6.707
 142   6 C     -0.094  1.058  3.036  0.000    22.298     6.724
 143   6 C     -0.036  1.064  2.972  0.000    21.306     6.588
 144   7 N     -0.145  1.217  3.929  0.000    24.146     7.298
 145   6 C      0.220  1.036  2.744  0.000    23.363     7.914
 146   7 N     -0.247  1.228  4.019  0.000    26.447     7.638
 147   7 N     -0.254  1.238  4.016  0.000    26.605     7.661
 148   1 H      0.236  0.764  0.000  0.000     0.941     1.520
 149   1 H      0.093  0.907  0.000  0.000     1.847     2.125
 150   1 H      0.080  0.920  0.000  0.000     1.980     2.200
 151   1 H      0.081  0.919  0.000  0.000     1.970     2.195
 152   1 H      0.083  0.917  0.000  0.000     1.947     2.182
 153   1 H      0.081  0.919  0.000  0.000     1.967     2.193
 154   1 H      0.091  0.909  0.000  0.000     1.873     2.140
 155   1 H      0.093  0.907  0.000  0.000     1.849     2.127
 156   1 H      0.233  0.767  0.000  0.000     0.953     1.529
 157   1 H      0.253  0.747  0.000  0.000     0.871     1.462
 158   1 H      0.254  0.746  0.000  0.000     0.869     1.460
 159   1 H      0.247  0.753  0.000  0.000     0.896     1.483
 160   1 H      0.250  0.750  0.000  0.000     0.885     1.473
 161   7 N     -0.203  1.254  3.949  0.000    25.409     7.486
 162   6 C     -0.006  1.077  2.928  0.000    20.684     6.475
 163   6 C      0.283  1.032  2.684  0.000    22.202     7.718
 164   8 O     -0.496  1.735  4.761  0.000    23.686     6.525
 165   6 C      0.109  1.049  2.842  0.000    18.906     6.211
 166   8 O     -0.475  1.710  4.765  0.000    22.366     6.384
 167   6 C     -0.149  1.048  3.101  0.000    23.434     6.904
 168   1 H      0.236  0.764  0.000  0.000     0.940     1.519
 169   1 H      0.075  0.925  0.000  0.000     2.031     2.229
 170   1 H      0.049  0.951  0.000  0.000     2.327     2.386
 171   1 H      0.325  0.675  0.000  0.000     0.650     1.267
 172   1 H      0.078  0.922  0.000  0.000     1.997     2.210
 173   1 H      0.066  0.934  0.000  0.000     2.133     2.284
 174   1 H      0.066  0.934  0.000  0.000     2.135     2.285
 175   7 N     -0.176  1.245  3.931  0.000    24.813     7.398
 176   6 C      0.018  1.065  2.917  0.000    20.267     6.408
 177   6 C      0.264  1.052  2.684  0.000    22.550     7.776
 178   8 O     -0.478  1.746  4.732  0.000    23.299     6.472
 179   6 C     -0.089  1.065  3.023  0.000    22.195     6.708
 180   6 C     -0.017  1.067  2.950  0.000    20.841     6.494
 181   6 C     -0.121  1.044  3.077  0.000    22.884     6.822
 182   6 C     -0.112  1.040  3.072  0.000    22.689     6.791
 183   1 H      0.236  0.764  0.000  0.000     0.941     1.519
 184   1 H      0.087  0.913  0.000  0.000     1.909     2.161
 185   1 H      0.076  0.924  0.000  0.000     2.020     2.222
 186   1 H      0.049  0.951  0.000  0.000     2.335     2.390
 187   1 H      0.018  0.982  0.000  0.000     2.759     2.597
 188   1 H      0.046  0.954  0.000  0.000     2.366     2.405
 189   1 H      0.036  0.964  0.000  0.000     2.498     2.472
 190   1 H      0.053  0.947  0.000  0.000     2.278     2.360
 191   1 H      0.043  0.957  0.000  0.000     2.409     2.427
 192   1 H      0.052  0.948  0.000  0.000     2.291     2.367
 193   1 H      0.029  0.971  0.000  0.000     2.596     2.520
 194   7 N     -0.186  1.248  3.938  0.000    25.038     7.432
 195   6 C      0.016  1.058  2.926  0.000    20.310     6.417
 196   6 C      0.276  1.042  2.682  0.000    22.329     7.739
 197   8 O     -0.502  1.760  4.742  0.000    23.838     6.546
 198   6 C     -0.085  1.055  3.030  0.000    22.091     6.686
 199   6 C     -0.091  1.054  3.037  0.000    22.235     6.713
 200   6 C     -0.031  1.058  2.973  0.000    21.198     6.569
 201   7 N     -0.135  1.205  3.930  0.000    23.932     7.266
 202   6 C      0.230  1.029  2.741  0.000    23.178     7.882
 203   7 N     -0.283  1.280  4.004  0.000    27.315     7.762
 204   7 N     -0.205  1.248  3.957  0.000    25.454     7.493
 205   1 H      0.241  0.759  0.000  0.000     0.918     1.501
 206   1 H      0.070  0.930  0.000  0.000     2.087     2.259
 207   1 H      0.087  0.913  0.000  0.000     1.904     2.158
 208   1 H      0.078  0.922  0.000  0.000     2.004     2.214
 209   1 H      0.060  0.940  0.000  0.000     2.198     2.318
 210   1 H      0.072  0.928  0.000  0.000     2.069     2.249
 211   1 H      0.109  0.891  0.000  0.000     1.702     2.040
 212   1 H      0.093  0.907  0.000  0.000     1.850     2.127
 213   1 H      0.213  0.787  0.000  0.000     1.041     1.598
 214   1 H      0.241  0.759  0.000  0.000     0.919     1.502
 215   1 H      0.232  0.768  0.000  0.000     0.955     1.530
 216   1 H      0.221  0.779  0.000  0.000     1.006     1.571
 217   1 H      0.254  0.746  0.000  0.000     0.867     1.459
 218   7 N     -0.191  1.249  3.942  0.000    25.150     7.448
 219   6 C      0.020  1.062  2.918  0.000    20.246     6.407
 220   6 C      0.286  1.023  2.691  0.000    22.155     7.711
 221   8 O     -0.530  1.752  4.778  0.000    24.457     6.631
 222   6 C     -0.138  1.043  3.095  0.000    23.197     6.866
 223   1 H      0.223  0.777  0.000  0.000     0.996     1.564
 224   1 H      0.058  0.942  0.000  0.000     2.226     2.333
 225   1 H      0.064  0.936  0.000  0.000     2.148     2.292
 226   1 H      0.084  0.916  0.000  0.000     1.934     2.175
 227   1 H      0.073  0.927  0.000  0.000     2.055     2.242
 228   7 N     -0.173  1.246  3.927  0.000    24.744     7.388
 229   6 C      0.016  1.053  2.931  0.000    20.273     6.405
 230   6 C      0.297  1.028  2.675  0.000    21.966     7.676
 231   8 O     -0.543  1.747  4.796  0.000    24.756     6.671
 232   6 C     -0.069  1.054  3.015  0.000    21.825     6.651
 233   6 C     -0.103  1.063  3.040  0.000    22.466     6.748
 234   6 C      0.281  1.050  2.668  0.000    22.235     7.720
 235   8 O     -0.521  1.777  4.744  0.000    24.257     6.603
 236   7 N     -0.285  1.269  4.016  0.000    27.351     7.767
 237   1 H      0.246  0.754  0.000  0.000     0.899     1.485
 238   1 H      0.102  0.898  0.000  0.000     1.766     2.079
 239   1 H      0.083  0.917  0.000  0.000     1.951     2.184
 240   1 H      0.059  0.941  0.000  0.000     2.215     2.328
 241   1 H      0.082  0.918  0.000  0.000     1.957     2.188
 242   1 H      0.070  0.930  0.000  0.000     2.081     2.256
 243   1 H      0.240  0.760  0.000  0.000     0.922     1.504
 244   1 H      0.242  0.758  0.000  0.000     0.917     1.500
 245   7 N     -0.215  1.269  3.946  0.000    25.679     7.526
 246   6 C      0.042  1.049  2.909  0.000    19.871     6.346
 247   6 C      0.215  1.082  2.703  0.000    23.448     7.931
 248   8 O     -0.383  1.752  4.630  0.000    21.336     6.193
 249   6 C     -0.123  1.043  3.080  0.000    22.900     6.822
 250   1 H      0.244  0.756  0.000  0.000     0.907     1.492
 251   1 H      0.078  0.922  0.000  0.000     2.000     2.212
 252   1 H      0.067  0.933  0.000  0.000     2.113     2.273
 253   1 H      0.070  0.930  0.000  0.000     2.081     2.256
 254   1 H      0.067  0.933  0.000  0.000     2.119     2.277
 255   7 N     -0.403  1.322  4.081  0.000    30.456     8.196
 256   6 C      0.030  1.063  2.907  0.000    20.093     6.386
 257   6 C      0.258  1.058  2.683  0.000    22.651     7.795
 258   8 O     -0.550  1.783  4.768  0.000    24.928     6.694
 259   6 C     -0.068  1.056  3.012  0.000    21.798     6.646
 260   6 C     -0.033  1.087  2.946  0.000    21.181     6.557
 261  16 S     -0.242  1.946  4.247  0.048   151.405    20.710
 262   6 C     -0.066  1.064  3.002  0.000    21.842     6.668
 263   1 H      0.169  0.831  0.000  0.000     1.276     1.770
 264   1 H      0.049  0.951  0.000  0.000     2.335     2.390
 265   1 H      0.056  0.944  0.000  0.000     2.247     2.344
 266   1 H      0.065  0.935  0.000  0.000     2.141     2.288
 267   1 H      0.065  0.935  0.000  0.000     2.136     2.286
 268   1 H      0.052  0.948  0.000  0.000     2.291     2.367
 269   1 H      0.076  0.924  0.000  0.000     2.017     2.221
 270   1 H      0.065  0.935  0.000  0.000     2.137     2.286
 271   1 H      0.061  0.939  0.000  0.000     2.182     2.310
 272   7 N     -0.115  1.230  3.884  0.000    23.504     7.200
 273   6 C      0.030  1.043  2.928  0.000    20.053     6.372
 274   6 C      0.221  1.064  2.714  0.000    23.337     7.912
[...]
 430   8 O     -0.610  1.761  4.848  0.000    26.363     6.884
 431   8 O     -0.635  1.781  4.854  0.000    26.993     6.966
 432   1 H      0.204  0.796  0.000  0.000     1.087     1.633
 433   1 H      0.091  0.909  0.000  0.000     1.874     2.141
 434   1 H      0.059  0.941  0.000  0.000     2.217     2.329
 435   1 H      0.018  0.982  0.000  0.000     2.769     2.602
 436   1 H      0.035  0.965  0.000  0.000     2.522     2.483
 437   1 H     -0.009  1.009  0.000  0.000     3.220     2.806
 438   7 N     -0.189  1.235  3.953  0.000    25.083     7.438
 439   6 C      0.070  1.025  2.905  0.000    19.382     6.262
 440   6 C      0.236  1.051  2.713  0.000    23.064     7.867
 441   8 O     -0.734  1.893  4.841  0.000    29.683     7.303
 442   6 C     -0.041  1.058  2.983  0.000    21.313     6.573
 443   6 C     -0.091  1.061  3.031  0.000    22.253     6.718
 444   6 C      0.359  1.037  2.605  0.000    20.909     7.483
 445   8 O     -0.625  1.773  4.852  0.000    26.752     6.935
 446   8 O     -0.613  1.766  4.847  0.000    26.441     6.894
 447   1 H      0.210  0.790  0.000  0.000     1.055     1.609
 448   1 H      0.069  0.931  0.000  0.000     2.096     2.264
 449   1 H      0.021  0.979  0.000  0.000     2.722     2.580
 450   1 H      0.048  0.952  0.000  0.000     2.350     2.397
 451   1 H      0.044  0.956  0.000  0.000     2.397     2.421
 452   1 H      0.007  0.993  0.000  0.000     2.938     2.681
 453   7 N     -0.084  1.223  3.861  0.000    22.878     7.104
 454   6 C      0.007  1.075  2.918  0.000    20.473     6.443
 455   6 C      0.279  1.039  2.682  0.000    22.277     7.728
 456   8 O     -0.410  1.711  4.698  0.000    21.873     6.270
 457   6 C     -0.061  1.052  3.008  0.000    21.653     6.623
 458   6 C     -0.029  1.073  2.955  0.000    21.104     6.544
 459  16 S     -0.155  1.913  4.204  0.038   147.573    20.446
 460   6 C     -0.073  1.066  3.008  0.000    21.988     6.692
 461   1 H      0.251  0.749  0.000  0.000     0.877     1.467
 462   1 H      0.106  0.894  0.000  0.000     1.735     2.060
 463   1 H      0.081  0.919  0.000  0.000     1.972     2.196
 464   1 H      0.058  0.942  0.000  0.000     2.217     2.329
 465   1 H      0.038  0.962  0.000  0.000     2.472     2.458
 466   1 H      0.051  0.949  0.000  0.000     2.309     2.376
 467   1 H      0.108  0.892  0.000  0.000     1.712     2.046
 468   1 H      0.049  0.951  0.000  0.000     2.336     2.390
 469   1 H      0.043  0.957  0.000  0.000     2.404     2.425
 470   7 N     -0.191  1.268  3.923  0.000    25.138     7.446
 471   6 C      0.037  1.052  2.912  0.000    19.952     6.358
 472   6 C      0.318  1.014  2.668  0.000    21.607     7.613
 473   8 O     -0.443  1.676  4.768  0.000    22.553     6.368
 474   6 C     -0.057  1.050  3.007  0.000    21.576     6.610
 475   6 C      0.005  1.059  2.937  0.000    20.473     6.437
 476   6 C     -0.108  1.042  3.067  0.000    22.648     6.789
 477   6 C     -0.097  1.040  3.057  0.000    22.426     6.756
 478   1 H      0.185  0.815  0.000  0.000     1.186     1.706
 479   1 H      0.086  0.914  0.000  0.000     1.922     2.168
 480   1 H      0.066  0.934  0.000  0.000     2.130     2.282
 481   1 H      0.026  0.974  0.000  0.000     2.642     2.542
 482   1 H     -0.017  1.017  0.000  0.000     3.379     2.874
 483   1 H      0.044  0.956  0.000  0.000     2.391     2.418
 484   1 H      0.047  0.953  0.000  0.000     2.362     2.403
 485   1 H      0.051  0.949  0.000  0.000     2.308     2.376
 486   1 H      0.023  0.977  0.000  0.000     2.687     2.563
 487   1 H      0.046  0.954  0.000  0.000     2.371     2.408
 488   1 H      0.034  0.966  0.000  0.000     2.526     2.485
 489   7 N     -0.221  1.259  3.962  0.000    25.814     7.546
 490   6 C      0.054  1.049  2.898  0.000    19.653     6.307
 491   6 C      0.360  0.996  2.644  0.000    20.890     7.484
 492   8 O     -0.304  1.611  4.692  0.000    19.841     5.972
 493   6 C     -0.043  1.044  3.000  0.000    21.337     6.575
 494   6 C     -0.075  1.063  3.012  0.000    21.959     6.675
 495   6 C      0.357  1.045  2.598  0.000    20.938     7.487
 496   8 O     -0.689  1.803  4.886  0.000    28.403     7.145
 497   8 O     -0.580  1.753  4.826  0.000    25.624     6.787
 498   1 H      0.189  0.811  0.000  0.000     1.166     1.692
 499   1 H     -0.022  1.022  0.000  0.000     3.466     2.911
 500   1 H      0.052  0.948  0.000  0.000     2.293     2.368
 501   1 H      0.031  0.969  0.000  0.000     2.575     2.509
 502   1 H      0.001  0.999  0.000  0.000     3.038     2.726
 503   1 H     -0.007  1.007  0.000  0.000     3.176     2.787
 504   7 N     -0.315  1.275  4.040  0.000    28.088     7.871
 505   6 C      0.007  1.092  2.901  0.000    20.503     6.456
 506   6 C      0.278  1.041  2.682  0.000    22.299     7.734
 507   8 O     -0.452  1.709  4.743  0.000    22.745     6.395
 508   6 C     -0.083  1.072  3.010  0.000    22.096     6.696
 509   6 C     -0.054  1.046  3.009  0.000    21.544     6.608
 510   6 C     -0.078  1.054  3.024  0.000    21.985     6.676
 511   6 C     -0.037  1.061  2.975  0.000    21.329     6.592
 512   7 N     -0.143  1.231  3.912  0.000    24.083     7.289
 513   1 H      0.165  0.835  0.000  0.000     1.301     1.786
 514   1 H      0.026  0.974  0.000  0.000     2.639     2.541
 515   1 H      0.070  0.930  0.000  0.000     2.087     2.259
 516   1 H      0.072  0.928  0.000  0.000     2.066     2.248
 517   1 H      0.030  0.970  0.000  0.000     2.586     2.515
 518   1 H      0.045  0.955  0.000  0.000     2.389     2.417
 519   1 H      0.093  0.907  0.000  0.000     1.855     2.130
 520   1 H      0.065  0.935  0.000  0.000     2.147     2.291
 521   1 H      0.073  0.927  0.000  0.000     2.050     2.239
 522   1 H      0.111  0.889  0.000  0.000     1.685     2.030
 523   1 H      0.301  0.699  0.000  0.000     0.711     1.321
 524   1 H      0.319  0.681  0.000  0.000     0.660     1.272
 525   1 H      0.290  0.710  0.000  0.000     0.745     1.352
 526   7 N     -0.184  1.256  3.928  0.000    24.992     7.425
 527   6 C      0.022  1.053  2.925  0.000    20.182     6.391
 528   6 C      0.306  1.019  2.675  0.000    21.812     7.658
 529   8 O     -0.480  1.710  4.770  0.000    23.341     6.478
 530   6 C     -0.066  1.053  3.013  0.000    21.722     6.629
 531   6 C     -0.021  1.044  2.977  0.000    20.906     6.502
 532   6 C     -0.127  1.054  3.073  0.000    23.001     6.840
 533   6 C     -0.109  1.042  3.067  0.000    22.611     6.775
 534   1 H      0.213  0.787  0.000  0.000     1.040     1.598
 535   1 H      0.088  0.912  0.000  0.000     1.895     2.153
 536   1 H      0.071  0.929  0.000  0.000     2.071     2.251
 537   1 H      0.041  0.959  0.000  0.000     2.435     2.440
 538   1 H      0.060  0.940  0.000  0.000     2.201     2.320
 539   1 H      0.050  0.950  0.000  0.000     2.318     2.381
 540   1 H      0.068  0.932  0.000  0.000     2.104     2.268
 541   1 H      0.046  0.954  0.000  0.000     2.366     2.405
 542   1 H      0.021  0.979  0.000  0.000     2.718     2.578
 543   1 H      0.035  0.965  0.000  0.000     2.513     2.479
 544   1 H      0.028  0.972  0.000  0.000     2.619     2.530
 545   7 N     -0.177  1.226  3.950  0.000    24.818     7.399
 546   6 C      0.048  1.035  2.917  0.000    19.710     6.309
 547   6 C      0.301  1.029  2.670  0.000    21.908     7.671
 548   8 O     -0.499  1.726  4.773  0.000    23.755     6.535
 549   6 C     -0.050  1.050  3.000  0.000    21.452     6.593
 550   6 C     -0.083  1.062  3.020  0.000    22.091     6.694
 551   6 C      0.352  1.046  2.602  0.000    21.031     7.504
 552   8 O     -0.633  1.782  4.851  0.000    26.955     6.961
 553   8 O     -0.646  1.785  4.861  0.000    27.282     7.003
 554   1 H      0.191  0.809  0.000  0.000     1.152     1.682
 555   1 H      0.081  0.919  0.000  0.000     1.965     2.192
 556   1 H      0.028  0.972  0.000  0.000     2.610     2.527
 557   1 H      0.057  0.943  0.000  0.000     2.238     2.340
 558   1 H      0.011  0.989  0.000  0.000     2.869     2.649
 559   1 H     -0.011  1.011  0.000  0.000     3.255     2.822
 560   7 N     -0.182  1.254  3.928  0.000    24.948     7.418
 561   6 C      0.034  1.055  2.911  0.000    19.955     6.353
 562   6 C      0.301  1.023  2.676  0.000    21.898     7.664
 563   8 O     -0.480  1.722  4.758  0.000    23.348     6.478
 564   6 C     -0.015  1.069  2.947  0.000    20.816     6.490
 565   6 C     -0.117  1.038  3.079  0.000    22.808     6.811
 566   6 C     -0.117  1.041  3.076  0.000    22.812     6.811
 567   1 H      0.187  0.813  0.000  0.000     1.176     1.699
 568   1 H      0.027  0.973  0.000  0.000     2.627     2.535
 569   1 H      0.022  0.978  0.000  0.000     2.698     2.569
 570   1 H      0.041  0.959  0.000  0.000     2.438     2.442
 571   1 H      0.015  0.985  0.000  0.000     2.811     2.622
 572   1 H      0.073  0.927  0.000  0.000     2.048     2.238
 573   1 H      0.040  0.960  0.000  0.000     2.448     2.447
 574   1 H      0.061  0.939  0.000  0.000     2.186     2.312
 575   1 H      0.065  0.935  0.000  0.000     2.145     2.290
 576   7 N     -0.198  1.252  3.947  0.000    25.306     7.471
 577   6 C      0.016  1.060  2.924  0.000    20.287     6.409
 578   6 C      0.307  1.011  2.682  0.000    21.785     7.647
 579   8 O     -0.495  1.717  4.778  0.000    23.676     6.524
 580   6 C     -0.020  1.058  2.962  0.000    20.895     6.500
 581   6 C     -0.130  1.043  3.087  0.000    23.049     6.846
 582   6 C     -0.125  1.046  3.078  0.000    22.941     6.829
 583   1 H      0.211  0.789  0.000  0.000     1.051     1.606
 584   1 H      0.071  0.929  0.000  0.000     2.078     2.254
 585   1 H      0.040  0.960  0.000  0.000     2.443     2.444
 586   1 H      0.055  0.945  0.000  0.000     2.261     2.352
 587   1 H      0.058  0.942  0.000  0.000     2.227     2.334
 588   1 H      0.049  0.951  0.000  0.000     2.335     2.390
 589   1 H      0.059  0.941  0.000  0.000     2.212     2.326
 590   1 H      0.056  0.944  0.000  0.000     2.249     2.345
 591   1 H      0.055  0.945  0.000  0.000     2.256     2.349
 592   7 N     -0.168  1.226  3.942  0.000    24.624     7.370
 593   6 C      0.036  1.036  2.928  0.000    19.932     6.351
 594   6 C      0.277  1.035  2.688  0.000    22.327     7.745
 595   8 O     -0.533  1.750  4.784  0.000    24.529     6.640
 596   6 C     -0.015  1.058  2.958  0.000    20.808     6.487
 597   6 C     -0.125  1.047  3.078  0.000    22.949     6.831
 598   6 C     -0.130  1.046  3.084  0.000    23.055     6.847
 599   1 H      0.206  0.794  0.000  0.000     1.079     1.627
 600   1 H      0.076  0.924  0.000  0.000     2.019     2.222
 601   1 H      0.018  0.982  0.000  0.000     2.761     2.599
 602   1 H      0.042  0.958  0.000  0.000     2.419     2.432
 603   1 H      0.053  0.947  0.000  0.000     2.283     2.363
 604   1 H      0.058  0.942  0.000  0.000     2.225     2.333
 605   1 H      0.046  0.954  0.000  0.000     2.367     2.406
 606   1 H      0.057  0.943  0.000  0.000     2.229     2.335
 607   1 H      0.064  0.936  0.000  0.000     2.147     2.291
 608   7 N     -0.136  1.221  3.915  0.000    23.940     7.267
 609   6 C      0.066  1.034  2.900  0.000    19.403     6.259
 610   6 C      0.209  1.082  2.710  0.000    23.576     7.954
 611   8 O     -0.376  1.753  4.623  0.000    21.210     6.175
 612   6 C     -0.105  1.062  3.043  0.000    22.476     6.746
 613   6 C      0.280  1.053  2.667  0.000    22.272     7.733
 614   8 O     -0.479  1.768  4.711  0.000    23.334     6.476
 615   7 N     -0.317  1.280  4.036  0.000    28.153     7.880
 616   1 H      0.215  0.785  0.000  0.000     1.033     1.592
 617   1 H      0.092  0.908  0.000  0.000     1.864     2.135
 618   1 H      0.091  0.909  0.000  0.000     1.867     2.137
 619   1 H      0.091  0.909  0.000  0.000     1.867     2.137
 620   1 H      0.239  0.761  0.000  0.000     0.928     1.509
 621   1 H      0.242  0.758  0.000  0.000     0.915     1.498
 622   7 N     -0.396  1.336  4.059  0.000    30.254     8.169
 623   6 C      0.045  1.059  2.895  0.000    19.840     6.347
 624   6 C      0.216  1.071  2.712  0.000    23.428     7.927
 625   8 O     -0.407  1.757  4.650  0.000    21.817     6.262
 626   6 C     -0.057  1.059  2.998  0.000    21.605     6.618
 627   6 C     -0.099  1.077  3.022  0.000    22.399     6.740
 628   6 C      0.379  1.018  2.603  0.000    20.583     7.424
 629   8 O     -0.661  1.777  4.883  0.000    27.663     7.052
 630   8 O     -0.638  1.746  4.892  0.000    27.073     6.976
 631   1 H      0.179  0.821  0.000  0.000     1.221     1.731
 632   1 H      0.028  0.972  0.000  0.000     2.615     2.529
 633   1 H      0.064  0.936  0.000  0.000     2.152     2.294
 634   1 H      0.038  0.962  0.000  0.000     2.469     2.457
 635   1 H      0.008  0.992  0.000  0.000     2.932     2.678
 636   1 H      0.049  0.951  0.000  0.000     2.338     2.391
 637   7 N     -0.390  1.322  4.068  0.000    30.104     8.149
 638   6 C      0.043  1.046  2.911  0.000    19.862     6.346
 639   6 C      0.215  1.073  2.712  0.000    23.464     7.934
 640   8 O     -0.368  1.724  4.643  0.000    21.043     6.150
 641   6 C     -0.028  1.045  2.983  0.000    21.050     6.528
 642   6 C     -0.087  1.055  3.031  0.000    22.143     6.698
 643   6 C      0.363  1.026  2.611  0.000    20.847     7.473
 644   8 O     -0.643  1.790  4.854  0.000    27.206     6.993
 645   8 O     -0.615  1.745  4.871  0.000    26.500     6.902
 646   1 H      0.146  0.854  0.000  0.000     1.427     1.872
 647   1 H      0.048  0.952  0.000  0.000     2.339     2.392
 648   1 H      0.041  0.959  0.000  0.000     2.441     2.443
 649   1 H     -0.000  1.000  0.000  0.000     3.059     2.735
 650   1 H      0.043  0.957  0.000  0.000     2.415     2.430
 651   1 H      0.026  0.974  0.000  0.000     2.642     2.542
 652   7 N     -0.388  1.309  4.079  0.000    30.046     8.141
 653   6 C      0.040  1.062  2.898  0.000    19.921     6.358
 654   6 C      0.269  1.065  2.666  0.000    22.462     7.761
 655   8 O     -0.456  1.750  4.706  0.000    22.829     6.406
 656   6 C     -0.010  1.066  2.945  0.000    20.728     6.476
 657   6 C     -0.058  1.050  3.008  0.000    21.611     6.618
 658   6 C     -0.079  1.028  3.050  0.000    22.058     6.697
 659   6 C     -0.118  1.036  3.082  0.000    22.813     6.811
 660   1 H      0.142  0.858  0.000  0.000     1.456     1.890
 661   1 H      0.045  0.955  0.000  0.000     2.383     2.414
 662   1 H      0.028  0.972  0.000  0.000     2.609     2.526
 663   1 H      0.032  0.968  0.000  0.000     2.558     2.501
 664   1 H      0.022  0.978  0.000  0.000     2.708     2.573
 665   1 H      0.019  0.981  0.000  0.000     2.747     2.592
 666   1 H      0.018  0.982  0.000  0.000     2.759     2.598
 667   1 H      0.020  0.980  0.000  0.000     2.735     2.586
 668   1 H      0.048  0.952  0.000  0.000     2.347     2.396
 669   1 H      0.070  0.930  0.000  0.000     2.083     2.257
 670   1 H      0.030  0.970  0.000  0.000     2.588     2.516
 671   7 N     -0.166  1.258  3.908  0.000    24.595     7.366
 672   6 C      0.036  1.056  2.908  0.000    19.960     6.360
 673   6 C      0.212  1.079  2.708  0.000    23.505     7.941
 674   8 O     -0.397  1.761  4.636  0.000    21.622     6.234
 675   6 C     -0.080  1.054  3.026  0.000    22.008     6.678
 676   6 C     -0.070  1.050  3.020  0.000    21.834     6.652
 677   6 C     -0.025  1.060  2.965  0.000    21.116     6.558
 678   7 N     -0.158  1.229  3.930  0.000    24.428     7.341
 679   6 C      0.236  1.030  2.734  0.000    23.053     7.861
 680   7 N     -0.240  1.255  3.985  0.000    26.283     7.614
 681   7 N     -0.253  1.274  3.980  0.000    26.582     7.657
 682   1 H      0.189  0.811  0.000  0.000     1.165     1.691
 683   1 H      0.079  0.921  0.000  0.000     1.986     2.204
 684   1 H      0.082  0.918  0.000  0.000     1.958     2.188
 685   1 H      0.096  0.904  0.000  0.000     1.817     2.108
 686   1 H      0.030  0.970  0.000  0.000     2.589     2.516
 687   1 H      0.072  0.928  0.000  0.000     2.060     2.244
 688   1 H      0.112  0.888  0.000  0.000     1.683     2.029
 689   1 H      0.086  0.914  0.000  0.000     1.916     2.164
 690   1 H      0.184  0.816  0.000  0.000     1.190     1.709
 691   1 H      0.268  0.732  0.000  0.000     0.818     1.417
 692   1 H      0.253  0.747  0.000  0.000     0.872     1.463
 693   1 H      0.189  0.811  0.000  0.000     1.163     1.689
 694   1 H      0.255  0.745  0.000  0.000     0.863     1.455
 695   1 H      0.192  0.808  0.000  0.000     1.146     1.677
 696   1 H      0.065  0.935  0.000  0.000     2.135     2.285
 697   1 H      0.190  0.810  0.000  0.000     1.156     1.684
 698   1 H      0.064  0.936  0.000  0.000     2.151     2.294
 699   1 H      0.170  0.830  0.000  0.000     1.272     1.766
 700   1 H      0.023  0.977  0.000  0.000     2.693     2.566
 701   1 H      0.196  0.804  0.000  0.000     1.128     1.664
 702   1 H      0.038  0.962  0.000  0.000     2.479     2.462
 703   1 H      0.185  0.815  0.000  0.000     1.185     1.705
 704   1 H      0.070  0.930  0.000  0.000     2.083     2.257
 705   1 H      0.188  0.812  0.000  0.000     1.168     1.693
 706   1 H      0.074  0.926  0.000  0.000     2.047     2.237
 707   1 H      0.192  0.808  0.000  0.000     1.148     1.679
 708   1 H      0.057  0.943  0.000  0.000     2.234     2.337
 709   1 H      0.178  0.822  0.000  0.000     1.225     1.734
 710   1 H      0.075  0.925  0.000  0.000     2.036     2.231
 711   1 H      0.189  0.811  0.000  0.000     1.164     1.690
 712   1 H      0.063  0.937  0.000  0.000     2.165     2.301
 713   1 H      0.197  0.803  0.000  0.000     1.119     1.657
 714   1 H      0.042  0.958  0.000  0.000     2.424     2.435
 715   1 H      0.195  0.805  0.000  0.000     1.129     1.665
 716   1 H      0.079  0.921  0.000  0.000     1.987     2.204

 Mol. C6AA /au·bohr⁶  :    4531076.718587
 Mol. C8AA /au·bohr⁸  :   99972118.626670
 Mol. α(0) /au        :       3169.194642

 
molecular dipole:
                 x           y           z       tot (Debye)
 q only:      -19.963    -205.434      -3.798
   full:      -14.430    -207.745      -3.948     529.412
molecular quadrupole (traceless):
                xx          xy          yy          xz          yz          zz
 q only:     5854.742   -2966.644  -13825.723    -288.289     946.453    7970.982
  q+dip:     6316.689   -1635.137  -14620.184    -121.156     806.554    8303.495
   full:     6311.560   -1633.386  -14615.628    -117.551     804.982    8304.068
speedup  1.96
cpu  time for grad    1 m 36.6 s
wall time for grad    0 m 49.2 s

SCC energy    :   -1082.9112303
rep           :      13.5880619
ES            :       4.1919418
AES           :      -0.2383329
AXC           :       0.3534261
disp          :      -0.9625789
XB            :       0.0000000
fix           :       0.0000000
Gborn         :       0.0000000
Gsasa         :       0.0000000
Ghb           :       0.0000000
Gshift        :       0.0000000
Gsolv         :      -1.4965276     -939.09
Etot ala COSMO:   -1082.9112303
grad norm     :       1.8438893
total E       :   -1069.2233544
atomizationE  :     195.0480012   122394.47
(atE without considering molecular charge,
 total energy contains solvation terms)
H-L gap (eV)  :          1.3533

------------------------------------------------------------------------
 * finished run on 2019/05/10 at 00:42:50.384     
------------------------------------------------------------------------
 total:
 * wall-time:     0 d,  0 h,  0 min, 52.440 sec
 *  cpu-time:     0 d,  0 h,  1 min, 41.821 sec
 * ratio c/w:     1.942 speedup
 SCF:
 * wall-time:     0 d,  0 h,  0 min, 51.538 sec
 *  cpu-time:     0 d,  0 h,  1 min, 40.698 sec
 * ratio c/w:     1.954 speedup

