      -----------------------------------------------------------      
     |                   =====================                   |     
     |                           x T B                           |     
     |                   =====================                   |     
     |                         S. Grimme                         |     
     |          Mulliken Center for Theoretical Chemistry        |     
     |                    University of Bonn                     |     
     |                 Version 6.0.1 (SAW181210)                 |     
      -----------------------------------------------------------      

   This program is distributed in the hope that it will be useful,
   but WITHOUT ANY WARRANTY; without even the implied warranty of
   MERCHANTABILITY or FITNESS FOR A PARTICULAR PURPOSE.
   
   FOR NON-COMMERCIAL, ACADEMIA USE ONLY.
   
   Cite this work as:
   S. Grimme, C. Bannwarth, P. Shushkov, J. Comput. Theory Chem., 2017,
   13, 1989-2009.
   C. Bannwarth, S. Ehlert and S. Grimme., ChemRxiv, 2018, preprint.
   http://doi.org/10.26434/chemrxiv.7246238.v1
   
   for sTDA-xTB:
   S. Grimme and C. Bannwarth, J. Chem. Phys., 2016, 145, 054103.
   
   in the mass-spec context:
   V. Asgeirsson, C. Bauer and S. Grimme, Chem. Sci., 2017, 8, 4879.
   
   if GBSA is used:
   P. Shushkov, F. März and S. Grimme, unpublished.
   
   for ANC optimizer:
   S. Grimme, unpublished.
   Rational Function algorithm used in ANCopt:
   F. Eckert, P. Pulay, H.-J. Werner, J. Comput. Chem., 1997, 18, 1473.
   
   with help from (in alphabetical order)
   C. Bannwarth, F. Bohle, G. Brandenburg, E. Caldeweyher, M. Checinski,
   S. Dohm, S. Ehlert, S. Ehrlich, F. März, H. Neugebauer, J. Pisarek,
   P. Pracht, P. Shushkov, and S. Spicher.
   
 * started run on 2019/05/10 at 01:44:08.482     
========================================================================
 # omp threads = 2
========================================================================
number of atoms            : 300
number of electrons        : 776
charge                     : 3
spin                       : .0
first test random number   : .3181

########################################################################
# WARNING! Please study the warnings concerning your input carefully
#  - Process number higher than OMP_NUM_THREADS, I hope you know what you are doing.
########################################################################

           ------------------------------------------------- 
          |                 G F N 2 - x T B                 |
          | Geometry, Frequencies, Noncovalent interactions |
          |            JCTC 2018 parametrisation            |
           ------------------------------------------------- 
 
      method parameters     
 k(s)        :  1.8500
 k(p)        :  2.2300
 k(d)        :  2.2300
 k(f)        :  2.0000
 kEN (H0ij)  : -2.0000
 D4 a1       :  0.5200
 D4 a2       :  5.0000
 D4 s6       :  1.0000
 D4 s8       :  2.7000
 D4 s9       :  5.0000
 alphaj      :  2.0000

 Solvent             : h2o
 Using internal parameter file: .param_gbsa2_h2o
 Gsolv ref. state (COSMO-RS): gsolv [1 M gas/solution]
 temperature (mdtemp)       :    298.150000000000     
 dielectric constant        :    80.2000000000000     
 rho                        :    1.00000000000000     
 mass                       :    18.0000000000000     
 surface tension            :    15.5689454083859     
 probe radius               :   0.975313790000000     
 vdW radii scaling          :    1.00000000000000     
 Gshift (Eh)                :   1.857443126794793E-003
 c1                         :    1.55243817000000     
 soset                      :   0.130326360000000     
 HB correction              :  T

            Z     q(EN)     CN     RAES       Cart. coordinates
     1  N   5.0   -0.17    3.23    1.96    26.87270    65.73786   150.85430
     2  C   4.0    0.03    4.30    4.21    28.44669    64.15291   152.45379
     3  C   4.0    0.09    3.26    3.05    31.08084    63.97292   151.22530
     4  O   6.0   -0.28    1.13    1.80    31.27507    63.17244   149.05572
     5  C   4.0   -0.02    4.28    4.16    27.36130    61.45761   152.61341
     6  C   4.0   -0.08    4.15    3.90    29.24200    59.80168   154.01598
     7  C   4.0   -0.07    4.10    3.80    24.74883    61.37979   153.81578
     8  H   1.0    0.12    1.05    1.44    26.63952    65.13068   149.04150
     9  H   1.0    0.05    1.04    1.44    28.60028    65.03984   154.31234
    10  H   1.0    0.05    1.06    1.44    27.20667    60.76639   150.66428
    11  H   1.0    0.03    1.00    1.43    28.50175    57.90493   154.26054
    12  H   1.0    0.05    1.01    1.43    31.02527    59.70726   153.00150
    13  H   1.0    0.04    1.00    1.43    29.62204    60.57973   155.88655
    14  H   1.0    0.04    1.00    1.43    24.07337    59.44354   153.86953
    15  H   1.0    0.05    1.00    1.43    24.80585    62.10531   155.73841
    16  H   1.0    0.05    1.00    1.43    23.43272    62.51548   152.72453
    17  N   5.0   -0.13    3.48    2.06    42.03970    48.99764   148.38169
    18  C   4.0    0.03    4.49    4.53    40.54593    51.23831   147.82171
    19  C   4.0    0.15    3.40    3.08    38.08179    50.37347   146.52712
    20  O   6.0   -0.26    1.25    1.80    37.70134    48.15294   145.98929
    21  C   4.0   -0.03    4.27    4.14    42.25518    52.89239   146.14665
    22  C   4.0   -0.02    4.24    4.08    44.40630    51.09753   145.34474
    23  C   4.0    0.02    4.27    4.15    43.52670    48.44664   146.16464
    24  H   1.0    0.06    1.06    1.44    40.05483    52.10745   149.62668
    25  H   1.0    0.06    1.02    1.43    41.21258    53.55674   144.49989
    26  H   1.0    0.06    1.02    1.43    42.96352    54.52297   147.18150
    27  H   1.0    0.07    1.02    1.43    44.75329    51.16699   143.32015
    28  H   1.0    0.07    1.02    1.43    46.17369    51.54640   146.30155
    29  H   1.0    0.08    1.02    1.43    42.31983    47.58896   144.72102
    30  H   1.0    0.07    1.02    1.43    45.09967    47.18400   146.55194
    31  N   5.0   -0.14    3.44    2.04    36.32733    52.20081   146.24520
    32  C   4.0    0.04    4.45    4.47    33.81142    51.58065   145.38920
    33  C   4.0    0.16    3.48    3.11    33.47037    51.93405   142.57452
    34  O   6.0   -0.25    1.27    1.80    34.54973    53.53473   141.29634
    35  C   4.0   -0.04    4.37    4.34    31.81806    53.14497   146.78227
    36  C   4.0   -0.02    4.18    3.96    31.24771    52.10536   149.42190
    37  C   4.0   -0.08    4.12    3.84    30.27651    54.26044   151.06412
    38  C   4.0   -0.07    4.10    3.80    29.31462    49.96737   149.30429
    39  H   1.0    0.09    1.06    1.44    36.84597    54.03410   146.27134
    40  H   1.0    0.06    1.08    1.44    33.57346    49.56553   145.78721
    41  H   1.0    0.06    1.03    1.43    32.50187    55.08911   146.89102
    42  H   1.0    0.06    1.03    1.43    30.08494    53.20576   145.67057
    43  H   1.0    0.05    1.05    1.44    33.00340    51.36499   150.23084
    44  H   1.0    0.03    1.00    1.43    29.93587    53.61757   152.98259
    45  H   1.0    0.04    1.00    1.43    31.66845    55.76497   151.13903
    46  H   1.0    0.04    1.00    1.43    28.54269    55.03330   150.28144
    47  H   1.0    0.04    1.00    1.43    29.06351    49.10854   151.15313
    48  H   1.0    0.04    1.00    1.43    27.50185    50.70248   148.67547
    49  H   1.0    0.05    1.00    1.43    29.91111    48.48626   148.00693
    50  N   5.0   -0.14    3.63    2.18    31.70825    50.39768   141.61161
    51  C   4.0    0.05    4.48    4.50    31.43649    50.33028   138.89580
    52  C   4.0    0.17    3.49    3.11    30.65178    52.99670   138.10140
    53  O   6.0   -0.26    1.21    1.80    31.43774    54.05032   136.20526
    54  C   4.0   -0.03    4.26    4.12    29.44098    48.37330   138.15728
    55  C   4.0    0.26    3.17    3.03    29.72872    46.00277   139.93553
    56  O   6.0   -0.30    1.24    1.80    28.62501    46.20703   142.01674
    57  O   6.0   -0.23    1.15    1.80    31.01229    44.21654   139.14094
    58  H   1.0    0.10    1.12    1.45    31.01574    48.90670   142.59585
    59  H   1.0    0.08    1.05    1.44    33.25954    49.88388   138.00674
    60  H   1.0    0.04    1.03    1.43    27.57541    49.18025   138.46992
    61  H   1.0    0.07    1.02    1.43    29.72928    47.78785   136.20908
    62  N   5.0   -0.13    3.60    2.16    28.75365    53.88759   139.53133
    63  C   4.0    0.04    4.41    4.40    27.50504    56.25185   139.01274
    64  C   4.0    0.16    3.42    3.08    27.98520    58.03877   141.23608
    65  O   6.0   -0.29    1.25    1.80    28.90241    57.25691   143.17902
    66  C   4.0   -0.05    4.27    4.13    24.64930    55.74269   138.71092
    67  C   4.0   -0.05    4.18    3.97    24.03818    53.58014   136.88086
    68  C   4.0   -0.04    4.16    3.92    24.86136    54.12988   134.15485
    69  C   4.0   -0.03    4.11    3.82    23.55321    52.44248   132.21644
    70  N   5.0   -0.11    4.01    2.90    24.24262    49.72725   132.59831
    71  H   1.0    0.09    1.09    1.44    28.55354    53.20503   141.30345
    72  H   1.0    0.06    1.06    1.44    28.35742    57.01440   137.28254
    73  H   1.0    0.04    1.03    1.43    23.91792    55.26677   140.57870
    74  H   1.0    0.04    1.03    1.43    23.73929    57.47904   138.08052
    75  H   1.0    0.04    1.03    1.43    24.95969    51.88358   137.59605
    76  H   1.0    0.04    1.03    1.43    21.99651    53.31959   136.94377
    77  H   1.0    0.05    1.03    1.43    24.37138    56.07158   133.68715
    78  H   1.0    0.06    1.02    1.43    26.90919    53.95339   133.98896
    79  H   1.0    0.05    1.02    1.43    21.50310    52.61972   132.36236
    80  H   1.0    0.06    1.02    1.43    24.14713    52.99020   130.32228
    81  H   1.0    0.08    1.01    1.43    23.49600    48.59697   131.19140
    82  H   1.0    0.07    1.02    1.43    26.18459    49.53704   132.58392
    83  H   1.0    0.06    1.02    1.43    23.59874    49.11139   134.32783
    84  N   5.0   -0.14    3.48    2.07    27.11484    60.43394   140.89608
    85  C   4.0    0.04    4.47    4.50    27.81868    62.42917   142.62126
    86  C   4.0    0.14    3.41    3.08    25.58828    64.07755   143.39630
    87  O   6.0   -0.30    1.26    1.80    25.57024    65.21246   145.41235
    88  C   4.0    0.06    4.24    4.07    29.90184    64.08522   141.39009
    89  O   6.0   -0.22    2.13    1.84    31.96172    62.45379   140.93949
    90  C   4.0   -0.05    4.09    3.78    30.62225    66.34351   143.00143
    91  H   1.0    0.08    1.07    1.44    26.94998    60.98523   139.06980
    92  H   1.0    0.08    1.06    1.44    28.64166    61.57952   144.32697
    93  H   1.0    0.05    1.03    1.43    29.19425    64.77463   139.54858
    94  H   1.0    0.14    1.03    1.43    33.52560    63.30628   141.30016
    95  H   1.0    0.07    1.00    1.43    32.20935    67.35768   142.17473
    96  H   1.0    0.07    1.00    1.43    29.04795    67.65189   143.15420
    97  H   1.0    0.08    1.00    1.43    31.15104    65.71088   144.88842
    98  N   5.0   -0.14    3.54    2.11    23.75770    64.29150   141.66638
    99  C   4.0    0.04    4.39    4.36    21.52423    65.84196   142.04711
   100  C   4.0    0.15    3.39    3.08    19.29796    63.99322   142.33405
   101  O   6.0   -0.32    1.28    1.80    18.92780    62.33460   140.75969
   102  C   4.0   -0.03    4.20    4.01    21.22086    67.79132   139.87335
   103  C   4.0   -0.04    4.21    4.03    22.20120    66.76818   137.35798
   104  C   4.0   -0.04    4.15    3.89    21.56643    68.42807   135.07382
   105  C   4.0   -0.03    4.12    3.84    22.25078    67.04530   132.61757
   106  N   5.0   -0.10    4.01    2.88    20.99778    68.22410   130.39607
   107  H   1.0    0.08    1.08    1.44    23.67191    63.05836   140.20987
   108  H   1.0    0.06    1.06    1.44    21.76203    66.85643   143.83042
   109  H   1.0    0.06    1.02    1.43    19.22859    68.30377   139.71346
   110  H   1.0    0.06    1.02    1.43    22.25693    69.50175   140.37889
   111  H   1.0    0.05    1.03    1.43    24.24877    66.56398   137.47210
   112  H   1.0    0.05    1.03    1.43    21.34822    64.91246   137.06398
   113  H   1.0    0.06    1.03    1.43    19.54828    68.84882   135.09371
   114  H   1.0    0.06    1.02    1.43    22.56989    70.22499   135.18221
   115  H   1.0    0.06    1.02    1.43    24.28960    67.09143   132.32621
   116  H   1.0    0.05    1.02    1.43    21.64064    65.07935   132.70685
   117  H   1.0    0.08    1.02    1.43    21.48842    67.28955   128.76435
   118  H   1.0    0.08    1.02    1.43    19.06950    68.17570   130.61497
   119  H   1.0    0.08    1.01    1.43    21.44579    70.14049   130.24666
   120  N   5.0   -0.13    3.47    2.06    17.93698    64.22457   144.43385
   121  C   4.0    0.04    4.31    4.21    15.77207    62.67415   145.05245
   122  C   4.0    0.10    3.23    3.04    13.51162    64.38217   145.66498
   123  O   6.0   -0.24    1.13    1.80    13.77522    66.26520   146.99872
   124  C   4.0   -0.02    4.34    4.27    16.20632    61.12133   147.48897
   125  C   4.0   -0.01    3.55    3.14    18.40946    59.34265   147.34732
   126  C   4.0   -0.03    3.49    3.11    20.86194    60.26635   147.13142
   127  C   4.0   -0.04    3.46    3.10    18.04115    56.75153   147.52615
   128  C   4.0   -0.04    3.38    3.07    22.89813    58.62628   147.05900
   129  C   4.0   -0.05    3.38    3.07    20.08527    55.12067   147.49623
   130  C   4.0   -0.04    3.37    3.07    22.51907    56.04565   147.26236
   131  H   1.0    0.10    1.06    1.44    18.35181    65.61520   145.69346
   132  H   1.0    0.07    1.05    1.44    15.37128    61.44358   143.44527
   133  H   1.0    0.06    1.03    1.43    16.50920    62.47476   149.02223
   134  H   1.0    0.05    1.03    1.43    14.46264    60.08906   147.88502
   135  H   1.0    0.06    1.04    1.43    21.20363    62.27742   147.10557
   136  H   1.0    0.05    1.03    1.43    16.14891    56.01329   147.72438
   137  H   1.0    0.06    1.03    1.43    24.78737    59.38233   146.88738
   138  H   1.0    0.05    1.03    1.43    19.76996    53.11700   147.66395
   139  H   1.0    0.05    1.03    1.43    24.12735    54.79541   147.25293
   140  N   5.0   -0.21    3.24    1.97    16.24080    46.23600   159.51552
   141  C   4.0    0.03    4.40    4.38    16.07111    46.19131   156.78568
   142  C   4.0    0.14    3.46    3.10    18.68794    46.68365   155.65771
   143  O   6.0   -0.30    1.26    1.80    19.39905    45.57733   153.75942
   144  C   4.0   -0.02    4.32    4.24    14.13481    47.99089   155.55878
   145  C   4.0   -0.04    4.21    4.02    11.83841    48.44808   157.24058
   146  C   4.0   -0.06    4.15    3.91    13.33882    46.79204   153.06885
   147  C   4.0   -0.06    4.02    3.66     9.83787    50.11959   156.02703
   148  H   1.0    0.09    1.03    1.43    15.22962    47.48825   160.53858
   149  H   1.0    0.05    1.06    1.44    15.57943    44.24405   156.25394
   150  H   1.0    0.04    1.05    1.44    15.06111    49.80865   155.20485
   151  H   1.0    0.06    1.03    1.43    11.00048    46.63973   157.77195
   152  H   1.0    0.05    1.04    1.43    12.46164    49.37926   158.96272
   153  H   1.0    0.05    1.00    1.43    12.30106    48.12912   151.91131
   154  H   1.0    0.06    1.00    1.43    14.98913    46.15911   152.02350
   155  H   1.0    0.06    1.00    1.43    12.12791    45.16972   153.43217
   156  H   1.0    0.07    1.00    1.43     8.38955    50.57271   157.41548
   157  H   1.0    0.05    1.00    1.43    10.67587    51.87589   155.36924
   158  H   1.0    0.06    1.00    1.43     8.91986    49.19481   154.44299
   159  N   5.0   -0.15    3.49    2.07    20.13817    48.40478   156.80081
   160  C   4.0    0.03    4.54    4.59    22.67501    48.78104   155.83876
   161  C   4.0    0.15    3.55    3.14    24.24229    46.38169   156.18480
   162  O   6.0   -0.32    1.30    1.80    25.43443    45.47117   154.41789
   163  C   4.0   -0.03    4.34    4.27    23.91757    51.08747   157.08199
   164  C   4.0   -0.05    4.18    3.96    23.21572    53.52765   155.66123
   165  C   4.0   -0.08    4.16    3.92    26.78391    50.81310   157.20410
   166  C   4.0   -0.07    4.02    3.66    21.91275    55.39584   157.41246
   167  H   1.0    0.08    1.06    1.44    19.52413    49.41717   158.30283
   168  H   1.0    0.05    1.06    1.44    22.55576    49.03307   153.78216
   169  H   1.0    0.04    1.07    1.44    23.18786    51.18464   159.01389
   170  H   1.0    0.03    1.03    1.43    24.91211    54.38366   154.86798
   171  H   1.0    0.04    1.03    1.43    21.94463    53.11015   154.09598
   172  H   1.0    0.04    1.00    1.43    27.62310    52.48100   158.06018
   173  H   1.0    0.05    1.01    1.43    27.33398    49.17452   158.30351
   174  H   1.0    0.04    1.00    1.43    27.53871    50.59371   155.30548
   175  H   1.0    0.04    1.00    1.43    21.40329    57.08414   156.37587
   176  H   1.0    0.05    1.00    1.43    20.19867    54.58024   158.19661
   177  H   1.0    0.05    1.00    1.43    23.15435    55.94176   158.95431
   178  N   5.0   -0.15    3.50    2.08    24.31023    45.44433   158.52529
   179  C   4.0    0.03    4.45    4.46    25.73125    43.18636   159.08367
   180  C   4.0    0.16    3.51    3.12    25.13676    41.06373   157.20568
   181  O   6.0   -0.29    1.26    1.80    26.78011    39.58570   156.50598
   182  C   4.0   -0.05    4.27    4.15    25.18749    42.27577   161.76342
   183  C   4.0   -0.04    4.23    4.05    26.98324    40.10678   162.42706
   184  C   4.0    0.00    4.21    4.01    26.89370    39.26120   165.18019
   185  N   5.0   -0.13    3.43    2.04    27.72993    41.31526   166.78698
   186  C   4.0    0.11    3.34    3.06    28.19595    41.14083   169.22961
   187  N   5.0   -0.16    3.25    1.97    27.92799    38.95751   170.44121
   188  N   5.0   -0.16    3.23    1.96    28.78467    43.25508   170.50528
   189  H   1.0    0.08    1.07    1.44    23.15168    46.16796   159.87075
   190  H   1.0    0.05    1.05    1.44    27.76129    43.58140   158.87144
   191  H   1.0    0.05    1.03    1.43    25.41341    43.87915   163.04210
   192  H   1.0    0.05    1.03    1.43    23.22642    41.64190   161.86399
   193  H   1.0    0.07    1.03    1.43    26.54941    38.47913   161.24308
   194  H   1.0    0.05    1.03    1.43    28.92838    40.63376   161.98579
   195  H   1.0    0.06    1.02    1.43    24.97487    38.70201   165.71073
   196  H   1.0    0.06    1.03    1.43    28.18795    37.66419   165.35002
   197  H   1.0    0.08    1.08    1.44    27.97160    43.01665   165.94949
   198  H   1.0    0.10    1.03    1.43    27.80888    37.31770   169.47994
   199  H   1.0    0.11    1.03    1.43    28.46116    38.78823   172.26232
   200  H   1.0    0.10    1.03    1.43    28.68954    44.95725   169.65356
   201  H   1.0    0.11    1.03    1.43    28.82203    43.22599   172.40851
   202  N   5.0   -0.13    3.52    2.09    22.73811    40.95748   156.43643
   203  C   4.0    0.05    4.38    4.35    21.85353    39.00060   154.75114
   204  C   4.0    0.18    3.50    3.11    23.25832    39.02238   152.19475
   205  O   6.0   -0.23    1.22    1.80    23.53687    37.09310   150.95803
   206  C   4.0    0.05    4.15    3.89    19.01284    39.31417   154.20417
   207  O   6.0   -0.22    2.10    1.84    18.66646    40.22901   151.71389
   208  H   1.0    0.09    1.07    1.44    21.41001    42.04700   157.29199
   209  H   1.0    0.07    1.05    1.44    22.21951    37.14292   155.59943
   210  H   1.0    0.06    1.01    1.43    18.07421    37.47994   154.42270
   211  H   1.0    0.05    1.01    1.43    18.22534    40.65256   155.57948
   212  H   1.0    0.13    1.02    1.43    16.87545    40.33072   151.37780
   213  N   5.0   -0.13    3.58    2.14    23.99064    41.30192   151.41076
   214  C   4.0    0.05    4.44    4.45    25.22777    41.63676   149.02039
   215  C   4.0    0.16    3.40    3.08    28.06112    41.05848   149.15344
   216  O   6.0   -0.25    1.22    1.80    29.38247    41.08872   147.25336
   217  C   4.0   -0.04    4.29    4.17    24.78403    44.31652   148.05087
   218  C   4.0   -0.03    4.16    3.93    21.98720    44.83990   147.54136
   219  C   4.0   -0.01    4.19    3.97    21.61915    47.63160   146.79890
   220  N   5.0   -0.14    3.37    2.01    20.15718    47.99003   144.50016
   221  C   4.0    0.10    3.33    3.06    21.01356    47.86212   142.12934
   222  N   5.0   -0.18    3.25    1.97    23.46013    47.70995   141.55810
   223  N   5.0   -0.18    3.25    1.97    19.36556    48.15750   140.24053
   224  H   1.0    0.12    1.11    1.45    23.87550    42.84401   152.54140
   225  H   1.0    0.08    1.06    1.44    24.44775    40.24130   147.69691
   226  H   1.0    0.05    1.03    1.43    25.50188    45.61567   149.48355
   227  H   1.0    0.07    1.03    1.43    25.92065    44.54113   146.34256
   228  H   1.0    0.06    1.03    1.43    21.34601    43.59602   146.02905
   229  H   1.0    0.07    1.03    1.43    20.90166    44.38652   149.23105
   230  H   1.0    0.04    1.03    1.43    20.61505    48.61643   148.30403
   231  H   1.0    0.04    1.03    1.43    23.46190    48.52264   146.57246
   232  H   1.0    0.08    1.07    1.44    18.26656    47.95410   144.73866
   233  H   1.0    0.10    1.04    1.43    24.81665    47.29121   142.84459
   234  H   1.0    0.09    1.03    1.43    23.98452    47.25043   139.79065
   235  H   1.0    0.09    1.03    1.43    17.49132    48.22422   140.57846
   236  H   1.0    0.09    1.03    1.43    19.90656    47.81283   138.45080
   237  N   5.0   -0.12    3.56    2.12    28.98294    40.59878   151.45882
   238  C   4.0    0.05    4.32    4.23    31.54704    39.78189   151.89963
   239  C   4.0    0.11    3.18    3.03    31.60324    36.89017   152.27198
   240  O   6.0   -0.21    1.13    1.80    29.69849    35.59767   152.21813
   241  C   4.0   -0.03    4.31    4.22    32.62861    41.29477   154.10796
   242  C   4.0   -0.03    4.06    3.74    32.30310    44.13221   153.65631
   243  S   6.0   -0.01    2.46    3.10    34.71445    45.94924   155.39336
   244  C   4.0   -0.06    3.88    3.43    32.80843    48.02133   157.32531
   245  H   1.0    0.12    1.11    1.45    27.79945    40.33045   152.93887
   246  H   1.0    0.07    1.06    1.44    32.59168    40.18647   150.15105
   247  H   1.0    0.06    1.03    1.43    31.63537    40.73212   155.82565
   248  H   1.0    0.06    1.04    1.44    34.63116    40.87450   154.34538
   249  H   1.0    0.06    1.07    1.44    32.56179    44.57915   151.66285
   250  H   1.0    0.05    1.06    1.44    30.44814    44.78594   154.25534
   251  H   1.0    0.05    1.05    1.44    34.11030    49.29573   158.26576
   252  H   1.0    0.04    1.04    1.43    31.55459    49.09380   156.11619
   253  H   1.0    0.05    1.04    1.43    31.77003    46.93385   158.71799
   254  N   5.0   -0.17    3.23    1.96    36.05793    61.46192   161.33660
   255  C   4.0    0.04    4.24    4.08    36.13654    59.21255   162.88404
   256  C   4.0    0.10    3.22    3.04    38.80991    58.26105   163.27122
   257  O   6.0   -0.23    1.13    1.80    40.42958    58.41187   161.61209
   258  C   4.0   -0.03    4.34    4.27    34.35976    57.17472   161.84239
   259  C   4.0   -0.01    3.60    3.16    35.26115    56.12340   159.39224
   260  C   4.0   -0.04    3.49    3.11    34.81128    57.48191   157.19940
   261  C   4.0   -0.03    3.46    3.10    36.55690    53.83898   159.26866
   262  C   4.0   -0.04    3.44    3.09    35.59085    56.56330   154.89038
   263  C   4.0   -0.02    3.43    3.09    37.37959    52.91701   156.97159
   264  C   4.0    0.08    3.47    3.10    36.87168    54.27579   154.77748
   265  O   6.0   -0.24    2.14    1.85    37.61952    53.33305   152.51488
   266  H   1.0    0.11    1.02    1.43    37.14697    61.63763   159.77569
   267  H   1.0    0.06    1.06    1.44    35.40351    59.76395   164.74114
   268  H   1.0    0.05    1.03    1.43    34.21472    55.70797   163.27643
   269  H   1.0    0.04    1.03    1.43    32.51507    58.06512   161.60680
   270  H   1.0    0.05    1.03    1.43    33.80412    59.25395   157.31355
   271  H   1.0    0.06    1.03    1.43    36.89835    52.80964   161.00199
   272  H   1.0    0.06    1.03    1.43    35.17857    57.61536   153.19289
   273  H   1.0    0.07    1.03    1.43    38.41262    51.16663   156.81099
   274  H   1.0    0.11    1.04    1.44    36.68444    54.18280   151.19112
   275  N   5.0   -0.18    3.20    1.96    15.63169    59.46415   137.29313
   276  C   4.0    0.03    4.29    4.18    14.33240    57.39948   138.56434
   277  C   4.0    0.09    3.21    3.04    11.76320    58.02455   139.69318
   278  O   6.0   -0.26    1.11    1.80    11.45486    59.26392   141.69340
   279  C   4.0   -0.02    4.29    4.18    15.90631    56.17730   140.68632
   280  C   4.0   -0.07    4.13    3.87    15.24168    53.37850   140.84656
   281  C   4.0   -0.07    4.15    3.91    18.73868    56.40283   140.27398
   282  H   1.0    0.12    1.07    1.44    16.67810    60.45765   138.53941
   283  H   1.0    0.05    1.06    1.44    13.99458    55.97873   137.07388
   284  H   1.0    0.06    1.05    1.44    15.41971    57.15211   142.46613
   285  H   1.0    0.04    1.00    1.43    16.20760    52.57963   142.47599
   286  H   1.0    0.06    1.00    1.43    13.21752    53.12061   141.08792
   287  H   1.0    0.05    1.01    1.43    15.87215    52.47481   139.11606
   288  H   1.0    0.04    1.00    1.43    19.72042    55.25688   141.66993
   289  H   1.0    0.04    1.01    1.43    19.20187    55.82834   138.36393
   290  H   1.0    0.06    1.02    1.43    19.38488    58.33028   140.54375
   291  H   1.0    0.10    1.08    1.44    25.31249    65.84682   151.52247
   292  H   1.0    0.06    1.04    1.43    32.61353    64.50560   152.19390
   293  H   1.0    0.10    1.09    1.44    42.30329    48.89559   150.05879
   294  H   1.0    0.08    1.04    1.43    11.80091    63.96841   144.97699
   295  H   1.0    0.10    1.07    1.44    15.75514    44.73013   160.13925
   296  H   1.0    0.08    1.05    1.44    33.24731    36.00782   152.57128
   297  H   1.0    0.09    1.08    1.44    34.48207    61.68334   160.73643
   298  H   1.0    0.08    1.05    1.44    39.30533    57.47949   164.91888
   299  H   1.0    0.10    1.07    1.44    16.65450    58.83526   136.08859
   300  H   1.0    0.08    1.05    1.44    10.18561    57.43874   138.83346

  Z AO/shell   Hii/eV     exponent
  1     Wed Apr 25 08:07:45 CEST 2018   EN: 2.200 GM2: 0.406  GM3: 0.0800  RAES: 1.40
     1s    -10.707211    1.230000
  6     Wed Apr 25 08:07:45 CEST 2018   EN: 2.550 GM2: 0.538  GM3: 0.1500  RAES: 3.00
     2s    -13.970922    2.096432
     2p    -10.063292    1.800000
  7     Wed Apr 25 08:07:45 CEST 2018   EN: 3.040 GM2: 0.461  GM3:-0.0640  RAES: 1.90
     2s    -16.686243    2.339881
     2p    -12.523956    2.014332
  8     Wed Apr 25 08:07:45 CEST 2018   EN: 3.440 GM2: 0.452  GM3:-0.0517  RAES: 1.80
     2s    -20.229985    2.439742
     2p    -15.503117    2.137023
 16     Tue Apr 24 11:44:34 CEST 2018   EN: 2.580 GM2: 0.340  GM3:-0.0502  RAES: 3.10
     3s    -20.029654    1.981333
     3p    -11.377694    2.025643
     3d     -0.420282    1.702555
 no old-style atom pair restraining (fixing) potential

molecular fragmentation (1/2 indicates fragments):
111111111111111122222222222222222222222222222222222222222222222222222222
222222222222222222222222222222222222222222222222222222222222222222222222
222222222222222222222222222222222222222222222222222222222222222222222222
222222222222222222222222222222222222222222222222222222222222222222222222
221122222222
# atoms in fragment 1/2:    18   282
 fragment masses (1/2) :      101.15     1860.35
CMA distance (Bohr)    :  11.762
constraining FC (au)   :  0.0500
           ------------------------------------------------- 
          |        Self-Consistent Charge Iterations        |
           ------------------------------------------------- 

 Ncao       : 717
 Nao        : 716
 Nshell     : 438
 Nel        : 776
 T(el)      :   500.0
 intcut     :    35.0
 scfconv/Eh :  0.100E-06
   qconv/e  :  0.100E-04
 intneglect :  0.100E-08
 broydamp   :      0.400
 iter      E             dE          RMSdq      gap      omega  full diag
   1   -440.4466051 -0.440447E+03  0.445E+00    2.70       0.0  T
   2   -441.3493794 -0.902774E+00  0.214E+00    1.17       1.0  T
   3   -441.3988248 -0.494453E-01  0.116E+00    1.30       1.0  T
   4   -441.4662209 -0.673962E-01  0.249E-01    0.90       1.0  T
   5   -441.4700299 -0.380893E-02  0.116E-01    1.08       1.0  T
   6   -441.4707878 -0.757897E-03  0.475E-02    1.10       1.0  T
   7   -441.4709337 -0.145902E-03  0.209E-02    1.09       1.0  T
   8   -441.4709514 -0.177412E-04  0.100E-02    1.09       1.0  T
   9   -441.4709581 -0.667779E-05  0.453E-03    1.09       1.3  T
  10   -441.4709592 -0.110111E-05  0.205E-03    1.09       2.8  T
  11   -441.4709594 -0.181294E-06  0.918E-04    1.10       6.3  T
  12   -441.4709594 -0.406577E-07  0.383E-04    1.10      15.1  T
  13   -441.4709594 -0.949314E-08  0.188E-04    1.10      30.7  T
  14   -441.4709594 -0.129671E-08  0.786E-05    1.10      73.5  T
  15   -441.4709594 -0.354760E-09  0.338E-05    1.10     171.0  T
speedup  1.51
cpu  time for SCC   10.55 s
wall time for SCC    6.98 s

   *** convergence criteria satisfied after 15 iterations ***

          eigenvalues
 #    :         376        377        378        379        380        381        382        383
 occ. :        2.000      2.000      2.000      2.000      2.000      2.000      2.000      2.000
 eps  :       -10.790    -10.770    -10.709    -10.557    -10.525    -10.478    -10.179     -9.968
 #    :         384        385        386        387        388        389        390        391
 occ. :        2.000      2.000      2.000      2.000      2.000      0.000      0.000      0.000
 eps  :        -9.918     -9.709     -9.607     -9.548     -9.129     -8.033     -7.836     -7.799
 #    :         392        393        394        395        396        397        398        399
 occ. :        0.000      0.000      0.000      0.000      0.000      0.000      0.000      0.000
 eps  :        -7.747     -7.724     -6.646     -6.428     -6.408     -6.330     -6.240     -6.206


   #   Z            q   n(s)   n(p)   n(d)      C6AA      α(0)
   1   7 N     -0.397  1.327  4.070  0.000    30.303     8.176
   2   6 C      0.037  1.061  2.902  0.000    19.970     6.365
   3   6 C      0.205  1.090  2.705  0.000    23.655     7.965
   4   8 O     -0.375  1.755  4.620  0.000    21.194     6.172
   5   6 C     -0.014  1.062  2.952  0.000    20.784     6.484
   6   6 C     -0.116  1.042  3.074  0.000    22.769     6.803
   7   6 C     -0.114  1.038  3.076  0.000    22.746     6.800
   8   1 H      0.175  0.825  0.000  0.000     1.240     1.745
   9   1 H      0.041  0.959  0.000  0.000     2.434     2.440
  10   1 H      0.042  0.958  0.000  0.000     2.429     2.437
  11   1 H      0.062  0.938  0.000  0.000     2.175     2.306
  12   1 H      0.024  0.976  0.000  0.000     2.675     2.558
  13   1 H      0.038  0.962  0.000  0.000     2.469     2.457
  14   1 H      0.059  0.941  0.000  0.000     2.210     2.325
  15   1 H      0.043  0.957  0.000  0.000     2.405     2.425
  16   1 H      0.039  0.961  0.000  0.000     2.468     2.457
  17   7 N     -0.274  1.211  4.062  0.000    27.069     7.727
  18   6 C      0.008  1.071  2.921  0.000    20.419     6.429
  19   6 C      0.275  1.052  2.673  0.000    22.348     7.741
  20   8 O     -0.495  1.760  4.735  0.000    23.681     6.524
  21   6 C     -0.067  1.057  3.009  0.000    21.763     6.640
  22   6 C     -0.065  1.057  3.008  0.000    21.725     6.632
  23   6 C      0.018  1.045  2.936  0.000    20.294     6.418
  24   1 H      0.066  0.934  0.000  0.000     2.131     2.283
  25   1 H      0.028  0.972  0.000  0.000     2.620     2.531
  26   1 H      0.049  0.951  0.000  0.000     2.336     2.390
  27   1 H      0.029  0.971  0.000  0.000     2.604     2.524
  28   1 H      0.039  0.961  0.000  0.000     2.456     2.451
  29   1 H      0.027  0.973  0.000  0.000     2.625     2.534
  30   1 H      0.032  0.968  0.000  0.000     2.565     2.504
  31   7 N     -0.190  1.246  3.945  0.000    25.130     7.445
  32   6 C      0.027  1.054  2.919  0.000    20.118     6.385
  33   6 C      0.279  1.041  2.680  0.000    22.274     7.730
  34   8 O     -0.504  1.756  4.748  0.000    23.879     6.552
  35   6 C     -0.073  1.060  3.013  0.000    21.880     6.658
  36   6 C     -0.010  1.055  2.956  0.000    20.728     6.476
  37   6 C     -0.115  1.042  3.072  0.000    22.746     6.799
  38   6 C     -0.109  1.039  3.070  0.000    22.643     6.785
  39   1 H      0.196  0.804  0.000  0.000     1.126     1.662
  40   1 H      0.060  0.940  0.000  0.000     2.199     2.319
  41   1 H      0.056  0.944  0.000  0.000     2.241     2.341
  42   1 H      0.066  0.934  0.000  0.000     2.133     2.284
  43   1 H      0.025  0.975  0.000  0.000     2.653     2.547
  44   1 H      0.051  0.949  0.000  0.000     2.304     2.374
  45   1 H      0.033  0.967  0.000  0.000     2.538     2.491
  46   1 H      0.058  0.942  0.000  0.000     2.220     2.330
  47   1 H      0.044  0.956  0.000  0.000     2.392     2.419
  48   1 H      0.057  0.943  0.000  0.000     2.229     2.335
  49   1 H      0.020  0.980  0.000  0.000     2.735     2.586
  50   7 N     -0.208  1.260  3.948  0.000    25.524     7.503
  51   6 C      0.043  1.054  2.903  0.000    19.835     6.339
  52   6 C      0.284  1.041  2.675  0.000    22.182     7.713
  53   8 O     -0.485  1.745  4.740  0.000    23.455     6.493
  54   6 C     -0.123  1.081  3.043  0.000    22.857     6.807
  55   6 C      0.371  1.021  2.608  0.000    20.707     7.447
  56   8 O     -0.612  1.757  4.855  0.000    26.410     6.890
  57   8 O     -0.633  1.790  4.843  0.000    26.955     6.961
  58   1 H      0.209  0.791  0.000  0.000     1.061     1.614
  59   1 H      0.023  0.977  0.000  0.000     2.695     2.567
  60   1 H      0.071  0.929  0.000  0.000     2.076     2.253
  61   1 H      0.052  0.948  0.000  0.000     2.297     2.370
  62   7 N     -0.159  1.228  3.931  0.000    24.436     7.342
  63   6 C      0.002  1.065  2.932  0.000    20.550     6.455
  64   6 C      0.281  1.043  2.677  0.000    22.249     7.724
  65   8 O     -0.460  1.749  4.711  0.000    22.909     6.417
  66   6 C     -0.095  1.063  3.032  0.000    22.304     6.723
  67   6 C     -0.097  1.057  3.040  0.000    22.360     6.732
  68   6 C     -0.101  1.052  3.049  0.000    22.423     6.742
  69   6 C     -0.059  1.065  2.994  0.000    21.734     6.655
  70   7 N     -0.136  1.225  3.911  0.000    23.944     7.268
  71   1 H      0.198  0.802  0.000  0.000     1.119     1.657
  72   1 H      0.090  0.910  0.000  0.000     1.877     2.142
  73   1 H      0.075  0.925  0.000  0.000     2.034     2.231
  74   1 H      0.087  0.913  0.000  0.000     1.911     2.162
  75   1 H      0.051  0.949  0.000  0.000     2.303     2.373
  76   1 H      0.100  0.900  0.000  0.000     1.789     2.092
  77   1 H      0.103  0.897  0.000  0.000     1.755     2.072
  78   1 H      0.064  0.936  0.000  0.000     2.157     2.297
  79   1 H      0.140  0.860  0.000  0.000     1.464     1.892
  80   1 H      0.121  0.879  0.000  0.000     1.602     1.979
  81   1 H      0.304  0.696  0.000  0.000     0.702     1.313
  82   1 H      0.273  0.727  0.000  0.000     0.800     1.401
  83   1 H      0.281  0.719  0.000  0.000     0.774     1.378
  84   7 N     -0.196  1.266  3.929  0.000    25.249     7.463
  85   6 C      0.012  1.064  2.924  0.000    20.375     6.427
  86   6 C      0.268  1.041  2.691  0.000    22.476     7.763
  87   8 O     -0.478  1.747  4.731  0.000    23.307     6.473
  88   6 C      0.120  1.049  2.831  0.000    18.723     6.178
  89   8 O     -0.492  1.724  4.767  0.000    22.711     6.433
  90   6 C     -0.131  1.042  3.089  0.000    23.081     6.851
  91   1 H      0.213  0.787  0.000  0.000     1.044     1.601
  92   1 H      0.088  0.912  0.000  0.000     1.896     2.153
  93   1 H      0.036  0.964  0.000  0.000     2.506     2.476
  94   1 H      0.332  0.668  0.000  0.000     0.633     1.249
  95   1 H      0.053  0.947  0.000  0.000     2.285     2.364
  96   1 H      0.060  0.940  0.000  0.000     2.199     2.319
  97   1 H      0.055  0.945  0.000  0.000     2.256     2.349
  98   7 N     -0.163  1.239  3.924  0.000    24.518     7.354
  99   6 C      0.010  1.067  2.923  0.000    20.416     6.435
 100   6 C      0.263  1.046  2.691  0.000    22.557     7.777
 101   8 O     -0.453  1.723  4.730  0.000    22.760     6.396
 102   6 C     -0.075  1.056  3.019  0.000    21.933     6.668
 103   6 C     -0.083  1.052  3.031  0.000    22.086     6.691
 104   6 C     -0.092  1.054  3.038  0.000    22.256     6.717
 105   6 C     -0.055  1.062  2.994  0.000    21.665     6.644
 106   7 N     -0.148  1.230  3.918  0.000    24.181     7.303
 107   1 H      0.223  0.777  0.000  0.000     0.996     1.563
 108   1 H      0.065  0.935  0.000  0.000     2.143     2.289
 109   1 H      0.063  0.937  0.000  0.000     2.168     2.302
 110   1 H      0.057  0.943  0.000  0.000     2.234     2.337
 111   1 H      0.057  0.943  0.000  0.000     2.235     2.338
 112   1 H      0.079  0.921  0.000  0.000     1.985     2.203
 113   1 H      0.077  0.923  0.000  0.000     2.007     2.215
 114   1 H      0.071  0.929  0.000  0.000     2.079     2.255
 115   1 H      0.119  0.881  0.000  0.000     1.625     1.994
 116   1 H      0.129  0.871  0.000  0.000     1.539     1.940
 117   1 H      0.304  0.696  0.000  0.000     0.702     1.313
 118   1 H      0.296  0.704  0.000  0.000     0.725     1.333
 119   1 H      0.292  0.708  0.000  0.000     0.736     1.344
 120   7 N     -0.153  1.236  3.917  0.000    24.301     7.321
 121   6 C      0.029  1.060  2.912  0.000    20.105     6.386
 122   6 C      0.200  1.088  2.711  0.000    23.734     7.979
 123   8 O     -0.372  1.763  4.609  0.000    21.138     6.164
 124   6 C     -0.068  1.054  3.014  0.000    21.787     6.643
 125   6 C      0.017  1.077  2.906  0.000    27.633     8.623
 126   6 C     -0.037  1.078  2.959  0.000    28.914     8.818
 127   6 C     -0.038  1.081  2.957  0.000    28.947     8.823
 128   6 C     -0.027  1.078  2.949  0.000    28.666     8.780
 129   6 C     -0.035  1.079  2.957  0.000    28.878     8.812
 130   6 C     -0.034  1.079  2.955  0.000    28.842     8.807
 131   1 H      0.199  0.801  0.000  0.000     1.111     1.651
 132   1 H      0.109  0.891  0.000  0.000     1.709     2.044
 133   1 H      0.058  0.942  0.000  0.000     2.226     2.333
 134   1 H      0.062  0.938  0.000  0.000     2.178     2.308
 135   1 H      0.023  0.977  0.000  0.000     2.682     2.561
 136   1 H      0.049  0.951  0.000  0.000     2.335     2.389
 137   1 H      0.020  0.980  0.000  0.000     2.730     2.584
 138   1 H      0.057  0.943  0.000  0.000     2.233     2.337
 139   1 H      0.040  0.960  0.000  0.000     2.448     2.446
 140   7 N     -0.397  1.301  4.096  0.000    30.281     8.173
 141   6 C      0.023  1.065  2.913  0.000    20.206     6.402
 142   6 C      0.258  1.049  2.693  0.000    22.650     7.794
 143   8 O     -0.483  1.748  4.735  0.000    23.418     6.488
 144   6 C     -0.022  1.064  2.958  0.000    20.938     6.508
 145   6 C     -0.055  1.046  3.009  0.000    21.559     6.610
 146   6 C     -0.120  1.041  3.080  0.000    22.852     6.815
 147   6 C     -0.111  1.036  3.074  0.000    22.677     6.791
 148   1 H      0.161  0.839  0.000  0.000     1.326     1.804
 149   1 H      0.035  0.965  0.000  0.000     2.515     2.480
 150   1 H      0.039  0.961  0.000  0.000     2.460     2.453
 151   1 H      0.031  0.969  0.000  0.000     2.579     2.511
 152   1 H      0.034  0.966  0.000  0.000     2.537     2.491
 153   1 H      0.051  0.949  0.000  0.000     2.303     2.373
 154   1 H      0.054  0.946  0.000  0.000     2.275     2.359
 155   1 H      0.036  0.964  0.000  0.000     2.504     2.475
 156   1 H      0.031  0.969  0.000  0.000     2.573     2.509
 157   1 H      0.043  0.957  0.000  0.000     2.406     2.426
 158   1 H      0.042  0.958  0.000  0.000     2.425     2.435
 159   7 N     -0.176  1.242  3.934  0.000    24.814     7.398
 160   6 C      0.008  1.069  2.923  0.000    20.436     6.435
 161   6 C      0.275  1.044  2.682  0.000    22.356     7.743
 162   8 O     -0.482  1.752  4.730  0.000    23.396     6.485
 163   6 C     -0.035  1.071  2.964  0.000    21.157     6.542
 164   6 C     -0.069  1.053  3.016  0.000    21.824     6.651
 165   6 C     -0.121  1.041  3.080  0.000    22.869     6.819
 166   6 C     -0.117  1.039  3.078  0.000    22.796     6.808
 167   1 H      0.214  0.786  0.000  0.000     1.036     1.595
 168   1 H      0.090  0.910  0.000  0.000     1.882     2.145
 169   1 H      0.066  0.934  0.000  0.000     2.128     2.281
 170   1 H      0.051  0.949  0.000  0.000     2.302     2.372
 171   1 H      0.049  0.951  0.000  0.000     2.330     2.387
 172   1 H      0.062  0.938  0.000  0.000     2.171     2.304
 173   1 H      0.043  0.957  0.000  0.000     2.406     2.426
 174   1 H      0.039  0.961  0.000  0.000     2.462     2.454
 175   1 H      0.042  0.958  0.000  0.000     2.421     2.433
 176   1 H      0.041  0.959  0.000  0.000     2.437     2.441
 177   1 H      0.045  0.955  0.000  0.000     2.389     2.417
 178   7 N     -0.183  1.244  3.940  0.000    24.969     7.421
 179   6 C      0.014  1.061  2.925  0.000    20.341     6.421
 180   6 C      0.278  1.039  2.683  0.000    22.292     7.732
 181   8 O     -0.493  1.759  4.734  0.000    23.628     6.517
 182   6 C     -0.093  1.060  3.033  0.000    22.268     6.718
 183   6 C     -0.082  1.049  3.033  0.000    22.063     6.687
 184   6 C     -0.029  1.053  2.976  0.000    21.170     6.565
 185   7 N     -0.133  1.206  3.927  0.000    23.889     7.259
 186   6 C      0.233  1.018  2.750  0.000    23.123     7.873
 187   7 N     -0.248  1.235  4.013  0.000    26.451     7.638
 188   7 N     -0.266  1.242  4.023  0.000    26.880     7.700
 189   1 H      0.227  0.773  0.000  0.000     0.976     1.548
 190   1 H      0.083  0.917  0.000  0.000     1.947     2.182
 191   1 H      0.093  0.907  0.000  0.000     1.852     2.128
 192   1 H      0.074  0.926  0.000  0.000     2.045     2.236
 193   1 H      0.063  0.937  0.000  0.000     2.167     2.302
 194   1 H      0.073  0.927  0.000  0.000     2.055     2.242
 195   1 H      0.094  0.906  0.000  0.000     1.841     2.122
 196   1 H      0.085  0.915  0.000  0.000     1.932     2.174
 197   1 H      0.236  0.764  0.000  0.000     0.940     1.519
 198   1 H      0.243  0.757  0.000  0.000     0.913     1.496
 199   1 H      0.248  0.752  0.000  0.000     0.890     1.478
 200   1 H      0.252  0.748  0.000  0.000     0.874     1.464
 201   1 H      0.249  0.751  0.000  0.000     0.888     1.476
 202   7 N     -0.177  1.246  3.931  0.000    24.841     7.402
 203   6 C      0.018  1.062  2.920  0.000    20.279     6.413
 204   6 C      0.297  1.032  2.671  0.000    21.968     7.675
 205   8 O     -0.506  1.760  4.747  0.000    23.921     6.557
 206   6 C      0.076  1.041  2.882  0.000    19.522     6.330
 207   8 O     -0.472  1.728  4.744  0.000    22.294     6.374
 208   1 H      0.210  0.790  0.000  0.000     1.056     1.610
 209   1 H      0.065  0.935  0.000  0.000     2.140     2.288
 210   1 H      0.045  0.955  0.000  0.000     2.384     2.415
 211   1 H      0.052  0.948  0.000  0.000     2.293     2.368
 212   1 H      0.347  0.653  0.000  0.000     0.596     1.212
 213   7 N     -0.172  1.241  3.932  0.000    24.726     7.385
 214   6 C      0.025  1.056  2.919  0.000    20.150     6.391
 215   6 C      0.277  1.044  2.679  0.000    22.306     7.734
 216   8 O     -0.516  1.761  4.755  0.000    24.135     6.587
 217   6 C     -0.075  1.055  3.020  0.000    21.919     6.664
 218   6 C     -0.088  1.057  3.031  0.000    22.176     6.705
 219   6 C     -0.025  1.054  2.971  0.000    21.102     6.555
 220   7 N     -0.138  1.212  3.926  0.000    23.992     7.275
 221   6 C      0.226  1.023  2.751  0.000    23.251     7.895
 222   7 N     -0.224  1.227  3.997  0.000    25.910     7.560
 223   7 N     -0.242  1.231  4.011  0.000    26.314     7.619
 224   1 H      0.235  0.765  0.000  0.000     0.945     1.523
 225   1 H      0.071  0.929  0.000  0.000     2.079     2.255
 226   1 H      0.067  0.933  0.000  0.000     2.117     2.275
 227   1 H      0.063  0.937  0.000  0.000     2.159     2.298
 228   1 H      0.063  0.937  0.000  0.000     2.164     2.300
 229   1 H      0.085  0.915  0.000  0.000     1.930     2.172
 230   1 H      0.093  0.907  0.000  0.000     1.847     2.125
 231   1 H      0.081  0.919  0.000  0.000     1.966     2.192
 232   1 H      0.241  0.759  0.000  0.000     0.918     1.501
 233   1 H      0.227  0.773  0.000  0.000     0.978     1.549
 234   1 H      0.226  0.774  0.000  0.000     0.984     1.554
 235   1 H      0.249  0.751  0.000  0.000     0.886     1.475
 236   1 H      0.254  0.746  0.000  0.000     0.867     1.458
 237   7 N     -0.172  1.238  3.933  0.000    24.716     7.384
 238   6 C      0.029  1.060  2.911  0.000    20.097     6.384
 239   6 C      0.197  1.086  2.717  0.000    23.794     7.988
 240   8 O     -0.363  1.759  4.604  0.000    20.951     6.137
 241   6 C     -0.069  1.054  3.016  0.000    21.804     6.644
 242   6 C     -0.006  1.066  2.940  0.000    20.693     6.478
 243  16 S     -0.241  1.928  4.257  0.056   151.367    20.707
 244   6 C     -0.066  1.055  3.012  0.000    21.842     6.667
 245   1 H      0.214  0.786  0.000  0.000     1.035     1.594
 246   1 H      0.085  0.915  0.000  0.000     1.925     2.170
 247   1 H      0.076  0.924  0.000  0.000     2.021     2.223
 248   1 H      0.067  0.933  0.000  0.000     2.114     2.274
 249   1 H      0.034  0.966  0.000  0.000     2.524     2.485
 250   1 H      0.070  0.930  0.000  0.000     2.081     2.256
 251   1 H      0.080  0.920  0.000  0.000     1.979     2.200
 252   1 H      0.066  0.934  0.000  0.000     2.130     2.282
 253   1 H      0.073  0.927  0.000  0.000     2.048     2.238
 254   7 N     -0.384  1.309  4.075  0.000    29.922     8.124
 255   6 C      0.040  1.055  2.905  0.000    19.924     6.358
 256   6 C      0.201  1.083  2.717  0.000    23.731     7.978
 257   8 O     -0.390  1.767  4.623  0.000    21.491     6.215
 258   6 C     -0.077  1.057  3.020  0.000    21.964     6.670
 259   6 C      0.005  1.072  2.923  0.000    27.917     8.667
 260   6 C     -0.040  1.080  2.960  0.000    29.004     8.832
 261   6 C     -0.041  1.084  2.957  0.000    29.018     8.834
 262   6 C     -0.071  1.076  2.995  0.000    29.773     8.948
 263   6 C     -0.054  1.074  2.981  0.000    29.352     8.884
 264   6 C      0.146  1.044  2.810  0.000    24.828     8.167
 265   8 O     -0.429  1.718  4.711  0.000    21.411     6.247
 266   1 H      0.155  0.845  0.000  0.000     1.368     1.832
 267   1 H      0.069  0.931  0.000  0.000     2.094     2.263
 268   1 H      0.063  0.937  0.000  0.000     2.170     2.303
 269   1 H      0.076  0.924  0.000  0.000     2.025     2.225
 270   1 H      0.049  0.951  0.000  0.000     2.337     2.391
 271   1 H      0.042  0.958  0.000  0.000     2.423     2.434
 272   1 H      0.032  0.968  0.000  0.000     2.552     2.498
 273   1 H      0.045  0.955  0.000  0.000     2.389     2.417
 274   1 H      0.319  0.681  0.000  0.000     0.665     1.281
 275   7 N     -0.404  1.338  4.066  0.000    30.475     8.199
 276   6 C      0.032  1.057  2.911  0.000    20.050     6.378
 277   6 C      0.196  1.098  2.705  0.000    23.816     7.992
 278   8 O     -0.403  1.777  4.626  0.000    21.743     6.252
 279   6 C     -0.023  1.063  2.959  0.000    20.945     6.509
 280   6 C     -0.136  1.049  3.087  0.000    23.159     6.860
 281   6 C     -0.138  1.045  3.093  0.000    23.204     6.867
 282   1 H      0.189  0.811  0.000  0.000     1.162     1.689
 283   1 H      0.051  0.949  0.000  0.000     2.308     2.376
 284   1 H      0.030  0.970  0.000  0.000     2.589     2.516
 285   1 H      0.058  0.942  0.000  0.000     2.224     2.332
 286   1 H      0.024  0.976  0.000  0.000     2.669     2.555
 287   1 H      0.070  0.930  0.000  0.000     2.090     2.261
 288   1 H      0.052  0.948  0.000  0.000     2.297     2.370
 289   1 H      0.067  0.933  0.000  0.000     2.118     2.276
 290   1 H      0.060  0.940  0.000  0.000     2.197     2.318
 291   1 H      0.183  0.817  0.000  0.000     1.199     1.715
 292   1 H      0.057  0.943  0.000  0.000     2.236     2.338
 293   1 H      0.176  0.824  0.000  0.000     1.238     1.743
 294   1 H      0.081  0.919  0.000  0.000     1.972     2.196
 295   1 H      0.178  0.822  0.000  0.000     1.227     1.735
 296   1 H      0.078  0.922  0.000  0.000     2.002     2.213
 297   1 H      0.189  0.811  0.000  0.000     1.162     1.688
 298   1 H      0.066  0.934  0.000  0.000     2.132     2.283
 299   1 H      0.205  0.795  0.000  0.000     1.083     1.630
 300   1 H      0.061  0.939  0.000  0.000     2.183     2.310

 Mol. C6AA /au·bohr⁶  :     789215.871606
 Mol. C8AA /au·bohr⁸  :   17664571.950857
 Mol. α(0) /au        :       1334.990619

 
molecular dipole:
                 x           y           z       tot (Debye)
 q only:       54.938     167.684     441.197
   full:       55.075     167.188     441.846    1208.928
molecular quadrupole (traceless):
                xx          xy          yy          xz          yz          zz
 q only:   -36956.113    4716.694  -23807.114   12423.479   36203.138   60763.227
  q+dip:   -36994.701    4724.220  -23963.736   12443.300   36138.847   60958.437
   full:   -36996.345    4724.195  -23963.169   12444.463   36137.481   60959.514
speedup  1.55
cpu  time for grad   14.04 s
wall time for grad    9.04 s

SCC energy    :    -441.4870812
rep           :       5.5548377
ES            :       1.5603424
AES           :      -0.0616590
AXC           :       0.1788387
disp          :      -0.3559665
XB            :       0.0000000
fix           :       0.0000000
Gborn         :       0.0000000
Gsasa         :       0.0000000
Ghb           :       0.0000000
Gshift        :       0.0000000
Gsolv         :      -0.7002881     -439.44
Etot ala COSMO:    -441.4870812
grad norm     :       0.5135403
total E       :    -435.9023272
atomizationE  :      81.1200797    50903.62
(atE without considering molecular charge,
 total energy contains solvation terms)
H-L gap (eV)  :          1.0953

------------------------------------------------------------------------
 * finished run on 2019/05/10 at 01:44:18.360     
------------------------------------------------------------------------
 total:
 * wall-time:     0 d,  0 h,  0 min,  9.876 sec
 *  cpu-time:     0 d,  0 h,  0 min, 15.060 sec
 * ratio c/w:     1.525 speedup
 SCF:
 * wall-time:     0 d,  0 h,  0 min,  9.491 sec
 *  cpu-time:     0 d,  0 h,  0 min, 14.792 sec
 * ratio c/w:     1.559 speedup

