      -----------------------------------------------------------      
     |                   =====================                   |     
     |                           x T B                           |     
     |                   =====================                   |     
     |                         S. Grimme                         |     
     |          Mulliken Center for Theoretical Chemistry        |     
     |                    University of Bonn                     |     
     |                 Version 6.0.1 (SAW181210)                 |     
      -----------------------------------------------------------      

   This program is distributed in the hope that it will be useful,
   but WITHOUT ANY WARRANTY; without even the implied warranty of
   MERCHANTABILITY or FITNESS FOR A PARTICULAR PURPOSE.
   
   FOR NON-COMMERCIAL, ACADEMIA USE ONLY.
   
   Cite this work as:
   S. Grimme, C. Bannwarth, P. Shushkov, J. Comput. Theory Chem., 2017,
   13, 1989-2009.
   C. Bannwarth, S. Ehlert and S. Grimme., ChemRxiv, 2018, preprint.
   http://doi.org/10.26434/chemrxiv.7246238.v1
   
   for sTDA-xTB:
   S. Grimme and C. Bannwarth, J. Chem. Phys., 2016, 145, 054103.
   
   in the mass-spec context:
   V. Asgeirsson, C. Bauer and S. Grimme, Chem. Sci., 2017, 8, 4879.
   
   if GBSA is used:
   P. Shushkov, F. März and S. Grimme, unpublished.
   
   for ANC optimizer:
   S. Grimme, unpublished.
   Rational Function algorithm used in ANCopt:
   F. Eckert, P. Pulay, H.-J. Werner, J. Comput. Chem., 1997, 18, 1473.
   
   with help from (in alphabetical order)
   C. Bannwarth, F. Bohle, G. Brandenburg, E. Caldeweyher, M. Checinski,
   S. Dohm, S. Ehlert, S. Ehrlich, F. März, H. Neugebauer, J. Pisarek,
   P. Pracht, P. Shushkov, and S. Spicher.
   
 * started run on 2019/05/06 at 14:40:32.555     
========================================================================
 # omp threads = 2
========================================================================
number of atoms            : 770
number of electrons        : 2078
charge                     : -5
spin                       : .0
first test random number   : .7525

########################################################################
# WARNING! Please study the warnings concerning your input carefully
#  - Process number higher than OMP_NUM_THREADS, I hope you know what you are doing.
########################################################################

           ------------------------------------------------- 
          |                 G F N 2 - x T B                 |
          | Geometry, Frequencies, Noncovalent interactions |
          |            JCTC 2018 parametrisation            |
           ------------------------------------------------- 
 
      method parameters     
 k(s)        :  1.8500
 k(p)        :  2.2300
 k(d)        :  2.2300
 k(f)        :  2.0000
 kEN (H0ij)  : -2.0000
 D4 a1       :  0.5200
 D4 a2       :  5.0000
 D4 s6       :  1.0000
 D4 s8       :  2.7000
 D4 s9       :  5.0000
 alphaj      :  2.0000

 Solvent             : h2o
 Using internal parameter file: .param_gbsa2_h2o
 Gsolv ref. state (COSMO-RS): gsolv [1 M gas/solution]
 temperature (mdtemp)       :    298.150000000000     
 dielectric constant        :    80.2000000000000     
 rho                        :    1.00000000000000     
 mass                       :    18.0000000000000     
 surface tension            :    15.5689454083859     
 probe radius               :   0.975313790000000     
 vdW radii scaling          :    1.00000000000000     
 Gshift (Eh)                :   1.857443126794793E-003
 c1                         :    1.55243817000000     
 soset                      :   0.130326360000000     
 HB correction              :  T

            Z     q(EN)     CN     RAES       Cart. coordinates
     1  N   5.0   -0.23    3.15    1.95   134.50778   105.96767   392.40665
     2  C   4.0    0.02    4.25    4.10   132.83118   104.15676   391.09130
     3  C   4.0    0.14    3.43    3.09   131.71166   101.96172   392.68221
     4  O   6.0   -0.32    1.27    1.80   129.40912   101.59908   392.74801
     5  C   4.0   -0.05    4.30    4.19   134.33494   103.02903   388.81304
     6  C   4.0   -0.02    3.53    3.13   132.61249   101.78950   386.87784
     7  C   4.0   -0.04    3.45    3.09   131.66671    99.34856   387.19034
     8  C   4.0   -0.06    3.46    3.10   131.87937   103.16589   384.75179
     9  C   4.0   -0.05    3.37    3.07   129.96982    98.35424   385.45957
    10  C   4.0   -0.05    3.37    3.07   130.15161   102.18815   383.05241
    11  C   4.0   -0.05    3.37    3.07   129.16485    99.78961   383.42240
    12  H   1.0    0.06    1.03    1.43   135.64799   106.93545   391.20737
    13  H   1.0    0.04    1.05    1.44   131.16597   105.16705   390.37564
    14  H   1.0    0.02    1.03    1.43   135.33586   104.57692   387.89560
    15  H   1.0    0.03    1.03    1.43   135.68219   101.65464   389.54583
    16  H   1.0    0.06    1.03    1.43   132.20717    98.20892   388.79563
    17  H   1.0    0.03    1.03    1.43   132.64230   105.03567   384.45559
    18  H   1.0    0.05    1.03    1.43   129.30654    96.44374   385.71472
    19  H   1.0    0.05    1.03    1.43   129.58033   103.30489   381.44320
    20  H   1.0    0.06    1.03    1.43   127.76774    99.05573   382.13200
    21  N   5.0   -0.16    3.51    2.09   133.34120   100.32986   393.73120
    22  C   4.0    0.04    4.54    4.59   132.28528    98.13848   394.95301
    23  C   4.0    0.15    3.41    3.08   130.67478    98.89454   397.22288
    24  O   6.0   -0.30    1.20    1.80   128.96674    97.56308   398.05352
    25  C   4.0   -0.05    4.29    4.18   134.37051    96.22327   395.48615
    26  C   4.0   -0.05    4.19    3.99   134.64135    94.59604   393.14610
    27  C   4.0    0.23    3.15    3.03   132.01293    93.24376   392.66434
    28  O   6.0   -0.31    1.19    1.80   130.80061    92.61829   394.60312
    29  O   6.0   -0.32    1.15    1.80   131.42623    92.93286   390.39764
    30  H   1.0    0.06    1.05    1.44   135.23434   100.62938   393.76066
    31  H   1.0    0.07    1.10    1.44   130.92402    97.27018   393.64825
    32  H   1.0    0.02    1.02    1.43   136.10513    97.19323   396.02189
    33  H   1.0    0.05    1.04    1.43   133.75479    94.99104   397.02063
    34  H   1.0    0.04    1.02    1.43   135.09702    95.68463   391.46267
    35  H   1.0    0.02    1.02    1.43   136.04810    93.11261   393.40475
    36  N   5.0   -0.15    3.48    2.06   131.40894   101.09436   398.31835
    37  C   4.0    0.03    4.33    4.26   130.20019   102.12321   400.55855
    38  C   4.0    0.15    3.44    3.09   127.69446   103.48707   400.08658
    39  O   6.0   -0.32    1.29    1.80   125.92040   103.15042   401.52020
    40  C   4.0   -0.08    4.12    3.85   131.91740   103.98685   401.92772
    41  H   1.0    0.07    1.08    1.44   132.59500   102.29332   397.41964
    42  H   1.0    0.05    1.06    1.44   129.74670   100.52635   401.79928
    43  H   1.0    0.04    1.01    1.43   130.91379   104.72487   403.55532
    44  H   1.0    0.03    1.00    1.43   133.66173   103.09485   402.53261
    45  H   1.0    0.04    1.00    1.43   132.37570   105.57978   400.71569
    46  N   5.0   -0.14    3.52    2.09   127.64073   104.94747   398.02371
    47  C   4.0    0.03    4.50    4.54   125.35510   106.19816   397.18465
    48  C   4.0    0.15    3.50    3.11   123.39384   104.10934   396.70857
    49  O   6.0   -0.32    1.29    1.80   121.20985   104.31322   397.48984
    50  C   4.0   -0.03    4.26    4.11   125.87117   107.96545   394.96281
    51  C   4.0   -0.08    4.15    3.91   123.38622   108.78857   393.81530
    52  C   4.0   -0.08    4.13    3.85   127.31726   110.27301   395.88965
    53  H   1.0    0.08    1.07    1.44   129.28065   105.29880   397.10057
    54  H   1.0    0.06    1.06    1.44   124.55719   107.33176   398.73268
    55  H   1.0    0.04    1.05    1.44   126.99647   106.94077   393.55430
    56  H   1.0    0.03    1.00    1.43   123.68283   110.08818   392.25079
    57  H   1.0    0.04    1.01    1.43   122.31035   107.16693   393.16425
    58  H   1.0    0.05    1.00    1.43   122.26697   109.76668   395.23781
    59  H   1.0    0.03    1.00    1.43   127.61840   111.63007   394.37496
    60  H   1.0    0.05    1.00    1.43   126.24862   111.24403   397.35189
    61  H   1.0    0.04    1.00    1.43   129.13966   109.76613   396.70006
    62  N   5.0   -0.14    3.45    2.05   124.21729   101.98483   395.58205
    63  C   4.0    0.04    4.53    4.58   122.46322    99.85051   395.39906
    64  C   4.0    0.16    3.51    3.12   121.37885    99.09315   397.97589
    65  O   6.0   -0.32    1.27    1.80   119.10031    98.65228   398.16761
    66  C   4.0   -0.02    4.33    4.26   123.49121    97.50241   394.04313
    67  C   4.0   -0.05    4.19    3.99   124.35967    98.21392   391.38361
    68  C   4.0   -0.07    4.17    3.94   121.37113    95.54288   394.08010
    69  C   4.0   -0.07    4.02    3.66   125.66591    96.05035   390.02578
    70  H   1.0    0.10    1.07    1.44   125.98340   101.81994   394.86826
    71  H   1.0    0.05    1.06    1.44   120.81868   100.53714   394.32478
    72  H   1.0    0.06    1.05    1.44   125.12405    96.78370   395.09696
    73  H   1.0    0.04    1.03    1.43   122.71141    98.80073   390.28710
    74  H   1.0    0.06    1.04    1.43   125.66447    99.79893   391.48485
    75  H   1.0    0.04    1.00    1.43   121.95038    93.87285   393.04328
    76  H   1.0    0.05    1.01    1.43   120.94617    95.00203   396.00953
    77  H   1.0    0.04    1.00    1.43   119.67608    96.32211   393.22354
    78  H   1.0    0.04    1.01    1.43   126.30090    96.68500   388.18588
    79  H   1.0    0.07    1.00    1.43   127.30840    95.39121   391.06692
    80  H   1.0    0.04    1.00    1.43   124.39664    94.45674   389.76789
    81  N   5.0   -0.14    3.41    2.03   123.05654    98.66995   399.85907
    82  C   4.0    0.04    4.34    4.27   122.16481    98.01907   402.40364
    83  C   4.0    0.16    3.46    3.10   120.19726    99.96330   403.37711
    84  O   6.0   -0.31    1.27    1.80   118.14777    99.29105   404.25799
    85  C   4.0   -0.05    4.19    3.97   124.29853    97.70552   404.36701
    86  C   4.0   -0.05    4.07    3.74   124.77010    94.97846   405.34839
    87  C   4.0   -0.06    4.05    3.72   126.80807    94.78792   407.52553
    88  C   4.0   -0.06    4.03    3.68   128.90937    92.74634   407.19450
    89  N   5.0   -0.13    3.96    2.75   130.31577    92.80654   404.65788
    90  H   1.0    0.10    1.07    1.44   124.86736    99.22837   399.65797
    91  H   1.0    0.05    1.05    1.44   121.09784    96.24255   402.23022
    92  H   1.0    0.05    1.02    1.43   126.02425    98.51155   403.57455
    93  H   1.0    0.05    1.03    1.43   123.83139    98.90859   405.99616
    94  H   1.0    0.04    1.02    1.43   122.98811    94.23509   406.04623
    95  H   1.0    0.04    1.02    1.43   125.37080    93.86030   403.72188
    96  H   1.0    0.04    1.02    1.43   127.68545    96.64316   407.75043
    97  H   1.0    0.03    1.02    1.43   125.87194    94.40211   409.31561
    98  H   1.0    0.02    1.02    1.43   130.29103    93.04534   408.69126
    99  H   1.0    0.02    1.02    1.43   128.07282    90.87349   407.37232
   100  H   1.0    0.03    1.02    1.43   131.60519    91.34677   404.60604
   101  H   1.0    0.05    1.01    1.43   129.07366    92.65039   403.16297
   102  H   1.0    0.05    1.02    1.43   131.26369    94.49708   404.48615
   103  N   5.0   -0.13    3.52    2.09   120.74978   102.42448   403.05035
   104  C   4.0    0.04    4.58    4.64   119.19269   104.22053   404.37453
   105  C   4.0    0.15    3.56    3.14   116.57027   104.26958   403.19309
   106  O   6.0   -0.32    1.31    1.80   114.61899   104.34167   404.49026
   107  C   4.0   -0.02    4.32    4.23   120.24035   106.86952   404.15269
   108  C   4.0   -0.06    4.16    3.91   118.33968   108.75196   405.22776
   109  C   4.0   -0.06    4.12    3.85   122.74182   107.07577   405.54053
   110  H   1.0    0.11    1.10    1.44   122.50165   102.97088   402.49635
   111  H   1.0    0.06    1.05    1.44   119.00773   103.75660   406.40468
   112  H   1.0    0.06    1.05    1.44   120.55337   107.36582   402.15478
   113  H   1.0    0.04    1.00    1.43   119.14591   110.64936   405.36110
   114  H   1.0    0.05    1.00    1.43   116.58493   108.87999   404.13179
   115  H   1.0    0.05    0.99    1.43   117.84625   108.29227   407.18778
   116  H   1.0    0.06    1.00    1.43   123.49864   108.98597   405.38021
   117  H   1.0    0.05    1.00    1.43   122.48281   106.76721   407.56951
   118  H   1.0    0.06    1.00    1.43   124.13486   105.73776   404.81626
   119  N   5.0   -0.14    3.58    2.14   116.54145   104.15006   400.67580
   120  C   4.0    0.03    4.53    4.57   114.17932   104.44113   399.25331
   121  C   4.0    0.16    3.51    3.12   112.54435   102.13832   399.82853
   122  O   6.0   -0.33    1.33    1.80   110.22909   102.21249   400.15633
   123  C   4.0   -0.02    4.41    4.39   114.86357   104.76410   396.48300
   124  C   4.0   -0.05    4.22    4.05   115.67609   107.49297   396.12555
   125  C   4.0   -0.08    4.14    3.87   112.76447   103.92649   394.68006
   126  C   4.0   -0.08    4.08    3.77   116.59122   107.69334   393.41638
   127  H   1.0    0.11    1.10    1.44   118.20272   104.27382   399.70593
   128  H   1.0    0.05    1.05    1.44   113.15935   106.10394   399.97216
   129  H   1.0    0.05    1.07    1.44   116.52831   103.56593   396.15857
   130  H   1.0    0.03    1.02    1.43   114.11206   108.78572   396.49796
   131  H   1.0    0.05    1.03    1.43   117.19329   107.93882   397.46008
   132  H   1.0    0.03    1.00    1.43   113.45438   103.91521   392.75609
   133  H   1.0    0.04    1.01    1.43   112.15959   102.02877   395.17685
   134  H   1.0    0.04    1.00    1.43   111.15355   105.18943   394.83563
   135  H   1.0    0.03    1.00    1.43   117.59093   109.46081   393.12869
   136  H   1.0    0.04    1.01    1.43   117.88647   106.14892   393.03091
   137  H   1.0    0.03    1.00    1.43   114.99916   107.61749   392.13056
   138  N   5.0   -0.15    3.56    2.13   113.79646    99.95697   399.75816
   139  C   4.0    0.04    4.42    4.41   112.58467    97.60896   400.41741
   140  C   4.0    0.17    3.44    3.09   111.34302    97.73348   403.04434
   141  O   6.0   -0.31    1.23    1.80   109.38811    96.56915   403.50055
   142  C   4.0    0.04    4.19    3.98   114.63197    95.59080   400.25967
   143  O   6.0   -0.26    2.08    1.84   113.47357    93.24337   400.47969
   144  H   1.0    0.11    1.10    1.44   115.69882    99.96295   399.58287
   145  H   1.0    0.05    1.05    1.44   111.05330    97.22344   399.06836
   146  H   1.0    0.05    1.02    1.43   115.58345    95.79185   398.42773
   147  H   1.0    0.06    1.01    1.43   116.00221    95.97776   401.76436
   148  H   1.0    0.11    1.02    1.43   114.70512    92.03719   401.09378
   149  N   5.0   -0.13    3.49    2.07   112.54307    99.15462   404.76614
   150  C   4.0    0.05    4.37    4.32   111.42372    99.63562   407.19597
   151  C   4.0    0.17    3.51    3.12   109.23612   101.56705   407.04845
   152  O   6.0   -0.31    1.30    1.80   107.17538   101.05651   408.00638
   153  C   4.0    0.04    4.12    3.83   113.45454   100.50874   409.09982
   154  O   6.0   -0.24    2.07    1.83   112.56563   102.71200   410.40906
   155  H   1.0    0.11    1.09    1.44   114.18857   100.04907   404.38075
   156  H   1.0    0.06    1.05    1.44   110.55394    97.87470   407.88263
   157  H   1.0    0.04    1.01    1.43   113.86461    99.03564   410.48847
   158  H   1.0    0.07    1.01    1.43   115.21252   100.97560   408.09901
   159  H   1.0    0.13    1.02    1.43   113.79691   103.22594   411.65293
   160  N   5.0   -0.13    3.52    2.09   109.54028   103.57663   405.55345
   161  C   4.0    0.04    4.39    4.37   107.44365   105.33782   405.40835
   162  C   4.0    0.16    3.57    3.15   105.18305   103.93014   404.35959
   163  O   6.0   -0.32    1.31    1.80   103.04527   104.50497   405.00928
   164  C   4.0   -0.07    4.11    3.83   107.91275   107.58132   403.68792
   165  H   1.0    0.12    1.11    1.45   111.31168   104.14385   405.11139
   166  H   1.0    0.05    1.05    1.44   106.94027   106.00368   407.32182
   167  H   1.0    0.04    1.00    1.43   106.22773   108.75381   403.63156
   168  H   1.0    0.04    1.00    1.43   109.47442   108.72105   404.40961
   169  H   1.0    0.05    1.00    1.43   108.37190   106.91802   401.79398
   170  N   5.0   -0.14    3.56    2.12   105.63757   102.17018   402.61667
   171  C   4.0    0.04    4.60    4.67   103.49905   100.81915   401.58924
   172  C   4.0    0.16    3.57    3.15   102.20372    99.17316   403.53236
   173  O   6.0   -0.30    1.42    1.80    99.89818    99.18525   403.66391
   174  C   4.0   -0.04    4.14    3.89   104.11779    99.14792   399.36338
   175  S   6.0   -0.06    2.40    3.10   104.85074   101.19891   396.75227
   176  H   1.0    0.12    1.12    1.45   107.42909   101.86603   401.99321
   177  H   1.0    0.05    1.09    1.44   102.12130   102.27815   401.04529
   178  H   1.0    0.06    1.06    1.44   105.70533    97.90969   399.78730
   179  H   1.0    0.05    1.08    1.44   102.47353    98.02668   398.82900
   180  H   1.0    0.07    1.00    1.43   107.06414   101.99361   397.63787
   181  N   5.0   -0.14    3.46    2.05   103.56837    97.53557   404.86747
   182  C   4.0    0.04    4.46    4.48   102.13120    95.98466   406.64881
   183  C   4.0    0.17    3.45    3.09   100.24495    97.57311   408.22582
   184  O   6.0   -0.29    1.20    1.80    98.10978    96.82894   408.72945
   185  C   4.0   -0.05    4.19    3.98   103.83299    94.23365   408.22735
   186  C   4.0   -0.06    4.15    3.90   104.02104    91.60835   406.95860
   187  C   4.0   -0.05    4.14    3.88   106.27465    91.22390   405.14832
   188  C   4.0   -0.04    4.13    3.86   105.62362    89.50309   402.90925
   189  N   5.0   -0.12    4.04    2.96   107.92004    88.03432   402.17956
   190  H   1.0    0.10    1.06    1.44   105.48468    97.58444   404.94798
   191  H   1.0    0.06    1.07    1.44   100.85939    94.82946   405.48317
   192  H   1.0    0.05    1.02    1.43   105.68162    95.11698   408.46264
   193  H   1.0    0.04    1.03    1.43   103.00994    94.05437   410.10791
   194  H   1.0    0.03    1.03    1.43   104.10285    90.19336   408.45017
   195  H   1.0    0.04    1.04    1.43   102.25979    91.31280   405.93645
   196  H   1.0    0.07    1.03    1.43   106.99215    93.03328   404.48148
   197  H   1.0    0.03    1.03    1.43   107.78056    90.36751   406.27048
   198  H   1.0    0.03    1.02    1.43   104.11563    88.19613   403.40847
   199  H   1.0    0.06    1.03    1.43   105.11264    90.66293   401.28943
   200  H   1.0    0.05    1.02    1.43   107.57824    87.16662   400.47293
   201  H   1.0    0.07    1.04    1.43   109.34409    89.35733   401.92945
   202  H   1.0    0.04    1.02    1.43   108.38067    86.76365   403.58552
   203  N   5.0   -0.13    3.49    2.07   101.18080    99.81639   408.96748
   204  C   4.0    0.04    4.45    4.47    99.87896   101.48815   410.66120
   205  C   4.0    0.15    3.40    3.08    97.80876   103.17630   409.51735
   206  O   6.0   -0.31    1.25    1.80    95.89652   103.42763   410.76313
   207  C   4.0    0.05    4.24    4.08   101.78952   103.16841   412.08027
   208  O   6.0   -0.26    2.11    1.84   103.88202   101.74046   412.96144
   209  C   4.0   -0.06    4.11    3.82   100.45444   104.40044   414.29490
   210  H   1.0    0.10    1.09    1.44   102.96026   100.29882   408.46037
   211  H   1.0    0.06    1.07    1.44    98.86815   100.32223   412.05452
   212  H   1.0    0.05    1.03    1.43   102.46736   104.64850   410.77420
   213  H   1.0    0.14    1.03    1.43   105.09160   101.50028   411.61144
   214  H   1.0    0.05    1.00    1.43   101.72053   105.68263   415.27952
   215  H   1.0    0.05    1.01    1.43    98.81328   105.44035   413.63807
   216  H   1.0    0.05    1.00    1.43    99.86270   102.96227   415.63684
   217  N   5.0   -0.14    3.46    2.05    98.10259   104.25343   407.22055
   218  C   4.0    0.04    4.40    4.39    96.17686   105.88576   406.11161
   219  C   4.0    0.15    3.38    3.07    94.94659   104.79687   403.68436
   220  O   6.0   -0.31    1.24    1.80    93.28687   105.86890   402.47919
   221  C   4.0   -0.03    4.34    4.28    97.23642   108.50408   405.43336
   222  C   4.0   -0.01    3.58    3.16    98.29855   109.73494   407.72414
   223  C   4.0   -0.05    3.48    3.11    96.78514   110.96636   409.47210
   224  C   4.0   -0.04    3.49    3.11   100.81504   109.44317   408.31895
   225  C   4.0   -0.05    3.44    3.09    97.74860   111.92650   411.69434
   226  C   4.0   -0.05    3.45    3.09   101.79209   110.38210   410.55692
   227  C   4.0    0.06    3.42    3.09   100.30635   111.72258   412.25346
   228  O   6.0   -0.26    2.09    1.84   101.27971   112.90777   414.36064
   229  H   1.0    0.11    1.10    1.44    99.82088   104.20705   406.37499
   230  H   1.0    0.06    1.06    1.44    94.69378   106.10823   407.53892
   231  H   1.0    0.05    1.03    1.43    98.73134   108.26189   404.03380
   232  H   1.0    0.05    1.03    1.43    95.69311   109.60048   404.63171
   233  H   1.0    0.04    1.03    1.43    94.78287   111.20202   409.15311
   234  H   1.0    0.06    1.03    1.43   102.06352   108.44051   407.05027
   235  H   1.0    0.05    1.03    1.43    96.52256   112.88185   413.01611
   236  H   1.0    0.05    1.03    1.43   103.78555   110.16654   410.97990
   237  H   1.0    0.11    1.03    1.43   103.02372   112.43888   414.59563
   238  N   5.0   -0.13    3.52    2.09    95.90434   102.60771   402.89140
   239  C   4.0    0.05    4.56    4.62    95.00319   101.38472   400.61812
   240  C   4.0    0.16    3.49    3.11    92.90400    99.53744   401.33619
   241  O   6.0   -0.27    1.26    1.80    93.29689    97.34025   401.98497
   242  C   4.0   -0.02    4.17    3.94    97.15214    99.99496   399.31732
   243  S   6.0   -0.05    2.39    3.10    97.19749   100.88541   396.08759
   244  H   1.0    0.12    1.11    1.44    97.23139   101.66210   403.89965
   245  H   1.0    0.06    1.10    1.44    94.23559   102.88434   399.41242
   246  H   1.0    0.06    1.12    1.45    98.93570   100.60277   400.10074
   247  H   1.0    0.07    1.07    1.44    96.96234    97.96037   399.54850
   248  H   1.0    0.07    0.99    1.43    95.47895    99.20868   395.30849
   249  N   5.0   -0.13    3.38    2.01    90.58745   100.53227   401.23637
   250  C   4.0    0.01    4.29    4.18    88.51618    98.79618   401.60718
   251  C   4.0    0.16    3.34    3.06    88.49300    96.83516   399.43572
   252  O   6.0   -0.29    1.21    1.80    88.98584    97.44106   397.25610
   253  H   1.0    0.09    1.06    1.44    90.29040   102.28708   400.55731
   254  H   1.0    0.05    1.03    1.43    88.78919    97.85207   403.42552
   255  H   1.0    0.03    1.02    1.43    86.74131    99.83863   401.60996
   256  N   5.0   -0.14    3.40    2.02    87.69025    94.53166   400.17587
   257  C   4.0    0.03    4.32    4.24    87.09267    92.43280   398.46256
   258  C   4.0    0.15    3.32    3.06    89.55720    91.35582   397.21342
   259  O   6.0   -0.30    1.19    1.80    91.05341    90.05056   398.42811
   260  C   4.0   -0.05    4.24    4.08    84.94418    93.24291   396.62281
   261  C   4.0   -0.06    4.17    3.94    82.41706    93.57413   398.03290
   262  C   4.0   -0.06    4.13    3.86    80.22977    94.44731   396.33080
   263  C   4.0   -0.06    4.11    3.82    77.75442    94.43247   397.85524
   264  N   5.0   -0.14    4.00    2.85    75.55457    95.36353   396.33469
   265  H   1.0    0.07    1.06    1.44    87.68785    94.15094   402.04449
   266  H   1.0    0.03    1.05    1.44    86.40891    90.90392   399.67582
   267  H   1.0    0.05    1.03    1.43    85.47784    95.02461   395.73664
   268  H   1.0    0.03    1.02    1.43    84.74420    91.79616   395.17344
   269  H   1.0    0.02    1.03    1.43    81.91724    91.77274   398.90081
   270  H   1.0    0.03    1.03    1.43    82.68236    94.95342   399.54327
   271  H   1.0    0.03    1.02    1.43    80.63173    96.34486   395.63802
   272  H   1.0    0.02    1.02    1.43    80.07952    93.17335   394.72108
   273  H   1.0    0.01    1.02    1.43    77.34325    92.51235   398.48181
   274  H   1.0    0.02    1.02    1.43    77.95209    95.63844   399.51349
   275  H   1.0    0.02    1.02    1.43    73.92161    95.28305   397.39088
   276  H   1.0    0.03    1.02    1.43    75.84885    97.20932   395.77437
   277  H   1.0    0.02    1.02    1.43    75.32205    94.26204   394.74331
   278  N   5.0   -0.12    3.53    2.10    89.79463    91.88926   394.75537
   279  C   4.0    0.04    4.38    4.35    91.88474    91.19209   393.10860
   280  C   4.0    0.15    3.39    3.08    94.20337    92.74300   393.94670
   281  O   6.0   -0.29    1.24    1.80    93.97519    94.99195   394.43295
   282  C   4.0    0.05    4.20    4.00    91.14385    91.90843   390.31784
   283  O   6.0   -0.28    2.18    1.85    88.50588    92.32836   390.32607
   284  C   4.0   -0.09    4.02    3.66    91.90629    89.94967   388.31321
   285  H   1.0    0.10    1.12    1.45    88.57992    93.13357   393.96930
   286  H   1.0    0.04    1.04    1.43    92.24659    89.16517   393.30150
   287  H   1.0    0.04    1.04    1.43    92.10702    93.70553   389.89829
   288  H   1.0    0.10    1.02    1.43    87.95726    92.71168   388.62824
   289  H   1.0    0.03    1.00    1.43    91.47062    90.67441   386.44149
   290  H   1.0    0.04    1.00    1.43    93.92531    89.58963   388.41488
   291  H   1.0    0.03    1.00    1.43    90.89283    88.18725   388.60522
   292  N   5.0   -0.15    3.46    2.05    96.41687    91.48992   394.05558
   293  C   4.0    0.04    4.35    4.30    98.79716    92.66899   394.79587
   294  C   4.0    0.14    3.48    3.11   100.81683    91.60243   392.97368
   295  O   6.0   -0.30    1.26    1.80   100.76711    89.32706   392.53308
   296  C   4.0    0.04    4.11    3.83    99.29475    92.01581   397.60941
   297  O   6.0   -0.26    2.02    1.83   101.26313    93.51807   398.63939
   298  H   1.0    0.09    1.07    1.44    96.53608    89.62146   393.68263
   299  H   1.0    0.05    1.05    1.44    98.57115    94.71415   394.63571
   300  H   1.0    0.06    1.01    1.43    97.51742    92.35962   398.63316
   301  H   1.0    0.05    1.01    1.43    99.76552    90.00469   397.74060
   302  H   1.0    0.12    1.02    1.43   101.66270    92.87098   400.29603
   303  N   5.0   -0.10    3.64    2.20   102.41443    93.18455   391.81964
   304  C   4.0    0.04    4.64    4.70   104.25409    92.27126   390.02428
   305  C   4.0    0.16    3.51    3.12   106.31546    90.73109   391.24564
   306  O   6.0   -0.31    1.26    1.80   106.92880    90.96908   393.45387
   307  C   4.0   -0.04    4.38    4.34   105.69750    94.57302   389.02558
   308  C   4.0   -0.05    4.25    4.09   104.84537    96.76302   390.66512
   309  C   4.0   -0.01    4.38    4.35   103.09144    95.66514   392.68285
   310  H   1.0    0.06    1.05    1.44   103.32382    91.18081   388.53768
   311  H   1.0    0.05    1.04    1.43   107.72716    94.26658   389.16338
   312  H   1.0    0.04    1.02    1.43   105.24614    94.86178   387.04071
   313  H   1.0    0.04    1.02    1.43   106.41937    97.72918   391.56367
   314  H   1.0    0.04    1.03    1.43   103.83272    98.15619   389.54585
   315  H   1.0    0.05    1.02    1.43   104.05388    95.51932   394.50780
   316  H   1.0    0.04    1.02    1.43   101.44207    96.86914   392.96765
   317  N   5.0   -0.14    3.46    2.05   107.52872    89.20736   389.60917
   318  C   4.0    0.04    4.38    4.35   109.63713    87.68026   390.44481
   319  C   4.0    0.16    3.52    3.12   112.16103    89.08055   390.30826
   320  O   6.0   -0.31    1.30    1.80   112.55504    90.96977   389.04629
   321  C   4.0    0.02    4.15    3.90   109.92608    85.20524   388.95736
   322  O   6.0   -0.27    2.09    1.84   111.88110    85.36992   387.09204
   323  H   1.0    0.10    1.08    1.44   107.03816    89.27251   387.75420
   324  H   1.0    0.05    1.07    1.44   109.22976    87.29507   392.43795
   325  H   1.0    0.02    1.01    1.43   110.42386    83.66441   390.24569
   326  H   1.0    0.04    1.01    1.43   108.11816    84.77317   388.05844
   327  H   1.0    0.10    1.02    1.43   111.52375    84.05444   385.87483
   328  N   5.0   -0.16    3.50    2.08   113.93847    88.03130   391.82302
   329  C   4.0    0.03    4.45    4.47   116.32922    89.35032   391.88938
   330  C   4.0    0.16    3.45    3.09   117.50600    89.32213   389.25028
   331  O   6.0   -0.31    1.27    1.80   118.30479    91.31966   388.40190
   332  C   4.0   -0.06    4.21    4.02   118.11531    88.50633   393.99075
   333  C   4.0   -0.05    4.13    3.86   117.33004    89.23718   396.71410
   334  C   4.0   -0.06    4.14    3.87   116.29953    86.99812   398.27123
   335  C   4.0   -0.04    4.11    3.81   113.51181    86.41322   397.65316
   336  N   5.0   -0.13    4.00    2.87   112.85956    83.77378   398.39014
   337  H   1.0    0.06    1.06    1.44   113.91844    86.13988   392.10569
   338  H   1.0    0.06    1.08    1.44   115.88159    91.34748   392.21378
   339  H   1.0    0.03    1.03    1.43   118.43442    86.47479   393.87311
   340  H   1.0    0.04    1.03    1.43   119.91947    89.41864   393.58255
   341  H   1.0    0.03    1.03    1.43   119.00096    89.96233   397.67203
   342  H   1.0    0.04    1.02    1.43   115.95344    90.76496   396.67110
   343  H   1.0    0.03    1.03    1.43   117.49314    85.36536   397.88243
   344  H   1.0    0.03    1.02    1.43   116.50480    87.44446   400.26889
   345  H   1.0    0.04    1.02    1.43   112.32208    87.74967   398.67445
   346  H   1.0    0.04    1.05    1.44   113.16020    86.67711   395.65268
   347  H   1.0    0.04    1.02    1.43   110.98756    83.35020   398.05968
   348  H   1.0    0.03    1.02    1.43   113.97954    82.49200   397.43933
   349  H   1.0    0.03    1.02    1.43   113.23343    83.53046   400.29480
   350  N   5.0   -0.15    3.42    2.03   117.52276    87.12649   387.96980
   351  C   4.0    0.03    4.29    4.17   118.30682    86.86447   385.28686
   352  C   4.0    0.16    3.36    3.07   117.25789    89.06831   383.62472
   353  O   6.0   -0.30    1.19    1.80   118.62888    90.32044   382.21830
   354  C   4.0   -0.06    4.18    3.97   117.51491    84.15361   384.43428
   355  C   4.0   -0.06    4.10    3.81   117.48721    83.33846   381.61582
   356  C   4.0   -0.06    4.12    3.84   119.99463    83.18380   380.17331
   357  C   4.0   -0.06    4.10    3.80   121.87854    81.17692   381.04459
   358  N   5.0   -0.14    4.00    2.87   121.34797    78.62198   379.98321
   359  H   1.0    0.07    1.07    1.44   116.57865    85.62209   388.67374
   360  H   1.0    0.05    1.05    1.44   120.36564    87.07408   385.19889
   361  H   1.0    0.03    1.03    1.43   118.71645    82.85739   385.49449
   362  H   1.0    0.04    1.04    1.43   115.57136    83.90351   385.06792
   363  H   1.0    0.02    1.03    1.43   116.55429    81.49914   381.58065
   364  H   1.0    0.03    1.03    1.43   116.27080    84.64204   380.57859
   365  H   1.0    0.02    1.03    1.43   119.56235    82.89816   378.17779
   366  H   1.0    0.04    1.03    1.43   120.91255    85.02452   380.30979
   367  H   1.0    0.02    1.02    1.43   123.76087    81.74196   380.42002
   368  H   1.0    0.02    1.02    1.43   121.89240    81.05516   383.09987
   369  H   1.0    0.02    1.02    1.43   122.69147    77.36029   380.62022
   370  H   1.0    0.03    1.02    1.43   119.58503    77.98910   380.50748
   371  H   1.0    0.02    1.02    1.43   121.44263    78.67827   378.03762
   372  N   5.0   -0.14    3.48    2.07   114.76034    89.43889   383.85879
   373  C   4.0    0.03    4.39    4.36   113.30323    91.25807   382.42284
   374  C   4.0    0.16    3.40    3.08   114.03780    94.03374   382.89855
   375  O   6.0   -0.32    1.24    1.80   114.07260    95.56552   381.14816
   376  C   4.0   -0.04    4.31    4.22   110.50965    90.88441   383.08049
   377  C   4.0   -0.04    4.18    3.96   109.52484    88.30350   382.29799
   378  C   4.0    0.24    3.10    3.02   106.70262    87.93508   383.11364
   379  O   6.0   -0.31    1.21    1.80   105.65738    89.75338   384.19721
   380  O   6.0   -0.32    1.16    1.80   105.74191    85.81904   382.68909
   381  H   1.0    0.10    1.09    1.44   113.76539    88.39346   385.11507
   382  H   1.0    0.05    1.05    1.44   113.59585    90.93129   380.39280
   383  H   1.0    0.07    1.03    1.43   110.26929    91.14016   385.11425
   384  H   1.0    0.05    1.03    1.43   109.36067    92.32705   382.15799
   385  H   1.0    0.04    1.02    1.43   109.58717    88.07710   380.24773
   386  H   1.0    0.05    1.03    1.43   110.61196    86.77563   383.13167
   387  N   5.0   -0.14    3.52    2.09   114.46617    94.62310   385.32241
   388  C   4.0    0.03    4.52    4.57   115.27436    97.10487   386.17917
   389  C   4.0    0.16    3.50    3.11   117.80705    97.66647   384.97668
   390  O   6.0   -0.33    1.36    1.80   118.21662    99.69988   383.94375
   391  C   4.0   -0.02    4.34    4.28   115.36532    97.25281   389.07855
   392  C   4.0   -0.05    4.22    4.04   112.64137    97.04163   390.02968
   393  C   4.0   -0.08    4.14    3.88   116.58941    99.70609   389.92661
   394  C   4.0   -0.07    4.02    3.66   112.48375    96.66379   392.85885
   395  H   1.0    0.11    1.10    1.44   114.35623    93.23928   386.64201
   396  H   1.0    0.05    1.06    1.44   113.95594    98.53983   385.47227
   397  H   1.0    0.05    1.05    1.44   116.48256    95.65159   389.76369
   398  H   1.0    0.03    1.03    1.43   111.61114    98.74684   389.49427
   399  H   1.0    0.06    1.04    1.43   111.74331    95.43825   389.09798
   400  H   1.0    0.04    1.00    1.43   116.65400    99.82444   391.97439
   401  H   1.0    0.04    1.00    1.43   118.51209    99.86890   389.21917
   402  H   1.0    0.04    1.00    1.43   115.52505   101.32033   389.22799
   403  H   1.0    0.04    1.00    1.43   110.52156    96.56515   393.45226
   404  H   1.0    0.05    1.00    1.43   113.41210    94.90851   393.38013
   405  H   1.0    0.04    1.00    1.43   113.38857    98.19498   393.88394
   406  N   5.0   -0.14    3.40    2.02   119.49212    95.81081   385.10502
   407  C   4.0    0.02    4.16    3.92   121.98216    96.04494   383.99743
   408  C   4.0    0.09    3.15    3.03   121.81943    96.40815   381.15812
   409  O   6.0   -0.31    1.12    1.80   123.18018    97.95923   380.07774
   410  H   1.0    0.11    1.09    1.44   119.11557    94.24437   386.15195
   411  H   1.0    0.05    1.02    1.43   122.99453    97.67124   384.78681
   412  H   1.0    0.04    1.03    1.43   123.04962    94.33118   384.40592
   413  N   5.0   -0.19    3.22    1.96   117.18612    98.84965   377.88307
   414  C   4.0    0.03    4.33    4.25   116.31449   101.45228   377.67212
   415  C   4.0    0.15    3.47    3.10   118.56271   103.24299   378.15994
   416  O   6.0   -0.31    1.24    1.80   119.28962   104.75118   376.53906
   417  C   4.0   -0.04    4.35    4.29   114.13113   101.99305   379.44596
   418  C   4.0   -0.05    4.12    3.83   113.37004   104.74328   379.18348
   419  S   6.0   -0.07    2.52    3.10   111.23211   105.73413   381.68548
   420  C   4.0   -0.07    3.90    3.46   113.62551   106.06619   384.11297
   421  H   1.0    0.12    1.05    1.44   116.24542    97.73062   379.12225
   422  H   1.0    0.04    1.05    1.44   115.71863   101.81194   375.71199
   423  H   1.0    0.04    1.03    1.43   112.52671   100.77803   379.00556
   424  H   1.0    0.06    1.04    1.43   114.72801   101.59606   381.38085
   425  H   1.0    0.04    1.08    1.44   115.00525   105.99020   379.27402
   426  H   1.0    0.03    1.07    1.44   112.37623   105.07792   377.41332
   427  H   1.0    0.03    1.04    1.44   112.67268   106.71813   385.81103
   428  H   1.0    0.04    1.04    1.43   114.51966   104.25574   384.48402
   429  H   1.0    0.03    1.04    1.43   115.01228   107.45609   383.52198
   430  N   5.0   -0.14    3.48    2.06   119.70781   102.93324   380.38676
   431  C   4.0    0.04    4.39    4.37   121.79169   104.56810   381.01621
   432  C   4.0    0.09    3.28    3.05   123.83420   104.54917   378.97519
   433  O   6.0   -0.32    1.12    1.80   124.98130   106.52349   378.51807
   434  C   4.0   -0.04    4.39    4.37   122.98382   103.89588   383.53379
   435  C   4.0   -0.03    4.20    3.99   121.76463   105.31911   385.70382
   436  C   4.0   -0.08    4.12    3.84   123.02937   104.46892   388.14881
   437  C   4.0   -0.08    4.13    3.86   122.06057   108.15984   385.36323
   438  H   1.0    0.12    1.15    1.45   119.07943   101.65743   381.69505
   439  H   1.0    0.05    1.07    1.44   121.16393   106.54689   381.04149
   440  H   1.0    0.06    1.03    1.43   122.80849   101.86327   383.83176
   441  H   1.0    0.04    1.04    1.43   124.98616   104.39993   383.49856
   442  H   1.0    0.04    1.05    1.44   119.74306   104.88172   385.78125
   443  H   1.0    0.03    1.00    1.43   122.11214   105.33119   389.76649
   444  H   1.0    0.04    1.00    1.43   122.95411   102.42697   388.31611
   445  H   1.0    0.04    1.00    1.43   124.99296   105.07889   388.16136
   446  H   1.0    0.03    1.00    1.43   121.60108   109.20071   387.08403
   447  H   1.0    0.04    1.00    1.43   123.99596   108.70072   384.88969
   448  H   1.0    0.03    1.00    1.43   120.86195   108.93624   383.88176
   449  N   5.0   -0.23    3.27    1.97   121.26817   119.70783   388.46768
   450  C   4.0    0.02    4.33    4.26   118.73914   118.74981   388.06046
   451  C   4.0    0.13    3.47    3.10   117.04808   119.47323   390.21881
   452  O   6.0   -0.32    1.26    1.80   114.71066   119.28732   390.02777
   453  C   4.0   -0.05    4.41    4.40   118.80283   115.90269   387.69687
   454  C   4.0   -0.02    4.25    4.11   116.25348   114.71977   387.23256
   455  C   4.0   -0.09    4.22    4.04   116.58187   112.40507   385.63038
   456  C   4.0   -0.07    4.23    4.05   115.16821   113.66910   389.60148
   457  H   1.0    0.07    1.02    1.43   122.55482   118.51713   389.26944
   458  H   1.0    0.03    1.05    1.44   117.95639   119.74161   386.40356
   459  H   1.0    0.03    1.04    1.43   120.08115   115.59450   386.10744
   460  H   1.0    0.04    1.03    1.43   119.72392   115.11405   389.37069
   461  H   1.0    0.04    1.05    1.44   115.00576   116.12388   386.36654
   462  H   1.0    0.03    1.01    1.43   114.76636   111.46950   385.41489
   463  H   1.0    0.03    1.00    1.43   117.29179   112.87871   383.75653
   464  H   1.0    0.03    1.01    1.43   117.91357   111.15036   386.55630
   465  H   1.0    0.03    1.00    1.43   113.34759   112.78390   389.24290
   466  H   1.0    0.03    1.01    1.43   116.46540   112.27018   390.36962
   467  H   1.0    0.05    1.01    1.43   114.89635   115.10646   391.05135
   468  N   5.0   -0.15    3.45    2.05   118.13278   120.03485   392.47103
   469  C   4.0    0.04    4.35    4.30   116.53854   120.82347   394.53911
   470  C   4.0    0.07    3.25    3.04   115.55076   123.50772   394.32604
   471  O   6.0   -0.31    1.12    1.80   113.53117   124.07249   395.28460
   472  C   4.0   -0.04    4.34    4.27   117.96641   120.77894   397.06044
   473  C   4.0   -0.02    3.53    3.13   119.08614   118.26729   397.80565
   474  C   4.0   -0.05    3.46    3.10   117.85296   115.95930   397.54982
   475  C   4.0   -0.05    3.48    3.11   121.49171   118.27190   398.83581
   476  C   4.0   -0.05    3.44    3.09   119.00239   113.71983   398.29341
   477  C   4.0   -0.05    3.44    3.09   122.68253   116.06583   399.55260
   478  C   4.0    0.07    3.45    3.09   121.44042   113.77016   399.30772
   479  O   6.0   -0.26    2.13    1.84   122.56133   111.61324   400.00849
   480  H   1.0    0.07    1.07    1.44   119.97831   120.58030   392.53208
   481  H   1.0    0.06    1.06    1.44   114.90062   119.54904   394.58686
   482  H   1.0    0.03    1.02    1.43   119.46771   122.23340   396.93898
   483  H   1.0    0.05    1.02    1.43   116.66433   121.46602   398.53264
   484  H   1.0    0.05    1.03    1.43   115.97334   115.93890   396.75268
   485  H   1.0    0.04    1.02    1.43   122.44961   120.09563   399.03195
   486  H   1.0    0.05    1.03    1.43   118.02655   111.94402   398.07456
   487  H   1.0    0.06    1.03    1.43   124.55603   116.18232   400.35391
   488  H   1.0    0.14    1.07    1.44   124.02981   111.94667   401.10889
   489  N   5.0   -0.23    3.21    1.96   100.71885   101.07668   374.19251
   490  C   4.0    0.02    4.26    4.13    98.88997   100.04182   376.01081
   491  C   4.0    0.14    3.33    3.06    99.96651   100.27815   378.77727
   492  O   6.0   -0.32    1.19    1.80    98.63707   100.95152   380.58074
   493  C   4.0   -0.06    4.22    4.04    98.25366    97.30013   375.31665
   494  C   4.0   -0.07    4.14    3.88    96.26545    97.08632   373.19876
   495  C   4.0   -0.07    4.11    3.82    96.33115    94.52497   371.76952
   496  C   4.0   -0.06    4.11    3.83    93.65141    93.47240   371.45621
   497  N   5.0   -0.14    3.98    2.82    93.49553    91.15868   369.83879
   498  H   1.0    0.06    1.02    1.43   101.01631   100.04159   372.60336
   499  H   1.0    0.03    1.04    1.43    97.15314   101.20742   376.00296
   500  H   1.0    0.04    1.03    1.43   100.03153    96.41089   374.76234
   501  H   1.0    0.04    1.03    1.43    97.52736    96.37268   377.01122
   502  H   1.0    0.02    1.02    1.43    94.39762    97.42925   374.02183
   503  H   1.0    0.02    1.02    1.43    96.54885    98.64756   371.86740
   504  H   1.0    0.02    1.02    1.43    97.24000    94.84972   369.94714
   505  H   1.0    0.03    1.03    1.43    97.46855    93.21188   372.87935
   506  H   1.0    0.02    1.02    1.43    92.85818    93.05685   373.31178
   507  H   1.0    0.01    1.02    1.43    92.43432    94.92766   370.65025
   508  H   1.0    0.02    1.02    1.43    91.58283    90.78350   369.58995
   509  H   1.0    0.02    1.02    1.43    94.25886    91.50855   368.08328
   510  H   1.0    0.03    1.02    1.43    94.39832    89.65386   370.69706
   511  N   5.0   -0.14    3.45    2.05   102.40845    99.61245   378.92558
   512  C   4.0    0.03    4.40    4.38   104.01040    99.68602   381.14959
   513  C   4.0    0.15    3.51    3.12   104.02571   102.42287   382.22353
   514  O   6.0   -0.33    1.31    1.80   103.60001   102.96102   384.44967
   515  C   4.0    0.05    4.22    4.05   106.80671    98.93684   380.66788
   516  O   6.0   -0.26    2.09    1.84   107.12640    96.45495   379.69011
   517  C   4.0   -0.07    4.13    3.86   108.18482    99.07082   383.19041
   518  H   1.0    0.08    1.08    1.44   103.21525    99.00181   377.29107
   519  H   1.0    0.05    1.05    1.44   103.23716    98.43144   382.61299
   520  H   1.0    0.03    1.03    1.43   107.59747   100.30882   379.31755
   521  H   1.0    0.12    1.03    1.43   108.91767    96.10869   379.70885
   522  H   1.0    0.05    1.00    1.43   110.18163    98.66179   382.91700
   523  H   1.0    0.04    1.01    1.43   107.99968   100.92146   384.05540
   524  H   1.0    0.04    1.00    1.43   107.40319    97.65112   384.45580
   525  N   5.0   -0.15    3.52    2.09   104.61354   104.17096   380.52373
   526  C   4.0    0.04    4.51    4.55   104.75577   106.77646   381.30567
   527  C   4.0    0.16    3.58    3.16   102.27300   107.72478   382.34237
   528  O   6.0   -0.32    1.32    1.80   102.24273   109.33192   384.00607
   529  C   4.0   -0.05    4.34    4.27   105.38556   108.54211   379.13292
   530  C   4.0   -0.02    3.75    3.28   104.90745   111.25935   379.73810
   531  C   4.0   -0.03    3.62    3.18   103.51582   112.89213   378.28764
   532  C   4.0    0.01    3.89    3.45   106.14558   112.77321   381.59057
   533  N   5.0   -0.14    3.47    2.06   103.91958   115.33892   379.00715
   534  C   4.0    0.03    3.91    3.48   105.45280   115.31416   381.08536
   535  C   4.0   -0.05    3.40    3.08   107.89342   112.27610   383.48643
   536  C   4.0   -0.07    3.40    3.08   106.31043   117.31499   382.55820
   537  C   4.0   -0.05    3.38    3.07   108.78352   114.27651   384.89814
   538  C   4.0   -0.05    3.37    3.07   107.94250   116.75846   384.50422
   539  H   1.0    0.07    1.07    1.44   104.75755   103.71572   378.67431
   540  H   1.0    0.05    1.07    1.44   106.16555   106.93369   382.81468
   541  H   1.0    0.03    1.03    1.43   107.37002   108.30016   378.60617
   542  H   1.0    0.03    1.03    1.43   104.21585   108.00601   377.51477
   543  H   1.0    0.03    1.02    1.43   102.28834   112.46115   376.72973
   544  H   1.0    0.05    1.04    1.44   102.92625   116.84220   378.37009
   545  H   1.0    0.05    1.03    1.43   108.54778   110.37212   383.82314
   546  H   1.0    0.03    1.03    1.43   105.72420   119.22193   382.13100
   547  H   1.0    0.04    1.03    1.43   110.14173   113.94391   386.38254
   548  H   1.0    0.04    1.03    1.43   108.64539   118.23709   385.72224
   549  N   5.0   -0.14    3.41    2.02   100.20640   106.73467   381.25832
   550  C   4.0    0.01    4.25    4.10    97.73504   107.55664   382.07786
   551  C   4.0    0.16    3.33    3.06    97.23685   106.93686   384.88571
   552  O   6.0   -0.31    1.22    1.80    96.52575   108.59721   386.36022
   553  H   1.0    0.08    1.06    1.44   100.33217   105.76671   379.61578
   554  H   1.0    0.05    1.02    1.43    97.52465   109.60868   381.87176
   555  H   1.0    0.03    1.02    1.43    96.29858   106.61035   380.93372
   556  N   5.0   -0.14    3.44    2.04    97.63331   104.50090   385.52460
   557  C   4.0    0.03    4.41    4.40    97.85028   103.61639   388.11704
   558  C   4.0    0.16    3.49    3.11    99.60940   105.29272   389.71985
   559  O   6.0   -0.30    1.25    1.80    98.91881   106.26233   391.72818
   560  C   4.0   -0.05    4.44    4.45    98.92175   100.97261   388.18892
   561  C   4.0   -0.02    4.23    4.05    97.05299    99.00887   387.30642
   562  C   4.0   -0.07    4.17    3.94    98.34697    96.46835   387.48306
   563  C   4.0   -0.07    4.15    3.90    94.70346    98.84108   388.90990
   564  H   1.0    0.10    1.08    1.44    98.23528   103.29356   384.16069
   565  H   1.0    0.05    1.06    1.44    96.00614   103.70866   389.05387
   566  H   1.0    0.06    1.04    1.43   100.61479   100.91481   387.01295
   567  H   1.0    0.04    1.04    1.43    99.46467   100.57638   390.14356
   568  H   1.0    0.05    1.05    1.44    96.52398    99.41045   385.34761
   569  H   1.0    0.04    1.00    1.43    97.08469    94.96187   386.88573
   570  H   1.0    0.04    1.00    1.43   100.01716    96.40834   386.28413
   571  H   1.0    0.04    1.01    1.43    98.91563    96.10205   389.41628
   572  H   1.0    0.04    1.00    1.43    93.39597    97.49335   388.08011
   573  H   1.0    0.05    1.00    1.43    95.17714    98.19395   390.80682
   574  H   1.0    0.04    1.00    1.43    93.71606   100.62952   389.11133
   575  N   5.0   -0.14    3.51    2.09   101.97822   105.53510   388.79914
   576  C   4.0    0.04    4.61    4.67   103.80510   106.78759   390.40712
   577  C   4.0    0.16    3.56    3.15   102.95282   109.44293   391.08028
   578  O   6.0   -0.32    1.28    1.80   103.09277   110.22799   393.27287
   579  C   4.0   -0.02    4.30    4.20   106.41626   106.88484   389.23187
   580  C   4.0   -0.08    4.17    3.93   108.08893   108.61475   390.81088
   581  C   4.0   -0.08    4.15    3.90   107.40347   104.20208   389.19774
   582  H   1.0    0.11    1.10    1.44   102.52201   104.77100   387.13445
   583  H   1.0    0.05    1.06    1.44   103.89920   105.75431   392.20690
   584  H   1.0    0.05    1.05    1.44   106.27034   107.65258   387.31498
   585  H   1.0    0.03    1.00    1.43   110.05757   108.44733   390.25215
   586  H   1.0    0.04    1.00    1.43   107.54086   110.58549   390.61341
   587  H   1.0    0.04    1.00    1.43   107.94417   108.12969   392.80512
   588  H   1.0    0.03    1.00    1.43   109.28243   104.13317   388.37213
   589  H   1.0    0.04    1.00    1.43   107.50663   103.48534   391.11966
   590  H   1.0    0.05    1.01    1.43   106.15875   102.99084   388.10934
   591  N   5.0   -0.14    3.53    2.10   102.21447   110.83097   389.09289
   592  C   4.0    0.03    4.42    4.41   101.53041   113.49095   389.33929
   593  C   4.0    0.16    3.52    3.12    99.38305   113.66401   391.22705
   594  O   6.0   -0.30    1.24    1.80    99.29657   115.33922   392.83369
   595  C   4.0   -0.05    4.31    4.22   100.84242   114.83131   386.86887
   596  C   4.0   -0.02    4.18    3.97   100.00741   117.61494   387.19585
   597  C   4.0   -0.08    4.15    3.89   101.91351   119.33592   388.47842
   598  C   4.0   -0.09    4.17    3.94    99.73880   118.79613   384.60005
   599  H   1.0    0.12    1.11    1.45   102.14221   110.02021   387.36454
   600  H   1.0    0.05    1.06    1.44   103.15141   114.48361   390.18229
   601  H   1.0    0.05    1.03    1.43   102.48712   114.74968   385.62799
   602  H   1.0    0.05    1.03    1.43    99.32861   113.78128   385.93872
   603  H   1.0    0.04    1.05    1.44    98.21715   117.60428   388.21864
   604  H   1.0    0.03    1.00    1.43   101.27630   121.28712   388.40530
   605  H   1.0    0.04    1.00    1.43   102.23641   118.85857   390.44924
   606  H   1.0    0.03    1.00    1.43   103.71278   119.22632   387.48891
   607  H   1.0    0.02    1.00    1.43    99.22422   120.78072   384.72130
   608  H   1.0    0.03    1.01    1.43   101.53312   118.67323   383.61014
   609  H   1.0    0.03    1.00    1.43    98.34939   117.82496   383.43190
   610  N   5.0   -0.13    3.44    2.04    97.71574   111.78880   391.01509
   611  C   4.0    0.02    4.27    4.15    95.61215   111.53425   392.73270
   612  C   4.0    0.17    3.33    3.06    96.33023   112.04792   395.51361
   613  O   6.0   -0.28    1.17    1.80    95.24433   113.63979   396.82851
   614  H   1.0    0.11    1.09    1.44    97.76116   110.56424   389.53587
   615  H   1.0    0.05    1.02    1.43    94.10098   112.85317   392.22012
   616  H   1.0    0.05    1.03    1.43    94.91357   109.60099   392.60818
   617  N   5.0   -0.13    3.48    2.07    98.16289   110.41443   396.21328
   618  C   4.0    0.04    4.31    4.22    99.44572   110.25566   398.64083
   619  C   4.0    0.16    3.55    3.14   100.71376   112.75256   399.13947
   620  O   6.0   -0.30    1.36    1.80    99.99435   114.06846   400.90943
   621  C   4.0   -0.07    4.12    3.84   101.38452   108.13840   398.69702
   622  H   1.0    0.11    1.09    1.44    98.81394   109.22390   394.86070
   623  H   1.0    0.06    1.05    1.44    98.03192   109.98998   400.13805
   624  H   1.0    0.05    1.00    1.43   102.29365   108.09894   400.54243
   625  H   1.0    0.05    1.00    1.43   100.45663   106.33202   398.37479
   626  H   1.0    0.06    1.01    1.43   102.80250   108.43264   397.24150
   627  N   5.0   -0.14    3.49    2.07   102.52976   113.51367   397.57896
   628  C   4.0    0.04    4.40    4.38   103.59485   115.94767   398.17591
   629  C   4.0    0.10    3.30    3.05   101.53724   117.94248   398.90141
   630  O   6.0   -0.30    1.11    1.80   101.89125   119.37854   400.70852
   631  C   4.0   -0.05    4.41    4.39   105.12647   116.99510   396.00973
   632  C   4.0   -0.02    4.23    4.05   107.05366   115.13949   395.00823
   633  C   4.0   -0.08    4.12    3.84   108.16613   116.28726   392.60567
   634  C   4.0   -0.08    4.13    3.87   109.06371   114.65972   396.97074
   635  H   1.0    0.11    1.09    1.44   102.89347   112.58538   395.94785
   636  H   1.0    0.05    1.05    1.44   104.78131   115.78089   399.87524
   637  H   1.0    0.05    1.03    1.43   103.84307   117.51926   394.47559
   638  H   1.0    0.04    1.03    1.43   106.09518   118.71717   396.60406
   639  H   1.0    0.05    1.06    1.44   106.17013   113.33889   394.50572
   640  H   1.0    0.04    1.00    1.43   109.60355   115.07194   391.77059
   641  H   1.0    0.04    1.00    1.43   106.70792   116.61621   391.19270
   642  H   1.0    0.05    1.00    1.43   109.08198   118.09470   392.98105
   643  H   1.0    0.03    1.00    1.43   110.55250   113.44299   396.23591
   644  H   1.0    0.04    1.00    1.43   109.96867   116.43860   397.52088
   645  H   1.0    0.04    1.00    1.43   108.26374   113.79316   398.65205
   646  N   5.0   -0.20    3.23    1.96    98.10638   116.80941   405.61867
   647  C   4.0    0.04    4.16    3.92   100.11957   117.28344   407.37849
   648  C   4.0    0.08    3.19    3.03   100.57835   120.12237   407.67619
   649  O   6.0   -0.32    1.12    1.80   100.67441   121.06013   409.79614
   650  C   4.0   -0.07    4.13    3.86   102.42865   115.91467   406.31280
   651  H   1.0    0.11    1.06    1.44    98.65879   115.76166   404.09183
   652  H   1.0    0.05    1.05    1.44    99.64212   116.55838   409.26639
   653  H   1.0    0.04    1.00    1.43   104.06643   116.19641   407.51740
   654  H   1.0    0.05    1.00    1.43   102.00125   113.90568   406.18861
   655  H   1.0    0.07    1.00    1.43   102.83662   116.65637   404.43692
   656  O   6.0   -0.32    1.97    1.82   126.37286   112.23049   403.61466
   657  H   1.0    0.15    1.00    1.43   128.17827   111.84134   403.66611
   658  H   1.0    0.15    1.00    1.43   125.94734   112.95544   405.25080
   659  O   6.0   -0.31    1.97    1.82   108.27794    91.95278   398.79779
   660  H   1.0    0.14    0.99    1.43   109.70407    93.05764   398.98883
   661  H   1.0    0.15    0.99    1.43   107.71135    92.08215   397.06971
   662  N   5.0   -0.28    2.20    1.90    99.81639   101.18080   425.41832
   663  C   4.0    0.08    4.20    4.00   101.48815    99.87896   423.72461
   664  C   4.0    0.02    2.22    3.00   103.17630    97.80876   424.86845
   665  O   6.0   -0.31    1.11    1.80   103.42763    95.89652   423.62268
   666  C   4.0    0.05    4.24    4.07   103.16841   101.78952   422.30554
   667  O   6.0   -0.27    2.11    1.84   101.74046   103.88202   421.42437
   668  C   4.0   -0.07    4.11    3.82   104.40044   100.45444   420.09090
   669  H   1.0    0.09    1.02    1.43   100.29882   102.96026   425.92543
   670  H   1.0    0.05    1.06    1.44   100.32223    98.86815   422.33128
   671  H   1.0    0.03    1.03    1.43   104.64850   102.46736   423.61160
   672  H   1.0    0.10    1.02    1.43   101.50028   105.09160   422.77437
   673  H   1.0    0.04    1.00    1.43   105.68263   101.72053   419.10629
   674  H   1.0    0.05    1.01    1.43   105.44035    98.81328   420.74774
   675  H   1.0    0.05    1.00    1.43   102.96227    99.86270   418.74897
   676  N   5.0   -0.26    2.22    1.90   123.31151    98.13918   419.49935
   677  C   4.0    0.06    4.26    4.12   123.91322    99.84707   417.44166
   678  C   4.0    0.14    3.44    3.09   126.59494   100.85648   417.68195
   679  O   6.0   -0.33    1.23    1.80   127.82516   100.59225   419.60147
   680  C   4.0   -0.04    4.30    4.20   122.14397   102.13726   417.16274
   681  C   4.0   -0.03    4.26    4.11   119.40265   101.32527   417.05935
   682  C   4.0    0.15    3.23    3.04   118.80817   100.03397   414.55801
   683  O   6.0   -0.29    1.20    1.80   120.13955   100.21551   412.68374
   684  N   5.0   -0.19    3.18    1.95   116.60357    98.73597   414.67612
   685  H   1.0    0.11    1.01    1.43   123.73006    98.67340   421.27904
   686  H   1.0    0.05    1.06    1.44   123.75116    98.70549   415.71695
   687  H   1.0    0.04    1.02    1.43   122.43210   103.45933   418.72900
   688  H   1.0    0.06    1.03    1.43   122.55413   103.14012   415.40769
   689  H   1.0    0.04    1.03    1.43   118.95418   100.06829   418.63056
   690  H   1.0    0.04    1.03    1.43   118.19265   102.99420   417.17565
   691  H   1.0    0.07    1.03    1.43   115.81778    98.31837   416.36183
   692  H   1.0    0.08    1.03    1.43   116.13275    97.53684   413.26785
   693  N   5.0   -0.15    3.42    2.03   127.50023   101.93227   415.43972
   694  C   4.0    0.04    4.38    4.34   129.68937   103.56121   415.74809
   695  C   4.0    0.02    2.27    3.00   128.85246   106.19531   416.56331
   696  O   6.0   -0.30    1.11    1.80   127.68596   107.81065   415.11646
   697  C   4.0   -0.02    4.25    4.10   131.28960   103.86511   413.32070
   698  C   4.0   -0.09    4.09    3.79   133.75843   105.18991   414.10353
   699  C   4.0   -0.09    4.08    3.76   131.61511   101.32922   411.93798
   700  H   1.0    0.08    1.08    1.44   126.12588   102.66935   414.33923
   701  H   1.0    0.04    1.06    1.44   130.80178   102.71245   417.29115
   702  H   1.0    0.05    1.05    1.44   130.21754   105.19698   412.12922
   703  H   1.0    0.03    1.00    1.43   134.90111   105.52382   412.42823
   704  H   1.0    0.04    1.00    1.43   133.27631   107.04692   414.90964
   705  H   1.0    0.02    1.00    1.43   134.78255   104.07410   415.48796
   706  H   1.0    0.03    1.00    1.43   132.66939   101.71535   410.22177
   707  H   1.0    0.03    1.00    1.43   132.60834   100.02327   413.16979
   708  H   1.0    0.04    1.01    1.43   129.74474   100.62876   411.48135
   709  N   5.0   -0.25    2.19    1.90   130.55341   112.00943   411.71982
   710  C   4.0    0.06    4.26    4.12   128.83346   111.79001   409.56174
   711  C   4.0    0.13    3.45    3.09   126.13068   112.53755   410.14443
   712  O   6.0   -0.30    1.26    1.80   124.87239   113.83611   408.64098
   713  C   4.0   -0.04    4.25    4.10   128.90060   109.13131   408.37276
   714  C   4.0   -0.04    4.15    3.90   131.51859   108.33129   407.42757
   715  C   4.0    0.24    3.12    3.03   132.79815   110.50412   405.89154
   716  O   6.0   -0.32    1.19    1.80   131.71203   111.16469   403.83985
   717  O   6.0   -0.32    1.16    1.80   134.85353   111.23720   406.69322
   718  H   1.0    0.12    1.02    1.43   130.30101   110.56266   412.97372
   719  H   1.0    0.06    1.05    1.44   129.45708   113.28137   408.22739
   720  H   1.0    0.05    1.03    1.43   128.11881   107.89850   409.82903
   721  H   1.0    0.05    1.04    1.43   127.51329   109.24311   406.85514
   722  H   1.0    0.05    1.03    1.43   132.73529   107.98921   409.04325
   723  H   1.0    0.04    1.03    1.43   131.25530   106.64717   406.25932
   724  N   5.0   -0.13    3.41    2.03   124.96055   110.98940   412.03743
   725  C   4.0    0.06    4.30    4.19   122.55767   111.92882   412.80684
   726  C   4.0    0.04    2.26    3.00   122.33224   114.75063   413.22029
   727  O   6.0   -0.29    1.10    1.80   120.61557   115.97100   412.08773
   728  C   4.0   -0.04    3.86    3.40   121.55157   110.35445   414.97397
   729  C   4.0   -0.06    3.27    3.05   118.95323   109.49547   415.33553
   730  C   4.0    0.13    3.18    3.03   117.84344   108.37500   413.25247
   731  O   6.0   -0.29    1.24    1.80   119.05277   106.50688   412.41189
   732  N   5.0   -0.18    2.98    1.92   115.05699   108.73499   412.39336
   733  H   1.0    0.10    1.10    1.44   126.09718   110.87227   413.60541
   734  H   1.0    0.06    1.04    1.43   121.12711   111.60144   411.23027
   735  H   1.0    0.07    0.99    1.43   122.57257   108.38312   414.89798
   736  H   1.0    0.03    0.58    1.41   122.36867   111.79579   417.05115
   737  H   1.0    0.04    1.00    1.43   118.02007   110.33508   417.02535
   738  H   1.0    0.03    0.01    1.40   117.69886   114.32314   414.87026
   739  H   1.0    0.07    1.00    1.43   114.86560   110.67555   412.01645
   740  H   1.0    0.09    1.02    1.43   115.05557   107.79916   410.65973
   741  N   5.0   -0.23    2.20    1.90   122.35243   118.18095   406.45544
   742  C   4.0    0.09    4.15    3.91   119.73212   118.28191   405.64385
   743  C   4.0    0.05    2.24    3.00   118.04534   120.26249   406.75579
   744  O   6.0   -0.28    1.11    1.80   116.82165   121.50610   405.07630
   745  C   4.0   -0.03    4.07    3.74   118.66602   115.62088   405.82869
   746  C   4.0    0.01    3.52    3.12   115.98279   115.47732   405.39050
   747  C   4.0   -0.04    3.49    3.11   114.87515   114.69427   403.11490
   748  C   4.0   -0.06    2.69    3.00   114.14559   116.13972   407.14558
   749  C   4.0   -0.04    3.39    3.08   112.30727   114.43894   402.90659
   750  C   4.0   -0.03    3.29    3.05   111.60818   115.68372   407.17775
   751  C   4.0   -0.04    3.36    3.07   110.60269   114.81729   404.88616
   752  H   1.0    0.14    1.02    1.43   122.48519   117.62268   408.31923
   753  H   1.0    0.06    1.03    1.43   119.88044   118.72783   403.52814
   754  H   1.0    0.05    1.00    1.43   119.87661   114.38384   404.56621
   755  H   1.0    0.06    0.74    1.41   119.22767   114.85917   408.14355
   756  H   1.0    0.05    1.06    1.44   116.26672   114.40247   401.64209
   757  H   1.0    0.04    0.04    1.40   115.71751   116.93633   410.62336
   758  H   1.0    0.04    1.03    1.43   111.58004   113.89015   401.06649
   759  H   1.0    0.05    1.00    1.43   110.61525   116.12276   408.97415
   760  H   1.0    0.04    1.03    1.43   108.61132   114.47185   404.85467
   761  H   1.0    0.08    1.07    1.44   133.56510   107.10234   393.25308
   762  H   1.0    0.06    1.05    1.44   120.59865    95.38342   380.14290
   763  H   1.0    0.09    1.07    1.44   117.05307    98.08208   376.37122
   764  H   1.0    0.06    1.04    1.43   124.21886   102.95383   378.03817
   765  H   1.0    0.07    1.07    1.44   121.94881   120.16511   386.97765
   766  H   1.0    0.04    1.05    1.44   116.55514   124.81341   393.40005
   767  H   1.0    0.08    1.07    1.44   100.19082   102.60428   373.66318
   768  H   1.0    0.07    1.04    1.43    99.93672   118.05492   397.90304
   769  H   1.0    0.09    1.07    1.44    96.85824   115.95815   406.39973
   770  H   1.0    0.06    1.04    1.43   100.79913   121.20936   406.14623

  Z AO/shell   Hii/eV     exponent
  1     Wed Apr 25 08:07:45 CEST 2018   EN: 2.200 GM2: 0.406  GM3: 0.0800  RAES: 1.40
     1s    -10.707211    1.230000
  6     Wed Apr 25 08:07:45 CEST 2018   EN: 2.550 GM2: 0.538  GM3: 0.1500  RAES: 3.00
     2s    -13.970922    2.096432
     2p    -10.063292    1.800000
  7     Wed Apr 25 08:07:45 CEST 2018   EN: 3.040 GM2: 0.461  GM3:-0.0640  RAES: 1.90
     2s    -16.686243    2.339881
     2p    -12.523956    2.014332
  8     Wed Apr 25 08:07:45 CEST 2018   EN: 3.440 GM2: 0.452  GM3:-0.0517  RAES: 1.80
     2s    -20.229985    2.439742
     2p    -15.503117    2.137023
 16     Tue Apr 24 11:44:34 CEST 2018   EN: 2.580 GM2: 0.340  GM3:-0.0502  RAES: 3.10
     3s    -20.029654    1.981333
     3p    -11.377694    2.025643
     3d     -0.420282    1.702555
 no old-style atom pair restraining (fixing) potential

molecular fragmentation (1/2 indicates fragments):
111111111111111111111111111111111111111111111111111111111111111111111111
111111111111111111111111111111111111111111111111111111111111111111111111
111111111111111111111111111111111111111111111111111111111111111111111111
111111111111111111111111111111111111111111111111111111111111111111111111
111111111111111111111111111111111111111111111111111111111111111111111111
111111111111111111111111111111111111111111111111111122222222222222222222
222222222222222222222222222222222222222222222222222222222222222222222222
222222222222222222222222222222222222222222222222222222222222222222222222
222222222222222222222222222222222222222222222222222222222222222222222222
222222222222222222222222222222222222222222222222222222222222222222222222
22222222222222222222222222222222222222221122222222
# atoms in fragment 1/2:   414   356
 fragment masses (1/2) :     2862.41     2407.93
CMA distance (Bohr)    :  11.466
constraining FC (au)   :  0.0500
           ------------------------------------------------- 
          |        Self-Consistent Charge Iterations        |
           ------------------------------------------------- 

 Ncao       : 1892
 Nao        : 1889
 Nshell     : 1141
 Nel        : 2078
 T(el)      :   500.0
 intcut     :    35.0
 scfconv/Eh :  0.100E-06
   qconv/e  :  0.100E-04
 intneglect :  0.100E-08
 broydamp   :      0.400
 iter      E             dE          RMSdq      gap      omega  full diag
   1  -1183.3430111 -0.118334E+04  0.463E+00    0.29       0.0  T
   2  -1181.1774799  0.216553E+01  0.313E+00    0.03       1.0  T
   3  -1179.6030411  0.157444E+01  0.295E+00    0.48       1.0  T
   4  -1185.1799513 -0.557691E+01  0.179E+00    0.01       1.0  T
   5  -1186.1484843 -0.968533E+00  0.136E+00    0.68       1.0  T
   6  -1186.8589137 -0.710429E+00  0.927E-01    0.20       1.0  T
   7  -1186.7989357  0.599780E-01  0.775E-01    0.19       1.0  T
   8  -1186.7208206  0.781150E-01  0.805E-01    0.07       1.0  T
   9  -1186.9098387 -0.189018E+00  0.651E-01    0.31       1.0  T
  10  -1185.7582108  0.115163E+01  0.131E+00    0.11       1.0  T
  11  -1186.8114816 -0.105327E+01  0.742E-01    0.07       1.0  T
  12  -1186.4847920  0.326690E+00  0.931E-01    0.12       1.0  T
  13  -1186.4975468 -0.127547E-01  0.892E-01    0.16       1.0  T
  14  -1187.1259564 -0.628410E+00  0.349E-01    0.10       1.0  T
  15  -1186.9611531  0.164803E+00  0.552E-01    0.01       1.0  T
  16  -1187.0297766 -0.686235E-01  0.421E-01    0.02       1.0  T
  17  -1187.2078143 -0.178038E+00  0.230E-01    0.05       1.0  T
  18  -1187.1096709  0.981434E-01  0.375E-01    0.01       1.0  T
  19  -1187.2237453 -0.114074E+00  0.173E-01    0.04       1.0  T
  20  -1187.2338869 -0.101416E-01  0.127E-01    0.03       1.0  T
  21  -1187.2428339 -0.894694E-02  0.963E-02    0.10       1.0  T
  22  -1187.2282666  0.145673E-01  0.146E-01    0.03       1.0  T
  23  -1187.2486844 -0.204178E-01  0.616E-02    0.05       1.0  T
  24  -1187.2474512  0.123325E-02  0.753E-02    0.06       1.0  T
  25  -1187.2507065 -0.325534E-02  0.410E-02    0.08       1.0  T
  26  -1187.2514216 -0.715081E-03  0.339E-02    0.07       1.0  T
  27  -1187.2523101 -0.888473E-03  0.169E-02    0.06       1.0  T
  28  -1187.2524997 -0.189582E-03  0.984E-03    0.06       1.0  T
  29  -1187.2525375 -0.378047E-04  0.716E-03    0.06       1.0  T
  30  -1187.2525791 -0.416231E-04  0.315E-03    0.06       1.1  T
  31  -1187.2525870 -0.794235E-05  0.181E-03    0.06       2.0  T
  32  -1187.2525887 -0.167612E-05  0.121E-03    0.06       3.0  T
  33  -1187.2525889 -0.199795E-06  0.127E-03    0.06       2.8  T
  34  -1187.2525905 -0.160368E-05  0.263E-04    0.06      13.7  T
  35  -1187.2525904  0.814068E-07  0.389E-04    0.06       9.3  T
  36  -1187.2525906 -0.138828E-06  0.121E-04    0.06      29.8  T
  37  -1187.2525906 -0.127152E-07  0.397E-05    0.06      90.8  T
  38  -1187.2525906 -0.116870E-09  0.366E-05    0.06      98.4  T
speedup  1.95
cpu  time for SCC    3 m 57.5 s
wall time for SCC    2 m  2.0 s

   *** convergence criteria satisfied after 38 iterations ***

          eigenvalues
 #    :        1027       1028       1029       1030       1031       1032       1033       1034
 occ. :        2.000      2.000      2.000      2.000      2.000      2.000      2.000      2.000
 eps  :        -9.470     -9.380     -9.162     -9.042     -8.789     -8.760     -8.398     -8.375
 #    :        1035       1036       1037       1038       1039       1040       1041       1042
 occ. :        1.863      1.846      1.763      1.553      1.519      0.827      0.384      0.132
 eps  :        -7.774     -7.769     -7.748     -7.716     -7.712     -7.647     -7.600     -7.548
 #    :        1043       1044       1045       1046       1047       1048       1049       1050
 occ. :        0.064      0.034      0.009      0.006      0.000      0.000      0.000      0.000
 eps  :        -7.515     -7.487     -7.430     -7.413     -7.165     -7.101     -7.040     -7.021


   #   Z            q   n(s)   n(p)   n(d)      C6AA      α(0)
   1   7 N     -0.399  1.329  4.071  0.000    30.357     8.183
   2   6 C      0.030  1.068  2.902  0.000    20.087     6.386
   3   6 C      0.260  1.056  2.684  0.000    22.616     7.788
   4   8 O     -0.501  1.751  4.750  0.000    23.815     6.543
   5   6 C     -0.076  1.065  3.011  0.000    21.944     6.669
   6   6 C      0.003  1.086  2.911  0.000    27.946     8.671
   7   6 C     -0.031  1.080  2.951  0.000    28.783     8.798
   8   6 C     -0.041  1.081  2.960  0.000    29.029     8.835
   9   6 C     -0.029  1.081  2.949  0.000    28.737     8.791
  10   6 C     -0.032  1.079  2.952  0.000    28.792     8.799
  11   6 C     -0.036  1.082  2.954  0.000    28.894     8.815
  12   1 H      0.183  0.817  0.000  0.000     1.200     1.716
  13   1 H      0.020  0.980  0.000  0.000     2.738     2.588
  14   1 H      0.062  0.938  0.000  0.000     2.171     2.304
  15   1 H      0.057  0.943  0.000  0.000     2.234     2.337
  16   1 H      0.019  0.981  0.000  0.000     2.745     2.591
  17   1 H      0.030  0.970  0.000  0.000     2.581     2.512
  18   1 H      0.051  0.949  0.000  0.000     2.303     2.373
  19   1 H      0.036  0.964  0.000  0.000     2.505     2.475
  20   1 H      0.057  0.943  0.000  0.000     2.228     2.334
  21   7 N     -0.182  1.251  3.931  0.000    24.948     7.418
  22   6 C      0.035  1.057  2.908  0.000    19.969     6.360
  23   6 C      0.272  1.050  2.678  0.000    22.402     7.750
  24   8 O     -0.448  1.734  4.714  0.000    22.661     6.382
  25   6 C     -0.063  1.053  3.010  0.000    21.703     6.632
  26   6 C     -0.101  1.066  3.035  0.000    22.424     6.742
  27   6 C      0.364  1.028  2.609  0.000    20.830     7.469
  28   8 O     -0.626  1.772  4.854  0.000    26.755     6.935
  29   8 O     -0.629  1.771  4.859  0.000    26.846     6.947
  30   1 H      0.221  0.779  0.000  0.000     1.006     1.571
  31   1 H      0.092  0.908  0.000  0.000     1.856     2.131
  32   1 H      0.047  0.953  0.000  0.000     2.354     2.400
  33   1 H      0.076  0.924  0.000  0.000     2.024     2.225
  34   1 H      0.019  0.981  0.000  0.000     2.743     2.590
  35   1 H      0.038  0.962  0.000  0.000     2.472     2.459
  36   7 N     -0.194  1.246  3.948  0.000    25.213     7.458
  37   6 C      0.026  1.056  2.918  0.000    20.141     6.391
  38   6 C      0.275  1.042  2.682  0.000    22.342     7.740
  39   8 O     -0.511  1.752  4.759  0.000    24.031     6.572
  40   6 C     -0.115  1.038  3.077  0.000    22.744     6.799
  41   1 H      0.196  0.804  0.000  0.000     1.128     1.664
  42   1 H      0.090  0.910  0.000  0.000     1.882     2.145
  43   1 H      0.017  0.983  0.000  0.000     2.785     2.610
  44   1 H      0.098  0.902  0.000  0.000     1.802     2.099
  45   1 H      0.043  0.957  0.000  0.000     2.414     2.430
  46   7 N     -0.185  1.248  3.937  0.000    25.017     7.429
  47   6 C      0.033  1.059  2.907  0.000    20.013     6.369
  48   6 C      0.277  1.045  2.677  0.000    22.309     7.735
  49   8 O     -0.505  1.747  4.758  0.000    23.897     6.554
  50   6 C     -0.011  1.058  2.952  0.000    20.730     6.476
  51   6 C     -0.111  1.036  3.075  0.000    22.667     6.787
  52   6 C     -0.108  1.036  3.071  0.000    22.608     6.779
  53   1 H      0.204  0.796  0.000  0.000     1.087     1.634
  54   1 H      0.030  0.970  0.000  0.000     2.585     2.514
  55   1 H      0.065  0.935  0.000  0.000     2.144     2.290
  56   1 H      0.070  0.930  0.000  0.000     2.087     2.259
  57   1 H      0.063  0.937  0.000  0.000     2.161     2.299
  58   1 H      0.028  0.972  0.000  0.000     2.620     2.531
  59   1 H      0.068  0.932  0.000  0.000     2.104     2.269
  60   1 H      0.012  0.988  0.000  0.000     2.852     2.641
  61   1 H      0.023  0.977  0.000  0.000     2.695     2.567
  62   7 N     -0.182  1.251  3.931  0.000    24.941     7.417
  63   6 C      0.019  1.069  2.912  0.000    20.247     6.405
  64   6 C      0.271  1.053  2.676  0.000    22.425     7.754
  65   8 O     -0.461  1.724  4.737  0.000    22.944     6.422
  66   6 C     -0.023  1.064  2.959  0.000    20.947     6.509
  67   6 C     -0.062  1.049  3.013  0.000    21.694     6.631
  68   6 C     -0.132  1.042  3.090  0.000    23.086     6.850
  69   6 C     -0.105  1.034  3.072  0.000    22.573     6.775
  70   1 H      0.219  0.781  0.000  0.000     1.016     1.579
  71   1 H      0.084  0.916  0.000  0.000     1.938     2.177
  72   1 H      0.051  0.949  0.000  0.000     2.303     2.373
  73   1 H      0.040  0.960  0.000  0.000     2.443     2.445
  74   1 H      0.032  0.968  0.000  0.000     2.551     2.498
  75   1 H      0.086  0.914  0.000  0.000     1.918     2.165
  76   1 H      0.059  0.941  0.000  0.000     2.208     2.324
  77   1 H      0.069  0.931  0.000  0.000     2.097     2.265
  78   1 H      0.044  0.956  0.000  0.000     2.399     2.422
  79   1 H      0.032  0.968  0.000  0.000     2.563     2.503
  80   1 H      0.062  0.938  0.000  0.000     2.175     2.306
  81   7 N     -0.171  1.244  3.927  0.000    24.701     7.381
  82   6 C      0.014  1.072  2.914  0.000    20.349     6.425
  83   6 C      0.277  1.053  2.670  0.000    22.314     7.736
  84   8 O     -0.478  1.737  4.741  0.000    23.302     6.472
  85   6 C     -0.064  1.053  3.011  0.000    21.731     6.638
  86   6 C     -0.088  1.065  3.024  0.000    22.198     6.710
  87   6 C     -0.083  1.056  3.027  0.000    22.098     6.695
  88   6 C     -0.057  1.076  2.981  0.000    21.712     6.655
  89   7 N     -0.145  1.232  3.912  0.000    24.120     7.294
  90   1 H      0.193  0.807  0.000  0.000     1.144     1.675
  91   1 H      0.132  0.868  0.000  0.000     1.522     1.929
  92   1 H      0.054  0.946  0.000  0.000     2.275     2.359
  93   1 H     -0.004  1.004  0.000  0.000     3.130     2.767
  94   1 H      0.085  0.915  0.000  0.000     1.927     2.171
  95   1 H      0.111  0.889  0.000  0.000     1.692     2.034
  96   1 H      0.030  0.970  0.000  0.000     2.581     2.512
  97   1 H      0.075  0.925  0.000  0.000     2.032     2.229
  98   1 H      0.123  0.877  0.000  0.000     1.587     1.970
  99   1 H      0.157  0.843  0.000  0.000     1.343     1.812
 100   1 H      0.325  0.675  0.000  0.000     0.644     1.257
 101   1 H      0.297  0.703  0.000  0.000     0.723     1.332
 102   1 H      0.273  0.727  0.000  0.000     0.800     1.401
 103   7 N     -0.206  1.260  3.946  0.000    25.471     7.496
 104   6 C      0.069  1.040  2.890  0.000    19.407     6.269
 105   6 C      0.286  1.042  2.672  0.000    22.159     7.709
 106   8 O     -0.525  1.750  4.775  0.000    24.355     6.617
 107   6 C      0.023  1.050  2.927  0.000    20.149     6.383
 108   6 C     -0.039  1.022  3.018  0.000    21.331     6.585
 109   6 C     -0.061  1.026  3.035  0.000    21.722     6.645
 110   1 H      0.215  0.785  0.000  0.000     1.035     1.594
 111   1 H      0.005  0.995  0.000  0.000     2.967     2.694
 112   1 H      0.051  0.949  0.000  0.000     2.313     2.379
 113   1 H     -0.033  1.033  0.000  0.000     3.695     3.006
 114   1 H      0.034  0.966  0.000  0.000     2.536     2.490
 115   1 H     -0.033  1.033  0.000  0.000     3.707     3.011
 116   1 H     -0.009  1.009  0.000  0.000     3.226     2.809
 117   1 H     -0.026  1.026  0.000  0.000     3.560     2.950
 118   1 H      0.067  0.933  0.000  0.000     2.120     2.277
 119   7 N     -0.190  1.261  3.929  0.000    25.115     7.443
 120   6 C      0.031  1.062  2.906  0.000    20.042     6.373
 121   6 C      0.272  1.045  2.683  0.000    22.404     7.751
 122   8 O     -0.489  1.726  4.763  0.000    23.543     6.505
 123   6 C     -0.028  1.067  2.960  0.000    21.022     6.520
 124   6 C     -0.049  1.043  3.007  0.000    21.451     6.593
 125   6 C     -0.133  1.041  3.091  0.000    23.107     6.855
 126   6 C     -0.112  1.038  3.074  0.000    22.686     6.789
 127   1 H      0.233  0.767  0.000  0.000     0.953     1.529
 128   1 H      0.029  0.971  0.000  0.000     2.607     2.525
 129   1 H      0.069  0.931  0.000  0.000     2.100     2.266
 130   1 H      0.020  0.980  0.000  0.000     2.727     2.582
 131   1 H     -0.013  1.013  0.000  0.000     3.287     2.835
 132   1 H      0.099  0.901  0.000  0.000     1.798     2.097
 133   1 H      0.077  0.923  0.000  0.000     2.015     2.220
 134   1 H      0.056  0.944  0.000  0.000     2.244     2.343
 135   1 H      0.031  0.969  0.000  0.000     2.575     2.509
 136   1 H      0.056  0.944  0.000  0.000     2.241     2.341
 137   1 H      0.081  0.919  0.000  0.000     1.971     2.195
 138   7 N     -0.168  1.243  3.925  0.000    24.630     7.371
 139   6 C      0.004  1.068  2.929  0.000    20.520     6.450
 140   6 C      0.267  1.045  2.688  0.000    22.494     7.766
 141   8 O     -0.421  1.706  4.715  0.000    22.103     6.303
 142   6 C      0.050  1.041  2.910  0.000    19.932     6.391
 143   8 O     -0.420  1.676  4.744  0.000    21.233     6.220
 144   1 H      0.217  0.783  0.000  0.000     1.023     1.585
 145   1 H      0.134  0.866  0.000  0.000     1.505     1.918
 146   1 H      0.086  0.914  0.000  0.000     1.914     2.163
 147   1 H      0.034  0.966  0.000  0.000     2.524     2.484
 148   1 H      0.374  0.626  0.000  0.000     0.536     1.150
 149   7 N     -0.175  1.237  3.938  0.000    24.789     7.395
 150   6 C      0.024  1.062  2.914  0.000    20.185     6.398
 151   6 C      0.288  1.049  2.663  0.000    22.117     7.702
 152   8 O     -0.494  1.727  4.766  0.000    23.641     6.519
 153   6 C      0.083  1.041  2.876  0.000    19.432     6.318
 154   8 O     -0.484  1.719  4.765  0.000    22.562     6.412
 155   1 H      0.187  0.813  0.000  0.000     1.175     1.698
 156   1 H      0.124  0.876  0.000  0.000     1.583     1.968
 157   1 H      0.065  0.935  0.000  0.000     2.138     2.287
 158   1 H      0.027  0.973  0.000  0.000     2.627     2.535
 159   1 H      0.269  0.731  0.000  0.000     0.823     1.425
 160   7 N     -0.193  1.259  3.934  0.000    25.181     7.453
 161   6 C      0.052  1.045  2.903  0.000    19.693     6.317
 162   6 C      0.287  1.036  2.677  0.000    22.138     7.707
 163   8 O     -0.502  1.728  4.774  0.000    23.835     6.546
 164   6 C     -0.105  1.035  3.070  0.000    22.561     6.771
 165   1 H      0.211  0.789  0.000  0.000     1.049     1.605
 166   1 H      0.014  0.986  0.000  0.000     2.822     2.627
 167   1 H      0.058  0.942  0.000  0.000     2.225     2.332
 168   1 H      0.009  0.991  0.000  0.000     2.905     2.665
 169   1 H      0.082  0.918  0.000  0.000     1.962     2.191
 170   7 N     -0.193  1.250  3.944  0.000    25.198     7.455
 171   6 C      0.040  1.049  2.911  0.000    19.852     6.334
 172   6 C      0.266  1.041  2.693  0.000    22.514     7.772
 173   8 O     -0.479  1.739  4.740  0.000    23.325     6.475
 174   6 C     -0.037  1.066  2.971  0.000    21.234     6.559
 175  16 S     -0.246  1.911  4.304  0.032   151.609    20.724
 176   1 H      0.235  0.765  0.000  0.000     0.942     1.521
 177   1 H      0.059  0.941  0.000  0.000     2.214     2.327
 178   1 H      0.103  0.897  0.000  0.000     1.755     2.071
 179   1 H      0.120  0.880  0.000  0.000     1.617     1.989
 180   1 H      0.163  0.837  0.000  0.000     1.307     1.788
 181   7 N     -0.167  1.247  3.920  0.000    24.617     7.369
 182   6 C      0.006  1.077  2.917  0.000    20.465     6.439
 183   6 C      0.284  1.044  2.672  0.000    22.191     7.714
 184   8 O     -0.469  1.743  4.726  0.000    23.116     6.446
 185   6 C     -0.078  1.056  3.022  0.000    21.985     6.676
[...]
 484   1 H      0.068  0.932  0.000  0.000     2.110     2.271
 485   1 H      0.022  0.978  0.000  0.000     2.702     2.571
 486   1 H      0.054  0.946  0.000  0.000     2.265     2.354
 487   1 H     -0.003  1.003  0.000  0.000     3.110     2.758
 488   1 H      0.298  0.702  0.000  0.000     0.728     1.340
 489   7 N     -0.403  1.326  4.077  0.000    30.454     8.196
 490   6 C      0.017  1.073  2.910  0.000    20.314     6.422
 491   6 C      0.251  1.060  2.688  0.000    22.777     7.814
 492   8 O     -0.493  1.758  4.735  0.000    23.630     6.517
 493   6 C     -0.079  1.060  3.019  0.000    22.001     6.678
 494   6 C     -0.074  1.056  3.018  0.000    21.913     6.665
 495   6 C     -0.092  1.057  3.035  0.000    22.261     6.718
 496   6 C     -0.052  1.059  2.993  0.000    21.601     6.635
 497   7 N     -0.148  1.233  3.915  0.000    24.200     7.306
 498   1 H      0.178  0.822  0.000  0.000     1.227     1.735
 499   1 H      0.044  0.956  0.000  0.000     2.402     2.424
 500   1 H      0.061  0.939  0.000  0.000     2.186     2.312
 501   1 H      0.052  0.948  0.000  0.000     2.295     2.369
 502   1 H      0.057  0.943  0.000  0.000     2.238     2.339
 503   1 H      0.051  0.949  0.000  0.000     2.306     2.375
 504   1 H      0.079  0.921  0.000  0.000     1.987     2.204
 505   1 H      0.078  0.922  0.000  0.000     2.004     2.214
 506   1 H      0.117  0.883  0.000  0.000     1.639     2.002
 507   1 H      0.114  0.886  0.000  0.000     1.662     2.016
 508   1 H      0.306  0.694  0.000  0.000     0.697     1.308
 509   1 H      0.299  0.701  0.000  0.000     0.718     1.327
 510   1 H      0.302  0.698  0.000  0.000     0.708     1.318
 511   7 N     -0.167  1.239  3.928  0.000    24.613     7.368
 512   6 C      0.005  1.071  2.924  0.000    20.501     6.449
 513   6 C      0.266  1.047  2.686  0.000    22.510     7.770
 514   8 O     -0.476  1.742  4.733  0.000    23.251     6.465
 515   6 C      0.110  1.049  2.841  0.000    18.882     6.205
 516   8 O     -0.460  1.712  4.748  0.000    22.040     6.338
 517   6 C     -0.137  1.044  3.093  0.000    23.186     6.866
 518   1 H      0.230  0.770  0.000  0.000     0.964     1.538
 519   1 H      0.089  0.911  0.000  0.000     1.884     2.147
 520   1 H      0.036  0.964  0.000  0.000     2.505     2.475
 521   1 H      0.321  0.679  0.000  0.000     0.662     1.278
 522   1 H      0.052  0.948  0.000  0.000     2.299     2.371
 523   1 H      0.055  0.945  0.000  0.000     2.258     2.350
 524   1 H      0.066  0.934  0.000  0.000     2.126     2.280
 525   7 N     -0.165  1.242  3.923  0.000    24.573     7.362
 526   6 C      0.011  1.057  2.931  0.000    20.378     6.425
 527   6 C      0.282  1.036  2.682  0.000    22.221     7.721
 528   8 O     -0.482  1.751  4.731  0.000    23.388     6.484
 529   6 C     -0.083  1.055  3.029  0.000    22.070     6.685
 530   6 C     -0.031  1.063  2.968  0.000    28.714     8.788
 531   6 C     -0.017  1.070  2.947  0.000    28.377     8.736
 532   6 C     -0.013  1.071  2.942  0.000    28.172     8.694
 533   7 N     -0.109  1.229  3.880  0.000    23.382     7.182
 534   6 C      0.042  1.062  2.897  0.000    26.926     8.502
 535   6 C     -0.038  1.077  2.960  0.000    28.937     8.821
 536   6 C     -0.058  1.070  2.988  0.000    29.443     8.897
 537   6 C     -0.044  1.076  2.968  0.000    29.094     8.845
 538   6 C     -0.038  1.076  2.962  0.000    28.949     8.823
 539   1 H      0.225  0.775  0.000  0.000     0.985     1.555
 540   1 H      0.087  0.913  0.000  0.000     1.904     2.158
 541   1 H      0.085  0.915  0.000  0.000     1.932     2.173
 542   1 H      0.077  0.923  0.000  0.000     2.009     2.217
 543   1 H      0.068  0.932  0.000  0.000     2.109     2.271
 544   1 H      0.199  0.801  0.000  0.000     1.113     1.653
 545   1 H      0.033  0.967  0.000  0.000     2.546     2.495
 546   1 H      0.025  0.975  0.000  0.000     2.652     2.546
 547   1 H      0.002  0.998  0.000  0.000     3.029     2.722
 548   1 H     -0.002  1.002  0.000  0.000     3.094     2.750
 549   7 N     -0.167  1.237  3.930  0.000    24.606     7.367
 550   6 C     -0.038  1.055  2.983  0.000    21.324     6.586
 551   6 C      0.271  1.045  2.684  0.000    22.414     7.752
 552   8 O     -0.504  1.761  4.743  0.000    23.876     6.551
 553   1 H      0.220  0.780  0.000  0.000     1.009     1.574
 554   1 H      0.087  0.913  0.000  0.000     1.908     2.160
 555   1 H      0.109  0.891  0.000  0.000     1.709     2.044
 556   7 N     -0.172  1.252  3.921  0.000    24.731     7.386
 557   6 C      0.017  1.062  2.921  0.000    20.298     6.416
 558   6 C      0.270  1.050  2.680  0.000    22.439     7.758
 559   8 O     -0.507  1.766  4.742  0.000    23.951     6.562
 560   6 C     -0.088  1.058  3.030  0.000    22.149     6.697
 561   6 C     -0.014  1.049  2.964  0.000    20.781     6.483
 562   6 C     -0.121  1.042  3.078  0.000    22.837     6.809
 563   6 C     -0.120  1.040  3.081  0.000    22.848     6.813
 564   1 H      0.236  0.764  0.000  0.000     0.940     1.519
 565   1 H      0.079  0.921  0.000  0.000     1.994     2.208
 566   1 H      0.074  0.926  0.000  0.000     2.040     2.234
 567   1 H      0.058  0.942  0.000  0.000     2.225     2.332
 568   1 H      0.058  0.942  0.000  0.000     2.217     2.329
 569   1 H      0.053  0.947  0.000  0.000     2.279     2.361
 570   1 H      0.044  0.956  0.000  0.000     2.400     2.423
 571   1 H      0.041  0.959  0.000  0.000     2.441     2.443
 572   1 H      0.055  0.945  0.000  0.000     2.254     2.348
 573   1 H      0.041  0.959  0.000  0.000     2.434     2.440
 574   1 H      0.031  0.969  0.000  0.000     2.576     2.510
 575   7 N     -0.197  1.254  3.943  0.000    25.282     7.468
 576   6 C      0.023  1.060  2.917  0.000    20.175     6.391
 577   6 C      0.285  1.043  2.672  0.000    22.174     7.711
 578   8 O     -0.530  1.756  4.774  0.000    24.460     6.631
 579   6 C     -0.019  1.058  2.961  0.000    20.874     6.498
 580   6 C     -0.104  1.035  3.069  0.000    22.541     6.769
 581   6 C     -0.135  1.043  3.092  0.000    23.146     6.857
 582   1 H      0.247  0.753  0.000  0.000     0.893     1.481
 583   1 H      0.067  0.933  0.000  0.000     2.122     2.278
 584   1 H      0.057  0.943  0.000  0.000     2.241     2.341
 585   1 H      0.046  0.954  0.000  0.000     2.371     2.408
 586   1 H      0.022  0.978  0.000  0.000     2.703     2.571
 587   1 H      0.025  0.975  0.000  0.000     2.656     2.548
 588   1 H      0.058  0.942  0.000  0.000     2.228     2.334
 589   1 H      0.056  0.944  0.000  0.000     2.243     2.342
 590   1 H      0.085  0.915  0.000  0.000     1.932     2.173
 591   7 N     -0.198  1.255  3.943  0.000    25.311     7.472
 592   6 C      0.029  1.057  2.914  0.000    20.087     6.381
 593   6 C      0.285  1.035  2.680  0.000    22.172     7.711
 594   8 O     -0.521  1.767  4.754  0.000    24.254     6.603
 595   6 C     -0.077  1.060  3.017  0.000    21.967     6.672
 596   6 C     -0.005  1.052  2.953  0.000    20.637     6.461
 597   6 C     -0.105  1.037  3.068  0.000    22.535     6.764
 598   6 C     -0.122  1.044  3.077  0.000    22.859     6.811
 599   1 H      0.245  0.755  0.000  0.000     0.904     1.490
 600   1 H      0.046  0.954  0.000  0.000     2.373     2.409
 601   1 H      0.069  0.931  0.000  0.000     2.094     2.263
 602   1 H      0.068  0.932  0.000  0.000     2.109     2.271
 603   1 H      0.026  0.974  0.000  0.000     2.648     2.545
 604   1 H      0.043  0.957  0.000  0.000     2.413     2.429
 605   1 H      0.007  0.993  0.000  0.000     2.947     2.684
 606   1 H      0.040  0.960  0.000  0.000     2.450     2.448
 607   1 H      0.049  0.951  0.000  0.000     2.336     2.390
 608   1 H      0.052  0.948  0.000  0.000     2.294     2.369
 609   1 H      0.054  0.946  0.000  0.000     2.265     2.353
 610   7 N     -0.170  1.240  3.930  0.000    24.670     7.377
 611   6 C     -0.033  1.054  2.978  0.000    21.213     6.568
 612   6 C      0.286  1.040  2.674  0.000    22.153     7.707
 613   8 O     -0.494  1.762  4.732  0.000    23.653     6.520
 614   1 H      0.234  0.766  0.000  0.000     0.949     1.526
 615   1 H      0.087  0.913  0.000  0.000     1.905     2.159
 616   1 H      0.103  0.897  0.000  0.000     1.755     2.072
 617   7 N     -0.187  1.249  3.938  0.000    25.064     7.435
 618   6 C      0.037  1.051  2.912  0.000    19.962     6.363
 619   6 C      0.278  1.040  2.682  0.000    22.292     7.734
 620   8 O     -0.497  1.754  4.743  0.000    23.726     6.531
 621   6 C     -0.118  1.039  3.079  0.000    22.807     6.809
 622   1 H      0.236  0.764  0.000  0.000     0.941     1.519
 623   1 H      0.059  0.941  0.000  0.000     2.205     2.322
 624   1 H      0.025  0.975  0.000  0.000     2.659     2.550
 625   1 H      0.077  0.923  0.000  0.000     2.013     2.219
 626   1 H      0.082  0.918  0.000  0.000     1.954     2.186
 627   7 N     -0.179  1.252  3.928  0.000    24.887     7.409
 628   6 C      0.047  1.052  2.901  0.000    19.779     6.329
 629   6 C      0.213  1.088  2.700  0.000    23.498     7.938
 630   8 O     -0.405  1.766  4.639  0.000    21.778     6.257
 631   6 C     -0.064  1.051  3.013  0.000    21.703     6.629
 632   6 C     -0.007  1.051  2.956  0.000    20.672     6.466
 633   6 C     -0.105  1.040  3.066  0.000    22.562     6.771
 634   6 C     -0.104  1.036  3.068  0.000    22.541     6.769
 635   1 H      0.248  0.752  0.000  0.000     0.893     1.480
 636   1 H      0.035  0.965  0.000  0.000     2.515     2.480
 637   1 H      0.065  0.935  0.000  0.000     2.144     2.290
 638   1 H      0.040  0.960  0.000  0.000     2.445     2.445
 639   1 H      0.060  0.940  0.000  0.000     2.204     2.322
 640   1 H      0.053  0.947  0.000  0.000     2.287     2.365
 641   1 H      0.054  0.946  0.000  0.000     2.274     2.358
 642   1 H      0.031  0.969  0.000  0.000     2.569     2.507
 643   1 H      0.041  0.959  0.000  0.000     2.432     2.439
 644   1 H      0.016  0.984  0.000  0.000     2.801     2.617
 645   1 H      0.019  0.981  0.000  0.000     2.751     2.594
 646   7 N     -0.386  1.314  4.072  0.000    29.972     8.131
 647   6 C      0.051  1.050  2.899  0.000    19.741     6.329
 648   6 C      0.194  1.089  2.717  0.000    23.858     7.999
 649   8 O     -0.408  1.756  4.652  0.000    21.842     6.266
 650   6 C     -0.096  1.040  3.056  0.000    22.382     6.744
 651   1 H      0.181  0.819  0.000  0.000     1.209     1.722
 652   1 H      0.030  0.970  0.000  0.000     2.583     2.514
 653   1 H     -0.005  1.005  0.000  0.000     3.154     2.777
 654   1 H      0.045  0.955  0.000  0.000     2.379     2.412
 655   1 H      0.056  0.944  0.000  0.000     2.244     2.342
 656   8 O     -0.597  1.717  4.879  0.000    25.106     6.762
 657   1 H      0.326  0.674  0.000  0.000     0.647     1.264
 658   1 H      0.246  0.754  0.000  0.000     0.908     1.497
 659   8 O     -0.608  1.717  4.891  0.000    25.379     6.799
 660   1 H      0.292  0.708  0.000  0.000     0.747     1.357
 661   1 H      0.313  0.687  0.000  0.000     0.683     1.298
 662   7 N     -0.554  1.535  4.019  0.000    36.107     8.898
 663   6 C      0.074  1.076  2.850  0.000    19.361     6.267
 664   6 C      0.015  1.384  2.602  0.000    30.788     8.964
 665   8 O     -0.403  1.771  4.632  0.000    21.750     6.253
 666   6 C      0.139  1.042  2.819  0.000    18.426     6.128
 667   8 O     -0.490  1.728  4.762  0.000    22.677     6.428
 668   6 C     -0.103  1.037  3.066  0.000    22.528     6.767
 669   1 H      0.072  0.928  0.000  0.000     2.077     2.258
 670   1 H      0.020  0.980  0.000  0.000     2.733     2.585
 671   1 H     -0.028  1.028  0.000  0.000     3.594     2.965
 672   1 H      0.318  0.682  0.000  0.000     0.670     1.285
 673   1 H      0.018  0.982  0.000  0.000     2.758     2.597
 674   1 H      0.043  0.957  0.000  0.000     2.412     2.429
 675   1 H      0.053  0.947  0.000  0.000     2.281     2.362
 676   7 N     -0.601  1.502  4.099  0.000    37.753     9.098
 677   6 C      0.067  1.055  2.878  0.000    19.474     6.285
 678   6 C      0.267  1.068  2.665  0.000    22.497     7.768
 679   8 O     -0.471  1.729  4.742  0.000    23.143     6.450
 680   6 C      0.000  1.036  2.964  0.000    20.570     6.456
 681   6 C     -0.072  1.053  3.019  0.000    21.870     6.657
 682   6 C      0.303  1.038  2.659  0.000    21.853     7.654
 683   8 O     -0.501  1.755  4.745  0.000    23.797     6.540
 684   7 N     -0.309  1.289  4.020  0.000    27.953     7.852
 685   1 H      0.047  0.953  0.000  0.000     2.373     2.413
 686   1 H      0.010  0.990  0.000  0.000     2.885     2.656
 687   1 H     -0.052  1.052  0.000  0.000     4.146     3.184
 688   1 H     -0.044  1.044  0.000  0.000     3.939     3.104
 689   1 H      0.083  0.917  0.000  0.000     1.944     2.181
 690   1 H      0.002  0.998  0.000  0.000     3.021     2.718
 691   1 H      0.243  0.757  0.000  0.000     0.909     1.494
 692   1 H      0.250  0.750  0.000  0.000     0.883     1.472
 693   7 N     -0.223  1.300  3.923  0.000    25.878     7.555
 694   6 C      0.056  1.076  2.868  0.000    19.639     6.309
 695   6 C     -0.043  1.364  2.679  0.000    32.302     9.182
 696   8 O     -0.614  1.867  4.747  0.000    26.475     6.898
 697   6 C      0.010  1.057  2.933  0.000    20.382     6.421
 698   6 C     -0.094  1.041  3.053  0.000    22.359     6.743
 699   6 C     -0.122  1.046  3.076  0.000    22.901     6.824
 700   1 H      0.121  0.879  0.000  0.000     1.614     1.990
 701   1 H      0.048  0.952  0.000  0.000     2.345     2.395
 702   1 H     -0.039  1.039  0.000  0.000     3.842     3.066
 703   1 H      0.047  0.953  0.000  0.000     2.362     2.404
 704   1 H     -0.013  1.013  0.000  0.000     3.289     2.836
 705   1 H      0.075  0.925  0.000  0.000     2.035     2.231
 706   1 H      0.064  0.936  0.000  0.000     2.152     2.294
 707   1 H      0.089  0.911  0.000  0.000     1.889     2.149
 708   1 H      0.040  0.960  0.000  0.000     2.454     2.449
 709   7 N     -0.667  1.558  4.110  0.000    40.191     9.387
 710   6 C      0.110  1.051  2.839  0.000    18.800     6.177
 711   6 C      0.277  1.082  2.641  0.000    22.307     7.735
 712   8 O     -0.573  1.793  4.780  0.000    25.476     6.767
 713   6 C      0.002  1.043  2.955  0.000    20.552     6.454
 714   6 C     -0.076  1.069  3.008  0.000    21.960     6.673
 715   6 C      0.375  1.029  2.596  0.000    20.640     7.435
 716   8 O     -0.666  1.772  4.894  0.000    27.807     7.070
 717   8 O     -0.587  1.749  4.838  0.000    25.801     6.810
 718   1 H      0.028  0.972  0.000  0.000     2.634     2.542
 719   1 H     -0.060  1.060  0.000  0.000     4.334     3.256
 720   1 H     -0.027  1.027  0.000  0.000     3.568     2.954
 721   1 H     -0.031  1.031  0.000  0.000     3.648     2.987
 722   1 H      0.031  0.969  0.000  0.000     2.569     2.507
 723   1 H      0.037  0.963  0.000  0.000     2.483     2.464
 724   7 N     -0.279  1.377  3.902  0.000    27.211     7.747
 725   6 C      0.150  1.049  2.801  0.000    18.175     6.070
 726   6 C     -0.041  1.353  2.688  0.000    32.260     9.176
 727   8 O     -0.575  1.844  4.731  0.000    25.522     6.773
 728   6 C      0.104  1.117  2.779  0.000    22.093     7.256
 729   6 C     -0.128  1.034  3.094  0.000    31.249     9.165
 730   6 C      0.230  1.077  2.694  0.000    23.180     7.883
 731   8 O     -0.636  1.748  4.889  0.000    27.018     6.969
 732   7 N     -0.389  1.430  3.959  0.000    30.072     8.144
 733   1 H      0.200  0.800  0.000  0.000     1.108     1.649
 734   1 H     -0.128  1.128  0.000  0.000     6.676     4.041
 735   1 H     -0.022  1.022  0.000  0.000     3.471     2.915
 736   1 H     -0.250  1.250  0.000  0.000    22.342     7.994
 737   1 H     -0.144  1.144  0.000  0.000     7.385     4.250
 738   1 H     -0.997  1.997  0.000  0.000  3074.319   101.384
 739   1 H      0.061  0.939  0.000  0.000     2.197     2.322
 740   1 H      0.158  0.842  0.000  0.000     1.352     1.821
 741   7 N     -0.584  1.529  4.054  0.000    37.137     9.024
 742   6 C      0.129  1.076  2.794  0.000    18.501     6.127
 743   6 C     -0.046  1.439  2.607  0.000    32.396     9.195
 744   8 O     -0.520  1.773  4.747  0.000    24.222     6.599
 745   6 C      0.096  1.061  2.842  0.000    19.465     6.370
 746   6 C      0.016  1.087  2.897  0.000    27.650     8.625
 747   6 C     -0.050  1.083  2.968  0.000    29.252     8.871
 748   6 C     -0.004  1.220  2.784  0.000    31.071     9.004
 749   6 C     -0.043  1.073  2.971  0.000    29.080     8.843
 750   6 C     -0.021  1.077  2.943  0.000    28.521     8.757
 751   6 C     -0.044  1.079  2.965  0.000    29.099     8.847
 752   1 H     -0.026  1.026  0.000  0.000     3.573     2.961
 753   1 H     -0.039  1.039  0.000  0.000     3.840     3.065
 754   1 H     -0.038  1.038  0.000  0.000     3.811     3.053
 755   1 H     -0.197  1.197  0.000  0.000    11.108     5.277
 756   1 H      0.053  0.947  0.000  0.000     2.286     2.364
 757   1 H     -0.876  1.876  0.000  0.000  3051.008   100.999
 758   1 H      0.106  0.894  0.000  0.000     1.736     2.060
 759   1 H     -0.007  1.007  0.000  0.000     3.190     2.793
 760   1 H      0.086  0.914  0.000  0.000     1.915     2.164
 761   1 H      0.151  0.849  0.000  0.000     1.394     1.849
 762   1 H      0.085  0.915  0.000  0.000     1.925     2.169
 763   1 H      0.185  0.815  0.000  0.000     1.183     1.704
 764   1 H      0.073  0.927  0.000  0.000     2.056     2.242
 765   1 H      0.201  0.799  0.000  0.000     1.101     1.644
 766   1 H      0.069  0.931  0.000  0.000     2.097     2.264
 767   1 H      0.176  0.824  0.000  0.000     1.237     1.742
 768   1 H      0.079  0.921  0.000  0.000     1.992     2.207
 769   1 H      0.190  0.810  0.000  0.000     1.157     1.685
 770   1 H      0.068  0.932  0.000  0.000     2.112     2.273

 Mol. C6AA /au·bohr⁶  :    6092255.706780
 Mol. C8AA /au·bohr⁸  :  133762971.842047
 Mol. α(0) /au        :       3744.927397

 
molecular dipole:
                 x           y           z       tot (Debye)
 q only:     -656.364    -678.815   -2159.626
   full:     -648.842    -670.911   -2154.291    5967.595
molecular quadrupole (traceless):
                xx          xy          yy          xz          yz          zz
 q only:   423638.150 -129494.809  419416.446 -420369.138 -432021.392 -843054.596
  q+dip:   422315.667 -126929.973  418061.279 -414930.320 -426352.019 -840376.946
   full:   422314.873 -126929.492  418061.065 -414934.071 -426349.984 -840375.938
speedup  1.95
cpu  time for grad    4 m 26.2 s
wall time for grad    2 m 16.5 s

SCC energy    :   -1187.2828860
rep           :      13.6729095
ES            :       7.3379796
AES           :      -0.6862024
AXC           :       0.3914582
disp          :      -1.2237332
XB            :       0.0000000
fix           :       0.0000000
Gborn         :       0.0000000
Gsasa         :       0.0000000
Ghb           :       0.0000000
Gshift        :       0.0000000
Gsolv         :      -4.2406992    -2661.08
Etot ala COSMO:   -1187.2828860
grad norm     :       0.5893785
total E       :   -1173.4863024
atomizationE  :     216.0587650   135578.92
(atE without considering molecular charge,
 total energy contains solvation terms)
H-L gap (eV)  :          0.0646

------------------------------------------------------------------------
 * finished run on 2019/05/06 at 14:42:51.626     
------------------------------------------------------------------------
 total:
 * wall-time:     0 d,  0 h,  2 min, 19.068 sec
 *  cpu-time:     0 d,  0 h,  4 min, 30.364 sec
 * ratio c/w:     1.944 speedup
 SCF:
 * wall-time:     0 d,  0 h,  2 min, 18.494 sec
 *  cpu-time:     0 d,  0 h,  4 min, 29.533 sec
 * ratio c/w:     1.946 speedup

