      -----------------------------------------------------------      
     |                   =====================                   |     
     |                           x T B                           |     
     |                   =====================                   |     
     |                         S. Grimme                         |     
     |          Mulliken Center for Theoretical Chemistry        |     
     |                    University of Bonn                     |     
     |                 Version 6.0.1 (SAW181210)                 |     
      -----------------------------------------------------------      

   This program is distributed in the hope that it will be useful,
   but WITHOUT ANY WARRANTY; without even the implied warranty of
   MERCHANTABILITY or FITNESS FOR A PARTICULAR PURPOSE.
   
   FOR NON-COMMERCIAL, ACADEMIA USE ONLY.
   
   Cite this work as:
   S. Grimme, C. Bannwarth, P. Shushkov, J. Comput. Theory Chem., 2017,
   13, 1989-2009.
   C. Bannwarth, S. Ehlert and S. Grimme., ChemRxiv, 2018, preprint.
   http://doi.org/10.26434/chemrxiv.7246238.v1
   
   for sTDA-xTB:
   S. Grimme and C. Bannwarth, J. Chem. Phys., 2016, 145, 054103.
   
   in the mass-spec context:
   V. Asgeirsson, C. Bauer and S. Grimme, Chem. Sci., 2017, 8, 4879.
   
   if GBSA is used:
   P. Shushkov, F. März and S. Grimme, unpublished.
   
   for ANC optimizer:
   S. Grimme, unpublished.
   Rational Function algorithm used in ANCopt:
   F. Eckert, P. Pulay, H.-J. Werner, J. Comput. Chem., 1997, 18, 1473.
   
   with help from (in alphabetical order)
   C. Bannwarth, F. Bohle, G. Brandenburg, E. Caldeweyher, M. Checinski,
   S. Dohm, S. Ehlert, S. Ehrlich, F. März, H. Neugebauer, J. Pisarek,
   P. Pracht, P. Shushkov, and S. Spicher.
   
 * started run on 2019/05/10 at 10:20:16.032     
========================================================================
 # omp threads = 2
========================================================================
number of atoms            : 225
number of electrons        : 586
charge                     : 2
spin                       : .0
first test random number   : .5943

########################################################################
# WARNING! Please study the warnings concerning your input carefully
#  - Process number higher than OMP_NUM_THREADS, I hope you know what you are doing.
########################################################################

           ------------------------------------------------- 
          |                 G F N 2 - x T B                 |
          | Geometry, Frequencies, Noncovalent interactions |
          |            JCTC 2018 parametrisation            |
           ------------------------------------------------- 
 
      method parameters     
 k(s)        :  1.8500
 k(p)        :  2.2300
 k(d)        :  2.2300
 k(f)        :  2.0000
 kEN (H0ij)  : -2.0000
 D4 a1       :  0.5200
 D4 a2       :  5.0000
 D4 s6       :  1.0000
 D4 s8       :  2.7000
 D4 s9       :  5.0000
 alphaj      :  2.0000

 Solvent             : h2o
 Using internal parameter file: .param_gbsa2_h2o
 Gsolv ref. state (COSMO-RS): gsolv [1 M gas/solution]
 temperature (mdtemp)       :    298.150000000000     
 dielectric constant        :    80.2000000000000     
 rho                        :    1.00000000000000     
 mass                       :    18.0000000000000     
 surface tension            :    15.5689454083859     
 probe radius               :   0.975313790000000     
 vdW radii scaling          :    1.00000000000000     
 Gshift (Eh)                :   1.857443126794793E-003
 c1                         :    1.55243817000000     
 soset                      :   0.130326360000000     
 HB correction              :  T

            Z     q(EN)     CN     RAES       Cart. coordinates
     1  N   5.0   -0.11    4.06    3.03    65.59776   -20.00980   -54.76855
     2  C   4.0    0.00    4.29    4.18    66.00602   -17.25413   -54.46381
     3  C   4.0    0.15    3.41    3.08    64.26323   -15.90672   -52.57441
     4  O   6.0   -0.29    1.24    1.80    64.96535   -13.91920   -51.64270
     5  C   4.0   -0.04    4.33    4.26    65.65384   -15.93734   -57.04611
     6  C   4.0   -0.03    4.05    3.72    66.61886   -13.21989   -57.06770
     7  S   6.0    0.00    2.46    3.10    66.09428   -11.71722   -60.14002
     8  C   4.0   -0.06    3.88    3.43    63.01234   -10.29481   -59.62409
     9  H   1.0    0.07    1.02    1.43    67.18244   -20.82066   -55.53003
    10  H   1.0    0.12    1.14    1.45    65.07177   -21.09385   -52.98237
    11  H   1.0    0.07    1.03    1.43    64.12495   -20.33581   -55.98670
    12  H   1.0    0.05    1.05    1.44    67.93278   -16.92422   -53.79606
    13  H   1.0    0.05    1.03    1.43    66.69075   -16.98543   -58.48862
    14  H   1.0    0.05    1.03    1.43    63.65250   -15.94533   -57.55181
    15  H   1.0    0.06    1.07    1.44    65.71027   -12.05612   -55.63671
    16  H   1.0    0.06    1.07    1.44    68.65322   -13.15496   -56.76387
    17  H   1.0    0.06    1.05    1.44    62.60859    -9.16354   -61.28594
    18  H   1.0    0.05    1.03    1.43    61.58358   -11.74997   -59.40889
    19  H   1.0    0.05    1.04    1.43    63.10135    -9.09523   -57.96160
    20  N   5.0   -0.14    3.45    2.05    61.91255   -16.83634   -52.31387
    21  C   4.0    0.03    4.41    4.40    60.06753   -15.51834   -50.76042
    22  C   4.0    0.15    3.36    3.07    59.68004   -16.91641   -48.23742
    23  O   6.0   -0.28    1.22    1.80    61.44456   -17.20055   -46.76807
    24  C   4.0   -0.05    4.35    4.29    57.67168   -14.94983   -52.28197
    25  C   4.0   -0.02    4.18    3.96    58.12907   -13.11383   -54.48921
    26  C   4.0   -0.07    4.10    3.81    55.75725   -12.98776   -56.13412
    27  C   4.0   -0.07    4.10    3.80    58.81437   -10.46774   -53.56001
    28  H   1.0    0.10    1.07    1.44    61.57308   -18.68499   -52.65316
    29  H   1.0    0.06    1.08    1.44    60.98871   -13.73920   -50.22377
    30  H   1.0    0.05    1.03    1.43    56.90700   -16.70747   -53.04792
    31  H   1.0    0.04    1.03    1.43    56.27905   -14.09393   -51.02757
    32  H   1.0    0.04    1.05    1.44    59.69549   -13.83780   -55.62750
    33  H   1.0    0.05    1.00    1.43    56.05540   -11.72724   -57.72883
    34  H   1.0    0.05    1.00    1.43    55.26092   -14.84241   -56.86591
    35  H   1.0    0.05    1.00    1.43    54.17324   -12.27140   -55.04045
    36  H   1.0    0.05    1.00    1.43    58.91910    -9.16643   -55.14714
    37  H   1.0    0.05    1.00    1.43    57.38937    -9.77091   -52.25467
    38  H   1.0    0.05    1.00    1.43    60.63654   -10.44823   -52.60920
    39  N   5.0   -0.14    3.49    2.07    57.31062   -17.64931   -47.72008
    40  C   4.0    0.04    4.42    4.42    56.56752   -18.68875   -45.29329
    41  C   4.0    0.15    3.41    3.08    57.01710   -21.55044   -45.27095
    42  O   6.0   -0.28    1.22    1.80    55.67645   -23.00514   -46.47179
    43  C   4.0   -0.03    4.29    4.18    53.77629   -18.14881   -44.81388
    44  C   4.0   -0.04    4.20    4.00    53.23934   -15.31750   -44.72481
    45  C   4.0   -0.04    4.17    3.95    50.44162   -14.81110   -44.23490
    46  C   4.0   -0.03    4.13    3.85    49.93339   -11.97892   -44.11015
    47  N   5.0   -0.11    4.01    2.90    47.19667   -11.49147   -43.67101
    48  H   1.0    0.08    1.08    1.44    56.00105   -17.73845   -49.10274
    49  H   1.0    0.07    1.06    1.44    57.75271   -17.78585   -43.85934
    50  H   1.0    0.06    1.03    1.43    52.67623   -19.08364   -46.28974
    51  H   1.0    0.06    1.03    1.43    53.27911   -19.02365   -43.01407
    52  H   1.0    0.06    1.03    1.43    54.40091   -14.49205   -43.23761
    53  H   1.0    0.04    1.03    1.43    53.80532   -14.45848   -46.50939
    54  H   1.0    0.05    1.03    1.43    49.34449   -15.67299   -45.75237
    55  H   1.0    0.05    1.03    1.43    49.92495   -15.71357   -42.45647
    56  H   1.0    0.05    1.02    1.43    51.02818   -11.14984   -42.57428
    57  H   1.0    0.05    1.02    1.43    50.49610   -11.08632   -45.87979
    58  H   1.0    0.07    1.02    1.43    46.83939    -9.58024   -43.57544
    59  H   1.0    0.07    1.02    1.43    46.14656   -12.26051   -45.12129
    60  H   1.0    0.07    1.02    1.43    46.63242   -12.32227   -42.00150
    61  N   5.0   -0.12    3.55    2.11    59.00402   -22.27158   -43.89985
    62  C   4.0    0.04    4.39    4.37    59.78281   -24.87040   -43.54584
    63  C   4.0    0.16    3.41    3.08    59.93822   -25.18916   -40.66042
    64  O   6.0   -0.27    1.26    1.80    58.35692   -24.19529   -39.31234
    65  C   4.0   -0.04    4.23    4.07    62.18614   -25.36912   -45.10025
    66  C   4.0   -0.01    4.21    4.01    61.66807   -24.85695   -47.90514
    67  C   4.0    0.25    3.10    3.02    64.00205   -24.09190   -49.47715
    68  O   6.0   -0.31    1.44    1.80    63.55288   -22.34668   -51.06489
    69  O   6.0   -0.28    1.16    1.80    66.04769   -25.15379   -49.17456
    70  H   1.0    0.11    1.09    1.44    60.03832   -20.98806   -42.93104
    71  H   1.0    0.07    1.06    1.44    58.22807   -26.05961   -44.23673
    72  H   1.0    0.06    1.03    1.43    63.67436   -24.10385   -44.42923
    73  H   1.0    0.05    1.02    1.43    62.81524   -27.32034   -44.89993
    74  H   1.0    0.06    1.02    1.43    60.84298   -26.53492   -48.78217
    75  H   1.0    0.07    1.05    1.44    60.32052   -23.31461   -48.11963
    76  N   5.0   -0.14    3.45    2.04    61.85862   -26.57740   -39.73435
    77  C   4.0    0.04    4.42    4.42    62.41635   -26.61665   -37.04914
    78  C   4.0    0.15    3.42    3.09    65.04787   -25.52429   -36.52060
    79  O   6.0   -0.28    1.22    1.80    65.41795   -23.92403   -34.90647
    80  C   4.0   -0.03    4.30    4.20    62.10084   -29.25502   -35.86803
    81  C   4.0   -0.00    3.57    3.15    62.28135   -29.09396   -33.03258
    82  C   4.0   -0.02    3.47    3.10    60.39758   -27.87877   -31.66294
    83  C   4.0   -0.02    3.46    3.10    64.31896   -30.12284   -31.74355
    84  C   4.0   -0.02    3.37    3.07    60.54781   -27.70280   -29.06017
    85  C   4.0   -0.02    3.37    3.07    64.46887   -29.95675   -29.13672
    86  C   4.0   -0.02    3.37    3.07    62.58301   -28.74825   -27.78804
    87  H   1.0    0.08    1.07    1.44    62.97710   -27.53330   -40.94302
    88  H   1.0    0.07    1.08    1.44    61.05840   -25.31880   -36.17942
    89  H   1.0    0.06    1.03    1.43    60.23804   -29.96924   -36.39893
    90  H   1.0    0.05    1.03    1.43    63.53455   -30.54011   -36.60330
    91  H   1.0    0.06    1.03    1.43    58.80377   -27.06318   -32.64613
    92  H   1.0    0.06    1.03    1.43    65.79744   -31.07316   -32.78020
    93  H   1.0    0.07    1.03    1.43    59.07317   -26.74856   -28.01931
    94  H   1.0    0.07    1.03    1.43    66.06237   -30.76914   -28.15537
    95  H   1.0    0.07    1.03    1.43    62.69617   -28.61812   -25.75455
    96  N   5.0   -0.15    3.50    2.08    66.92736   -26.44253   -37.98069
    97  C   4.0    0.04    4.40    4.39    69.48094   -25.45306   -37.84546
    98  C   4.0    0.15    3.41    3.08    69.66371   -22.75466   -38.89619
    99  O   6.0   -0.30    1.24    1.80    71.56596   -21.47474   -38.63232
   100  C   4.0   -0.04    4.26    4.11    71.32590   -27.22988   -39.20576
   101  C   4.0   -0.04    4.20    4.00    74.05792   -26.67337   -38.44551
   102  C   4.0   -0.05    4.17    3.93    75.95335   -27.93763   -40.22081
   103  C   4.0   -0.03    4.13    3.86    78.63424   -27.18607   -39.47617
   104  N   5.0   -0.11    4.01    2.89    80.51884   -28.29714   -41.24627
   105  H   1.0    0.08    1.07    1.44    66.58805   -27.79482   -39.28033
   106  H   1.0    0.06    1.06    1.44    69.99257   -25.29656   -35.84068
   107  H   1.0    0.05    1.03    1.43    70.85533   -29.17126   -38.69442
   108  H   1.0    0.05    1.03    1.43    71.07695   -27.00778   -41.24198
   109  H   1.0    0.06    1.04    1.43    74.33800   -24.63492   -38.46263
   110  H   1.0    0.05    1.03    1.43    74.34338   -27.33517   -36.51522
   111  H   1.0    0.05    1.02    1.43    75.71261   -29.98108   -40.11386
   112  H   1.0    0.05    1.03    1.43    75.55646   -27.32936   -42.14905
   113  H   1.0    0.05    1.02    1.43    78.80679   -25.13367   -39.50660
   114  H   1.0    0.05    1.02    1.43    79.04463   -27.84731   -37.56880
   115  H   1.0    0.07    1.02    1.43    82.32007   -27.73044   -40.76944
   116  H   1.0    0.07    1.02    1.43    80.42981   -30.24068   -41.16271
   117  H   1.0    0.06    1.02    1.43    80.15151   -27.74626   -43.07939
   118  N   5.0   -0.13    3.51    2.09    67.66244   -21.93491   -40.22756
   119  C   4.0    0.04    4.46    4.48    67.18455   -19.27091   -40.60803
   120  C   4.0    0.16    3.44    3.09    64.39861   -18.80958   -40.00371
   121  O   6.0   -0.29    1.29    1.80    62.82883   -20.48612   -40.36668
   122  C   4.0   -0.04    4.25    4.09    67.74162   -18.42903   -43.33150
   123  C   4.0   -0.03    4.18    3.97    67.54611   -15.55987   -43.64341
   124  C   4.0    0.25    3.16    3.03    68.93146   -14.12771   -41.50614
   125  O   6.0   -0.31    1.30    1.80    71.28791   -14.15742   -41.53072
   126  O   6.0   -0.30    1.28    1.80    67.61628   -13.07501   -39.84122
   127  H   1.0    0.10    1.12    1.45    66.05451   -22.97472   -40.26934
   128  H   1.0    0.07    1.07    1.44    68.38480   -18.20750   -39.29639
   129  H   1.0    0.05    1.03    1.43    69.64188   -19.05650   -43.81068
   130  H   1.0    0.06    1.02    1.43    66.40343   -19.33679   -44.61680
   131  H   1.0    0.06    1.02    1.43    68.38960   -15.00849   -45.44234
   132  H   1.0    0.07    1.02    1.43    65.56943   -14.97623   -43.67345
   133  N   5.0   -0.14    3.51    2.08    63.90722   -16.53156   -39.08184
   134  C   4.0    0.04    4.42    4.42    61.40699   -15.61851   -38.50398
   135  C   4.0    0.15    3.40    3.08    60.54738   -13.66993   -40.46914
   136  O   6.0   -0.31    1.23    1.80    58.53913   -13.91369   -41.57689
   137  C   4.0   -0.03    4.33    4.25    61.35938   -14.45227   -35.83848
   138  C   4.0   -0.00    3.57    3.15    61.59367   -16.49623   -33.87853
   139  C   4.0   -0.02    3.46    3.10    63.92087   -17.11942   -32.84172
   140  C   4.0   -0.02    3.47    3.10    59.47075   -17.85371   -33.14130
   141  C   4.0   -0.01    3.38    3.07    64.12052   -19.05358   -31.09216
   142  C   4.0   -0.02    3.37    3.07    59.66854   -19.79057   -31.39860
   143  C   4.0   -0.02    3.37    3.07    61.99609   -20.39563   -30.36893
   144  H   1.0    0.11    1.15    1.45    65.32762   -15.20169   -39.07894
   145  H   1.0    0.07    1.06    1.44    60.11256   -17.23542   -38.59588
   146  H   1.0    0.06    1.03    1.43    62.91899   -13.11120   -35.68233
   147  H   1.0    0.05    1.03    1.43    59.58078   -13.43981   -35.59522
   148  H   1.0    0.07    1.03    1.43    65.58409   -16.07557   -33.40802
   149  H   1.0    0.06    1.03    1.43    57.65392   -17.38653   -33.94714
   150  H   1.0    0.07    1.03    1.43    65.93909   -19.51967   -30.29505
   151  H   1.0    0.06    1.03    1.43    58.00124   -20.82755   -30.84199
   152  H   1.0    0.06    1.03    1.43    62.15603   -21.91252   -29.01416
   153  N   5.0   -0.14    3.47    2.06    62.08553   -11.67358   -40.74421
   154  C   4.0    0.04    4.32    4.23    61.60914    -9.69021   -42.61012
   155  C   4.0    0.15    3.39    3.08    63.91476    -7.92251   -42.54812
   156  O   6.0   -0.29    1.21    1.80    65.82012    -8.41692   -43.75797
   157  C   4.0   -0.06    4.14    3.87    59.08280    -8.38787   -42.11076
   158  H   1.0    0.11    1.09    1.44    63.87141   -11.77108   -40.05544
   159  H   1.0    0.06    1.05    1.44    61.57573   -10.56713   -44.49572
   160  H   1.0    0.04    1.00    1.43    58.89014    -6.74709   -43.32731
   161  H   1.0    0.06    1.01    1.43    57.57411    -9.71759   -42.51804
   162  H   1.0    0.06    1.00    1.43    58.92759    -7.83401   -40.13884
   163  N   5.0   -0.13    3.53    2.10    63.65430    -5.84405   -41.12615
   164  C   4.0    0.04    4.32    4.23    65.66192    -4.07451   -40.60525
   165  C   4.0    0.09    3.23    3.04    66.29155    -4.27904   -37.80076
   166  O   6.0   -0.26    1.15    1.80    64.87479    -5.36358   -36.32217
   167  C   4.0   -0.04    4.34    4.28    64.81948    -1.34720   -41.16148
   168  C   4.0   -0.02    4.19    3.97    63.67084    -1.00978   -43.79987
   169  C   4.0   -0.06    4.10    3.81    62.77677     1.71868   -44.10190
   170  C   4.0   -0.07    4.10    3.81    65.54749    -1.69646   -45.87980
   171  H   1.0    0.09    1.08    1.44    62.12015    -5.65484   -40.00934
   172  H   1.0    0.05    1.06    1.44    67.28423    -4.60414   -41.76864
   173  H   1.0    0.06    1.03    1.43    63.40923    -0.79026   -39.75709
   174  H   1.0    0.05    1.03    1.43    66.44265    -0.09226   -40.95466
   175  H   1.0    0.05    1.06    1.44    62.03296    -2.26473   -43.96237
   176  H   1.0    0.05    1.00    1.43    61.86499     1.97883   -45.92397
   177  H   1.0    0.06    1.00    1.43    61.43214     2.22251   -42.63101
   178  H   1.0    0.06    1.00    1.43    64.37876     3.00019   -43.98831
   179  H   1.0    0.05    1.00    1.43    64.74394    -1.28286   -47.72571
   180  H   1.0    0.05    1.00    1.43    67.28863    -0.62218   -45.68019
   181  H   1.0    0.06    1.00    1.43    66.00435    -3.69920   -45.83320
   182  N   5.0   -0.19    3.19    1.95    77.42206    -3.48317   -51.35180
   183  C   4.0    0.03    4.21    4.02    76.81559    -5.75612   -49.94506
   184  C   4.0    0.09    3.18    3.03    76.47638    -8.04300   -51.73043
   185  O   6.0   -0.28    1.13    1.80    74.44501    -9.07714   -52.09337
   186  C   4.0   -0.03    4.33    4.24    74.50035    -5.39006   -48.26203
   187  C   4.0   -0.04    4.06    3.73    75.16990    -3.86182   -45.92396
   188  S   6.0   -0.02    2.45    3.10    72.67477    -3.70778   -43.57179
   189  C   4.0   -0.05    3.88    3.44    72.65965    -6.98986   -42.53074
   190  H   1.0    0.10    1.02    1.43    75.97622    -2.36469   -51.89742
   191  H   1.0    0.05    1.05    1.44    78.47783    -6.17396   -48.77334
   192  H   1.0    0.06    1.03    1.43    73.00972    -4.44100   -49.33109
   193  H   1.0    0.06    1.04    1.43    73.79200    -7.25930   -47.74618
   194  H   1.0    0.05    1.07    1.44    76.82344    -4.64916   -44.97901
   195  H   1.0    0.05    1.07    1.44    75.56863    -1.91051   -46.43710
   196  H   1.0    0.07    1.04    1.43    71.50465    -7.09204   -40.84205
   197  H   1.0    0.06    1.03    1.43    71.81674    -8.19374   -43.96374
   198  H   1.0    0.06    1.04    1.43    74.58486    -7.56868   -42.13347
   199  N   5.0   -0.18    3.24    1.97    78.09618   -15.64382   -53.10911
   200  C   4.0    0.03    4.21    4.03    78.61919   -17.89268   -51.63347
   201  C   4.0    0.09    3.21    3.04    80.63817   -19.40580   -53.06384
   202  O   6.0   -0.24    1.15    1.80    81.08990   -18.94867   -55.29766
   203  C   4.0   -0.05    4.23    4.06    76.20103   -19.45526   -51.18192
   204  C   4.0   -0.05    4.16    3.92    75.95588   -20.52573   -48.50836
   205  C   4.0   -0.05    4.16    3.93    75.60155   -18.46989   -46.49910
   206  C   4.0   -0.03    4.12    3.83    75.08527   -19.64179   -43.91682
   207  N   5.0   -0.11    4.02    2.90    74.86741   -17.68945   -41.91230
   208  H   1.0    0.12    1.05    1.44    78.28373   -15.92782   -54.99400
   209  H   1.0    0.05    1.05    1.44    79.42078   -17.25933   -49.83604
   210  H   1.0    0.05    1.03    1.43    74.59186   -18.22156   -51.55801
   211  H   1.0    0.06    1.03    1.43    76.14592   -21.00882   -52.53874
   212  H   1.0    0.05    1.03    1.43    74.31323   -21.77270   -48.49082
   213  H   1.0    0.05    1.02    1.43    77.60520   -21.68923   -48.07290
   214  H   1.0    0.05    1.03    1.43    77.28885   -17.29286   -46.40289
   215  H   1.0    0.05    1.03    1.43    74.02543   -17.25858   -47.04335
   216  H   1.0    0.05    1.02    1.43    73.34146   -20.73682   -43.99128
   217  H   1.0    0.04    1.02    1.43    76.62831   -20.92289   -43.42864
   218  H   1.0    0.08    1.03    1.43    74.66410   -18.52084   -40.17537
   219  H   1.0    0.07    1.03    1.43    76.47532   -16.60574   -41.88865
   220  H   1.0    0.10    1.08    1.44    73.30831   -16.38035   -42.11541
   221  H   1.0    0.06    1.05    1.44    67.88802    -3.51980   -37.13297
   222  H   1.0    0.10    1.07    1.44    78.42724    -2.48454   -50.41109
   223  H   1.0    0.07    1.05    1.44    77.96511    -8.74717   -52.65719
   224  H   1.0    0.10    1.08    1.44    76.49997   -15.13321   -52.81941
   225  H   1.0    0.07    1.04    1.43    81.59650   -20.77377   -52.17990

  Z AO/shell   Hii/eV     exponent
  1     Wed Apr 25 08:07:45 CEST 2018   EN: 2.200 GM2: 0.406  GM3: 0.0800  RAES: 1.40
     1s    -10.707211    1.230000
  6     Wed Apr 25 08:07:45 CEST 2018   EN: 2.550 GM2: 0.538  GM3: 0.1500  RAES: 3.00
     2s    -13.970922    2.096432
     2p    -10.063292    1.800000
  7     Wed Apr 25 08:07:45 CEST 2018   EN: 3.040 GM2: 0.461  GM3:-0.0640  RAES: 1.90
     2s    -16.686243    2.339881
     2p    -12.523956    2.014332
  8     Wed Apr 25 08:07:45 CEST 2018   EN: 3.440 GM2: 0.452  GM3:-0.0517  RAES: 1.80
     2s    -20.229985    2.439742
     2p    -15.503117    2.137023
 16     Tue Apr 24 11:44:34 CEST 2018   EN: 2.580 GM2: 0.340  GM3:-0.0502  RAES: 3.10
     3s    -20.029654    1.981333
     3p    -11.377694    2.025643
     3d     -0.420282    1.702555
 no old-style atom pair restraining (fixing) potential

molecular fragmentation (1/2 indicates fragments):
111111111111111111111111111111111111111111111111111111111111111111111111
111111111111111111111111111111111111111111111111111111111111111111111111
111111111111111111111111111111111111122222222222222222222222222222222222
222212222
# atoms in fragment 1/2:   182    43
 fragment masses (1/2) :     1240.54      264.41
CMA distance (Bohr)    :  15.058
constraining FC (au)   :  0.0500
           ------------------------------------------------- 
          |        Self-Consistent Charge Iterations        |
           ------------------------------------------------- 

 Ncao       : 549
 Nao        : 547
 Nshell     : 331
 Nel        : 586
 T(el)      :   500.0
 intcut     :    35.0
 scfconv/Eh :  0.100E-06
   qconv/e  :  0.100E-04
 intneglect :  0.100E-08
 broydamp   :      0.400
 iter      E             dE          RMSdq      gap      omega  full diag
   1   -332.0057695 -0.332006E+03  0.439E+00    3.11       0.0  T
   2   -332.6770818 -0.671312E+00  0.215E+00    1.71       1.0  T
   3   -332.7127203 -0.356385E-01  0.116E+00    2.07       1.0  T
   4   -332.7585145 -0.457941E-01  0.246E-01    1.66       1.0  T
   5   -332.7612825 -0.276802E-02  0.121E-01    1.76       1.0  T
   6   -332.7617594 -0.476889E-03  0.517E-02    1.73       1.0  T
   7   -332.7619125 -0.153183E-03  0.210E-02    1.73       1.0  T
   8   -332.7619290 -0.164834E-04  0.104E-02    1.74       1.0  T
   9   -332.7619340 -0.493902E-05  0.436E-03    1.74       1.5  T
  10   -332.7619348 -0.835927E-06  0.196E-03    1.74       3.4  T
  11   -332.7619349 -0.119811E-06  0.883E-04    1.74       7.5  T
  12   -332.7619349 -0.219153E-07  0.407E-04    1.74      16.4  T
  13   -332.7619350 -0.116461E-07  0.200E-04    1.74      33.3  T
  14   -332.7619350 -0.110055E-08  0.800E-05    1.74      83.4  T
  15   -332.7619350 -0.280920E-09  0.341E-05    1.74     195.4  T
speedup  1.88
cpu  time for SCC    5.90 s
wall time for SCC    3.14 s

   *** convergence criteria satisfied after 15 iterations ***

          eigenvalues
 #    :         281        282        283        284        285        286        287        288
 occ. :        2.000      2.000      2.000      2.000      2.000      2.000      2.000      2.000
 eps  :       -11.063    -11.025    -11.018    -10.969    -10.857    -10.826    -10.744    -10.585
 #    :         289        290        291        292        293        294        295        296
 occ. :        2.000      2.000      2.000      2.000      2.000      0.000      0.000      0.000
 eps  :       -10.526    -10.189     -9.910     -9.759     -9.736     -7.999     -7.784     -7.688
 #    :         297        298        299        300        301        302        303        304
 occ. :        0.000      0.000      0.000      0.000      0.000      0.000      0.000      0.000
 eps  :        -6.669     -6.589     -6.561     -6.509     -6.322     -6.306     -6.289     -6.218


   #   Z            q   n(s)   n(p)   n(d)      C6AA      α(0)
   1   7 N     -0.209  1.269  3.940  0.000    25.532     7.505
   2   6 C     -0.008  1.070  2.937  0.000    20.734     6.487
   3   6 C      0.282  1.034  2.684  0.000    22.227     7.720
   4   8 O     -0.472  1.753  4.719  0.000    23.163     6.453
   5   6 C     -0.082  1.060  3.022  0.000    22.038     6.679
   6   6 C     -0.012  1.063  2.949  0.000    20.796     6.494
   7  16 S     -0.230  1.923  4.257  0.050   150.909    20.676
   8   6 C     -0.058  1.054  3.003  0.000    21.684     6.643
   9   1 H      0.281  0.719  0.000  0.000     0.772     1.376
  10   1 H      0.311  0.689  0.000  0.000     0.681     1.292
  11   1 H      0.268  0.732  0.000  0.000     0.817     1.416
  12   1 H      0.112  0.888  0.000  0.000     1.682     2.028
  13   1 H      0.092  0.908  0.000  0.000     1.856     2.130
  14   1 H      0.071  0.929  0.000  0.000     2.070     2.250
  15   1 H      0.062  0.938  0.000  0.000     2.174     2.306
  16   1 H      0.064  0.936  0.000  0.000     2.158     2.297
  17   1 H      0.063  0.937  0.000  0.000     2.169     2.303
  18   1 H      0.064  0.936  0.000  0.000     2.158     2.297
  19   1 H      0.055  0.945  0.000  0.000     2.255     2.348
  20   7 N     -0.169  1.244  3.924  0.000    24.649     7.374
  21   6 C      0.010  1.063  2.926  0.000    20.410     6.433
  22   6 C      0.270  1.044  2.685  0.000    22.432     7.755
  23   8 O     -0.506  1.761  4.745  0.000    23.918     6.557
  24   6 C     -0.090  1.063  3.028  0.000    22.219     6.710
  25   6 C     -0.008  1.056  2.952  0.000    20.693     6.470
  26   6 C     -0.121  1.043  3.078  0.000    22.873     6.819
  27   6 C     -0.116  1.040  3.076  0.000    22.780     6.805
  28   1 H      0.212  0.788  0.000  0.000     1.045     1.601
  29   1 H      0.092  0.908  0.000  0.000     1.856     2.130
  30   1 H      0.058  0.942  0.000  0.000     2.223     2.332
  31   1 H      0.068  0.932  0.000  0.000     2.111     2.272
  32   1 H      0.033  0.967  0.000  0.000     2.548     2.496
  33   1 H      0.043  0.957  0.000  0.000     2.413     2.429
  34   1 H      0.043  0.957  0.000  0.000     2.409     2.427
  35   1 H      0.053  0.947  0.000  0.000     2.287     2.365
  36   1 H      0.043  0.957  0.000  0.000     2.411     2.428
  37   1 H      0.049  0.951  0.000  0.000     2.328     2.386
  38   1 H      0.030  0.970  0.000  0.000     2.589     2.516
  39   7 N     -0.178  1.248  3.931  0.000    24.861     7.405
  40   6 C      0.022  1.062  2.917  0.000    20.216     6.402
  41   6 C      0.274  1.043  2.683  0.000    22.368     7.745
  42   8 O     -0.491  1.744  4.747  0.000    23.590     6.512
  43   6 C     -0.073  1.054  3.019  0.000    21.886     6.659
  44   6 C     -0.079  1.051  3.028  0.000    21.998     6.677
  45   6 C     -0.093  1.054  3.039  0.000    22.278     6.720
  46   6 C     -0.051  1.060  2.991  0.000    21.581     6.631
  47   7 N     -0.148  1.230  3.918  0.000    24.185     7.304
  48   1 H      0.222  0.778  0.000  0.000     0.999     1.566
  49   1 H      0.062  0.938  0.000  0.000     2.176     2.307
  50   1 H      0.067  0.933  0.000  0.000     2.114     2.274
  51   1 H      0.053  0.947  0.000  0.000     2.283     2.363
  52   1 H      0.068  0.932  0.000  0.000     2.102     2.267
  53   1 H      0.056  0.944  0.000  0.000     2.248     2.344
  54   1 H      0.081  0.919  0.000  0.000     1.972     2.196
  55   1 H      0.074  0.926  0.000  0.000     2.037     2.232
  56   1 H      0.116  0.884  0.000  0.000     1.643     2.004
  57   1 H      0.122  0.878  0.000  0.000     1.598     1.977
  58   1 H      0.305  0.695  0.000  0.000     0.700     1.311
  59   1 H      0.300  0.700  0.000  0.000     0.714     1.324
  60   1 H      0.297  0.703  0.000  0.000     0.723     1.332
  61   7 N     -0.163  1.242  3.921  0.000    24.523     7.355
  62   6 C      0.020  1.064  2.916  0.000    20.250     6.408
  63   6 C      0.280  1.044  2.676  0.000    22.259     7.726
  64   8 O     -0.475  1.748  4.727  0.000    23.238     6.463
  65   6 C     -0.060  1.052  3.007  0.000    21.645     6.624
  66   6 C     -0.090  1.060  3.030  0.000    22.210     6.710
  67   6 C      0.367  1.025  2.607  0.000    20.774     7.459
  68   8 O     -0.592  1.743  4.849  0.000    25.896     6.824
  69   8 O     -0.574  1.758  4.816  0.000    25.477     6.767
  70   1 H      0.200  0.800  0.000  0.000     1.105     1.647
  71   1 H      0.081  0.919  0.000  0.000     1.968     2.194
  72   1 H      0.040  0.960  0.000  0.000     2.444     2.445
  73   1 H      0.055  0.945  0.000  0.000     2.262     2.352
  74   1 H      0.041  0.959  0.000  0.000     2.432     2.439
  75   1 H      0.031  0.969  0.000  0.000     2.567     2.505
  76   7 N     -0.191  1.244  3.948  0.000    25.147     7.448
  77   6 C      0.021  1.063  2.916  0.000    20.224     6.403
  78   6 C      0.274  1.043  2.683  0.000    22.375     7.746
  79   8 O     -0.477  1.756  4.721  0.000    23.291     6.471
  80   6 C     -0.080  1.058  3.023  0.000    22.026     6.681
  81   6 C      0.010  1.080  2.909  0.000    27.781     8.646
  82   6 C     -0.037  1.080  2.957  0.000    28.916     8.818
  83   6 C     -0.043  1.081  2.961  0.000    29.059     8.840
  84   6 C     -0.030  1.080  2.951  0.000    28.759     8.794
  85   6 C     -0.033  1.081  2.952  0.000    28.832     8.805
  86   6 C     -0.035  1.080  2.954  0.000    28.867     8.811
  87   1 H      0.201  0.799  0.000  0.000     1.101     1.644
  88   1 H      0.082  0.918  0.000  0.000     1.959     2.189
  89   1 H      0.068  0.932  0.000  0.000     2.111     2.272
  90   1 H      0.065  0.935  0.000  0.000     2.146     2.291
  91   1 H      0.028  0.972  0.000  0.000     2.608     2.526
  92   1 H      0.046  0.954  0.000  0.000     2.366     2.406
  93   1 H      0.032  0.968  0.000  0.000     2.559     2.502
  94   1 H      0.044  0.956  0.000  0.000     2.400     2.423
  95   1 H      0.035  0.965  0.000  0.000     2.513     2.479
  96   7 N     -0.191  1.245  3.946  0.000    25.140     7.447
  97   6 C      0.012  1.065  2.923  0.000    20.379     6.429
  98   6 C      0.273  1.047  2.680  0.000    22.385     7.747
  99   8 O     -0.454  1.723  4.732  0.000    22.791     6.401
 100   6 C     -0.082  1.058  3.024  0.000    22.056     6.686
 101   6 C     -0.084  1.052  3.033  0.000    22.100     6.692
 102   6 C     -0.097  1.055  3.042  0.000    22.347     6.730
 103   6 C     -0.053  1.060  2.993  0.000    21.626     6.637
 104   7 N     -0.148  1.229  3.918  0.000    24.187     7.304
 105   1 H      0.208  0.792  0.000  0.000     1.068     1.619
 106   1 H      0.093  0.907  0.000  0.000     1.853     2.129
 107   1 H      0.072  0.928  0.000  0.000     2.061     2.245
 108   1 H      0.066  0.934  0.000  0.000     2.126     2.280
 109   1 H      0.078  0.922  0.000  0.000     1.997     2.210
 110   1 H      0.061  0.939  0.000  0.000     2.189     2.314
 111   1 H      0.080  0.920  0.000  0.000     1.982     2.202
 112   1 H      0.084  0.916  0.000  0.000     1.941     2.179
 113   1 H      0.123  0.877  0.000  0.000     1.592     1.973
 114   1 H      0.118  0.882  0.000  0.000     1.632     1.998
 115   1 H      0.303  0.697  0.000  0.000     0.705     1.316
 116   1 H      0.296  0.704  0.000  0.000     0.726     1.335
 117   1 H      0.301  0.699  0.000  0.000     0.710     1.320
 118   7 N     -0.186  1.250  3.936  0.000    25.037     7.431
 119   6 C      0.034  1.056  2.910  0.000    20.006     6.369
 120   6 C      0.276  1.041  2.683  0.000    22.331     7.739
 121   8 O     -0.517  1.748  4.769  0.000    24.159     6.590
 122   6 C     -0.059  1.053  3.005  0.000    21.629     6.621
 123   6 C     -0.093  1.060  3.033  0.000    22.275     6.720
 124   6 C      0.369  1.028  2.604  0.000    20.748     7.454
 125   8 O     -0.567  1.736  4.831  0.000    25.318     6.746
 126   8 O     -0.614  1.772  4.842  0.000    26.462     6.897
 127   1 H      0.185  0.815  0.000  0.000     1.187     1.706
 128   1 H      0.051  0.949  0.000  0.000     2.312     2.378
 129   1 H      0.077  0.923  0.000  0.000     2.007     2.216
 130   1 H      0.042  0.958  0.000  0.000     2.427     2.436
 131   1 H      0.049  0.951  0.000  0.000     2.329     2.386
 132   1 H      0.011  0.989  0.000  0.000     2.870     2.649
 133   7 N     -0.206  1.270  3.937  0.000    25.491     7.499
 134   6 C      0.034  1.060  2.906  0.000    20.001     6.368
 135   6 C      0.271  1.045  2.685  0.000    22.424     7.754
 136   8 O     -0.459  1.728  4.731  0.000    22.899     6.416
 137   6 C     -0.076  1.057  3.019  0.000    21.948     6.668
 138   6 C      0.011  1.079  2.909  0.000    27.759     8.642
 139   6 C     -0.039  1.079  2.959  0.000    28.958     8.825
 140   6 C     -0.042  1.081  2.961  0.000    29.036     8.837
 141   6 C     -0.026  1.081  2.946  0.000    28.663     8.780
 142   6 C     -0.031  1.080  2.952  0.000    28.784     8.798
 143   6 C     -0.029  1.079  2.950  0.000    28.733     8.790
 144   1 H      0.227  0.773  0.000  0.000     0.977     1.548
 145   1 H      0.066  0.934  0.000  0.000     2.133     2.284
 146   1 H      0.052  0.948  0.000  0.000     2.294     2.368
 147   1 H      0.067  0.933  0.000  0.000     2.119     2.276
 148   1 H      0.024  0.976  0.000  0.000     2.676     2.558
 149   1 H      0.040  0.960  0.000  0.000     2.450     2.448
 150   1 H      0.037  0.963  0.000  0.000     2.487     2.466
 151   1 H      0.038  0.962  0.000  0.000     2.481     2.463
 152   1 H      0.035  0.965  0.000  0.000     2.518     2.481
 153   7 N     -0.182  1.252  3.930  0.000    24.943     7.418
 154   6 C      0.029  1.061  2.909  0.000    20.090     6.383
 155   6 C      0.273  1.042  2.685  0.000    22.389     7.748
 156   8 O     -0.492  1.755  4.737  0.000    23.604     6.514
 157   6 C     -0.141  1.042  3.098  0.000    23.273     6.879
 158   1 H      0.194  0.806  0.000  0.000     1.140     1.672
 159   1 H      0.058  0.942  0.000  0.000     2.221     2.331
 160   1 H      0.076  0.924  0.000  0.000     2.024     2.225
 161   1 H      0.094  0.906  0.000  0.000     1.839     2.121
 162   1 H      0.062  0.938  0.000  0.000     2.171     2.304
 163   7 N     -0.158  1.233  3.925  0.000    24.417     7.339
 164   6 C      0.027  1.058  2.915  0.000    20.126     6.389
 165   6 C      0.198  1.086  2.717  0.000    23.787     7.988
 166   8 O     -0.373  1.756  4.617  0.000    21.143     6.165
 167   6 C     -0.075  1.062  3.013  0.000    21.924     6.665
 168   6 C     -0.008  1.057  2.951  0.000    20.691     6.470
 169   6 C     -0.120  1.043  3.077  0.000    22.843     6.814
 170   6 C     -0.115  1.039  3.077  0.000    22.767     6.803
 171   1 H      0.219  0.781  0.000  0.000     1.014     1.577
 172   1 H      0.097  0.903  0.000  0.000     1.816     2.107
 173   1 H      0.058  0.942  0.000  0.000     2.219     2.329
 174   1 H      0.069  0.931  0.000  0.000     2.100     2.266
 175   1 H      0.041  0.959  0.000  0.000     2.442     2.444
 176   1 H      0.050  0.950  0.000  0.000     2.326     2.385
 177   1 H      0.044  0.956  0.000  0.000     2.392     2.419
 178   1 H      0.045  0.955  0.000  0.000     2.387     2.416
 179   1 H      0.044  0.956  0.000  0.000     2.392     2.418
 180   1 H      0.045  0.955  0.000  0.000     2.386     2.416
 181   1 H      0.036  0.964  0.000  0.000     2.503     2.474
 182   7 N     -0.384  1.310  4.073  0.000    29.922     8.124
 183   6 C      0.034  1.059  2.907  0.000    20.018     6.373
 184   6 C      0.200  1.094  2.706  0.000    23.746     7.980
 185   8 O     -0.364  1.755  4.609  0.000    20.978     6.141
 186   6 C     -0.063  1.048  3.015  0.000    21.693     6.628
 187   6 C     -0.007  1.064  2.943  0.000    20.715     6.481
 188  16 S     -0.231  1.916  4.266  0.049   150.951    20.679
 189   6 C     -0.045  1.050  2.995  0.000    21.448     6.606
 190   1 H      0.165  0.835  0.000  0.000     1.306     1.790
 191   1 H      0.067  0.933  0.000  0.000     2.122     2.278
 192   1 H      0.050  0.950  0.000  0.000     2.315     2.380
 193   1 H      0.048  0.952  0.000  0.000     2.344     2.394
 194   1 H      0.050  0.950  0.000  0.000     2.323     2.384
 195   1 H      0.059  0.941  0.000  0.000     2.213     2.326
 196   1 H      0.043  0.957  0.000  0.000     2.405     2.425
 197   1 H      0.045  0.955  0.000  0.000     2.382     2.414
 198   1 H      0.062  0.938  0.000  0.000     2.178     2.308
 199   7 N     -0.390  1.326  4.065  0.000    30.105     8.149
 200   6 C      0.028  1.062  2.910  0.000    20.125     6.391
 201   6 C      0.196  1.088  2.716  0.000    23.821     7.993
 202   8 O     -0.391  1.771  4.620  0.000    21.496     6.216
 203   6 C     -0.072  1.059  3.013  0.000    21.882     6.660
 204   6 C     -0.082  1.055  3.027  0.000    22.062     6.687
 205   6 C     -0.088  1.052  3.036  0.000    22.172     6.704
 206   6 C     -0.036  1.054  2.982  0.000    21.317     6.590
 207   7 N     -0.167  1.241  3.926  0.000    24.609     7.368
 208   1 H      0.160  0.840  0.000  0.000     1.334     1.809
 209   1 H      0.083  0.917  0.000  0.000     1.949     2.183
 210   1 H      0.055  0.945  0.000  0.000     2.260     2.351
 211   1 H      0.047  0.953  0.000  0.000     2.353     2.399
 212   1 H      0.064  0.936  0.000  0.000     2.150     2.293
 213   1 H      0.074  0.926  0.000  0.000     2.048     2.238
 214   1 H      0.073  0.927  0.000  0.000     2.053     2.241
 215   1 H      0.055  0.945  0.000  0.000     2.260     2.351
 216   1 H      0.092  0.908  0.000  0.000     1.858     2.132
 217   1 H      0.124  0.876  0.000  0.000     1.583     1.968
 218   1 H      0.280  0.720  0.000  0.000     0.775     1.379
 219   1 H      0.283  0.717  0.000  0.000     0.767     1.372
 220   1 H      0.286  0.714  0.000  0.000     0.759     1.365
 221   1 H      0.076  0.924  0.000  0.000     2.019     2.222
 222   1 H      0.188  0.812  0.000  0.000     1.168     1.693
 223   1 H      0.085  0.915  0.000  0.000     1.932     2.174
 224   1 H      0.174  0.826  0.000  0.000     1.246     1.749
 225   1 H      0.077  0.923  0.000  0.000     2.008     2.216

 Mol. C6AA /au·bohr⁶  :     464216.323702
 Mol. C8AA /au·bohr⁸  :   10686883.596351
 Mol. α(0) /au        :       1028.554402

 
molecular dipole:
                 x           y           z       tot (Debye)
 q only:      134.100     -39.348     -89.726
   full:      133.591     -40.159     -89.292     420.991
molecular quadrupole (traceless):
                xx          xy          yy          xz          yz          zz
 q only:     7082.206   -4410.013   -5843.810   -8893.840    2574.408   -1238.397
  q+dip:     7019.917   -4469.464   -5758.813   -8805.791    2628.654   -1261.104
   full:     7015.383   -4470.633   -5754.860   -8808.556    2627.822   -1260.524
speedup  1.91
cpu  time for grad    7.84 s
wall time for grad    4.11 s

SCC energy    :    -332.7754713
rep           :       4.1048247
ES            :       1.1218077
AES           :      -0.0838433
AXC           :       0.1332301
disp          :      -0.2544789
XB            :       0.0000000
fix           :       0.0000000
Gborn         :       0.0000000
Gsasa         :       0.0000000
Ghb           :       0.0000000
Gshift        :       0.0000000
Gsolv         :      -0.4392452     -275.63
Etot ala COSMO:    -332.7754713
grad norm     :       0.3373160
total E       :    -328.6544538
atomizationE  :      61.3164808    38476.67
(atE without considering molecular charge,
 total energy contains solvation terms)
H-L gap (eV)  :          1.7376

------------------------------------------------------------------------
 * finished run on 2019/05/10 at 10:20:20.474     
------------------------------------------------------------------------
 total:
 * wall-time:     0 d,  0 h,  0 min,  4.440 sec
 *  cpu-time:     0 d,  0 h,  0 min,  8.300 sec
 * ratio c/w:     1.870 speedup
 SCF:
 * wall-time:     0 d,  0 h,  0 min,  4.254 sec
 *  cpu-time:     0 d,  0 h,  0 min,  8.126 sec
 * ratio c/w:     1.910 speedup

