      -----------------------------------------------------------      
     |                   =====================                   |     
     |                           x T B                           |     
     |                   =====================                   |     
     |                         S. Grimme                         |     
     |          Mulliken Center for Theoretical Chemistry        |     
     |                    University of Bonn                     |     
     |                 Version 6.0.1 (SAW181210)                 |     
      -----------------------------------------------------------      

   This program is distributed in the hope that it will be useful,
   but WITHOUT ANY WARRANTY; without even the implied warranty of
   MERCHANTABILITY or FITNESS FOR A PARTICULAR PURPOSE.
   
   FOR NON-COMMERCIAL, ACADEMIA USE ONLY.
   
   Cite this work as:
   S. Grimme, C. Bannwarth, P. Shushkov, J. Comput. Theory Chem., 2017,
   13, 1989-2009.
   C. Bannwarth, S. Ehlert and S. Grimme., ChemRxiv, 2018, preprint.
   http://doi.org/10.26434/chemrxiv.7246238.v1
   
   for sTDA-xTB:
   S. Grimme and C. Bannwarth, J. Chem. Phys., 2016, 145, 054103.
   
   in the mass-spec context:
   V. Asgeirsson, C. Bauer and S. Grimme, Chem. Sci., 2017, 8, 4879.
   
   if GBSA is used:
   P. Shushkov, F. März and S. Grimme, unpublished.
   
   for ANC optimizer:
   S. Grimme, unpublished.
   Rational Function algorithm used in ANCopt:
   F. Eckert, P. Pulay, H.-J. Werner, J. Comput. Chem., 1997, 18, 1473.
   
   with help from (in alphabetical order)
   C. Bannwarth, F. Bohle, G. Brandenburg, E. Caldeweyher, M. Checinski,
   S. Dohm, S. Ehlert, S. Ehrlich, F. März, H. Neugebauer, J. Pisarek,
   P. Pracht, P. Shushkov, and S. Spicher.
   
 * started run on 2019/05/04 at 15:54:11.742     
========================================================================
 # omp threads = 2
========================================================================
number of atoms            : 525
number of electrons        : 1410
charge                     : -3
spin                       : .0
first test random number   : .7180

########################################################################
# WARNING! Please study the warnings concerning your input carefully
#  - Process number higher than OMP_NUM_THREADS, I hope you know what you are doing.
########################################################################

           ------------------------------------------------- 
          |                 G F N 2 - x T B                 |
          | Geometry, Frequencies, Noncovalent interactions |
          |            JCTC 2018 parametrisation            |
           ------------------------------------------------- 
 
      method parameters     
 k(s)        :  1.8500
 k(p)        :  2.2300
 k(d)        :  2.2300
 k(f)        :  2.0000
 kEN (H0ij)  : -2.0000
 D4 a1       :  0.5200
 D4 a2       :  5.0000
 D4 s6       :  1.0000
 D4 s8       :  2.7000
 D4 s9       :  5.0000
 alphaj      :  2.0000

 Solvent             : h2o
 Using internal parameter file: .param_gbsa2_h2o
 Gsolv ref. state (COSMO-RS): gsolv [1 M gas/solution]
 temperature (mdtemp)       :    298.150000000000     
 dielectric constant        :    80.2000000000000     
 rho                        :    1.00000000000000     
 mass                       :    18.0000000000000     
 surface tension            :    15.5689454083859     
 probe radius               :   0.975313790000000     
 vdW radii scaling          :    1.00000000000000     
 Gshift (Eh)                :   1.857443126794793E-003
 c1                         :    1.55243817000000     
 soset                      :   0.130326360000000     
 HB correction              :  T

            Z     q(EN)     CN     RAES       Cart. coordinates
     1  N   5.0   -0.15    3.48    2.06    29.30209    64.74579   -39.34787
     2  C   4.0    0.02    4.49    4.53    30.40947    63.12441   -37.41657
     3  C   4.0    0.14    3.55    3.14    28.64825    62.92220   -35.18292
     4  O   6.0   -0.30    1.27    1.80    26.91348    64.46044   -34.92403
     5  C   4.0   -0.05    4.37    4.33    32.79052    64.56249   -36.59643
     6  C   4.0   -0.05    4.30    4.19    32.79808    66.99834   -38.04774
     7  C   4.0   -0.01    4.26    4.11    30.21672    67.35361   -39.12111
     8  H   1.0    0.02    1.05    1.44    30.92725    61.28003   -38.17624
     9  H   1.0    0.05    1.04    1.43    32.71116    64.92531   -34.57065
    10  H   1.0    0.02    1.03    1.43    34.45915    63.44377   -37.04808
    11  H   1.0    0.03    1.03    1.43    33.26296    68.54792   -36.77407
    12  H   1.0    0.02    1.03    1.43    34.19270    66.88496   -39.55952
    13  H   1.0    0.04    1.02    1.43    29.02808    68.44587   -37.84365
    14  H   1.0    0.02    1.02    1.43    30.29987    68.27202   -40.96359
    15  N   5.0   -0.10    3.73    2.32    29.09989    61.06838   -33.52941
    16  C   4.0    0.03    4.61    4.68    27.36890    60.88697   -31.42992
    17  C   4.0    0.16    3.44    3.09    28.03597    62.99212   -29.57988
    18  O   6.0   -0.30    1.25    1.80    30.23373    63.78203   -29.46272
    19  C   4.0   -0.05    4.35    4.28    27.93771    58.26403   -30.31120
    20  C   4.0   -0.05    4.28    4.16    29.94649    57.07728   -31.99684
    21  C   4.0   -0.02    4.35    4.29    31.15402    59.20700   -33.37067
    22  H   1.0    0.04    1.05    1.44    25.38280    60.93043   -31.97416
    23  H   1.0    0.06    1.03    1.43    28.63691    58.47379   -28.38557
    24  H   1.0    0.03    1.02    1.43    26.21995    57.12642   -30.31687
    25  H   1.0    0.03    1.03    1.43    31.32788    56.08140   -30.83655
    26  H   1.0    0.02    1.03    1.43    29.06021    55.76770   -33.31587
    27  H   1.0    0.04    1.02    1.43    32.75084    59.95911   -32.31053
    28  H   1.0    0.02    1.02    1.43    31.76818    58.62119   -35.24717
    29  N   5.0   -0.15    3.47    2.06    26.14814    63.95022   -28.22684
    30  C   4.0    0.04    4.48    4.51    26.54876    65.97978   -26.39191
    31  C   4.0    0.15    3.47    3.10    27.45961    64.97823   -23.83511
    32  O   6.0   -0.33    1.33    1.80    28.62179    66.35395   -22.37058
    33  C   4.0   -0.03    4.11    3.82    24.10723    67.47455   -26.01586
    34  S   6.0   -0.08    2.53    3.10    21.76964    65.81349   -24.14503
    35  H   1.0    0.07    1.07    1.44    24.31510    63.36629   -28.35345
    36  H   1.0    0.06    1.07    1.44    27.97550    67.26857   -27.12891
    37  H   1.0    0.06    1.07    1.44    24.55132    69.23956   -25.05210
    38  H   1.0    0.05    1.07    1.44    23.27764    67.86762   -27.86023
    39  H   1.0    0.04    1.00    1.43    20.09386    66.96519   -23.14121
    40  N   5.0   -0.13    3.58    2.14    26.85301    62.59528   -23.30221
    41  C   4.0    0.04    4.42    4.41    27.54276    61.35373   -20.93816
    42  C   4.0    0.07    3.24    3.04    28.64447    58.76292   -21.49374
    43  O   6.0   -0.31    1.15    1.80    28.68415    57.93711   -23.66693
    44  C   4.0   -0.02    4.31    4.21    25.23351    60.95500   -19.22418
    45  C   4.0   -0.08    4.13    3.85    24.79887    63.24535   -17.60280
    46  C   4.0   -0.08    4.17    3.94    22.89970    60.31438   -20.77943
    47  H   1.0    0.08    1.07    1.44    25.86279    61.45578   -24.50030
    48  H   1.0    0.06    1.06    1.44    28.96005    62.53292   -20.01976
    49  H   1.0    0.04    1.07    1.44    25.59445    59.35629   -17.97696
    50  H   1.0    0.03    1.00    1.43    23.15481    62.91654   -16.40471
    51  H   1.0    0.04    1.01    1.43    26.46561    63.56660   -16.43495
    52  H   1.0    0.05    1.00    1.43    24.46817    64.87429   -18.81789
    53  H   1.0    0.03    1.00    1.43    21.30099    60.04415   -19.50953
    54  H   1.0    0.04    1.08    1.44    22.51231    61.86585   -22.07578
    55  H   1.0    0.04    1.00    1.43    23.25497    58.58528   -21.83956
    56  N   5.0   -0.21    3.22    1.96    28.62179    54.31072    -6.65184
    57  C   4.0    0.02    4.30    4.19    28.54242    55.31039    -9.22564
    58  C   4.0    0.14    3.43    3.09    30.40380    57.48546    -9.46375
    59  O   6.0   -0.32    1.28    1.80    30.83088    58.85740    -7.64583
    60  C   4.0   -0.05    4.38    4.35    25.88736    56.32517    -9.75666
    61  C   4.0   -0.03    4.18    3.96    25.04265    57.05461   -12.42495
    62  C   4.0   -0.09    4.11    3.82    24.18093    54.73402   -13.89138
    63  C   4.0   -0.09    4.11    3.83    22.90537    58.96701   -12.30023
    64  H   1.0    0.11    1.04    1.43    28.87501    55.68266    -5.32147
    65  H   1.0    0.03    1.05    1.44    29.06587    53.85530   -10.58624
    66  H   1.0    0.03    1.04    1.43    24.56266    54.87764    -9.12927
    67  H   1.0    0.05    1.05    1.44    25.66248    58.02592    -8.61715
    68  H   1.0    0.04    1.06    1.44    26.63947    57.89742   -13.41705
    69  H   1.0    0.03    1.00    1.43    23.59323    55.31417   -15.77921
    70  H   1.0    0.03    1.00    1.43    25.74752    53.40366   -14.02177
    71  H   1.0    0.03    1.00    1.43    22.59923    53.86286   -12.89927
    72  H   1.0    0.03    1.00    1.43    22.33278    59.46023   -14.21641
    73  H   1.0    0.03    1.00    1.43    21.31800    58.13364   -11.28544
    74  H   1.0    0.03    1.00    1.43    23.56677    60.64886   -11.31001
    75  N   5.0   -0.15    3.41    2.03    31.46205    57.84073   -11.70874
    76  C   4.0    0.03    4.41    4.40    33.13445    59.99880   -12.17928
    77  C   4.0    0.14    3.41    3.08    32.14424    61.87341   -14.16539
    78  O   6.0   -0.32    1.23    1.80    31.10678    61.11752   -16.11369
    79  C   4.0   -0.04    4.29    4.18    35.76306    59.09551   -12.94273
    80  C   4.0   -0.03    4.23    4.05    37.61500    61.25169   -13.37170
    81  C   4.0    0.24    3.13    3.03    39.67480    60.61107   -15.25576
    82  O   6.0   -0.31    1.19    1.80    39.44614    58.67977   -16.62959
    83  O   6.0   -0.30    1.17    1.80    41.51539    62.08506   -15.36347
    84  H   1.0    0.07    1.05    1.44    31.20504    56.68422   -13.22808
    85  H   1.0    0.06    1.08    1.44    33.21193    61.07405   -10.42373
    86  H   1.0    0.04    1.03    1.43    36.51895    57.89742   -11.44607
    87  H   1.0    0.06    1.04    1.43    35.61755    58.02404   -14.69640
    88  H   1.0    0.06    1.06    1.44    36.58509    62.88441   -14.09169
    89  H   1.0    0.05    1.03    1.43    38.51828    61.72223   -11.58213
    90  N   5.0   -0.15    3.50    2.08    32.54486    64.31493   -13.68540
    91  C   4.0    0.03    4.51    4.55    31.62456    66.33316   -15.34646
    92  C   4.0    0.15    3.40    3.08    33.57854    67.18732   -17.31745
    93  O   6.0   -0.32    1.33    1.80    35.64968    68.03958   -16.66738
    94  C   4.0   -0.02    4.36    4.31    30.75529    68.63296   -13.83657
    95  C   4.0   -0.04    4.24    4.08    29.12446    67.79770   -11.60859
    96  C   4.0   -0.06    4.16    3.92    29.28319    70.42442   -15.53355
    97  C   4.0   -0.08    4.04    3.70    26.50530    66.87929   -12.35314
    98  H   1.0    0.12    1.15    1.45    33.50862    64.96311   -12.14716
    99  H   1.0    0.05    1.08    1.44    30.06743    65.48278   -16.39337
   100  H   1.0    0.06    1.06    1.44    32.41447    69.61561   -13.10903
   101  H   1.0    0.06    1.05    1.44    30.07688    66.25190   -10.63727
   102  H   1.0    0.04    1.03    1.43    28.88824    69.39452   -10.32924
   103  H   1.0    0.05    1.00    1.43    28.67848    72.05336   -14.42617
   104  H   1.0    0.06    1.00    1.43    30.50018    71.03858   -17.07745
   105  H   1.0    0.05    1.01    1.43    27.63913    69.43798   -16.28566
   106  H   1.0    0.03    1.00    1.43    25.48106    66.32560   -10.65427
   107  H   1.0    0.04    1.00    1.43    25.50563    68.40619   -13.30934
   108  H   1.0    0.04    1.01    1.43    26.69616    65.26358   -13.61737
   109  N   5.0   -0.15    3.53    2.10    32.86800    67.00779   -19.72118
   110  C   4.0    0.04    4.43    4.43    34.59332    67.46133   -21.80933
   111  C   4.0    0.14    3.41    3.08    33.94515    69.89340   -23.23418
   112  O   6.0   -0.31    1.23    1.80    35.35488    70.71921   -24.89714
   113  C   4.0   -0.03    4.40    4.38    34.47427    65.24657   -23.64614
   114  C   4.0   -0.02    4.21    4.02    34.68970    62.61229   -22.51986
   115  C   4.0   -0.07    4.09    3.78    34.57632    60.61107   -24.60990
   116  C   4.0   -0.06    4.13    3.86    37.12367    62.44032   -21.00997
   117  H   1.0    0.11    1.13    1.45    31.08410    66.54481   -20.28243
   118  H   1.0    0.06    1.06    1.44    36.52462    67.60495   -21.10824
   119  H   1.0    0.06    1.04    1.43    32.66769    65.33350   -24.63069
   120  H   1.0    0.05    1.04    1.43    36.02007    65.45444   -24.99163
   121  H   1.0    0.06    1.06    1.44    33.11367    62.23623   -21.24808
   122  H   1.0    0.04    1.00    1.43    34.73505    58.74213   -23.75763
   123  H   1.0    0.06    1.00    1.43    32.77919    60.77926   -25.60390
   124  H   1.0    0.04    1.00    1.43    36.13534    60.92099   -25.91948
   125  H   1.0    0.06    1.00    1.43    37.28051    60.55249   -20.20306
   126  H   1.0    0.05    1.00    1.43    38.71671    62.80126   -22.26286
   127  H   1.0    0.06    1.00    1.43    37.08020    63.84628   -19.50575
   128  N   5.0   -0.13    3.50    2.08    31.77952    71.00456   -22.62947
   129  C   4.0    0.03    4.42    4.42    31.00851    73.35727   -23.81433
   130  C   4.0    0.15    3.43    3.09    30.05987    75.19031   -21.81311
   131  O   6.0   -0.31    1.32    1.80    28.44227    74.51378   -20.25219
   132  C   4.0   -0.02    4.30    4.19    28.92792    72.85838   -25.75130
   133  C   4.0   -0.03    4.21    4.01    29.83310    71.70376   -28.23440
   134  C   4.0    0.14    3.21    3.04    27.65047    71.16141   -30.05420
   135  O   6.0   -0.30    1.22    1.80    25.47162    71.84171   -29.54775
   136  N   5.0   -0.18    3.16    1.95    28.22306    69.91041   -32.16692
   137  H   1.0    0.10    1.07    1.44    30.53041    70.32048   -21.33123
   138  H   1.0    0.05    1.07    1.44    32.62612    74.22655   -24.74785
   139  H   1.0    0.06    1.03    1.43    27.56354    71.55447   -24.92360
   140  H   1.0    0.06    1.03    1.43    28.00952    74.64795   -26.19916
   141  H   1.0    0.04    1.03    1.43    31.12568    73.01523   -29.15658
   142  H   1.0    0.06    1.03    1.43    30.79497    69.92553   -27.84133
   143  H   1.0    0.08    1.02    1.43    30.04097    69.36617   -32.50140
   144  H   1.0    0.10    1.02    1.43    26.84167    69.49845   -33.44626
   145  N   5.0   -0.13    3.45    2.05    31.07654    77.49199   -21.81878
   146  C   4.0    0.04    4.41    4.39    30.12412    79.45353   -20.11424
   147  C   4.0    0.16    3.42    3.09    27.34811    79.99966   -20.71518
   148  O   6.0   -0.27    1.25    1.80    26.57522    79.83714   -22.90159
   149  C   4.0   -0.04    4.29    4.18    31.71905    81.87616   -20.29377
   150  C   4.0    0.14    3.23    3.04    34.54797    81.38105   -19.99708
   151  O   6.0   -0.32    1.22    1.80    35.54197    81.19774   -17.89570
   152  N   5.0   -0.19    3.19    1.95    35.85566    81.19397   -22.12113
   153  H   1.0    0.07    1.06    1.44    32.52974    78.05135   -22.95450
   154  H   1.0    0.07    1.06    1.44    30.26585    78.79779   -18.16594
   155  H   1.0    0.05    1.03    1.43    31.41480    82.74354   -22.13625
   156  H   1.0    0.05    1.03    1.43    31.14079    83.17251   -18.80088
   157  H   1.0    0.09    1.02    1.43    37.75295    80.86515   -22.05877
   158  H   1.0    0.08    1.03    1.43    34.96560    81.37916   -23.82000
   159  N   5.0   -0.13    3.32    1.99    25.82122    80.56469   -18.79899
   160  C   4.0    0.03    4.28    4.16    23.19450    81.25822   -19.30922
   161  C   4.0    0.15    3.30    3.05    21.29910    81.17129   -17.16816
   162  O   6.0   -0.31    1.27    1.80    21.94917    80.75177   -14.99498
   163  H   1.0    0.11    1.07    1.44    26.32388    80.56091   -16.93761
   164  H   1.0    0.06    1.03    1.43    23.18316    83.18952   -20.02543
   165  H   1.0    0.07    1.04    1.43    22.48396    79.99588   -20.77376
   166  N   5.0   -0.14    3.43    2.04    18.91994    81.59081   -17.83145
   167  C   4.0    0.03    4.44    4.45    16.87714    81.56624   -16.00220
   168  C   4.0    0.14    3.39    3.08    15.58835    78.95653   -15.81512
   169  O   6.0   -0.32    1.22    1.80    14.22019    78.14017   -17.53666
   170  C   4.0   -0.05    4.35    4.30    14.95718    83.64116   -16.60691
   171  C   4.0   -0.03    4.20    4.01    13.08635    84.16272   -14.47152
   172  C   4.0   -0.08    4.14    3.88    14.51499    84.49343   -11.99787
   173  C   4.0   -0.09    4.09    3.78    11.41394    86.44362   -15.03466
   174  H   1.0    0.10    1.07    1.44    18.34924    81.95552   -19.63614
   175  H   1.0    0.05    1.09    1.44    17.71618    81.91017   -14.15216
   176  H   1.0    0.04    1.03    1.43    15.97574    85.38916   -16.99242
   177  H   1.0    0.05    1.03    1.43    13.87626    83.07613   -18.26609
   178  H   1.0    0.04    1.06    1.44    11.81457    82.55268   -14.28822
   179  H   1.0    0.04    1.00    1.43    13.16383    84.86381   -10.48798
   180  H   1.0    0.05    1.01    1.43    15.56378    82.76811   -11.59347
   181  H   1.0    0.04    1.00    1.43    15.81512    86.08080   -12.18117
   182  H   1.0    0.03    1.00    1.43    10.11948    86.73086   -13.45863
   183  H   1.0    0.03    1.00    1.43    12.60636    88.10658   -15.27654
   184  H   1.0    0.03    1.00    1.43    10.35003    86.08458   -16.76187
   185  N   5.0   -0.14    3.48    2.06    16.02866    77.67341   -13.69673
   186  C   4.0    0.04    4.36    4.31    15.06301    75.13739   -13.34147
   187  C   4.0    0.07    3.24    3.04    13.10525    75.01645   -11.27788
   188  O   6.0   -0.32    1.24    1.80    13.56445    75.79691    -9.16328
   189  C   4.0   -0.03    4.36    4.31    17.20029    73.34782   -12.64794
   190  C   4.0   -0.02    3.55    3.14    19.07678    72.89240   -14.73986
   191  C   4.0   -0.04    3.48    3.10    21.11769    74.51378   -15.10647
   192  C   4.0   -0.05    3.47    3.10    18.83112    70.81937   -16.33479
   193  C   4.0   -0.04    3.43    3.09    22.87891    74.06970   -17.00186
   194  C   4.0   -0.05    3.43    3.09    20.56778    70.36017   -18.22830
   195  C   4.0    0.07    3.45    3.10    22.58600    71.98155   -18.55333
   196  O   6.0   -0.24    2.11    1.84    24.32266    71.49589   -20.42794
   197  H   1.0    0.12    1.14    1.45    17.04722    78.35182   -12.20763
   198  H   1.0    0.05    1.07    1.44    14.15783    74.56859   -15.10080
   199  H   1.0    0.05    1.04    1.43    18.22830    74.14151   -11.04923
   200  H   1.0    0.03    1.04    1.43    16.38959    71.52613   -12.13015
   201  H   1.0    0.07    1.03    1.43    21.33501    76.14273   -13.89704
   202  H   1.0    0.04    1.03    1.43    17.25509    69.54569   -16.08913
   203  H   1.0    0.07    1.03    1.43    24.45683    75.33770   -17.26265
   204  H   1.0    0.05    1.03    1.43    20.34857    68.74067   -19.44906
   205  H   1.0    0.15    1.09    1.44    25.77964    72.62406   -20.24841
   206  N   5.0   -0.19    3.26    1.97    10.55223    70.02757    -6.79356
   207  C   4.0    0.02    4.35    4.30    10.68262    67.45566    -5.84303
   208  C   4.0    0.06    3.35    3.06     8.14283    66.88874    -4.72620
   209  O   6.0   -0.31    1.15    1.80     6.75766    68.62540    -3.99299
   210  C   4.0   -0.03    4.39    4.37    12.61581    67.14007    -3.73221
   211  C   4.0   -0.06    4.22    4.04    15.29544    67.13251    -4.80557
   212  C   4.0   -0.09    4.17    3.94    12.07535    64.70800    -2.29413
   213  C   4.0   -0.08    4.03    3.68    17.05100    68.83516    -3.40151
   214  H   1.0    0.09    1.02    1.43    10.92829    71.40896    -5.50288
   215  H   1.0    0.03    1.05    1.44    11.17962    66.20655    -7.40395
   216  H   1.0    0.04    1.07    1.44    12.46463    68.73311    -2.43397
   217  H   1.0    0.03    1.04    1.43    16.04944    65.21822    -4.70542
   218  H   1.0    0.03    1.05    1.44    15.23119    67.76179    -6.76522
   219  H   1.0    0.03    1.00    1.43    13.46619    64.49635    -0.78991
   220  H   1.0    0.03    1.02    1.43    10.18184    64.81004    -1.49099
   221  H   1.0    0.03    1.00    1.43    12.20196    63.11685    -3.59615
   222  H   1.0    0.03    1.00    1.43    18.91805    68.73500    -4.26700
   223  H   1.0    0.04    1.00    1.43    16.33479    70.76457    -3.49788
   224  H   1.0    0.03    1.00    1.43    17.15304    68.22100    -1.43808
   225  N   5.0   -0.21    3.21    1.96    28.18337    67.51424     6.01311
   226  C   4.0    0.03    4.23    4.06    29.20760    68.66697     3.72465
   227  C   4.0    0.08    3.26    3.05    32.05164    68.57626     3.93630
   228  O   6.0   -0.31    1.13    1.80    33.20437    70.05970     5.34414
   229  C   4.0   -0.05    4.29    4.18    28.35723    71.41085     3.42418
   230  C   4.0   -0.05    4.20    4.01    29.54398    72.75445     1.16785
   231  C   4.0   -0.06    4.19    3.98    28.84100    75.54368     1.11494
   232  C   4.0   -0.04    4.14    3.88    30.93292    77.13483    -0.03590
   233  N   5.0   -0.12    4.01    2.88    30.12601    79.81258    -0.22299
   234  H   1.0    0.08    1.02    1.43    28.25518    68.65374     7.56457
   235  H   1.0    0.04    1.07    1.44    28.55187    67.58416     2.09949
   236  H   1.0    0.03    1.03    1.43    26.31254    71.44676     3.17285
   237  H   1.0    0.04    1.03    1.43    28.87690    72.45398     5.12305
   238  H   1.0    0.06    1.04    1.43    31.59433    72.60516     1.28690
   239  H   1.0    0.04    1.03    1.43    28.87312    71.88518    -0.57448
   240  H   1.0    0.03    1.03    1.43    27.13835    75.79691    -0.01701
   241  H   1.0    0.03    1.03    1.43    28.51219    76.20131     3.03868
   242  H   1.0    0.04    1.02    1.43    32.61289    77.03468     1.15273
   243  H   1.0    0.07    1.03    1.43    31.36567    76.44319    -1.92752
   244  H   1.0    0.05    1.01    1.43    31.56409    80.89539    -1.01289
   245  H   1.0    0.06    1.02    1.43    28.52541    79.95430    -1.35493
   246  H   1.0    0.04    1.02    1.43    29.70649    80.51555     1.56469
   247  N   5.0   -0.21    3.27    1.97    14.71719    79.22865    -5.61627
   248  C   4.0    0.03    4.37    4.34    17.38170    79.63494    -5.11738
   249  C   4.0    0.14    3.48    3.11    18.68561    80.26044    -7.53056
   250  O   6.0   -0.32    1.37    1.80    18.37570    78.95275    -9.42217
   251  C   4.0   -0.04    4.36    4.31    18.60057    77.27278    -4.03079
   252  C   4.0   -0.03    3.53    3.13    17.80878    76.67563    -1.35871
   253  C   4.0   -0.06    3.45    3.10    19.36780    77.30113     0.66518
   254  C   4.0   -0.05    3.45    3.10    15.52032    75.45676    -0.84471
   255  C   4.0   -0.05    3.41    3.08    18.68750    76.73610     3.14450
   256  C   4.0   -0.06    3.40    3.08    14.80789    74.89740     1.62516
   257  C   4.0    0.06    3.42    3.08    16.40660    75.54746     3.63016
   258  O   6.0   -0.27    2.08    1.84    15.75087    75.04291     6.12271
   259  H   1.0    0.13    1.10    1.44    14.34869    78.21387    -7.21308
   260  H   1.0    0.03    1.06    1.44    17.58201    81.19963    -3.79268
   261  H   1.0    0.05    1.04    1.43    18.08657    75.66463    -5.20997
   262  H   1.0    0.04    1.04    1.43    20.64526    77.52412    -4.03645
   263  H   1.0    0.04    1.03    1.43    21.14225    78.24410     0.30614
   264  H   1.0    0.05    1.03    1.43    14.28822    74.94086    -2.38672
   265  H   1.0    0.04    1.03    1.43    19.93472    77.22365     4.68463
   266  H   1.0    0.04    1.03    1.43    13.02966    73.96576     1.99366
   267  H   1.0    0.10    1.02    1.43    14.10114    74.20387     6.18696
   268  N   5.0   -0.15    3.46    2.06    20.13692    82.29190    -7.46064
   269  C   4.0    0.03    4.44    4.44    21.94917    82.81913    -9.44107
   270  C   4.0    0.15    3.44    3.09    24.45305    81.49821    -8.86092
   271  O   6.0   -0.30    1.24    1.80    25.81933    82.20875    -7.11482
   272  C   4.0   -0.04    4.30    4.20    22.32900    85.65939    -9.72453
   273  C   4.0   -0.02    4.22    4.05    24.25463    86.37937   -11.70685
   274  C   4.0    0.24    3.13    3.03    24.73840    89.19129   -11.75221
   275  O   6.0   -0.30    1.17    1.80    23.06599    90.58968   -12.67628
   276  O   6.0   -0.29    1.17    1.80    26.76608    90.00576   -10.82624
   277  H   1.0    0.07    1.06    1.44    20.09724    83.60715    -6.05279
   278  H   1.0    0.07    1.08    1.44    21.22918    82.05379   -11.21363
   279  H   1.0    0.05    1.03    1.43    20.53187    86.51543   -10.25554
   280  H   1.0    0.05    1.03    1.43    22.96962    86.42284    -7.92173
   281  H   1.0    0.07    1.04    1.43    26.03475    85.42506   -11.30056
   282  H   1.0    0.06    1.03    1.43    23.56110    85.81435   -13.56256
   283  N   5.0   -0.13    3.51    2.09    25.02753    79.54801   -10.32357
   284  C   4.0    0.04    4.46    4.48    27.22906    78.00600    -9.83035
   285  C   4.0    0.15    3.41    3.08    29.21327    78.40095   -11.85992
   286  O   6.0   -0.30    1.27    1.80    28.62935    79.27967   -13.92917
   287  C   4.0   -0.05    4.38    4.34    26.47506    75.22999    -9.69051
   288  C   4.0   -0.02    4.24    4.07    24.22818    74.77079    -7.94063
   289  C   4.0   -0.08    4.10    3.80    22.53687    72.63351    -8.89872
   290  C   4.0   -0.08    4.12    3.83    25.14658    74.25678    -5.28745
   291  H   1.0    0.10    1.07    1.44    23.99952    78.99999   -11.85803
   292  H   1.0    0.06    1.07    1.44    28.07566    78.55024    -8.03323
   293  H   1.0    0.04    1.04    1.43    25.95917    74.58181   -11.57646
   294  H   1.0    0.04    1.04    1.43    28.07188    74.13773    -8.98187
   295  H   1.0    0.05    1.08    1.44    23.06033    76.46587    -7.90661
   296  H   1.0    0.04    1.00    1.43    20.96840    72.38217    -7.58914
   297  H   1.0    0.04    1.02    1.43    21.82067    73.13050   -10.76577
   298  H   1.0    0.03    1.00    1.43    23.64425    70.90063    -9.01021
   299  H   1.0    0.03    1.00    1.43    23.51953    73.93364    -4.06480
   300  H   1.0    0.04    1.00    1.43    26.35223    72.58626    -5.30635
   301  H   1.0    0.05    1.00    1.43    26.21428    75.88761    -4.62038
   302  N   5.0   -0.14    3.47    2.06    31.55464    77.72443   -11.24387
   303  C   4.0    0.04    4.47    4.49    33.67492    78.08159   -12.95974
   304  C   4.0    0.16    3.44    3.09    35.07898    75.66841   -13.55122
   305  O   6.0   -0.30    1.33    1.80    34.81820    73.76734   -12.24164
   306  C   4.0   -0.03    4.32    4.23    35.48527    80.02611   -11.87693
   307  C   4.0    0.02    3.75    3.29    34.26451    82.52055   -11.42717
   308  N   5.0   -0.10    3.57    2.13    33.09288    83.86226   -13.33391
   309  C   4.0    0.02    3.57    3.15    33.90168    83.86037    -9.28044
   310  C   4.0    0.06    3.56    3.14    32.11211    85.95418   -12.39093
   311  N   5.0   -0.15    2.51    1.90    32.57132    85.99576    -9.93429
   312  H   1.0    0.10    1.07    1.44    32.03841    76.92129    -9.56012
   313  H   1.0    0.06    1.08    1.44    32.92658    78.72220   -14.76821
   314  H   1.0    0.06    1.04    1.43    36.21093    79.33825   -10.07602
   315  H   1.0    0.05    1.04    1.43    37.03863    80.30579   -13.20163
   316  H   1.0    0.09    1.05    1.44    33.00028    83.32180   -15.18206
   317  H   1.0    0.05    1.01    1.43    34.53663    83.35014    -7.40962
   318  H   1.0    0.05    1.01    1.43    31.10867    87.38471   -13.44351
   319  N   5.0   -0.14    3.49    2.07    36.58698    75.76856   -15.54111
   320  C   4.0    0.04    4.57    4.63    37.92680    73.54624   -16.41227
   321  C   4.0    0.16    3.50    3.12    39.61621    72.38217   -14.38270
   322  O   6.0   -0.29    1.24    1.80    40.89367    73.70876   -12.97297
   323  C   4.0   -0.02    4.33    4.26    39.48960    74.16607   -18.71963
   324  C   4.0   -0.06    4.18    3.96    40.93902    71.87195   -19.53410
   325  C   4.0   -0.06    4.14    3.87    37.76239    75.11472   -20.83612
   326  H   1.0    0.09    1.08    1.44    36.91958    77.35404   -16.58612
   327  H   1.0    0.06    1.08    1.44    36.48116    72.15352   -16.87525
   328  H   1.0    0.05    1.06    1.44    40.84454    75.65518   -18.28310
   329  H   1.0    0.06    1.00    1.43    42.05774    72.34249   -21.19895
   330  H   1.0    0.05    1.02    1.43    42.17868    71.28235   -17.99775
   331  H   1.0    0.06    1.00    1.43    39.61055    70.36395   -19.98385
   332  H   1.0    0.06    1.00    1.43    38.90757    75.55502   -22.48963
   333  H   1.0    0.06    1.00    1.43    36.39801    73.64262   -21.29910
   334  H   1.0    0.05    1.01    1.43    36.77974    76.80602   -20.19172
   335  N   5.0   -0.14    3.44    2.04    39.58220    69.88018   -14.21830
   336  C   4.0    0.02    4.27    4.13    40.99760    68.55170   -12.26243
   337  C   4.0    0.16    3.34    3.06    39.50094    68.22478    -9.84547
   338  O   6.0   -0.30    1.23    1.80    40.21526    66.75079    -8.19007
   339  H   1.0    0.11    1.12    1.45    38.59765    68.72555   -15.40505
   340  H   1.0    0.06    1.03    1.43    41.52295    66.68465   -12.95596
   341  H   1.0    0.05    1.03    1.43    42.70970    69.61183   -11.82590
   342  N   5.0   -0.12    3.50    2.08    37.40901    69.59672    -9.65083
   343  C   4.0    0.05    4.44    4.45    35.74606    69.34349    -7.49087
   344  C   4.0    0.16    3.44    3.09    34.77474    66.63552    -7.28489
   345  O   6.0   -0.33    1.40    1.80    33.95271    65.53948    -9.14249
   346  C   4.0   -0.03    4.27    4.14    33.54075    71.23700    -7.66284
   347  C   4.0    0.25    3.12    3.03    34.22105    73.84293    -6.58192
   348  O   6.0   -0.28    1.20    1.80    36.49439    74.46087    -6.54601
   349  O   6.0   -0.32    1.19    1.80    32.51462    75.27723    -5.78067
   350  H   1.0    0.12    1.11    1.44    36.82320    70.89118   -10.95285
   351  H   1.0    0.06    1.07    1.44    36.79296    69.78002    -5.77122
   352  H   1.0    0.06    1.05    1.44    33.01729    71.48266    -9.63949
   353  H   1.0    0.05    1.03    1.43    31.93826    70.50190    -6.59703
   354  N   5.0   -0.13    3.47    2.06    34.92591    65.54703    -5.03612
   355  C   4.0    0.04    4.48    4.50    33.52941    63.23590    -4.48999
   356  C   4.0    0.15    3.40    3.08    31.17481    63.65920    -2.86105
   357  O   6.0   -0.31    1.22    1.80    30.85356    65.66420    -1.66863
   358  C   4.0    0.05    4.23    4.05    35.18292    61.22145    -3.18608
   359  O   6.0   -0.25    2.09    1.84    35.34354    61.70144    -0.50267
   360  C   4.0   -0.07    4.10    3.80    37.78696    61.17610    -4.38227
   361  H   1.0    0.09    1.05    1.44    35.98605    66.21033    -3.56969
   362  H   1.0    0.07    1.08    1.44    32.92281    62.54615    -6.33247
   363  H   1.0    0.04    1.04    1.43    34.33821    59.35818    -3.42796
   364  H   1.0    0.10    1.00    1.43    36.39423    60.41076     0.30992
   365  H   1.0    0.03    1.00    1.43    38.96048    59.75313    -3.46387
   366  H   1.0    0.05    1.00    1.43    37.63389    60.72445    -6.38538
   367  H   1.0    0.06    1.01    1.43    38.68836    63.01669    -4.18007
   368  N   5.0   -0.14    3.46    2.05    29.58177    61.70522    -2.79301
   369  C   4.0    0.03    4.44    4.45    27.26686    61.70522    -1.31147
   370  C   4.0    0.06    3.29    3.05    26.81899    59.08039    -0.22866
   371  O   6.0   -0.32    1.14    1.80    27.11379    57.19445    -1.53824
   372  C   4.0   -0.02    4.38    4.34    25.00107    62.47434    -2.93852
   373  C   4.0   -0.05    4.23    4.05    24.99729    65.32972    -3.33537
   374  C   4.0   -0.09    4.17    3.95    22.54632    61.60129    -1.73855
   375  C   4.0   -0.08    4.08    3.76    24.84423    66.78480    -0.92030
   376  H   1.0    0.10    1.07    1.44    29.85956    60.06683    -3.77000
   377  H   1.0    0.04    1.07    1.44    27.48984    63.02425     0.25511
   378  H   1.0    0.04    1.06    1.44    25.16926    61.55782    -4.77534
   379  H   1.0    0.05    1.03    1.43    26.73773    65.87207    -4.29346
   380  H   1.0    0.03    1.03    1.43    23.36835    65.84183    -4.48810
   381  H   1.0    0.03    1.00    1.43    20.97218    62.17576    -2.93663
   382  H   1.0    0.04    1.01    1.43    22.58034    59.54904    -1.55902
   383  H   1.0    0.03    1.00    1.43    22.36491    62.46678     0.12283
   384  H   1.0    0.03    1.00    1.43    24.84990    68.79925    -1.34926
   385  H   1.0    0.03    1.00    1.43    23.10379    66.28025     0.05858
   386  H   1.0    0.04    1.02    1.43    26.47128    66.31237     0.25133
   387  N   5.0   -0.22    3.22    1.96    11.66906    60.57706   -11.90527
   388  C   4.0    0.03    4.34    4.27    12.54778    63.06015   -12.55723
   389  C   4.0    0.06    3.28    3.05    11.85236    63.76691   -15.24064
   390  O   6.0   -0.31    1.14    1.80    11.72386    62.17765   -16.91872
   391  C   4.0   -0.03    4.38    4.35    15.39938    63.31527   -12.13960
   392  C   4.0   -0.06    4.22    4.04    16.07779    66.06293   -11.60670
   393  C   4.0   -0.07    4.19    3.97    16.84691    62.35529   -14.41294
   394  C   4.0   -0.09    4.04    3.69    18.84246    66.41253   -10.99821
   395  H   1.0    0.09    1.03    1.43    11.55567    59.33551   -13.37548
   396  H   1.0    0.03    1.07    1.44    11.53867    64.38296   -11.34214
   397  H   1.0    0.03    1.06    1.44    15.92094    62.17009   -10.50877
   398  H   1.0    0.03    1.03    1.43    15.64126    67.19677   -13.26966
   399  H   1.0    0.03    1.04    1.43    14.97986    66.72433    -9.99476
   400  H   1.0    0.03    1.01    1.43    18.86513    62.56127   -14.05956
   401  H   1.0    0.04    1.00    1.43    16.38581    60.37107   -14.71152
   402  H   1.0    0.05    1.01    1.43    16.30645    63.45889   -16.06645
   403  H   1.0    0.03    1.00    1.43    19.20340    68.40808   -10.63727
   404  H   1.0    0.03    1.00    1.43    19.30733    65.30137    -9.32580
   405  H   1.0    0.03    1.00    1.43    19.96873    65.77380   -12.60069
   406  N   5.0   -0.20    3.23    1.96    13.07123    69.97277   -20.62825
   407  C   4.0    0.03    4.24    4.08    14.14838    72.37839   -21.37091
   408  C   4.0    0.08    3.25    3.04    12.01299    74.09049   -22.24018
   409  O   6.0   -0.30    1.14    1.80    10.60325    73.41018   -23.95417
   410  C   4.0   -0.05    4.38    4.35    15.98708    71.97210   -23.55732
   411  C   4.0   -0.03    4.18    3.97    18.05444    73.94309   -24.02598
   412  C   4.0   -0.07    4.10    3.80    19.16371    73.62750   -26.66403
   413  C   4.0   -0.06    4.17    3.94    17.07556    76.60949   -23.63480
   414  H   1.0    0.08    1.03    1.43    13.33391    68.56115   -21.91326
   415  H   1.0    0.04    1.05    1.44    15.14237    73.23822   -19.78543
   416  H   1.0    0.04    1.04    1.43    16.95084    70.18064   -23.23040
   417  H   1.0    0.05    1.04    1.43    14.87592    71.86817   -25.28831
   418  H   1.0    0.05    1.06    1.44    19.56244    73.64829   -22.65403
   419  H   1.0    0.06    1.00    1.43    20.62636    75.04858   -26.95127
   420  H   1.0    0.05    1.00    1.43    19.97440    71.74156   -26.82844
   421  H   1.0    0.04    1.00    1.43    17.66516    73.87128   -28.05487
   422  H   1.0    0.07    1.02    1.43    18.60435    77.94364   -23.98629
   423  H   1.0    0.05    1.01    1.43    15.52599    76.95531   -24.94816
   424  H   1.0    0.06    1.01    1.43    16.40849    76.80035   -21.69594
   425  N   5.0   -0.21    3.19    1.95    13.21674    80.82358   -23.51764
   426  C   4.0    0.02    4.21    4.02    14.18617    82.87204   -25.11824
   427  C   4.0    0.14    3.34    3.06    17.08312    83.25566   -25.07099
   428  O   6.0   -0.31    1.26    1.80    18.44561    81.93852   -23.70472
   429  C   4.0   -0.08    4.11    3.83    12.82935    85.33813   -24.43983
   430  H   1.0    0.10    1.03    1.43    14.48853    80.09225   -22.26853
   431  H   1.0    0.03    1.06    1.44    13.84224    82.23898   -27.04765
   432  H   1.0    0.04    1.00    1.43    13.55500    86.85180   -25.63224
   433  H   1.0    0.03    1.00    1.43    10.80734    85.10003   -24.75730
   434  H   1.0    0.04    1.00    1.43    13.18273    85.77466   -22.45750
   435  N   5.0   -0.14    3.42    2.03    17.98641    85.07924   -26.57900
   436  C   4.0    0.03    4.35    4.29    20.56778    86.15261   -26.34089
   437  C   4.0    0.24    3.19    3.03    20.60368    89.01176   -25.91192
   438  O   6.0   -0.30    1.22    1.80    22.10979    90.36103   -27.07032
   439  C   4.0   -0.03    4.33    4.26    22.18160    85.52333   -28.66714
   440  C   4.0    0.15    3.24    3.04    22.21940    82.72275   -29.23973
   441  O   6.0   -0.27    1.20    1.80    23.90881    81.34892   -28.41392
   442  N   5.0   -0.19    3.19    1.95    20.29377    81.83836   -30.57577
   443  O   6.0   -0.29    1.21    1.80    19.12214    89.97930   -24.40203
   444  H   1.0    0.07    1.05    1.44    16.97352    85.87671   -28.01141
   445  H   1.0    0.07    1.06    1.44    21.40493    85.27955   -24.67415
   446  H   1.0    0.04    1.03    1.43    21.41060    86.50221   -30.30742
   447  H   1.0    0.06    1.03    1.43    24.11857    86.13371   -28.32888
   448  H   1.0    0.09    1.02    1.43    20.21062    79.96564   -31.02363
   449  H   1.0    0.07    1.03    1.43    18.89537    83.03078   -31.15591
   450  N   5.0   -0.22    3.22    1.96     8.69311    98.71477   -24.95383
   451  C   4.0    0.02    4.23    4.06     9.83551    98.72408   -22.44805
   452  C   4.0    0.06    3.19    3.03    11.70002   100.85013   -21.86602
   453  O   6.0   -0.31    1.12    1.80    12.95088   101.87344   -23.54032
   454  C   4.0   -0.05    4.51    4.55    10.99912    96.17952   -21.83956
   455  C   4.0   -0.04    4.12    3.84    12.25826    94.92081   -24.02976
   456  S   6.0   -0.03    2.60    3.10    13.35446    91.93365   -22.85624
   457  C   4.0   -0.07    3.95    3.54    14.60352    92.88827   -19.82134
   458  H   1.0    0.08    1.02    1.43     9.87570    99.22516   -26.38813
   459  H   1.0    0.02    1.07    1.44     8.26928    99.14651   -21.17816
   460  H   1.0    0.03    1.09    1.44    12.41932    96.44086   -20.36936
   461  H   1.0    0.03    1.06    1.44     9.51257    94.92194   -21.16682
   462  H   1.0    0.03    1.07    1.44    10.91910    94.62115   -25.56610
   463  H   1.0    0.05    1.07    1.44    13.85465    96.04105   -24.69494
   464  H   1.0    0.05    1.04    1.43    15.35813    91.23353   -18.85569
   465  H   1.0    0.05    1.04    1.43    16.10029    94.27177   -20.11802
   466  H   1.0    0.03    1.06    1.44    13.08797    93.72182   -18.70451
   467  N   5.0   -0.21    3.19    1.95    48.31840    79.53232   -12.05173
   468  C   4.0    0.03    4.25    4.10    47.76849    77.19473   -13.41233
   469  C   4.0    0.14    3.45    3.10    50.08530    75.45996   -13.61642
   470  O   6.0   -0.30    1.23    1.80    52.12620    76.31034   -14.36097
   471  C   4.0   -0.07    4.10    3.80    46.71969    77.82212   -16.02960
   472  H   1.0    0.07    1.03    1.43    47.70991    81.11024   -12.97580
   473  H   1.0    0.04    1.07    1.44    46.35498    76.13459   -12.35408
   474  H   1.0    0.05    1.00    1.43    46.31529    76.06656   -17.02927
   475  H   1.0    0.04    1.00    1.43    44.99060    78.92194   -15.81417
   476  H   1.0    0.05    1.00    1.43    48.12187    78.91438   -17.06895
   477  N   5.0   -0.09    3.66    2.22    49.77538    73.01465   -12.97391
   478  C   4.0    0.03    4.50    4.54    51.88998    71.25910   -13.20446
   479  C   4.0    0.07    3.23    3.04    52.64776    70.90194   -15.95968
   480  O   6.0   -0.31    1.16    1.80    51.08874    71.23264   -17.66988
   481  C   4.0   -0.05    4.40    4.37    50.82796    68.78356   -12.13488
   482  C   4.0   -0.04    4.32    4.24    48.08975    68.96875   -12.49581
   483  C   4.0   -0.02    4.37    4.32    47.48125    71.72964   -12.06496
   484  H   1.0    0.03    1.05    1.44    53.49814    71.89594   -12.08574
   485  H   1.0    0.03    1.03    1.43    51.60275    67.18107   -13.17233
   486  H   1.0    0.03    1.03    1.43    51.30039    68.62293   -10.13555
   487  H   1.0    0.05    1.03    1.43    47.59086    68.39427   -14.41011
   488  H   1.0    0.04    1.03    1.43    47.11654    67.77633   -11.12576
   489  H   1.0    0.05    1.02    1.43    45.83341    72.30034   -13.16100
   490  H   1.0    0.04    1.02    1.43    47.16567    72.11136   -10.06563
   491  N   5.0   -0.22    3.15    1.95    47.99715    71.98286   -27.94621
   492  C   4.0    0.03    4.22    4.03    46.50049    72.75576   -25.72767
   493  C   4.0    0.07    3.18    3.03    46.06963    75.60925   -25.53303
   494  O   6.0   -0.30    1.11    1.80    43.91723    76.47852   -25.55760
   495  C   4.0   -0.04    4.26    4.11    47.54550    71.67106   -23.23890
   496  C   4.0    0.14    3.20    3.04    46.07341    69.34103   -22.31861
   497  O   6.0   -0.30    1.21    1.80    44.26116    68.49443   -23.54693
   498  N   5.0   -0.19    3.16    1.95    46.85198    68.30168   -20.14542
   499  H   1.0    0.07    1.02    1.43    49.57129    70.95296   -27.52669
   500  H   1.0    0.07    1.08    1.44    44.64856    71.90349   -26.01869
   501  H   1.0    0.04    1.03    1.43    49.50704    71.11359   -23.52236
   502  H   1.0    0.05    1.03    1.43    47.42834    73.11670   -21.77626
   503  H   1.0    0.09    1.02    1.43    45.94869    66.75210   -19.44056
   504  H   1.0    0.10    1.05    1.44    48.34864    69.05946   -19.19678
   505  H   1.0    0.09    1.07    1.44    47.03761    71.02436   -28.97243
   506  H   1.0    0.04    1.04    1.43    47.54576    76.77975   -25.38461
   507  H   1.0    0.07    1.09    1.44    29.11036    63.86285   -40.78878
   508  H   1.0    0.05    1.04    1.44    29.34550    57.71295   -20.08762
   509  H   1.0    0.09    1.08    1.44    27.15756    53.51795    -6.30530
   510  H   1.0    0.05    1.05    1.44    11.39910    74.28701   -11.63569
   511  H   1.0    0.09    1.07    1.44    11.68050    70.22614    -8.05060
   512  H   1.0    0.03    1.05    1.44     7.55775    65.09871    -4.56960
   513  H   1.0    0.08    1.07    1.44    26.55033    67.11014     5.76325
   514  H   1.0    0.06    1.04    1.44    33.03371    67.30968     2.93512
   515  H   1.0    0.09    1.08    1.44    14.01983    78.37855    -4.31873
   516  H   1.0    0.04    1.04    1.44    26.27774    58.88033     1.57081
   517  H   1.0    0.08    1.09    1.44    12.72337    59.88281   -10.76553
   518  H   1.0    0.04    1.05    1.44    11.48465    65.56812   -15.67824
   519  H   1.0    0.08    1.07    1.44    13.78050    69.45902   -19.17032
   520  H   1.0    0.06    1.04    1.44    11.75506    75.77170   -21.41675
   521  H   1.0    0.09    1.08    1.44    11.90531    81.39435   -22.59735
   522  H   1.0    0.08    1.08    1.44     8.13340    97.15031   -25.31679
   523  H   1.0    0.03    1.04    1.44    11.92946   101.44499   -20.08710
   524  H   1.0    0.09    1.07    1.44    47.55214    79.49935   -10.53373
   525  H   1.0    0.04    1.04    1.43    54.41581    70.39681   -16.39550

  Z AO/shell   Hii/eV     exponent
  1     Wed Apr 25 08:07:45 CEST 2018   EN: 2.200 GM2: 0.406  GM3: 0.0800  RAES: 1.40
     1s    -10.707211    1.230000
  6     Wed Apr 25 08:07:45 CEST 2018   EN: 2.550 GM2: 0.538  GM3: 0.1500  RAES: 3.00
     2s    -13.970922    2.096432
     2p    -10.063292    1.800000
  7     Wed Apr 25 08:07:45 CEST 2018   EN: 3.040 GM2: 0.461  GM3:-0.0640  RAES: 1.90
     2s    -16.686243    2.339881
     2p    -12.523956    2.014332
  8     Wed Apr 25 08:07:45 CEST 2018   EN: 3.440 GM2: 0.452  GM3:-0.0517  RAES: 1.80
     2s    -20.229985    2.439742
     2p    -15.503117    2.137023
 16     Tue Apr 24 11:44:34 CEST 2018   EN: 2.580 GM2: 0.340  GM3:-0.0502  RAES: 3.10
     3s    -20.029654    1.981333
     3p    -11.377694    2.025643
     3d     -0.420282    1.702555
 no old-style atom pair restraining (fixing) potential

molecular fragmentation (1/2 indicates fragments):
111111111111111111111111111111111111111111111111111111122222222222222222
222222222222222222222222222222222222222222222222222222222222222222222222
222222222222222222222222222222222222222222222222222222222222222222222222
222222222222222222222222222222222222222222222222222222222222222222222222
222222222222222222222222222222222222222222222222222222222222222222222222
222222222222222222222222222222222222222222222222222222222222222222222222
222222222222222222222222222222222222222222222222222222222222222222222222
221122222222222222222
# atoms in fragment 1/2:    57   468
 fragment masses (1/2) :      398.52     3171.80
CMA distance (Bohr)    :  18.173
constraining FC (au)   :  0.0500
           ------------------------------------------------- 
          |        Self-Consistent Charge Iterations        |
           ------------------------------------------------- 

 Ncao       : 1284
 Nao        : 1282
 Nshell     : 776
 Nel        : 1410
 T(el)      :   500.0
 intcut     :    35.0
 scfconv/Eh :  0.100E-06
   qconv/e  :  0.100E-04
 intneglect :  0.100E-08
 broydamp   :      0.400
 iter      E             dE          RMSdq      gap      omega  full diag
   1   -803.8308899 -0.803831E+03  0.462E+00    3.10       0.0  T
   2   -805.9485831 -0.211769E+01  0.215E+00    1.33       1.0  T
   3   -806.0853061 -0.136723E+00  0.125E+00    1.47       1.0  T
   4   -806.2073290 -0.122023E+00  0.269E-01    0.91       1.0  T
   5   -806.2154861 -0.815706E-02  0.136E-01    1.08       1.0  T
   6   -806.2167218 -0.123570E-02  0.602E-02    1.05       1.0  T
   7   -806.2171800 -0.458204E-03  0.265E-02    1.04       1.0  T
   8   -806.2172406 -0.606021E-04  0.142E-02    1.04       1.0  T
   9   -806.2172678 -0.271384E-04  0.669E-03    1.03       1.0  T
  10   -806.2172723 -0.452276E-05  0.315E-03    1.04       1.4  T
  11   -806.2172734 -0.107877E-05  0.141E-03    1.04       3.1  T
  12   -806.2172735 -0.174686E-06  0.660E-04    1.04       6.6  T
  13   -806.2172736 -0.591876E-07  0.327E-04    1.03      13.3  T
  14   -806.2172736 -0.998796E-08  0.138E-04    1.03      31.5  T
  15   -806.2172736 -0.269540E-08  0.608E-05    1.03      71.8  T
  16   -806.2172736 -0.337309E-09  0.289E-05    1.03     151.2  T
speedup  1.63
cpu  time for SCC   42.86 s
wall time for SCC   26.31 s

   *** convergence criteria satisfied after 16 iterations ***

          eigenvalues
 #    :         693        694        695        696        697        698        699        700
 occ. :        2.000      2.000      2.000      2.000      2.000      2.000      2.000      2.000
 eps  :       -10.085    -10.000     -9.971     -9.969     -9.953     -9.930     -9.914     -9.875
 #    :         701        702        703        704        705        706        707        708
 occ. :        2.000      2.000      2.000      2.000      2.000      0.000      0.000      0.000
 eps  :        -9.826     -9.813     -9.685     -9.632     -9.250     -8.215     -8.131     -8.032
 #    :         709        710        711        712        713        714        715        716
 occ. :        0.000      0.000      0.000      0.000      0.000      0.000      0.000      0.000
 eps  :        -8.010     -7.998     -7.804     -7.635     -7.526     -7.420     -7.419     -7.193


   #   Z            q   n(s)   n(p)   n(d)      C6AA      α(0)
   1   7 N     -0.280  1.235  4.045  0.000    27.219     7.749
   2   6 C      0.023  1.060  2.917  0.000    20.182     6.395
   3   6 C      0.258  1.048  2.693  0.000    22.652     7.796
   4   8 O     -0.512  1.755  4.757  0.000    24.049     6.575
   5   6 C     -0.060  1.052  3.007  0.000    21.621     6.616
   6   6 C     -0.061  1.045  3.016  0.000    21.636     6.617
   7   6 C      0.013  1.044  2.943  0.000    20.411     6.440
   8   1 H      0.034  0.966  0.000  0.000     2.525     2.485
   9   1 H      0.022  0.978  0.000  0.000     2.696     2.568
  10   1 H      0.044  0.956  0.000  0.000     2.392     2.419
  11   1 H      0.028  0.972  0.000  0.000     2.615     2.529
  12   1 H      0.046  0.954  0.000  0.000     2.371     2.408
  13   1 H      0.032  0.968  0.000  0.000     2.552     2.498
  14   1 H      0.043  0.957  0.000  0.000     2.411     2.428
  15   7 N     -0.084  1.230  3.854  0.000    22.867     7.102
  16   6 C      0.018  1.061  2.921  0.000    20.245     6.401
  17   6 C      0.280  1.043  2.677  0.000    22.261     7.726
  18   8 O     -0.497  1.758  4.739  0.000    23.726     6.531
  19   6 C     -0.076  1.057  3.018  0.000    21.919     6.661
  20   6 C     -0.072  1.046  3.026  0.000    21.850     6.651
  21   6 C     -0.006  1.051  2.955  0.000    20.725     6.489
  22   1 H      0.069  0.931  0.000  0.000     2.095     2.263
  23   1 H      0.058  0.942  0.000  0.000     2.221     2.330
  24   1 H      0.074  0.926  0.000  0.000     2.039     2.233
  25   1 H      0.070  0.930  0.000  0.000     2.084     2.258
  26   1 H      0.073  0.927  0.000  0.000     2.053     2.240
  27   1 H      0.063  0.937  0.000  0.000     2.159     2.298
  28   1 H      0.071  0.929  0.000  0.000     2.077     2.254
  29   7 N     -0.191  1.250  3.941  0.000    25.147     7.448
  30   6 C      0.034  1.055  2.911  0.000    19.993     6.363
  31   6 C      0.281  1.039  2.680  0.000    22.243     7.723
  32   8 O     -0.495  1.739  4.757  0.000    23.679     6.524
  33   6 C      0.009  1.061  2.930  0.000    20.429     6.435
  34  16 S     -0.333  1.875  4.413  0.046   155.569    20.993
  35   1 H      0.224  0.776  0.000  0.000     0.993     1.561
  36   1 H      0.069  0.931  0.000  0.000     2.096     2.264
  37   1 H      0.054  0.946  0.000  0.000     2.272     2.357
  38   1 H      0.069  0.931  0.000  0.000     2.101     2.267
  39   1 H      0.231  0.769  0.000  0.000     0.956     1.529
  40   7 N     -0.144  1.233  3.910  0.000    24.110     7.293
  41   6 C      0.023  1.061  2.916  0.000    20.188     6.398
  42   6 C      0.198  1.087  2.715  0.000    23.778     7.986
  43   8 O     -0.360  1.746  4.614  0.000    20.898     6.129
  44   6 C     -0.014  1.057  2.957  0.000    20.790     6.484
  45   6 C     -0.112  1.042  3.070  0.000    22.692     6.791
  46   6 C     -0.143  1.046  3.097  0.000    23.315     6.885
  47   1 H      0.225  0.775  0.000  0.000     0.989     1.558
  48   1 H      0.089  0.911  0.000  0.000     1.893     2.152
  49   1 H      0.057  0.943  0.000  0.000     2.239     2.340
  50   1 H      0.068  0.932  0.000  0.000     2.107     2.270
  51   1 H      0.031  0.969  0.000  0.000     2.566     2.505
  52   1 H      0.044  0.956  0.000  0.000     2.395     2.420
  53   1 H      0.076  0.924  0.000  0.000     2.025     2.225
  54   1 H      0.073  0.927  0.000  0.000     2.052     2.240
  55   1 H      0.053  0.947  0.000  0.000     2.288     2.365
  56   7 N     -0.391  1.331  4.060  0.000    30.119     8.151
  57   6 C      0.031  1.055  2.914  0.000    20.071     6.381
  58   6 C      0.278  1.044  2.678  0.000    22.289     7.731
  59   8 O     -0.502  1.741  4.761  0.000    23.827     6.545
  60   6 C     -0.077  1.062  3.016  0.000    21.966     6.671
  61   6 C     -0.016  1.054  2.963  0.000    20.832     6.492
  62   6 C     -0.119  1.046  3.074  0.000    22.840     6.814
  63   6 C     -0.117  1.045  3.071  0.000    22.789     6.806
  64   1 H      0.163  0.837  0.000  0.000     1.314     1.796
  65   1 H      0.040  0.960  0.000  0.000     2.448     2.447
  66   1 H      0.062  0.938  0.000  0.000     2.176     2.307
  67   1 H      0.038  0.962  0.000  0.000     2.469     2.457
  68   1 H      0.008  0.992  0.000  0.000     2.922     2.673
  69   1 H      0.046  0.954  0.000  0.000     2.373     2.409
  70   1 H      0.033  0.967  0.000  0.000     2.539     2.492
  71   1 H      0.055  0.945  0.000  0.000     2.259     2.350
  72   1 H      0.049  0.951  0.000  0.000     2.328     2.386
  73   1 H      0.058  0.942  0.000  0.000     2.219     2.330
  74   1 H      0.031  0.969  0.000  0.000     2.566     2.505
  75   7 N     -0.176  1.248  3.928  0.000    24.819     7.399
  76   6 C      0.025  1.059  2.916  0.000    20.160     6.393
  77   6 C      0.274  1.047  2.679  0.000    22.365     7.744
  78   8 O     -0.501  1.738  4.762  0.000    23.800     6.541
  79   6 C     -0.054  1.049  3.005  0.000    21.532     6.605
  80   6 C     -0.080  1.055  3.025  0.000    22.031     6.682
  81   6 C      0.369  1.024  2.608  0.000    20.749     7.455
  82   8 O     -0.644  1.771  4.874  0.000    27.235     6.997
  83   8 O     -0.655  1.770  4.885  0.000    27.502     7.031
  84   1 H      0.204  0.796  0.000  0.000     1.087     1.633
  85   1 H      0.065  0.935  0.000  0.000     2.137     2.286
  86   1 H      0.042  0.958  0.000  0.000     2.427     2.436
  87   1 H      0.053  0.947  0.000  0.000     2.281     2.362
  88   1 H      0.009  0.991  0.000  0.000     2.901     2.663
  89   1 H      0.013  0.987  0.000  0.000     2.849     2.640
  90   7 N     -0.202  1.264  3.938  0.000    25.386     7.483
  91   6 C      0.034  1.060  2.906  0.000    20.005     6.368
  92   6 C      0.275  1.047  2.678  0.000    22.354     7.742
  93   8 O     -0.522  1.747  4.776  0.000    24.286     6.607
  94   6 C     -0.006  1.054  2.951  0.000    20.641     6.461
  95   6 C     -0.065  1.048  3.017  0.000    21.734     6.637
  96   6 C     -0.100  1.037  3.063  0.000    22.460     6.757
  97   6 C     -0.121  1.042  3.079  0.000    22.881     6.822
  98   1 H      0.237  0.763  0.000  0.000     0.937     1.517
  99   1 H      0.060  0.940  0.000  0.000     2.201     2.320
 100   1 H      0.021  0.979  0.000  0.000     2.716     2.577
 101   1 H      0.046  0.954  0.000  0.000     2.375     2.410
 102   1 H      0.031  0.969  0.000  0.000     2.576     2.510
 103   1 H      0.040  0.960  0.000  0.000     2.450     2.448
 104   1 H      0.007  0.993  0.000  0.000     2.933     2.678
 105   1 H      0.064  0.936  0.000  0.000     2.156     2.296
 106   1 H      0.060  0.940  0.000  0.000     2.197     2.318
 107   1 H      0.049  0.951  0.000  0.000     2.329     2.387
 108   1 H      0.047  0.953  0.000  0.000     2.355     2.400
 109   7 N     -0.203  1.263  3.940  0.000    25.409     7.486
 110   6 C      0.036  1.055  2.909  0.000    19.972     6.364
 111   6 C      0.269  1.043  2.687  0.000    22.452     7.760
 112   8 O     -0.480  1.745  4.735  0.000    23.336     6.477
 113   6 C     -0.063  1.052  3.011  0.000    21.691     6.628
 114   6 C     -0.003  1.052  2.951  0.000    20.602     6.456
 115   6 C     -0.113  1.045  3.068  0.000    22.720     6.797
 116   6 C     -0.092  1.035  3.057  0.000    22.298     6.732
 117   1 H      0.243  0.757  0.000  0.000     0.911     1.495
 118   1 H      0.063  0.937  0.000  0.000     2.167     2.302
 119   1 H      0.044  0.956  0.000  0.000     2.395     2.420
 120   1 H      0.063  0.937  0.000  0.000     2.165     2.301
 121   1 H      0.016  0.984  0.000  0.000     2.790     2.612
 122   1 H      0.049  0.951  0.000  0.000     2.328     2.386
 123   1 H      0.048  0.952  0.000  0.000     2.351     2.398
 124   1 H      0.051  0.949  0.000  0.000     2.309     2.376
 125   1 H      0.039  0.961  0.000  0.000     2.459     2.452
 126   1 H      0.037  0.963  0.000  0.000     2.485     2.465
 127   1 H      0.003  0.997  0.000  0.000     3.011     2.714
 128   7 N     -0.168  1.236  3.932  0.000    24.628     7.371
 129   6 C      0.022  1.057  2.921  0.000    20.204     6.400
 130   6 C      0.272  1.045  2.683  0.000    22.397     7.750
 131   8 O     -0.489  1.747  4.742  0.000    23.539     6.505
 132   6 C     -0.052  1.045  3.008  0.000    21.507     6.602
 133   6 C     -0.093  1.057  3.036  0.000    22.274     6.719
 134   6 C      0.281  1.040  2.679  0.000    22.239     7.721
 135   8 O     -0.502  1.758  4.745  0.000    23.837     6.546
 136   7 N     -0.259  1.258  4.001  0.000    26.728     7.678
 137   1 H      0.207  0.793  0.000  0.000     1.070     1.621
 138   1 H      0.080  0.920  0.000  0.000     1.983     2.202
 139   1 H      0.060  0.940  0.000  0.000     2.195     2.317
 140   1 H      0.061  0.939  0.000  0.000     2.188     2.313
 141   1 H      0.078  0.922  0.000  0.000     1.999     2.211
 142   1 H      0.060  0.940  0.000  0.000     2.198     2.319
 143   1 H      0.212  0.788  0.000  0.000     1.046     1.602
 144   1 H      0.239  0.761  0.000  0.000     0.926     1.507
 145   7 N     -0.167  1.246  3.921  0.000    24.615     7.369
 146   6 C      0.032  1.057  2.911  0.000    20.037     6.374
 147   6 C      0.280  1.036  2.684  0.000    22.255     7.725
 148   8 O     -0.479  1.754  4.725  0.000    23.324     6.475
 149   6 C     -0.105  1.062  3.044  0.000    22.506     6.753
 150   6 C      0.279  1.037  2.684  0.000    22.269     7.727
 151   8 O     -0.498  1.750  4.748  0.000    23.734     6.532
 152   7 N     -0.265  1.268  3.997  0.000    26.871     7.699
 153   1 H      0.219  0.781  0.000  0.000     1.016     1.579
 154   1 H      0.071  0.929  0.000  0.000     2.069     2.250
 155   1 H      0.080  0.920  0.000  0.000     1.979     2.200
 156   1 H      0.073  0.927  0.000  0.000     2.055     2.242
 157   1 H      0.258  0.742  0.000  0.000     0.854     1.447
 158   1 H      0.239  0.761  0.000  0.000     0.925     1.507
 159   7 N     -0.169  1.240  3.929  0.000    24.647     7.373
 160   6 C     -0.009  1.039  2.970  0.000    20.795     6.503
 161   6 C      0.280  1.033  2.687  0.000    22.258     7.725
 162   8 O     -0.484  1.727  4.756  0.000    23.423     6.489
 163   1 H      0.219  0.781  0.000  0.000     1.014     1.577
 164   1 H      0.053  0.947  0.000  0.000     2.286     2.365
 165   1 H      0.089  0.911  0.000  0.000     1.891     2.150
 166   7 N     -0.174  1.244  3.930  0.000    24.762     7.390
 167   6 C      0.026  1.058  2.916  0.000    20.138     6.390
 168   6 C      0.265  1.047  2.688  0.000    22.538     7.774
 169   8 O     -0.499  1.749  4.750  0.000    23.757     6.535
 170   6 C     -0.061  1.051  3.009  0.000    21.657     6.624
 171   6 C     -0.013  1.054  2.958  0.000    20.768     6.482
 172   6 C     -0.117  1.043  3.074  0.000    22.795     6.807
 173   6 C     -0.117  1.045  3.072  0.000    22.807     6.810
 174   1 H      0.203  0.797  0.000  0.000     1.091     1.636
 175   1 H      0.065  0.935  0.000  0.000     2.138     2.287
 176   1 H      0.027  0.973  0.000  0.000     2.625     2.534
 177   1 H      0.049  0.951  0.000  0.000     2.334     2.389
 178   1 H      0.039  0.961  0.000  0.000     2.464     2.455
 179   1 H      0.066  0.934  0.000  0.000     2.131     2.283
 180   1 H      0.031  0.969  0.000  0.000     2.573     2.508
 181   1 H      0.027  0.973  0.000  0.000     2.636     2.539
 182   1 H      0.066  0.934  0.000  0.000     2.133     2.284
 183   1 H      0.033  0.967  0.000  0.000     2.543     2.494
 184   1 H      0.050  0.950  0.000  0.000     2.319     2.381
 185   7 N     -0.178  1.256  3.921  0.000    24.845     7.403
 186   6 C      0.033  1.048  2.920  0.000    20.025     6.372
 187   6 C      0.194  1.085  2.721  0.000    23.865     8.001
 188   8 O     -0.328  1.733  4.595  0.000    20.299     6.041
 189   6 C     -0.079  1.054  3.025  0.000    21.986     6.673
 190   6 C     -0.002  1.077  2.924  0.000    28.066     8.690
 191   6 C     -0.039  1.083  2.956  0.000    28.974     8.827
 192   6 C     -0.043  1.084  2.960  0.000    29.078     8.843
 193   6 C     -0.067  1.077  2.990  0.000    29.664     8.931
 194   6 C     -0.058  1.070  2.987  0.000    29.434     8.897
 195   6 C      0.147  1.048  2.805  0.000    24.794     8.161
 196   8 O     -0.449  1.712  4.736  0.000    21.815     6.305
 197   1 H      0.246  0.754  0.000  0.000     0.899     1.486
 198   1 H      0.078  0.922  0.000  0.000     2.000     2.212
 199   1 H      0.088  0.912  0.000  0.000     1.902     2.157
 200   1 H      0.080  0.920  0.000  0.000     1.975     2.198
 201   1 H      0.029  0.971  0.000  0.000     2.601     2.522
 202   1 H      0.065  0.935  0.000  0.000     2.145     2.290
 203   1 H      0.008  0.992  0.000  0.000     2.917     2.671
 204   1 H      0.057  0.943  0.000  0.000     2.234     2.337
 205   1 H      0.319  0.681  0.000  0.000     0.667     1.283
 206   7 N     -0.371  1.320  4.052  0.000    29.583     8.078
 207   6 C      0.037  1.053  2.910  0.000    19.956     6.361
 208   6 C      0.200  1.084  2.716  0.000    23.734     7.980
 209   8 O     -0.384  1.765  4.619  0.000    21.367     6.197
 210   6 C     -0.024  1.066  2.958  0.000    20.967     6.511
 211   6 C     -0.066  1.049  3.017  0.000    21.767     6.641
 212   6 C     -0.126  1.047  3.079  0.000    22.969     6.833
 213   6 C     -0.108  1.037  3.071  0.000    22.630     6.783
 214   1 H      0.155  0.845  0.000  0.000     1.368     1.832
 215   1 H      0.054  0.946  0.000  0.000     2.269     2.356
 216   1 H      0.044  0.956  0.000  0.000     2.398     2.422
 217   1 H      0.048  0.952  0.000  0.000     2.342     2.393
 218   1 H      0.037  0.963  0.000  0.000     2.487     2.466
 219   1 H      0.061  0.939  0.000  0.000     2.188     2.313
 220   1 H      0.040  0.960  0.000  0.000     2.449     2.447
 221   1 H      0.053  0.947  0.000  0.000     2.277     2.360
 222   1 H      0.040  0.960  0.000  0.000     2.443     2.444
 223   1 H      0.031  0.969  0.000  0.000     2.569     2.507
 224   1 H      0.046  0.954  0.000  0.000     2.377     2.411
 225   7 N     -0.387  1.330  4.057  0.000    30.007     8.136
 226   6 C      0.032  1.053  2.915  0.000    20.059     6.379
 227   6 C      0.210  1.090  2.700  0.000    23.545     7.947
 228   8 O     -0.380  1.759  4.621  0.000    21.282     6.185
 229   6 C     -0.080  1.060  3.020  0.000    22.017     6.679
 230   6 C     -0.063  1.045  3.017  0.000    21.702     6.632
 231   6 C     -0.090  1.055  3.035  0.000    22.215     6.710
 232   6 C     -0.045  1.058  2.987  0.000    21.471     6.614
 233   7 N     -0.141  1.235  3.907  0.000    24.053     7.284
 234   1 H      0.169  0.831  0.000  0.000     1.278     1.771
 235   1 H      0.065  0.935  0.000  0.000     2.146     2.291
 236   1 H      0.063  0.937  0.000  0.000     2.162     2.299
 237   1 H      0.065  0.935  0.000  0.000     2.145     2.290
 238   1 H      0.027  0.973  0.000  0.000     2.626     2.534
 239   1 H      0.040  0.960  0.000  0.000     2.444     2.445
 240   1 H      0.070  0.930  0.000  0.000     2.081     2.256
 241   1 H      0.086  0.914  0.000  0.000     1.914     2.163
 242   1 H      0.107  0.893  0.000  0.000     1.725     2.054
 243   1 H      0.104  0.896  0.000  0.000     1.750     2.069
 244   1 H      0.291  0.709  0.000  0.000     0.739     1.347
 245   1 H      0.279  0.721  0.000  0.000     0.779     1.383
 246   1 H      0.311  0.689  0.000  0.000     0.681     1.293
 247   7 N     -0.414  1.332  4.082  0.000    30.770     8.238
 248   6 C      0.039  1.049  2.912  0.000    19.926     6.356
 249   6 C      0.278  1.039  2.684  0.000    22.303     7.735
 250   8 O     -0.485  1.726  4.759  0.000    23.449     6.492
 251   6 C     -0.068  1.052  3.017  0.000    21.794     6.644
 252   6 C     -0.002  1.082  2.920  0.000    28.074     8.691
 253   6 C     -0.045  1.087  2.958  0.000    29.120     8.849
 254   6 C     -0.040  1.083  2.957  0.000    28.998     8.831
 255   6 C     -0.058  1.077  2.981  0.000    29.431     8.896
 256   6 C     -0.071  1.082  2.990  0.000    29.781     8.949
 257   6 C      0.142  1.052  2.806  0.000    24.902     8.178
 258   8 O     -0.447  1.733  4.713  0.000    21.773     6.299
 259   1 H      0.195  0.805  0.000  0.000     1.130     1.665
 260   1 H      0.036  0.964  0.000  0.000     2.502     2.474
 261   1 H      0.057  0.943  0.000  0.000     2.240     2.340
 262   1 H      0.035  0.965  0.000  0.000     2.515     2.480
 263   1 H      0.045  0.955  0.000  0.000     2.384     2.414
 264   1 H      0.036  0.964  0.000  0.000     2.497     2.471
 265   1 H      0.061  0.939  0.000  0.000     2.183     2.310
 266   1 H      0.047  0.953  0.000  0.000     2.352     2.398
 267   1 H      0.346  0.654  0.000  0.000     0.598     1.215
 268   7 N     -0.181  1.251  3.931  0.000    24.930     7.416
 269   6 C      0.023  1.056  2.921  0.000    20.194     6.398
 270   6 C      0.275  1.043  2.683  0.000    22.356     7.743
 271   8 O     -0.489  1.740  4.749  0.000    23.552     6.507
 272   6 C     -0.044  1.046  2.998  0.000    21.353     6.578
 273   6 C     -0.070  1.052  3.018  0.000    21.829     6.651
 274   6 C      0.368  1.023  2.609  0.000    20.756     7.456
 275   8 O     -0.662  1.773  4.889  0.000    27.689     7.055
 276   8 O     -0.647  1.775  4.872  0.000    27.294     7.004
 277   1 H      0.216  0.784  0.000  0.000     1.026     1.587
 278   1 H      0.070  0.930  0.000  0.000     2.088     2.260
 279   1 H      0.041  0.959  0.000  0.000     2.432     2.439
 280   1 H      0.047  0.953  0.000  0.000     2.364     2.404
 281   1 H      0.006  0.994  0.000  0.000     2.964     2.692
 282   1 H     -0.001  1.001  0.000  0.000     3.079     2.744
 283   7 N     -0.158  1.239  3.919  0.000    24.412     7.338
 284   6 C      0.028  1.052  2.920  0.000    20.096     6.382
 285   6 C      0.277  1.042  2.681  0.000    22.322     7.737
 286   8 O     -0.515  1.743  4.772  0.000    24.119     6.585
 287   6 C     -0.066  1.053  3.013  0.000    21.747     6.637
 288   6 C     -0.013  1.051  2.962  0.000    20.776     6.483
 289   6 C     -0.124  1.046  3.077  0.000    22.933     6.828
 290   6 C     -0.116  1.043  3.073  0.000    22.781     6.805
 291   1 H      0.210  0.790  0.000  0.000     1.055     1.609
 292   1 H      0.081  0.919  0.000  0.000     1.973     2.197
 293   1 H      0.032  0.968  0.000  0.000     2.554     2.499
 294   1 H      0.049  0.951  0.000  0.000     2.336     2.390
 295   1 H      0.026  0.974  0.000  0.000     2.640     2.541
 296   1 H      0.063  0.937  0.000  0.000     2.167     2.302
 297   1 H      0.041  0.959  0.000  0.000     2.435     2.440
 298   1 H      0.049  0.951  0.000  0.000     2.338     2.391
 299   1 H      0.066  0.934  0.000  0.000     2.125     2.279
 300   1 H      0.042  0.958  0.000  0.000     2.420     2.433
 301   1 H      0.039  0.961  0.000  0.000     2.459     2.452
 302   7 N     -0.173  1.243  3.930  0.000    24.749     7.389
 303   6 C      0.038  1.048  2.914  0.000    19.936     6.356
 304   6 C      0.277  1.037  2.686  0.000    22.309     7.735
 305   8 O     -0.498  1.745  4.753  0.000    23.735     6.532
 306   6 C     -0.074  1.047  3.027  0.000    21.900     6.661
 307   6 C      0.032  1.062  2.906  0.000    27.187     8.547
 308   7 N     -0.095  1.240  3.855  0.000    23.100     7.138
 309   6 C      0.005  1.066  2.929  0.000    27.865     8.658
 310   6 C      0.098  1.053  2.848  0.000    25.798     8.331
 311   7 N     -0.301  1.482  3.819  0.000    28.611     7.933
 312   1 H      0.211  0.789  0.000  0.000     1.051     1.606
 313   1 H      0.064  0.936  0.000  0.000     2.148     2.292
 314   1 H      0.064  0.936  0.000  0.000     2.151     2.293
 315   1 H      0.075  0.925  0.000  0.000     2.037     2.232
 316   1 H      0.177  0.823  0.000  0.000     1.229     1.737
 317   1 H      0.051  0.949  0.000  0.000     2.306     2.375
 318   1 H      0.023  0.977  0.000  0.000     2.684     2.562
 319   7 N     -0.180  1.247  3.933  0.000    24.908     7.412
 320   6 C      0.033  1.054  2.914  0.000    20.016     6.368
 321   6 C      0.285  1.037  2.678  0.000    22.164     7.709
 322   8 O     -0.500  1.743  4.757  0.000    23.780     6.538
 323   6 C     -0.018  1.054  2.963  0.000    20.850     6.494
 324   6 C     -0.106  1.037  3.069  0.000    22.563     6.771
 325   6 C     -0.125  1.045  3.080  0.000    22.953     6.831
 326   1 H      0.217  0.783  0.000  0.000     1.024     1.585
 327   1 H      0.049  0.951  0.000  0.000     2.328     2.386
 328   1 H      0.052  0.948  0.000  0.000     2.301     2.372
 329   1 H      0.065  0.935  0.000  0.000     2.144     2.290
 330   1 H      0.032  0.968  0.000  0.000     2.556     2.500
 331   1 H      0.036  0.964  0.000  0.000     2.500     2.473
 332   1 H      0.079  0.921  0.000  0.000     1.990     2.206
 333   1 H      0.034  0.966  0.000  0.000     2.531     2.488
 334   1 H      0.038  0.962  0.000  0.000     2.473     2.459
 335   7 N     -0.189  1.251  3.938  0.000    25.106     7.442
 336   6 C     -0.024  1.048  2.976  0.000    21.074     6.547
 337   6 C      0.280  1.036  2.684  0.000    22.265     7.727
 338   8 O     -0.513  1.742  4.771  0.000    24.075     6.578
 339   1 H      0.228  0.772  0.000  0.000     0.976     1.547
 340   1 H      0.086  0.914  0.000  0.000     1.920     2.167
 341   1 H      0.092  0.908  0.000  0.000     1.863     2.134
 342   7 N     -0.172  1.246  3.926  0.000    24.714     7.383
 343   6 C      0.049  1.051  2.900  0.000    19.752     6.328
 344   6 C      0.284  1.042  2.674  0.000    22.193     7.715
 345   8 O     -0.489  1.726  4.763  0.000    23.533     6.504
 346   6 C     -0.093  1.067  3.025  0.000    22.267     6.718
 347   6 C      0.369  1.024  2.607  0.000    20.749     7.455
 348   8 O     -0.638  1.777  4.861  0.000    27.076     6.976
 349   8 O     -0.620  1.747  4.872  0.000    26.604     6.915
 350   1 H      0.213  0.787  0.000  0.000     1.044     1.601
 351   1 H      0.043  0.957  0.000  0.000     2.414     2.430
 352   1 H      0.058  0.942  0.000  0.000     2.226     2.333
 353   1 H      0.033  0.967  0.000  0.000     2.541     2.493
 354   7 N     -0.155  1.237  3.918  0.000    24.353     7.329
 355   6 C      0.016  1.060  2.924  0.000    20.302     6.415
 356   6 C      0.275  1.043  2.682  0.000    22.343     7.740
 357   8 O     -0.486  1.748  4.738  0.000    23.475     6.496
 358   6 C      0.112  1.050  2.838  0.000    18.843     6.198
 359   8 O     -0.498  1.739  4.759  0.000    22.847     6.452
 360   6 C     -0.126  1.042  3.083  0.000    22.967     6.834
 361   1 H      0.211  0.789  0.000  0.000     1.052     1.607
 362   1 H      0.084  0.916  0.000  0.000     1.938     2.177
 363   1 H      0.045  0.955  0.000  0.000     2.387     2.416
 364   1 H      0.352  0.648  0.000  0.000     0.585     1.201
 365   1 H      0.070  0.930  0.000  0.000     2.084     2.258
 366   1 H      0.034  0.966  0.000  0.000     2.536     2.491
 367   1 H      0.054  0.946  0.000  0.000     2.276     2.359
 368   7 N     -0.157  1.236  3.922  0.000    24.400     7.336
 369   6 C      0.019  1.059  2.922  0.000    20.255     6.408
 370   6 C      0.199  1.087  2.714  0.000    23.756     7.982
 371   8 O     -0.361  1.753  4.608  0.000    20.916     6.132
 372   6 C     -0.016  1.061  2.955  0.000    20.814     6.488
 373   6 C     -0.058  1.043  3.015  0.000    21.619     6.619
 374   6 C     -0.128  1.044  3.084  0.000    23.010     6.839
 375   6 C     -0.122  1.040  3.082  0.000    22.906     6.825
 376   1 H      0.211  0.789  0.000  0.000     1.050     1.605
 377   1 H      0.093  0.907  0.000  0.000     1.853     2.129
 378   1 H      0.043  0.957  0.000  0.000     2.414     2.430
 379   1 H      0.017  0.983  0.000  0.000     2.778     2.606
 380   1 H      0.051  0.949  0.000  0.000     2.311     2.377
 381   1 H      0.070  0.930  0.000  0.000     2.087     2.259
 382   1 H      0.048  0.952  0.000  0.000     2.339     2.392
 383   1 H      0.066  0.934  0.000  0.000     2.128     2.281
 384   1 H      0.046  0.954  0.000  0.000     2.368     2.407
 385   1 H      0.061  0.939  0.000  0.000     2.188     2.313
 386   1 H      0.052  0.948  0.000  0.000     2.293     2.368
 387   7 N     -0.386  1.322  4.064  0.000    29.980     8.132
 388   6 C      0.037  1.051  2.912  0.000    19.969     6.364
 389   6 C      0.202  1.082  2.716  0.000    23.701     7.973
 390   8 O     -0.378  1.757  4.621  0.000    21.244     6.180
 391   6 C     -0.025  1.067  2.958  0.000    20.981     6.514
 392   6 C     -0.067  1.052  3.016  0.000    21.783     6.644
 393   6 C     -0.112  1.038  3.074  0.000    22.695     6.792
 394   6 C     -0.118  1.039  3.078  0.000    22.817     6.812
 395   1 H      0.164  0.836  0.000  0.000     1.311     1.794
 396   1 H      0.051  0.949  0.000  0.000     2.304     2.374
 397   1 H      0.056  0.944  0.000  0.000     2.249     2.345
 398   1 H      0.025  0.975  0.000  0.000     2.654     2.548
 399   1 H      0.040  0.960  0.000  0.000     2.448     2.447
 400   1 H      0.051  0.949  0.000  0.000     2.302     2.373
 401   1 H      0.050  0.950  0.000  0.000     2.325     2.384
 402   1 H      0.031  0.969  0.000  0.000     2.577     2.510
 403   1 H      0.041  0.959  0.000  0.000     2.435     2.440
 404   1 H      0.049  0.951  0.000  0.000     2.333     2.389
 405   1 H      0.042  0.958  0.000  0.000     2.419     2.432
 406   7 N     -0.374  1.318  4.056  0.000    29.655     8.088
 407   6 C      0.046  1.046  2.908  0.000    19.820     6.342
 408   6 C      0.207  1.088  2.705  0.000    23.609     7.958
 409   8 O     -0.362  1.750  4.613  0.000    20.942     6.136
 410   6 C     -0.070  1.063  3.007  0.000    21.820     6.649
 411   6 C     -0.008  1.053  2.955  0.000    20.689     6.470
 412   6 C     -0.104  1.042  3.062  0.000    22.541     6.769
 413   6 C     -0.110  1.043  3.068  0.000    22.666     6.788
 414   1 H      0.175  0.825  0.000  0.000     1.244     1.747
 415   1 H      0.029  0.971  0.000  0.000     2.608     2.525
 416   1 H      0.039  0.961  0.000  0.000     2.464     2.455
 417   1 H      0.059  0.941  0.000  0.000     2.216     2.328
 418   1 H      0.008  0.992  0.000  0.000     2.925     2.675
 419   1 H      0.026  0.974  0.000  0.000     2.638     2.540
 420   1 H      0.039  0.961  0.000  0.000     2.468     2.457
 421   1 H      0.046  0.954  0.000  0.000     2.375     2.410
 422   1 H      0.034  0.966  0.000  0.000     2.537     2.491
 423   1 H      0.049  0.951  0.000  0.000     2.333     2.389
 424   1 H      0.029  0.971  0.000  0.000     2.595     2.519
 425   7 N     -0.382  1.323  4.060  0.000    29.891     8.120
 426   6 C      0.029  1.060  2.912  0.000    20.108     6.388
 427   6 C      0.272  1.053  2.674  0.000    22.400     7.750
 428   8 O     -0.512  1.758  4.754  0.000    24.062     6.577
 429   6 C     -0.119  1.048  3.072  0.000    22.842     6.815
 430   1 H      0.150  0.850  0.000  0.000     1.399     1.853
 431   1 H      0.058  0.942  0.000  0.000     2.221     2.330
 432   1 H      0.046  0.954  0.000  0.000     2.375     2.410
 433   1 H      0.082  0.918  0.000  0.000     1.959     2.189
 434   1 H      0.040  0.960  0.000  0.000     2.444     2.445
 435   7 N     -0.192  1.256  3.936  0.000    25.165     7.450
 436   6 C      0.030  1.071  2.900  0.000    20.088     6.384
 437   6 C      0.370  1.017  2.613  0.000    20.730     7.451
 438   8 O     -0.632  1.761  4.872  0.000    26.925     6.957
 439   6 C     -0.087  1.057  3.030  0.000    22.155     6.700
 440   6 C      0.290  1.036  2.675  0.000    22.087     7.695
 441   8 O     -0.516  1.763  4.753  0.000    24.149     6.589
 442   7 N     -0.278  1.266  4.012  0.000    27.188     7.744
 443   8 O     -0.625  1.758  4.867  0.000    26.731     6.932
 444   1 H      0.197  0.803  0.000  0.000     1.122     1.660
 445   1 H      0.023  0.977  0.000  0.000     2.695     2.567
 446   1 H      0.059  0.941  0.000  0.000     2.216     2.328
 447   1 H      0.060  0.940  0.000  0.000     2.199     2.319
 448   1 H      0.237  0.763  0.000  0.000     0.934     1.514
 449   1 H      0.226  0.774  0.000  0.000     0.984     1.554
 450   7 N     -0.376  1.320  4.056  0.000    29.714     8.096
 451   6 C      0.029  1.054  2.917  0.000    20.096     6.385
 452   6 C      0.193  1.090  2.717  0.000    23.881     8.003
 453   8 O     -0.389  1.762  4.627  0.000    21.469     6.212
 454   6 C     -0.072  1.051  3.021  0.000    21.807     6.637
 455   6 C      0.004  1.049  2.946  0.000    20.510     6.448
 456  16 S     -0.224  1.916  4.247  0.062   150.627    20.656
 457   6 C     -0.041  1.050  2.992  0.000    21.387     6.597
 458   1 H      0.157  0.843  0.000  0.000     1.355     1.823
 459   1 H      0.085  0.915  0.000  0.000     1.926     2.170
 460   1 H      0.049  0.951  0.000  0.000     2.329     2.387
 461   1 H      0.077  0.923  0.000  0.000     2.012     2.218
 462   1 H      0.076  0.924  0.000  0.000     2.017     2.221
 463   1 H      0.029  0.971  0.000  0.000     2.599     2.521
 464   1 H      0.034  0.966  0.000  0.000     2.536     2.490
 465   1 H      0.026  0.974  0.000  0.000     2.643     2.542
 466   1 H      0.076  0.924  0.000  0.000     2.016     2.220
 467   7 N     -0.391  1.324  4.067  0.000    30.111     8.150
 468   6 C      0.040  1.051  2.909  0.000    19.922     6.358
 469   6 C      0.259  1.055  2.686  0.000    22.641     7.792
 470   8 O     -0.492  1.751  4.742  0.000    23.612     6.515
 471   6 C     -0.107  1.043  3.064  0.000    22.600     6.779
 472   1 H      0.168  0.832  0.000  0.000     1.287     1.777
 473   1 H      0.013  0.987  0.000  0.000     2.834     2.633
 474   1 H      0.029  0.971  0.000  0.000     2.596     2.520
 475   1 H      0.045  0.955  0.000  0.000     2.387     2.416
 476   1 H      0.064  0.936  0.000  0.000     2.153     2.294
 477   7 N     -0.085  1.234  3.852  0.000    22.901     7.108
 478   6 C      0.022  1.063  2.915  0.000    20.180     6.392
 479   6 C      0.202  1.089  2.708  0.000    23.695     7.972
 480   8 O     -0.375  1.755  4.619  0.000    21.184     6.171
 481   6 C     -0.067  1.050  3.017  0.000    21.754     6.634
 482   6 C     -0.064  1.039  3.025  0.000    21.696     6.626
 483   6 C     -0.002  1.050  2.952  0.000    20.649     6.475
 484   1 H      0.095  0.905  0.000  0.000     1.835     2.118
 485   1 H      0.076  0.924  0.000  0.000     2.019     2.222
 486   1 H      0.086  0.914  0.000  0.000     1.914     2.163
 487   1 H      0.051  0.949  0.000  0.000     2.311     2.377
 488   1 H      0.062  0.938  0.000  0.000     2.174     2.306
 489   1 H      0.047  0.953  0.000  0.000     2.354     2.399
 490   1 H      0.060  0.940  0.000  0.000     2.202     2.321
 491   7 N     -0.388  1.323  4.065  0.000    30.045     8.141
 492   6 C      0.035  1.052  2.913  0.000    20.005     6.372
 493   6 C      0.199  1.093  2.708  0.000    23.762     7.983
 494   8 O     -0.373  1.761  4.612  0.000    21.143     6.165
 495   6 C     -0.101  1.067  3.034  0.000    22.424     6.742
 496   6 C      0.284  1.043  2.673  0.000    22.189     7.713
 497   8 O     -0.512  1.767  4.746  0.000    24.057     6.576
 498   7 N     -0.273  1.264  4.010  0.000    27.074     7.728
 499   1 H      0.174  0.826  0.000  0.000     1.248     1.750
 500   1 H      0.063  0.937  0.000  0.000     2.163     2.300
 501   1 H      0.097  0.903  0.000  0.000     1.812     2.105
 502   1 H      0.066  0.934  0.000  0.000     2.134     2.284
 503   1 H      0.214  0.786  0.000  0.000     1.035     1.594
 504   1 H      0.232  0.768  0.000  0.000     0.956     1.531
 505   1 H      0.187  0.813  0.000  0.000     1.175     1.698
 506   1 H      0.087  0.913  0.000  0.000     1.904     2.157
 507   1 H      0.175  0.825  0.000  0.000     1.242     1.745
 508   1 H      0.080  0.920  0.000  0.000     1.978     2.199
 509   1 H      0.195  0.805  0.000  0.000     1.133     1.668
 510   1 H      0.093  0.907  0.000  0.000     1.853     2.129
 511   1 H      0.163  0.837  0.000  0.000     1.313     1.795
 512   1 H      0.069  0.931  0.000  0.000     2.093     2.262
 513   1 H      0.196  0.804  0.000  0.000     1.125     1.661
 514   1 H      0.055  0.945  0.000  0.000     2.262     2.352
 515   1 H      0.190  0.810  0.000  0.000     1.160     1.687
 516   1 H      0.096  0.904  0.000  0.000     1.820     2.110
 517   1 H      0.190  0.810  0.000  0.000     1.158     1.685
 518   1 H      0.057  0.943  0.000  0.000     2.234     2.337
 519   1 H      0.177  0.823  0.000  0.000     1.230     1.737
 520   1 H      0.066  0.934  0.000  0.000     2.135     2.285
 521   1 H      0.187  0.813  0.000  0.000     1.176     1.699
 522   1 H      0.192  0.808  0.000  0.000     1.146     1.677
 523   1 H      0.072  0.928  0.000  0.000     2.058     2.243
 524   1 H      0.179  0.821  0.000  0.000     1.217     1.728
 525   1 H      0.095  0.905  0.000  0.000     1.827     2.114

 Mol. C6AA /au·bohr⁶  :    2556123.981090
 Mol. C8AA /au·bohr⁸  :   57215271.863275
 Mol. α(0) /au        :       2394.077713

 
molecular dipole:
                 x           y           z       tot (Debye)
 q only:      -94.905    -242.613      59.875
   full:      -91.623    -241.291      58.350     672.598
molecular quadrupole (traceless):
                xx          xy          yy          xz          yz          zz
 q only:     7353.445  -10999.518  -17906.000    2547.074    7308.000   10552.555
  q+dip:     7354.862  -10592.924  -17792.228    2398.244    7104.407   10437.366
   full:     7354.717  -10597.614  -17789.206    2396.064    7098.625   10434.489
speedup  1.53
cpu  time for grad   55.36 s
wall time for grad   36.16 s

SCC energy    :    -806.2388104
rep           :       9.7932529
ES            :       2.7663434
AES           :      -0.0682450
AXC           :       0.2792980
disp          :      -0.6947323
XB            :       0.0000000
fix           :       0.0000000
Gborn         :       0.0000000
Gsasa         :       0.0000000
Ghb           :       0.0000000
Gshift        :       0.0000000
Gsolv         :      -0.8159819     -512.04
Etot ala COSMO:    -806.2388104
grad norm     :       0.8038018
total E       :    -796.3679927
atomizationE  :     146.6481418    92023.10
(atE without considering molecular charge,
 total energy contains solvation terms)
H-L gap (eV)  :          1.0350

------------------------------------------------------------------------
 * finished run on 2019/05/04 at 15:54:49.255     
------------------------------------------------------------------------
 total:
 * wall-time:     0 d,  0 h,  0 min, 37.512 sec
 *  cpu-time:     0 d,  0 h,  0 min, 57.612 sec
 * ratio c/w:     1.536 speedup
 SCF:
 * wall-time:     0 d,  0 h,  0 min, 37.025 sec
 *  cpu-time:     0 d,  0 h,  0 min, 56.994 sec
 * ratio c/w:     1.539 speedup

