      -----------------------------------------------------------      
     |                   =====================                   |     
     |                           x T B                           |     
     |                   =====================                   |     
     |                         S. Grimme                         |     
     |          Mulliken Center for Theoretical Chemistry        |     
     |                    University of Bonn                     |     
     |                 Version 6.0.1 (SAW181210)                 |     
      -----------------------------------------------------------      

   This program is distributed in the hope that it will be useful,
   but WITHOUT ANY WARRANTY; without even the implied warranty of
   MERCHANTABILITY or FITNESS FOR A PARTICULAR PURPOSE.
   
   FOR NON-COMMERCIAL, ACADEMIA USE ONLY.
   
   Cite this work as:
   S. Grimme, C. Bannwarth, P. Shushkov, J. Comput. Theory Chem., 2017,
   13, 1989-2009.
   C. Bannwarth, S. Ehlert and S. Grimme., ChemRxiv, 2018, preprint.
   http://doi.org/10.26434/chemrxiv.7246238.v1
   
   for sTDA-xTB:
   S. Grimme and C. Bannwarth, J. Chem. Phys., 2016, 145, 054103.
   
   in the mass-spec context:
   V. Asgeirsson, C. Bauer and S. Grimme, Chem. Sci., 2017, 8, 4879.
   
   if GBSA is used:
   P. Shushkov, F. März and S. Grimme, unpublished.
   
   for ANC optimizer:
   S. Grimme, unpublished.
   Rational Function algorithm used in ANCopt:
   F. Eckert, P. Pulay, H.-J. Werner, J. Comput. Chem., 1997, 18, 1473.
   
   with help from (in alphabetical order)
   C. Bannwarth, F. Bohle, G. Brandenburg, E. Caldeweyher, M. Checinski,
   S. Dohm, S. Ehlert, S. Ehrlich, F. März, H. Neugebauer, J. Pisarek,
   P. Pracht, P. Shushkov, and S. Spicher.
   
 * started run on 2019/05/12 at 13:12:41.208     
========================================================================
 # omp threads = 2
========================================================================
number of atoms            : 538
number of electrons        : 1394
charge                     : 2
spin                       : .0
first test random number   : .4074

########################################################################
# WARNING! Please study the warnings concerning your input carefully
#  - Process number higher than OMP_NUM_THREADS, I hope you know what you are doing.
########################################################################

           ------------------------------------------------- 
          |                 G F N 2 - x T B                 |
          | Geometry, Frequencies, Noncovalent interactions |
          |            JCTC 2018 parametrisation            |
           ------------------------------------------------- 
 
      method parameters     
 k(s)        :  1.8500
 k(p)        :  2.2300
 k(d)        :  2.2300
 k(f)        :  2.0000
 kEN (H0ij)  : -2.0000
 D4 a1       :  0.5200
 D4 a2       :  5.0000
 D4 s6       :  1.0000
 D4 s8       :  2.7000
 D4 s9       :  5.0000
 alphaj      :  2.0000

 Solvent             : h2o
 Using internal parameter file: .param_gbsa2_h2o
 Gsolv ref. state (COSMO-RS): gsolv [1 M gas/solution]
 temperature (mdtemp)       :    298.150000000000     
 dielectric constant        :    80.2000000000000     
 rho                        :    1.00000000000000     
 mass                       :    18.0000000000000     
 surface tension            :    15.5689454083859     
 probe radius               :   0.975313790000000     
 vdW radii scaling          :    1.00000000000000     
 Gshift (Eh)                :   1.857443126794793E-003
 c1                         :    1.55243817000000     
 soset                      :   0.130326360000000     
 HB correction              :  T

            Z     q(EN)     CN     RAES       Cart. coordinates
     1  N   5.0   -0.18    3.22    1.96    27.02986    65.75479   150.79806
     2  C   4.0    0.03    4.30    4.20    28.53742    64.11659   152.40512
     3  C   4.0    0.08    3.24    3.04    31.18026    63.87678   151.22184
     4  O   6.0   -0.27    1.13    1.80    31.46774    63.03390   149.08165
     5  C   4.0   -0.02    4.27    4.14    27.37035    61.45580   152.64932
     6  C   4.0   -0.08    4.15    3.90    29.09590    59.80397   154.20784
     7  C   4.0   -0.08    4.11    3.83    24.74779    61.54920   153.84700
     8  H   1.0    0.10    1.02    1.43    26.81303    65.20853   148.96702
     9  H   1.0    0.04    1.05    1.44    28.68827    65.04024   154.24848
    10  H   1.0    0.05    1.06    1.44    27.23295    60.68720   150.73779
    11  H   1.0    0.03    1.00    1.43    28.27412    57.94372   154.45923
    12  H   1.0    0.04    1.01    1.43    30.93861    59.61182   153.33361
    13  H   1.0    0.03    1.00    1.43    29.36698    60.64146   156.08376
    14  H   1.0    0.04    1.00    1.43    23.93263    59.67739   153.87347
    15  H   1.0    0.04    1.00    1.43    24.85456    62.26850   155.76631
    16  H   1.0    0.04    1.00    1.43    23.51402    62.79114   152.75806
    17  N   5.0   -0.18    3.22    1.96    47.54975    45.74808   159.34832
    18  C   4.0    0.03    4.34    4.27    45.20336    45.55705   157.96021
    19  C   4.0    0.15    3.50    3.12    45.55712    46.07763   155.13597
    20  O   6.0   -0.25    1.24    1.80    47.02536    47.69243   154.31243
    21  C   4.0   -0.04    4.38    4.34    43.32111    47.51213   158.96458
    22  C   4.0   -0.02    4.18    3.96    42.42421    46.97837   161.66752
    23  C   4.0   -0.07    4.11    3.81    41.72551    49.44755   162.97224
    24  C   4.0   -0.08    4.10    3.81    40.18464    45.16960   161.64715
    25  H   1.0    0.09    1.02    1.43    47.87797    47.26257   160.47231
    26  H   1.0    0.03    1.06    1.44    44.50420    43.62583   158.21467
    27  H   1.0    0.06    1.04    1.43    44.27659    49.33531   158.88425
    28  H   1.0    0.05    1.03    1.43    41.70209    47.60602   157.68858
    29  H   1.0    0.05    1.06    1.44    43.98336    46.10888   162.71550
    30  H   1.0    0.04    1.00    1.43    41.01832    49.09568   164.86420
    31  H   1.0    0.05    1.00    1.43    43.36555    50.67376   163.13495
    32  H   1.0    0.04    1.00    1.43    40.27986    50.44266   161.89996
    33  H   1.0    0.04    1.00    1.43    39.58138    44.74493   163.56697
    34  H   1.0    0.04    1.00    1.43    38.59549    46.00494   160.63680
    35  H   1.0    0.04    1.00    1.43    40.67599    43.39546   160.73995
    36  N   5.0   -0.09    3.67    2.24    44.04991    44.78012   153.60791
    37  C   4.0    0.04    4.48    4.51    43.85743    45.50574   150.93298
    38  C   4.0    0.10    3.21    3.04    42.35228    47.98821   150.70317
    39  O   6.0   -0.27    1.14    1.80    41.32471    48.98804   152.46156
    40  C   4.0   -0.04    4.29    4.18    42.41672    43.31796   149.66622
    41  C   4.0   -0.04    4.25    4.11    40.72173    42.38625   151.82490
    42  C   4.0   -0.02    4.34    4.28    42.30832    42.76422   154.25119
    43  H   1.0    0.06    1.05    1.44    45.77244    45.76524   150.21376
    44  H   1.0    0.05    1.03    1.43    41.33966    43.93445   148.05131
    45  H   1.0    0.05    1.02    1.43    43.73938    41.83694   149.11502
    46  H   1.0    0.05    1.02    1.43    39.03520    43.56056   151.94080
    47  H   1.0    0.04    1.02    1.43    40.17010    40.42379   151.59138
    48  H   1.0    0.04    1.02    1.43    41.09292    43.28792   155.82286
    49  H   1.0    0.04    1.02    1.43    43.37505    41.06267   154.72608
    50  N   5.0   -0.18    3.22    1.96    36.38802    52.01781   146.33050
    51  C   4.0    0.03    4.21    4.03    33.89237    51.39917   145.38304
    52  C   4.0    0.09    3.21    3.04    33.69309    51.80718   142.55028
    53  O   6.0   -0.25    1.12    1.80    34.94983    53.34813   141.37148
    54  C   4.0   -0.05    4.36    4.30    31.85149    52.97913   146.70056
    55  C   4.0   -0.03    4.17    3.95    31.21326    52.05451   149.37624
    56  C   4.0   -0.08    4.12    3.83    30.02442    54.22499   150.84178
    57  C   4.0   -0.08    4.10    3.81    29.40582    49.81701   149.28745
    58  H   1.0    0.10    1.03    1.43    36.88582    53.83958   146.38196
    59  H   1.0    0.04    1.05    1.44    33.62159    49.38442   145.78125
    60  H   1.0    0.05    1.03    1.43    32.49601    54.94265   146.73802
    61  H   1.0    0.04    1.03    1.43    30.14009    52.95438   145.55264
    62  H   1.0    0.04    1.05    1.44    32.96796    51.46905   150.29743
    63  H   1.0    0.03    1.00    1.43    29.61994    53.64200   152.77298
    64  H   1.0    0.04    1.00    1.43    31.29939    55.83200   150.92490
    65  H   1.0    0.04    1.00    1.43    28.28376    54.84042   149.94731
    66  H   1.0    0.04    1.00    1.43    29.08290    49.06355   151.16910
    67  H   1.0    0.04    1.00    1.43    27.59702    50.41153   148.50530
    68  H   1.0    0.04    1.00    1.43    30.14482    48.29306   148.11940
    69  N   5.0   -0.18    3.22    1.96    17.83995    64.26723   144.31749
    70  C   4.0    0.03    4.20    4.00    15.67584    62.72633   144.95298
    71  C   4.0    0.08    3.22    3.04    13.37227    64.39349   145.62953
    72  O   6.0   -0.26    1.13    1.80    13.63676    66.29526   146.95661
    73  C   4.0   -0.04    4.35    4.29    16.12405    61.22023   147.43706
    74  C   4.0   -0.02    3.55    3.14    18.36491    59.49410   147.36962
    75  C   4.0   -0.04    3.49    3.11    20.81051    60.47441   147.39262
    76  C   4.0   -0.04    3.46    3.10    18.03240    56.89610   147.32212
    77  C   4.0   -0.04    3.37    3.07    22.88123    58.88203   147.33857
    78  C   4.0   -0.04    3.38    3.07    20.10627    55.30688   147.27669
    79  C   4.0   -0.04    3.37    3.07    22.53254    56.28951   147.27953
    80  H   1.0    0.10    1.02    1.43    18.23804    65.67183   145.56921
    81  H   1.0    0.05    1.04    1.43    15.24732    61.46934   143.37746
    82  H   1.0    0.05    1.03    1.43    16.37911    62.60767   148.94487
    83  H   1.0    0.04    1.03    1.43    14.40998    60.14867   147.83294
    84  H   1.0    0.05    1.03    1.43    21.11348    62.49004   147.50551
    85  H   1.0    0.04    1.03    1.43    16.15282    56.11488   147.32055
    86  H   1.0    0.05    1.03    1.43    24.76839    59.65707   147.31900
    87  H   1.0    0.05    1.03    1.43    19.83744    53.28221   147.24801
    88  H   1.0    0.05    1.03    1.43    24.16432    55.05857   147.22215
    89  N   5.0   -0.18    3.24    1.96     0.77713    61.43713   164.34736
    90  C   4.0    0.04    4.23    4.05     2.38398    59.21248   164.40023
    91  C   4.0    0.09    3.22    3.04     4.25090    59.58583   166.57820
    92  O   6.0   -0.27    1.14    1.80     5.26899    61.66754   166.89619
    93  C   4.0   -0.04    4.35    4.29     3.84422    58.91623   161.90559
    94  C   4.0   -0.02    4.17    3.94     4.66956    56.19869   161.36933
    95  C   4.0   -0.06    4.11    3.81     2.38108    54.47917   160.95203
    96  C   4.0   -0.08    4.11    3.81     6.37980    56.16732   159.04174
    97  H   1.0    0.11    1.03    1.43     1.66455    63.12435   164.36959
    98  H   1.0    0.06    1.05    1.44     1.15211    57.60021   164.73727
    99  H   1.0    0.05    1.03    1.43     2.62268    59.59196   160.38649
   100  H   1.0    0.05    1.03    1.43     5.49238    60.15288   161.96865
   101  H   1.0    0.04    1.05    1.44     5.74421    55.51055   162.99626
   102  H   1.0    0.05    1.00    1.43     2.96707    52.70614   160.10828
   103  H   1.0    0.06    1.00    1.43     1.43967    54.07608   162.73035
   104  H   1.0    0.05    1.00    1.43     1.01693    55.38816   159.70971
   105  H   1.0    0.04    1.00    1.43     7.04417    54.25320   158.68447
   106  H   1.0    0.05    1.00    1.43     5.33861    56.80873   157.40486
   107  H   1.0    0.04    1.00    1.43     8.01043    57.37942   159.32754
   108  N   5.0   -0.20    3.23    1.96    10.86951    58.89398   170.44657
   109  C   4.0    0.03    4.35    4.29    13.54395    58.66919   169.89482
   110  C   4.0    0.15    3.45    3.10    14.43730    55.91923   170.09408
   111  O   6.0   -0.33    1.31    1.80    16.15762    55.15037   168.75640
   112  C   4.0   -0.04    4.39    4.37    15.08781    60.22788   171.73955
   113  C   4.0   -0.04    4.07    3.75    15.39456    62.93310   170.87072
   114  S   6.0   -0.03    2.56    3.10    17.53362    63.23726   168.29244
   115  C   4.0   -0.06    3.90    3.46    20.31448    61.65753   169.47980
   116  H   1.0    0.10    1.02    1.43    10.28494    60.19708   171.72795
   117  H   1.0    0.04    1.07    1.44    13.94006    59.29379   167.96374
   118  H   1.0    0.05    1.03    1.43    14.10259    60.24474   173.57563
   119  H   1.0    0.05    1.06    1.44    16.92939    59.37745   172.05521
   120  H   1.0    0.05    1.08    1.44    13.60119    63.74279   170.25249
   121  H   1.0    0.05    1.07    1.44    16.10834    64.09345   172.43775
   122  H   1.0    0.05    1.05    1.44    21.87576    62.29988   168.30687
   123  H   1.0    0.05    1.04    1.43    20.63631    62.22787   171.42305
   124  H   1.0    0.04    1.04    1.43    20.11022    59.62674   169.32039
   125  N   5.0   -0.14    3.49    2.07    13.31571    54.45016   171.80766
   126  C   4.0    0.04    4.48    4.51    14.08921    51.81455   171.99142
   127  C   4.0    0.15    3.53    3.13    13.34974    50.48570   169.55305
   128  O   6.0   -0.31    1.30    1.80    14.80814    49.08001   168.43061
   129  C   4.0    0.05    4.21    4.02    12.90766    50.44800   174.31383
   130  O   6.0   -0.25    2.11    1.84    13.91801    51.38525   176.59349
   131  C   4.0   -0.06    4.10    3.80    13.42986    47.61506   174.19618
   132  H   1.0    0.10    1.06    1.44    12.05917    55.15212   173.06659
   133  H   1.0    0.06    1.05    1.44    16.15478    51.72857   172.15220
   134  H   1.0    0.05    1.04    1.43    10.86051    50.78644   174.24972
   135  H   1.0    0.15    1.06    1.44    13.19246    53.04053   176.93897
   136  H   1.0    0.06    1.00    1.43    12.71097    46.74072   175.90706
   137  H   1.0    0.05    1.00    1.43    12.52901    46.78023   172.55838
   138  H   1.0    0.05    1.00    1.43    15.45350    47.28653   174.09067
   139  N   5.0   -0.15    3.53    2.10    10.97069    50.87859   168.81713
   140  C   4.0    0.03    4.42    4.42    10.03219    49.76144   166.49414
   141  C   4.0    0.16    3.51    3.12    11.85245    50.45383   164.35475
   142  O   6.0   -0.32    1.30    1.80    12.64445    48.87107   162.84151
   143  C   4.0   -0.04    4.27    4.14     7.37166    50.71324   165.90209
   144  C   4.0   -0.04    4.20    4.00     5.33707    49.37421   167.46368
   145  C   4.0    0.15    3.20    3.04     2.78294    50.72428   167.36915
   146  O   6.0   -0.30    1.21    1.80     2.49663    52.97303   166.85257
   147  N   5.0   -0.18    3.18    1.95     0.79885    49.26949   167.95911
   148  H   1.0    0.08    1.07    1.44     9.87408    52.19442   169.68078
   149  H   1.0    0.05    1.05    1.44    10.05706    47.69774   166.66767
   150  H   1.0    0.05    1.03    1.43     7.30779    52.74404   166.26247
   151  H   1.0    0.04    1.03    1.43     6.98767    50.42492   163.89626
   152  H   1.0    0.04    1.03    1.43     5.10505    47.44001   166.81763
   153  H   1.0    0.05    1.03    1.43     5.92892    49.34194   169.44200
   154  H   1.0    0.09    1.03    1.43     0.98277    47.41707   168.35531
   155  H   1.0    0.11    1.03    1.43    -0.93072    50.06073   168.00311
   156  N   5.0   -0.14    3.51    2.09    12.50623    52.89377   164.25715
   157  C   4.0    0.04    4.48    4.50    14.09735    53.77534   162.23140
   158  C   4.0    0.16    3.49    3.11    16.66202    52.45550   162.25222
   159  O   6.0   -0.31    1.27    1.80    17.55987    51.55247   160.28699
   160  C   4.0   -0.04    4.34    4.27    14.42332    56.62981   162.39244
   161  C   4.0   -0.01    3.55    3.14    15.62859    57.70986   160.04868
   162  C   4.0   -0.04    3.47    3.10    14.83699    57.00840   157.61635
   163  C   4.0   -0.04    3.46    3.10    17.54267    59.48538   160.27830
   164  C   4.0   -0.04    3.37    3.07    15.97744    58.02499   155.51028
   165  C   4.0   -0.04    3.38    3.07    18.64081    60.55838   158.12872
   166  C   4.0   -0.04    3.37    3.07    17.89292    59.80816   155.74153
   167  H   1.0    0.08    1.07    1.44    11.70427    54.16762   165.43293
   168  H   1.0    0.05    1.06    1.44    13.21597    53.23903   160.42647
   169  H   1.0    0.04    1.03    1.43    12.53403    57.43483   162.63924
   170  H   1.0    0.05    1.04    1.43    15.55413    57.10524   164.03841
   171  H   1.0    0.04    1.03    1.43    13.30709    55.69038   157.38764
   172  H   1.0    0.05    1.03    1.43    18.19420    60.05486   162.11395
   173  H   1.0    0.04    1.03    1.43    15.36281    57.46435   153.64833
   174  H   1.0    0.05    1.03    1.43    20.11025    61.94788   158.37829
   175  H   1.0    0.05    1.03    1.43    18.73859    60.63351   154.08665
   176  N   5.0   -0.14    3.52    2.09    17.79680    52.40213   164.50725
   177  C   4.0    0.03    4.41    4.41    20.21252    51.14547   164.90617
   178  C   4.0    0.16    3.50    3.11    20.01635    48.46544   163.80616
   179  O   6.0   -0.33    1.33    1.80    21.61021    47.63157   162.33302
   180  C   4.0   -0.05    4.34    4.28    20.90548    51.18498   167.66123
   181  C   4.0   -0.03    4.17    3.94    23.77397    51.08115   168.15736
   182  C   4.0   -0.07    4.09    3.79    24.27656    51.33276   171.00752
   183  C   4.0   -0.07    4.10    3.81    25.01114    48.65311   167.17923
   184  H   1.0    0.11    1.12    1.45    17.01074    53.26440   166.01422
   185  H   1.0    0.04    1.05    1.44    21.66039    52.13147   163.77305
   186  H   1.0    0.05    1.04    1.43    20.18061    52.92642   168.48376
   187  H   1.0    0.05    1.03    1.43    19.97945    49.61010   168.63467
   188  H   1.0    0.03    1.05    1.44    24.63847    52.68967   167.19961
   189  H   1.0    0.05    1.00    1.43    26.29748    51.32638   171.37895
   190  H   1.0    0.04    1.00    1.43    23.47749    53.08127   171.72658
   191  H   1.0    0.05    1.00    1.43    23.41716    49.76693   172.02338
   192  H   1.0    0.05    1.00    1.43    27.02147    48.71887   167.58559
   193  H   1.0    0.05    1.00    1.43    24.16353    47.02005   168.10330
   194  H   1.0    0.05    1.01    1.43    24.75946    48.47055   165.15785
   195  N   5.0   -0.14    3.49    2.07    18.01228    47.12388   164.53384
   196  C   4.0    0.05    4.42    4.41    17.59061    44.59707   163.58262
   197  C   4.0    0.18    3.52    3.12    17.68554    44.48739   160.69787
   198  O   6.0   -0.31    1.31    1.80    18.92697    42.87411   159.60032
   199  C   4.0    0.04    4.17    3.94    15.02202    43.58591   164.44518
   200  O   6.0   -0.24    2.08    1.84    14.67079    41.21467   163.28017
   201  H   1.0    0.12    1.10    1.44    16.76067    47.85103   165.78859
   202  H   1.0    0.06    1.05    1.44    19.08353    43.31629   164.25570
   203  H   1.0    0.05    1.01    1.43    15.01944    43.41774   166.51341
   204  H   1.0    0.06    1.02    1.43    13.54945    44.92247   163.86487
   205  H   1.0    0.13    1.02    1.43    13.10607    40.48329   163.87199
   206  N   5.0   -0.14    3.53    2.10    16.28393    46.20275   159.50711
   207  C   4.0    0.04    4.51    4.55    16.06935    46.12968   156.77025
   208  C   4.0    0.16    3.48    3.11    18.67216    46.59525   155.55445
   209  O   6.0   -0.32    1.26    1.80    19.31155    45.55211   153.60699
   210  C   4.0   -0.02    4.32    4.24    14.10706    47.98514   155.69515
   211  C   4.0   -0.04    4.20    4.00    11.56745    47.75947   157.06415
   212  C   4.0   -0.07    4.15    3.90    13.77718    47.43553   152.89237
   213  C   4.0   -0.08    4.02    3.66     9.63957    49.69663   156.14584
   214  H   1.0    0.11    1.09    1.44    15.29770    47.51150   160.48604
   215  H   1.0    0.05    1.06    1.44    15.52246    44.19541   156.23143
   216  H   1.0    0.05    1.05    1.44    14.84721    49.90269   155.97310
   217  H   1.0    0.05    1.03    1.43    10.81515    45.85713   156.78062
   218  H   1.0    0.07    1.05    1.44    11.82205    48.02373   159.08671
   219  H   1.0    0.04    1.00    1.43    12.81465    48.99291   151.95806
   220  H   1.0    0.06    1.01    1.43    15.59683    47.16682   151.98112
   221  H   1.0    0.05    1.00    1.43    12.67007    45.72728   152.62984
   222  H   1.0    0.04    1.00    1.43     7.95739    49.63383   157.32173
   223  H   1.0    0.04    1.00    1.43    10.42815    51.59435   156.23675
   224  H   1.0    0.04    1.00    1.43     9.07412    49.32461   154.20866
   225  N   5.0   -0.14    3.54    2.10    20.16147    48.23888   156.75579
   226  C   4.0    0.04    4.53    4.57    22.68795    48.71992   155.83829
   227  C   4.0    0.15    3.48    3.11    24.35787    46.38224   156.20400
   228  O   6.0   -0.32    1.27    1.80    25.59111    45.51703   154.45081
   229  C   4.0   -0.02    4.36    4.30    23.69083    51.10937   157.13721
   230  C   4.0   -0.05    4.21    4.01    22.54844    53.41616   155.80509
   231  C   4.0   -0.08    4.14    3.88    26.56346    51.23421   157.12540
   232  C   4.0   -0.08    4.03    3.68    22.49417    55.68902   157.53969
   233  H   1.0    0.11    1.10    1.44    19.52814    49.18486   158.28837
   234  H   1.0    0.05    1.06    1.44    22.60930    49.00497   153.78537
   235  H   1.0    0.05    1.06    1.44    23.03130    51.05482   159.09510
   236  H   1.0    0.03    1.03    1.43    23.63684    53.83210   154.11172
   237  H   1.0    0.05    1.03    1.43    20.60749    52.99670   155.24700
   238  H   1.0    0.03    1.00    1.43    27.20753    53.04709   157.82753
   239  H   1.0    0.04    1.01    1.43    27.36406    49.76203   158.29793
   240  H   1.0    0.04    1.00    1.43    27.26833    50.98769   155.20773
   241  H   1.0    0.04    1.02    1.43    21.76605    57.33172   156.56182
   242  H   1.0    0.05    1.00    1.43    21.26748    55.32952   159.15189
   243  H   1.0    0.03    1.00    1.43    24.37706    56.14434   158.24064
   244  N   5.0   -0.14    3.50    2.08    24.40037    45.39136   158.52431
   245  C   4.0    0.03    4.44    4.44    25.81179    43.11195   159.06590
   246  C   4.0    0.16    3.48    3.11    25.18921    40.99591   157.17978
   247  O   6.0   -0.30    1.28    1.80    26.84253    39.64834   156.30257
   248  C   4.0   -0.05    4.28    4.16    25.24914    42.21839   161.73612
   249  C   4.0   -0.04    4.21    4.02    27.03539    40.08013   162.50612
   250  C   4.0   -0.00    4.22    4.04    26.89283    39.38259   165.31218
   251  N   5.0   -0.14    3.43    2.04    27.74731    41.49360   166.83000
   252  C   4.0    0.10    3.35    3.06    28.17597    41.40708   169.27291
   253  N   5.0   -0.17    3.26    1.97    27.86735    39.29721   170.58852
   254  N   5.0   -0.19    3.24    1.97    28.82582    43.55715   170.47459
   255  H   1.0    0.12    1.12    1.45    23.21831    46.07712   159.86949
   256  H   1.0    0.05    1.05    1.44    27.83613    43.49532   158.83854
   257  H   1.0    0.05    1.03    1.43    25.43186    43.84492   162.99273
   258  H   1.0    0.06    1.03    1.43    23.28573    41.57673   161.82788
   259  H   1.0    0.06    1.03    1.43    26.60592    38.39508   161.40377
   260  H   1.0    0.05    1.03    1.43    28.98185    40.57700   162.06622
   261  H   1.0    0.05    1.02    1.43    24.94572    38.89960   165.81646
   262  H   1.0    0.07    1.05    1.44    28.12898    37.76968   165.59087
   263  H   1.0    0.07    1.08    1.44    28.05490    43.13291   165.91648
   264  H   1.0    0.10    1.03    1.43    27.72350    37.61081   169.70040
   265  H   1.0    0.10    1.03    1.43    28.38844    39.19810   172.40869
   266  H   1.0    0.09    1.03    1.43    28.69246    45.22312   169.57970
   267  H   1.0    0.08    1.03    1.43    28.74901    43.59767   172.38827
   268  N   5.0   -0.14    3.52    2.09    22.73639    40.76405   156.60131
   269  C   4.0    0.05    4.38    4.35    21.76284    38.90246   154.85024
   270  C   4.0    0.18    3.49    3.11    23.22560    38.86506   152.33517
   271  O   6.0   -0.25    1.21    1.80    23.68153    36.90832   151.19891
   272  C   4.0    0.04    4.18    3.96    19.00797    39.59306   154.25464
   273  O   6.0   -0.23    2.08    1.84    18.27206    38.40205   151.99214
   274  H   1.0    0.12    1.12    1.45    21.42766    41.75811   157.59498
   275  H   1.0    0.07    1.05    1.44    21.88560    36.98649   155.62934
   276  H   1.0    0.06    1.01    1.43    17.79802    39.03373   155.83569
   277  H   1.0    0.07    1.03    1.43    18.92248    41.65323   154.00790
   278  H   1.0    0.13    1.02    1.43    16.53684    38.82511   151.62566
   279  N   5.0   -0.14    3.54    2.11    23.78318    41.16831   151.45050
   280  C   4.0    0.04    4.42    4.41    25.03709    41.54753   149.07016
   281  C   4.0    0.16    3.40    3.08    27.87637    40.96346   149.14911
   282  O   6.0   -0.29    1.23    1.80    29.17069    41.04378   147.21937
   283  C   4.0   -0.04    4.30    4.19    24.68235    44.25418   148.13773
   284  C   4.0   -0.04    4.16    3.93    21.94481    44.83881   147.45169
   285  C   4.0   -0.01    4.19    3.99    21.70714    47.61439   146.63989
   286  N   5.0   -0.14    3.38    2.01    20.13958    47.97173   144.39515
   287  C   4.0    0.10    3.33    3.06    20.90054    47.71556   142.00291
   288  N   5.0   -0.18    3.24    1.97    23.31270    47.40605   141.34894
   289  N   5.0   -0.17    3.25    1.97    19.19385    48.04101   140.18350
   290  H   1.0    0.11    1.10    1.44    23.58549    42.66686   152.62495
   291  H   1.0    0.07    1.06    1.44    24.24041    40.19095   147.71689
   292  H   1.0    0.05    1.03    1.43    25.32653    45.51114   149.64690
   293  H   1.0    0.05    1.03    1.43    25.93652    44.50155   146.51599
   294  H   1.0    0.05    1.03    1.43    21.37544    43.59592   145.90889
   295  H   1.0    0.06    1.03    1.43    20.74749    44.45303   149.07217
   296  H   1.0    0.04    1.03    1.43    20.85622    48.71865   148.15238
   297  H   1.0    0.04    1.03    1.43    23.57759    48.39977   146.25669
   298  H   1.0    0.08    1.07    1.44    18.26967    48.02046   144.71869
   299  H   1.0    0.08    1.02    1.43    24.70414    47.01285   142.60402
   300  H   1.0    0.10    1.04    1.43    23.74047    46.91221   139.56822
   301  H   1.0    0.09    1.03    1.43    17.33721    48.19163   140.59327
   302  H   1.0    0.10    1.03    1.43    19.64164    47.63669   138.36954
   303  N   5.0   -0.12    3.52    2.09    28.85998    40.47508   151.42481
   304  C   4.0    0.04    4.41    4.39    31.45131    39.69156   151.79249
   305  C   4.0    0.15    3.39    3.07    31.58893    36.81716   152.25039
   306  O   6.0   -0.26    1.23    1.80    29.75173    35.47353   152.60451
   307  C   4.0   -0.04    4.34    4.26    32.64316    41.17798   153.95621
   308  C   4.0   -0.04    4.06    3.72    32.57458    44.01430   153.45970
   309  S   6.0   -0.05    2.46    3.10    34.44063    45.70121   155.87659
   310  C   4.0   -0.07    3.88    3.44    32.37044    48.29301   156.63858
   311  H   1.0    0.12    1.12    1.45    27.71629    40.14440   152.93169
   312  H   1.0    0.06    1.06    1.44    32.43208    40.08852   150.00833
   313  H   1.0    0.06    1.03    1.43    31.58999    40.75958   155.68804
   314  H   1.0    0.04    1.04    1.43    34.59536    40.57508   154.23419
   315  H   1.0    0.04    1.06    1.44    33.38108    44.45270   151.61961
   316  H   1.0    0.06    1.07    1.44    30.64718    44.71966   153.55801
   317  H   1.0    0.04    1.05    1.44    33.08862    49.15667   158.34718
   318  H   1.0    0.04    1.04    1.43    32.40315    49.66252   155.10514
   319  H   1.0    0.04    1.05    1.44    30.48568    47.55038   156.92088
   320  N   5.0   -0.15    3.44    2.04    33.94895    35.84395   152.12363
   321  C   4.0    0.03    4.48    4.51    34.33979    33.24342   151.32593
   322  C   4.0    0.15    3.41    3.08    34.94229    31.51876   153.57323
   323  O   6.0   -0.33    1.33    1.80    37.00973    31.50005   154.58258
   324  C   4.0   -0.02    4.25    4.11    36.38931    33.14926   149.24478
   325  C   4.0   -0.06    4.12    3.84    38.99776    33.99721   150.14888
   326  C   4.0   -0.07    4.11    3.83    36.53392    30.48699   148.14412
   327  H   1.0    0.07    1.07    1.44    35.40505    37.03468   151.80713
   328  H   1.0    0.06    1.07    1.44    32.54122    32.61525   150.50368
   329  H   1.0    0.05    1.06    1.44    35.74774    34.44406   147.76127
   330  H   1.0    0.05    1.00    1.43    40.25736    34.15848   148.53760
   331  H   1.0    0.04    1.00    1.43    38.93447    35.81592   151.09903
   332  H   1.0    0.06    1.01    1.43    39.77086    32.62227   151.46138
   333  H   1.0    0.05    1.00    1.43    37.88041    30.44532   146.59281
   334  H   1.0    0.05    1.00    1.43    37.16218    29.16066   149.57995
   335  H   1.0    0.05    1.00    1.43    34.70780    29.87922   147.43067
   336  N   5.0   -0.15    3.43    2.03    33.01652    30.05347   154.34820
   337  C   4.0    0.03    4.34    4.26    33.20245    28.12225   156.31926
   338  C   4.0    0.15    3.39    3.08    33.83892    29.25728   158.94987
   339  O   6.0   -0.29    1.26    1.80    34.93645    28.02117   160.55962
   340  C   4.0   -0.03    4.35    4.29    35.13953    26.01853   155.72479
   341  C   4.0   -0.02    4.15    3.90    34.21774    23.81313   154.08064
   342  C   4.0   -0.07    4.09    3.79    34.06961    24.54280   151.28837
   343  C   4.0   -0.06    4.11    3.81    36.02106    21.57838   154.41548
   344  H   1.0    0.09    1.06    1.44    31.32263    30.25418   153.49366
   345  H   1.0    0.05    1.05    1.44    31.33061    27.26555   156.50605
   346  H   1.0    0.06    1.03    1.43    36.78159    26.88771   154.83442
   347  H   1.0    0.06    1.05    1.44    35.71457    25.26543   157.55480
   348  H   1.0    0.05    1.05    1.44    32.33705    23.23746   154.72429
   349  H   1.0    0.05    1.00    1.43    33.34773    22.97923   150.17663
   350  H   1.0    0.05    1.00    1.43    32.82533    26.15785   151.01559
   351  H   1.0    0.05    1.00    1.43    35.93677    25.02763   150.58617
   352  H   1.0    0.06    1.00    1.43    35.41511    19.99407   153.25811
   353  H   1.0    0.05    1.00    1.43    37.92353    22.10219   153.84531
   354  H   1.0    0.05    1.00    1.43    36.06468    20.96516   156.37499
   355  N   5.0   -0.14    3.46    2.05    33.04792    31.63654   159.37346
   356  C   4.0    0.04    4.41    4.39    33.90969    33.04889   161.55839
   357  C   4.0    0.16    3.40    3.08    31.80545    33.54494   163.50798
   358  O   6.0   -0.31    1.29    1.80    30.93285    35.64245   163.82661
   359  C   4.0   -0.03    4.28    4.17    35.02667    35.60218   160.73971
   360  C   4.0   -0.05    4.16    3.93    37.15359    35.42446   158.80928
   361  C   4.0   -0.01    4.17    3.94    39.75649    34.70831   159.87603
   362  N   5.0   -0.13    3.42    2.03    39.81765    32.41721   161.38884
   363  C   4.0    0.12    3.35    3.06    40.20587    30.04706   160.66306
   364  N   5.0   -0.17    3.25    1.97    40.37203    29.42960   158.20919
   365  N   5.0   -0.16    3.27    1.97    40.59948    28.31700   162.42856
   366  H   1.0    0.09    1.07    1.44    32.10455    32.59915   158.02327
   367  H   1.0    0.08    1.08    1.44    35.31402    31.85793   162.49957
   368  H   1.0    0.05    1.03    1.43    33.48103    36.71297   159.95373
   369  H   1.0    0.05    1.03    1.43    35.67841    36.56589   162.44335
   370  H   1.0    0.07    1.06    1.44    36.64019    34.08273   157.34595
   371  H   1.0    0.04    1.03    1.43    37.38040    37.26866   157.92831
   372  H   1.0    0.05    1.03    1.43    41.07691    34.49277   158.30659
   373  H   1.0    0.04    1.03    1.43    40.42875    36.22405   161.09426
   374  H   1.0    0.09    1.13    1.45    39.74242    32.65046   163.27441
   375  H   1.0    0.12    1.07    1.44    39.49186    30.50921   156.89277
   376  H   1.0    0.09    1.04    1.43    40.54654    27.58616   157.79198
   377  H   1.0    0.13    1.09    1.44    40.49474    28.83613   164.28557
   378  H   1.0    0.10    1.03    1.43    40.67157    26.46627   161.98970
   379  N   5.0   -0.13    3.41    2.03    30.99780    31.52824   164.84399
   380  C   4.0    0.04    4.25    4.10    29.16555    31.86572   166.83847
   381  C   4.0    0.09    3.18    3.03    30.19374    31.70546   169.56213
   382  O   6.0   -0.27    1.12    1.80    29.06336    32.73746   171.29042
   383  C   4.0   -0.06    4.09    3.79    26.93643    30.03993   166.57203
   384  H   1.0    0.10    1.06    1.44    31.84454    29.83699   164.60457
   385  H   1.0    0.07    1.08    1.44    28.46168    33.79953   166.62117
   386  H   1.0    0.06    1.00    1.43    25.59828    30.40274   168.09314
   387  H   1.0    0.05    1.00    1.43    26.00395    30.34198   164.77470
   388  H   1.0    0.06    1.00    1.43    27.56812    28.09601   166.70675
   389  N   5.0   -0.18    3.27    1.97    35.47728    33.87523   171.79259
   390  C   4.0    0.03    4.30    4.20    37.30050    35.89738   172.11545
   391  C   4.0    0.15    3.43    3.09    35.84000    38.34155   171.51727
   392  O   6.0   -0.29    1.25    1.80    34.57579    38.57578   169.58804
   393  C   4.0   -0.03    4.22    4.04    39.61996    35.61091   170.37446
   394  C   4.0   -0.03    4.18    3.95    38.90542    35.14279   167.60281
   395  C   4.0    0.24    3.15    3.03    38.34782    32.30496   167.04672
   396  O   6.0   -0.30    1.27    1.80    40.23580    30.87792   166.85995
   397  O   6.0   -0.30    1.19    1.80    36.11723    31.64158   166.69168
   398  H   1.0    0.12    1.04    1.43    34.37437    34.04163   170.23562
   399  H   1.0    0.05    1.05    1.44    37.92865    35.85134   174.08042
   400  H   1.0    0.05    1.03    1.43    40.74686    37.32845   170.53185
   401  H   1.0    0.06    1.03    1.43    40.76174    34.02312   171.03896
   402  H   1.0    0.07    1.03    1.43    37.25407    36.26391   167.08344
   403  H   1.0    0.05    1.03    1.43    40.50343    35.67802   166.41437
   404  N   5.0   -0.13    3.44    2.04    35.90768    40.09202   173.35634
   405  C   4.0    0.04    4.37    4.33    34.60426    42.46713   173.06744
   406  C   4.0    0.15    3.41    3.08    36.32499    44.53666   172.01790
   407  O   6.0   -0.28    1.21    1.80    38.62490    44.49665   172.11258
   408  C   4.0   -0.06    4.11    3.83    33.51168    43.36601   175.57959
   409  H   1.0    0.09    1.06    1.44    37.20288    39.94251   174.74626
   410  H   1.0    0.06    1.08    1.44    33.12091    42.10068   171.66899
   411  H   1.0    0.05    1.00    1.43    32.43132    45.08676   175.34695
   412  H   1.0    0.05    1.00    1.43    32.31820    41.89286   176.38934
   413  H   1.0    0.06    1.00    1.43    35.03885    43.73954   176.90676
   414  N   5.0   -0.14    3.56    2.12    34.97168    46.43382   171.01287
   415  C   4.0    0.04    4.34    4.27    36.02185    48.86262   170.47503
   416  C   4.0    0.08    3.26    3.05    34.03252    50.80655   171.27234
   417  O   6.0   -0.30    1.17    1.80    31.82554    50.17562   171.45650
   418  C   4.0   -0.03    4.32    4.23    36.64339    49.07905   167.63877
   419  C   4.0   -0.01    3.59    3.16    34.32317    48.87126   166.01343
   420  C   4.0   -0.04    3.47    3.10    33.41771    46.52900   165.25383
   421  C   4.0   -0.04    3.48    3.10    33.03772    51.03432   165.26181
   422  C   4.0   -0.04    3.38    3.07    31.28570    46.36510   163.74978
   423  C   4.0   -0.05    3.37    3.07    30.89172    50.86440   163.77822
   424  C   4.0   -0.05    3.38    3.07    30.01259    48.52753   163.01631
   425  H   1.0    0.10    1.10    1.44    33.06099    46.45604   171.14530
   426  H   1.0    0.06    1.05    1.44    37.76135    49.14398   171.56242
   427  H   1.0    0.04    1.03    1.43    37.58363    50.88880   167.30429
   428  H   1.0    0.05    1.03    1.43    37.95776    47.55200   167.20242
   429  H   1.0    0.06    1.03    1.43    34.41722    44.83671   165.81073
   430  H   1.0    0.04    1.03    1.43    33.72786    52.84717   165.89871
   431  H   1.0    0.05    1.03    1.43    30.67161    44.53596   163.09851
   432  H   1.0    0.04    1.03    1.43    29.92381    52.56835   163.20926
   433  H   1.0    0.04    1.03    1.43    28.33237    48.38916   161.87533
   434  N   5.0   -0.19    3.25    1.97    30.42494    57.84626   170.06822
   435  C   4.0    0.03    4.23    4.07    29.50344    59.59228   168.14041
   436  C   4.0    0.09    3.22    3.04    29.25699    62.13701   169.50860
   437  O   6.0   -0.28    1.14    1.80    27.86962    62.35215   171.30723
   438  C   4.0   -0.05    4.35    4.29    27.00459    58.56399   167.15488
   439  C   4.0   -0.03    4.17    3.94    25.92061    59.97061   164.87620
   440  C   4.0   -0.08    4.10    3.81    27.78934    60.13541   162.65744
   441  C   4.0   -0.08    4.11    3.83    23.53921    58.60493   163.97036
   442  H   1.0    0.10    1.03    1.43    29.29814    57.66544   171.59490
   443  H   1.0    0.03    1.05    1.44    30.94436    59.69894   166.66924
   444  H   1.0    0.03    1.03    1.43    27.32981    56.59691   166.62296
   445  H   1.0    0.05    1.03    1.43    25.63971    58.62233   168.69523
   446  H   1.0    0.04    1.05    1.44    25.43057    61.90170   165.43605
   447  H   1.0    0.04    1.00    1.43    26.84459    60.95013   161.02680
   448  H   1.0    0.04    1.00    1.43    29.41287    61.29743   163.10938
   449  H   1.0    0.03    1.00    1.43    28.43186    58.24970   162.14811
   450  H   1.0    0.04    1.00    1.43    22.64046    59.67505   162.46914
   451  H   1.0    0.03    1.00    1.43    24.03362    56.75057   163.23970
   452  H   1.0    0.04    1.00    1.43    22.20249    58.37073   165.50637
   453  N   5.0   -0.20    3.20    1.96    16.02641    60.48203   180.84906
   454  C   4.0    0.03    4.26    4.11    15.51290    58.43312   179.11423
   455  C   4.0    0.09    3.17    3.03    12.68409    57.77348   179.01070
   456  O   6.0   -0.30    1.17    1.80    11.89517    56.20606   177.51164
   457  C   4.0   -0.04    4.30    4.19    17.24395    56.15015   179.57559
   458  C   4.0   -0.04    4.04    3.69    20.00797    56.79067   179.06221
   459  S   6.0   -0.05    2.53    3.10    20.52404    57.64047   175.71708
   460  C   4.0   -0.06    3.87    3.43    23.94665    57.95174   175.61544
   461  H   1.0    0.09    1.02    1.43    16.88394    60.08351   182.51275
   462  H   1.0    0.04    1.09    1.44    15.93854    59.15003   177.20437
   463  H   1.0    0.05    1.03    1.43    17.05265    55.54173   181.53591
   464  H   1.0    0.06    1.04    1.43    16.65526    54.61834   178.34138
   465  H   1.0    0.05    1.06    1.44    20.64290    58.41082   180.16540
   466  H   1.0    0.05    1.07    1.44    21.20169    55.16579   179.44605
   467  H   1.0    0.05    1.05    1.44    24.39997    58.89082   173.85771
   468  H   1.0    0.05    1.04    1.43    24.53027    59.08188   177.20976
   469  H   1.0    0.05    1.04    1.43    24.76699    56.06923   175.67448
   470  N   5.0   -0.18    3.24    1.96    36.04903    61.28538   161.34298
   471  C   4.0    0.03    4.24    4.08    36.13713    58.98474   162.78853
   472  C   4.0    0.09    3.22    3.04    38.85252    58.14146   163.17537
   473  O   6.0   -0.26    1.13    1.80    40.44350    58.34306   161.51148
   474  C   4.0   -0.04    4.34    4.27    34.44896    56.93177   161.66945
   475  C   4.0   -0.01    3.59    3.16    35.34174    55.97149   159.18802
   476  C   4.0   -0.04    3.49    3.11    34.84159    57.38498   157.04084
   477  C   4.0   -0.04    3.46    3.10    36.62846    53.69010   158.96155
   478  C   4.0   -0.04    3.44    3.09    35.55976    56.52964   154.69065
   479  C   4.0   -0.03    3.43    3.09    37.37284    52.82045   156.62613
   480  C   4.0    0.08    3.47    3.10    36.79227    54.22240   154.47518
   481  O   6.0   -0.23    2.11    1.84    37.39720    53.27243   152.15603
   482  H   1.0    0.11    1.02    1.43    37.08612    61.47972   159.75388
   483  H   1.0    0.04    1.06    1.44    35.35774    59.44827   164.66381
   484  H   1.0    0.03    1.03    1.43    34.35002    55.38540   163.04226
   485  H   1.0    0.03    1.04    1.43    32.56564    57.74548   161.47936
   486  H   1.0    0.05    1.03    1.43    33.84745    59.16079   157.20345
   487  H   1.0    0.05    1.03    1.43    37.00495    52.58789   160.63373
   488  H   1.0    0.06    1.03    1.43    35.11435    57.62484   153.02452
   489  H   1.0    0.07    1.03    1.43    38.35257    51.04880   156.38310
   490  H   1.0    0.11    1.04    1.43    36.55260    54.29292   150.88546
   491  N   5.0   -0.18    3.29    1.98     6.60815    54.68579   143.88373
   492  C   4.0    0.03    4.42    4.42     6.95619    53.51729   146.34203
   493  C   4.0    0.15    3.44    3.09     5.20220    51.24216   146.71350
   494  O   6.0   -0.26    1.24    1.80     4.00298    50.30575   144.97110
   495  C   4.0   -0.02    4.41    4.40     6.39689    55.66103   148.17028
   496  C   4.0   -0.05    4.16    3.92     7.67061    55.50651   150.76427
   497  C   4.0   -0.06    4.16    3.91     3.52175    56.07932   148.25141
   498  C   4.0   -0.08    4.03    3.67    10.50506    55.03340   150.53630
   499  H   1.0    0.09    1.04    1.43     5.31620    56.08225   143.82787
   500  H   1.0    0.04    1.05    1.44     8.90670    52.82916   146.41220
   501  H   1.0    0.04    1.08    1.44     7.26104    57.32401   147.30569
   502  H   1.0    0.04    1.03    1.43     7.39725    57.35044   151.65891
   503  H   1.0    0.05    1.02    1.43     6.80255    54.13835   152.04270
   504  H   1.0    0.07    1.01    1.43     2.73636    55.40043   150.02298
   505  H   1.0    0.05    1.00    1.43     3.15221    58.09461   148.05993
   506  H   1.0    0.06    1.01    1.43     2.56540    55.10724   146.72719
   507  H   1.0    0.04    1.00    1.43    11.39966    55.33897   152.37286
   508  H   1.0    0.04    1.00    1.43    10.91801    53.11218   149.96125
   509  H   1.0    0.04    1.00    1.43    11.33161    56.34576   149.19975
   510  N   5.0   -0.14    3.41    2.02     5.10398    50.30520   149.06491
   511  C   4.0    0.02    4.16    3.92     2.95967    48.80895   149.86597
   512  C   4.0    0.08    3.13    3.03     1.44175    50.31984   151.80569
   513  O   6.0   -0.30    1.16    1.80     2.16686    52.34441   152.61787
   514  H   1.0    0.08    1.10    1.44     5.89915    51.33200   150.46175
   515  H   1.0    0.07    1.04    1.43     1.81339    48.38041   148.20643
   516  H   1.0    0.05    1.02    1.43     3.60252    47.03360   150.72279
   517  H   1.0    0.09    1.08    1.44    25.45621    65.87918   151.43110
   518  H   1.0    0.06    1.04    1.43    32.70566    64.41290   152.20001
   519  H   1.0    0.10    1.07    1.44    47.69781    44.41869   160.39873
   520  H   1.0    0.06    1.05    1.44    42.19548    48.84639   149.02687
   521  H   1.0    0.10    1.08    1.44    36.53799    51.47149   147.93413
   522  H   1.0    0.06    1.05    1.44    32.47609    50.78171   141.53127
   523  H   1.0    0.10    1.09    1.44    19.22792    63.28823   144.22997
   524  H   1.0    0.06    1.04    1.43    11.65376    63.93447   144.99149
   525  H   1.0    0.10    1.08    1.44    -0.16361    61.42443   162.93053
   526  H   1.0    0.06    1.04    1.43     4.64593    58.14939   167.74081
   527  H   1.0    0.10    1.07    1.44    10.02781    59.29277   169.02352
   528  H   1.0    0.07    1.04    1.43    31.78854    30.75537   169.91566
   529  H   1.0    0.11    1.08    1.44    36.29453    32.38937   171.66269
   530  H   1.0    0.05    1.04    1.43    34.54602    52.58760   171.64010
   531  H   1.0    0.09    1.07    1.44    30.58723    56.29245   169.39598
   532  H   1.0    0.06    1.04    1.44    30.24899    63.63061   168.91182
   533  H   1.0    0.10    1.07    1.44    17.04647    61.61812   180.09984
   534  H   1.0    0.07    1.04    1.44    11.47057    58.63096   180.17825
   535  H   1.0    0.09    1.08    1.44    34.45626    61.56391   160.81568
   536  H   1.0    0.06    1.05    1.44    39.38399    57.39596   164.82850
   537  H   1.0    0.09    1.07    1.44     8.07846    55.36501   143.36470
   538  H   1.0    0.06    1.05    1.44    -0.20438    49.64932   152.44734

  Z AO/shell   Hii/eV     exponent
  1     Wed Apr 25 08:07:45 CEST 2018   EN: 2.200 GM2: 0.406  GM3: 0.0800  RAES: 1.40
     1s    -10.707211    1.230000
  6     Wed Apr 25 08:07:45 CEST 2018   EN: 2.550 GM2: 0.538  GM3: 0.1500  RAES: 3.00
     2s    -13.970922    2.096432
     2p    -10.063292    1.800000
  7     Wed Apr 25 08:07:45 CEST 2018   EN: 3.040 GM2: 0.461  GM3:-0.0640  RAES: 1.90
     2s    -16.686243    2.339881
     2p    -12.523956    2.014332
  8     Wed Apr 25 08:07:45 CEST 2018   EN: 3.440 GM2: 0.452  GM3:-0.0517  RAES: 1.80
     2s    -20.229985    2.439742
     2p    -15.503117    2.137023
 16     Tue Apr 24 11:44:34 CEST 2018   EN: 2.580 GM2: 0.340  GM3:-0.0502  RAES: 3.10
     3s    -20.029654    1.981333
     3p    -11.377694    2.025643
     3d     -0.420282    1.702555
 no old-style atom pair restraining (fixing) potential

molecular fragmentation (1/2 indicates fragments):
111111111111111122222222222222222222222222222222222222222222222222222222
222222222222222222222222222222222222222222222222222222222222222222222222
222222222222222222222222222222222222222222222222222222222222222222222222
222222222222222222222222222222222222222222222222222222222222222222222222
222222222222222222222222222222222222222222222222222222222222222222222222
222222222222222222222222222222222222222222222222222222222222222222222222
222222222222222222222222222222222222222222222222222222222222222222222222
2222222222221122222222222222222222
# atoms in fragment 1/2:    18   520
 fragment masses (1/2) :      101.15     3435.41
CMA distance (Bohr)    :  17.482
constraining FC (au)   :  0.0500
           ------------------------------------------------- 
          |        Self-Consistent Charge Iterations        |
           ------------------------------------------------- 

 Ncao       : 1294
 Nao        : 1291
 Nshell     : 787
 Nel        : 1394
 T(el)      :   500.0
 intcut     :    35.0
 scfconv/Eh :  0.100E-06
   qconv/e  :  0.100E-04
 intneglect :  0.100E-08
 broydamp   :      0.400
 iter      E             dE          RMSdq      gap      omega  full diag
   1   -789.3086220 -0.789309E+03  0.445E+00    2.89       0.0  T
   2   -790.9686373 -0.166002E+01  0.212E+00    1.59       1.0  T
   3   -791.0621071 -0.934698E-01  0.117E+00    1.73       1.0  T
   4   -791.1877050 -0.125598E+00  0.239E-01    1.19       1.0  T
   5   -791.1933732 -0.566827E-02  0.111E-01    1.25       1.0  T
   6   -791.1945677 -0.119453E-02  0.470E-02    1.21       1.0  T
   7   -791.1948646 -0.296812E-03  0.214E-02    1.19       1.0  T
   8   -791.1949087 -0.440915E-04  0.103E-02    1.18       1.0  T
   9   -791.1949224 -0.137074E-04  0.486E-03    1.17       1.0  T
  10   -791.1949251 -0.269296E-05  0.229E-03    1.17       1.9  T
  11   -791.1949256 -0.575728E-06  0.115E-03    1.16       3.8  T
  12   -791.1949258 -0.139970E-06  0.560E-04    1.16       7.7  T
  13   -791.1949258 -0.468742E-07  0.269E-04    1.16      16.0  T
  14   -791.1949258 -0.653347E-08  0.120E-04    1.16      35.9  T
  15   -791.1949258 -0.192222E-08  0.453E-05    1.16      95.1  T
  16   -791.1949258 -0.189061E-09  0.201E-05    1.16     214.4  T
speedup  1.96
cpu  time for SCC   39.71 s
wall time for SCC   20.21 s

   *** convergence criteria satisfied after 16 iterations ***

          eigenvalues
 #    :         685        686        687        688        689        690        691        692
 occ. :        2.000      2.000      2.000      2.000      2.000      2.000      2.000      2.000
 eps  :       -10.084    -10.083    -10.065    -10.037    -10.022     -9.957     -9.937     -9.927
 #    :         693        694        695        696        697        698        699        700
 occ. :        2.000      2.000      2.000      2.000      2.000      0.000      0.000      0.000
 eps  :        -9.897     -9.824     -9.732     -9.535     -9.367     -8.207     -8.110     -7.939
 #    :         701        702        703        704        705        706        707        708
 occ. :        0.000      0.000      0.000      0.000      0.000      0.000      0.000      0.000
 eps  :        -7.880     -7.876     -7.813     -7.793     -7.706     -7.654     -7.480     -7.294


   #   Z            q   n(s)   n(p)   n(d)      C6AA      α(0)
   1   7 N     -0.388  1.326  4.063  0.000    30.050     8.141
   2   6 C      0.035  1.062  2.903  0.000    20.005     6.371
   3   6 C      0.206  1.089  2.705  0.000    23.620     7.959
   4   8 O     -0.378  1.759  4.619  0.000    21.251     6.181
   5   6 C     -0.015  1.061  2.955  0.000    20.811     6.488
   6   6 C     -0.116  1.040  3.075  0.000    22.763     6.802
   7   6 C     -0.112  1.038  3.073  0.000    22.687     6.791
   8   1 H      0.153  0.847  0.000  0.000     1.378     1.839
   9   1 H      0.051  0.949  0.000  0.000     2.309     2.376
  10   1 H      0.042  0.958  0.000  0.000     2.416     2.431
  11   1 H      0.066  0.934  0.000  0.000     2.128     2.281
  12   1 H      0.027  0.973  0.000  0.000     2.627     2.535
  13   1 H      0.041  0.959  0.000  0.000     2.440     2.443
  14   1 H      0.063  0.937  0.000  0.000     2.165     2.301
  15   1 H      0.043  0.957  0.000  0.000     2.410     2.428
  16   1 H      0.031  0.969  0.000  0.000     2.568     2.506
  17   7 N     -0.394  1.312  4.082  0.000    30.205     8.162
  18   6 C      0.037  1.057  2.905  0.000    19.958     6.363
  19   6 C      0.263  1.049  2.688  0.000    22.563     7.779
  20   8 O     -0.535  1.765  4.770  0.000    24.575     6.647
  21   6 C     -0.062  1.057  3.005  0.000    21.687     6.628
  22   6 C     -0.008  1.056  2.953  0.000    20.690     6.470
  23   6 C     -0.111  1.040  3.071  0.000    22.683     6.790
  24   6 C     -0.116  1.042  3.074  0.000    22.766     6.803
  25   1 H      0.152  0.848  0.000  0.000     1.389     1.846
  26   1 H      0.035  0.965  0.000  0.000     2.520     2.482
  27   1 H      0.031  0.969  0.000  0.000     2.578     2.511
  28   1 H      0.042  0.958  0.000  0.000     2.419     2.432
  29   1 H      0.024  0.976  0.000  0.000     2.680     2.560
  30   1 H      0.047  0.953  0.000  0.000     2.359     2.402
  31   1 H      0.024  0.976  0.000  0.000     2.677     2.559
  32   1 H      0.041  0.959  0.000  0.000     2.436     2.441
  33   1 H      0.041  0.959  0.000  0.000     2.433     2.439
  34   1 H      0.052  0.948  0.000  0.000     2.290     2.366
  35   1 H      0.038  0.962  0.000  0.000     2.472     2.458
  36   7 N     -0.080  1.227  3.853  0.000    22.791     7.090
  37   6 C      0.019  1.069  2.911  0.000    20.234     6.401
  38   6 C      0.208  1.079  2.713  0.000    23.594     7.955
  39   8 O     -0.343  1.742  4.600  0.000    20.566     6.080
  40   6 C     -0.076  1.056  3.020  0.000    21.942     6.667
  41   6 C     -0.071  1.055  3.016  0.000    21.835     6.649
  42   6 C     -0.018  1.055  2.963  0.000    20.947     6.526
  43   1 H      0.080  0.920  0.000  0.000     1.974     2.197
  44   1 H      0.075  0.925  0.000  0.000     2.028     2.227
  45   1 H      0.077  0.923  0.000  0.000     2.006     2.215
  46   1 H      0.065  0.935  0.000  0.000     2.139     2.287
  47   1 H      0.072  0.928  0.000  0.000     2.065     2.247
  48   1 H      0.073  0.927  0.000  0.000     2.053     2.241
  49   1 H      0.069  0.931  0.000  0.000     2.098     2.265
  50   7 N     -0.385  1.314  4.071  0.000    29.951     8.128
  51   6 C      0.036  1.056  2.908  0.000    19.980     6.367
  52   6 C      0.197  1.086  2.717  0.000    23.795     7.989
  53   8 O     -0.389  1.765  4.624  0.000    21.455     6.210
  54   6 C     -0.071  1.061  3.010  0.000    21.850     6.653
  55   6 C     -0.010  1.055  2.955  0.000    20.727     6.475
  56   6 C     -0.112  1.040  3.071  0.000    22.683     6.790
  57   6 C     -0.116  1.041  3.075  0.000    22.774     6.804
  58   1 H      0.150  0.850  0.000  0.000     1.401     1.854
  59   1 H      0.069  0.931  0.000  0.000     2.096     2.264
  60   1 H      0.039  0.961  0.000  0.000     2.465     2.455
  61   1 H      0.050  0.950  0.000  0.000     2.317     2.380
  62   1 H      0.031  0.969  0.000  0.000     2.576     2.510
  63   1 H      0.047  0.953  0.000  0.000     2.357     2.401
  64   1 H      0.029  0.971  0.000  0.000     2.603     2.523
  65   1 H      0.049  0.951  0.000  0.000     2.332     2.388
  66   1 H      0.044  0.956  0.000  0.000     2.402     2.424
  67   1 H      0.050  0.950  0.000  0.000     2.314     2.379
  68   1 H      0.037  0.963  0.000  0.000     2.489     2.467
  69   7 N     -0.383  1.324  4.060  0.000    29.916     8.123
  70   6 C      0.040  1.060  2.900  0.000    19.925     6.359
  71   6 C      0.197  1.091  2.712  0.000    23.807     7.991
  72   8 O     -0.385  1.767  4.618  0.000    21.382     6.200
  73   6 C     -0.065  1.055  3.010  0.000    21.738     6.635
  74   6 C      0.012  1.079  2.909  0.000    27.751     8.641
  75   6 C     -0.041  1.078  2.963  0.000    29.020     8.834
  76   6 C     -0.041  1.082  2.960  0.000    29.025     8.835
  77   6 C     -0.031  1.080  2.951  0.000    28.777     8.797
  78   6 C     -0.035  1.082  2.953  0.000    28.878     8.812
  79   6 C     -0.035  1.081  2.954  0.000    28.871     8.811
  80   1 H      0.158  0.842  0.000  0.000     1.349     1.820
  81   1 H      0.062  0.938  0.000  0.000     2.171     2.304
  82   1 H      0.047  0.953  0.000  0.000     2.355     2.400
  83   1 H      0.043  0.957  0.000  0.000     2.414     2.430
  84   1 H      0.024  0.976  0.000  0.000     2.680     2.560
  85   1 H      0.046  0.954  0.000  0.000     2.369     2.407
  86   1 H      0.028  0.972  0.000  0.000     2.621     2.532
  87   1 H      0.058  0.942  0.000  0.000     2.218     2.329
  88   1 H      0.044  0.956  0.000  0.000     2.401     2.423
  89   7 N     -0.394  1.325  4.069  0.000    30.216     8.164
  90   6 C      0.036  1.058  2.906  0.000    19.979     6.367
  91   6 C      0.203  1.090  2.706  0.000    23.678     7.969
  92   8 O     -0.386  1.763  4.623  0.000    21.407     6.203
  93   6 C     -0.067  1.062  3.004  0.000    21.769     6.641
  94   6 C     -0.012  1.058  2.955  0.000    20.764     6.481
  95   6 C     -0.117  1.040  3.077  0.000    22.794     6.807
  96   6 C     -0.115  1.041  3.075  0.000    22.758     6.801
  97   1 H      0.159  0.841  0.000  0.000     1.343     1.815
  98   1 H      0.071  0.929  0.000  0.000     2.073     2.252
  99   1 H      0.047  0.953  0.000  0.000     2.358     2.402
 100   1 H      0.037  0.963  0.000  0.000     2.492     2.469
 101   1 H      0.029  0.971  0.000  0.000     2.595     2.519
 102   1 H      0.043  0.957  0.000  0.000     2.410     2.428
 103   1 H      0.047  0.953  0.000  0.000     2.353     2.399
 104   1 H      0.035  0.965  0.000  0.000     2.513     2.479
 105   1 H      0.046  0.954  0.000  0.000     2.373     2.409
 106   1 H      0.046  0.954  0.000  0.000     2.376     2.410
 107   1 H      0.037  0.963  0.000  0.000     2.495     2.470
 108   7 N     -0.387  1.303  4.084  0.000    30.007     8.136
 109   6 C      0.031  1.054  2.915  0.000    20.067     6.380
 110   6 C      0.263  1.051  2.687  0.000    22.574     7.781
 111   8 O     -0.482  1.729  4.753  0.000    23.380     6.483
 112   6 C     -0.060  1.050  3.010  0.000    21.624     6.614
 113   6 C     -0.000  1.055  2.945  0.000    20.589     6.461
 114  16 S     -0.229  1.910  4.265  0.053   150.827    20.670
 115   6 C     -0.050  1.049  3.001  0.000    21.549     6.622
 116   1 H      0.159  0.841  0.000  0.000     1.339     1.812
 117   1 H      0.052  0.948  0.000  0.000     2.298     2.371
 118   1 H      0.041  0.959  0.000  0.000     2.435     2.440
 119   1 H      0.062  0.938  0.000  0.000     2.171     2.304
 120   1 H      0.051  0.949  0.000  0.000     2.311     2.377
 121   1 H      0.037  0.963  0.000  0.000     2.487     2.466
 122   1 H      0.066  0.934  0.000  0.000     2.125     2.279
 123   1 H      0.052  0.948  0.000  0.000     2.296     2.370
 124   1 H      0.061  0.939  0.000  0.000     2.183     2.311
 125   7 N     -0.174  1.242  3.931  0.000    24.759     7.390
 126   6 C     -0.001  1.072  2.929  0.000    20.600     6.462
 127   6 C      0.272  1.042  2.686  0.000    22.399     7.751
 128   8 O     -0.465  1.731  4.734  0.000    23.030     6.434
 129   6 C      0.116  1.048  2.837  0.000    18.788     6.190
 130   8 O     -0.470  1.719  4.751  0.000    22.265     6.370
 131   6 C     -0.132  1.042  3.090  0.000    23.092     6.852
 132   1 H      0.216  0.784  0.000  0.000     1.027     1.588
 133   1 H      0.098  0.902  0.000  0.000     1.800     2.098
 134   1 H      0.029  0.971  0.000  0.000     2.603     2.523
 135   1 H      0.325  0.675  0.000  0.000     0.651     1.268
 136   1 H      0.073  0.927  0.000  0.000     2.056     2.243
 137   1 H      0.054  0.946  0.000  0.000     2.274     2.358
 138   1 H      0.072  0.928  0.000  0.000     2.064     2.246
 139   7 N     -0.182  1.246  3.936  0.000    24.946     7.418
 140   6 C      0.011  1.065  2.924  0.000    20.389     6.429
 141   6 C      0.272  1.043  2.685  0.000    22.406     7.752
 142   8 O     -0.472  1.739  4.734  0.000    23.184     6.456
 143   6 C     -0.067  1.050  3.017  0.000    21.776     6.643
 144   6 C     -0.109  1.061  3.048  0.000    22.569     6.763
 145   6 C      0.285  1.040  2.675  0.000    22.170     7.709
 146   8 O     -0.499  1.756  4.744  0.000    23.770     6.537
 147   7 N     -0.289  1.266  4.022  0.000    27.445     7.781
 148   1 H      0.210  0.790  0.000  0.000     1.056     1.610
 149   1 H      0.093  0.907  0.000  0.000     1.853     2.129
 150   1 H      0.065  0.935  0.000  0.000     2.142     2.289
 151   1 H      0.071  0.929  0.000  0.000     2.077     2.254
 152   1 H      0.081  0.919  0.000  0.000     1.967     2.193
 153   1 H      0.085  0.915  0.000  0.000     1.933     2.174
 154   1 H      0.230  0.770  0.000  0.000     0.967     1.540
 155   1 H      0.228  0.772  0.000  0.000     0.974     1.546
 156   7 N     -0.173  1.241  3.931  0.000    24.735     7.387
 157   6 C      0.025  1.059  2.917  0.000    20.153     6.391
 158   6 C      0.271  1.042  2.687  0.000    22.415     7.753
 159   8 O     -0.488  1.742  4.745  0.000    23.517     6.502
 160   6 C     -0.077  1.053  3.023  0.000    21.950     6.668
 161   6 C      0.010  1.081  2.909  0.000    27.802     8.649
 162   6 C     -0.038  1.078  2.961  0.000    28.951     8.824
 163   6 C     -0.042  1.083  2.959  0.000    29.031     8.836
 164   6 C     -0.031  1.079  2.952  0.000    28.773     8.796
 165   6 C     -0.030  1.082  2.948  0.000    28.752     8.793
 166   6 C     -0.033  1.079  2.953  0.000    28.815     8.802
 167   1 H      0.195  0.805  0.000  0.000     1.131     1.666
 168   1 H      0.080  0.920  0.000  0.000     1.977     2.199
 169   1 H      0.058  0.942  0.000  0.000     2.224     2.332
 170   1 H      0.063  0.937  0.000  0.000     2.164     2.300
 171   1 H      0.036  0.964  0.000  0.000     2.507     2.476
 172   1 H      0.044  0.956  0.000  0.000     2.398     2.422
 173   1 H      0.044  0.956  0.000  0.000     2.394     2.419
 174   1 H      0.037  0.963  0.000  0.000     2.488     2.467
 175   1 H      0.038  0.962  0.000  0.000     2.479     2.462
 176   7 N     -0.186  1.254  3.932  0.000    25.033     7.431
 177   6 C      0.025  1.062  2.913  0.000    20.161     6.394
 178   6 C      0.278  1.044  2.678  0.000    22.296     7.732
 179   8 O     -0.482  1.728  4.755  0.000    23.396     6.485
 180   6 C     -0.084  1.056  3.027  0.000    22.089     6.690
 181   6 C     -0.017  1.061  2.956  0.000    20.848     6.495
 182   6 C     -0.122  1.043  3.079  0.000    22.896     6.823
 183   6 C     -0.133  1.044  3.089  0.000    23.111     6.855
 184   1 H      0.232  0.768  0.000  0.000     0.957     1.532
 185   1 H      0.076  0.924  0.000  0.000     2.023     2.224
 186   1 H      0.071  0.929  0.000  0.000     2.079     2.255
 187   1 H      0.057  0.943  0.000  0.000     2.232     2.336
 188   1 H      0.042  0.958  0.000  0.000     2.425     2.435
 189   1 H      0.055  0.945  0.000  0.000     2.263     2.352
 190   1 H      0.034  0.966  0.000  0.000     2.531     2.488
 191   1 H      0.046  0.954  0.000  0.000     2.366     2.405
 192   1 H      0.050  0.950  0.000  0.000     2.326     2.385
 193   1 H      0.046  0.954  0.000  0.000     2.371     2.408
 194   1 H      0.051  0.949  0.000  0.000     2.307     2.375
 195   7 N     -0.183  1.247  3.936  0.000    24.963     7.421
 196   6 C      0.019  1.061  2.920  0.000    20.258     6.408
 197   6 C      0.288  1.036  2.676  0.000    22.124     7.703
 198   8 O     -0.493  1.733  4.760  0.000    23.632     6.518
 199   6 C      0.067  1.041  2.892  0.000    19.660     6.351
 200   8 O     -0.489  1.730  4.759  0.000    22.663     6.426
 201   1 H      0.230  0.770  0.000  0.000     0.965     1.539
 202   1 H      0.084  0.916  0.000  0.000     1.940     2.178
 203   1 H      0.049  0.951  0.000  0.000     2.331     2.388
 204   1 H      0.055  0.945  0.000  0.000     2.260     2.351
 205   1 H      0.352  0.648  0.000  0.000     0.584     1.200
 206   7 N     -0.178  1.245  3.933  0.000    24.858     7.405
 207   6 C      0.016  1.067  2.917  0.000    20.305     6.415
 208   6 C      0.272  1.042  2.685  0.000    22.398     7.750
 209   8 O     -0.487  1.735  4.752  0.000    23.490     6.498
 210   6 C     -0.021  1.064  2.958  0.000    20.919     6.505
 211   6 C     -0.072  1.052  3.021  0.000    21.881     6.659
 212   6 C     -0.126  1.040  3.086  0.000    22.959     6.831
 213   6 C     -0.106  1.036  3.070  0.000    22.585     6.777
 214   1 H      0.224  0.776  0.000  0.000     0.991     1.560
 215   1 H      0.063  0.937  0.000  0.000     2.169     2.303
 216   1 H      0.048  0.952  0.000  0.000     2.342     2.393
 217   1 H      0.038  0.962  0.000  0.000     2.474     2.460
 218   1 H      0.054  0.946  0.000  0.000     2.266     2.354
 219   1 H      0.058  0.942  0.000  0.000     2.225     2.333
 220   1 H      0.055  0.945  0.000  0.000     2.254     2.348
 221   1 H      0.048  0.952  0.000  0.000     2.339     2.392
 222   1 H      0.032  0.968  0.000  0.000     2.553     2.499
 223   1 H      0.037  0.963  0.000  0.000     2.495     2.470
 224   1 H      0.046  0.954  0.000  0.000     2.372     2.408
 225   7 N     -0.185  1.249  3.936  0.000    25.012     7.428
 226   6 C      0.017  1.066  2.917  0.000    20.291     6.413
 227   6 C      0.273  1.044  2.683  0.000    22.386     7.748
 228   8 O     -0.495  1.742  4.752  0.000    23.670     6.523
 229   6 C     -0.028  1.067  2.961  0.000    21.029     6.522
 230   6 C     -0.066  1.051  3.015  0.000    21.759     6.640
 231   6 C     -0.118  1.039  3.079  0.000    22.808     6.809
 232   6 C     -0.111  1.036  3.075  0.000    22.688     6.792
 233   1 H      0.226  0.774  0.000  0.000     0.984     1.554
 234   1 H      0.078  0.922  0.000  0.000     2.004     2.214
 235   1 H      0.057  0.943  0.000  0.000     2.238     2.340
 236   1 H      0.050  0.950  0.000  0.000     2.326     2.385
 237   1 H      0.040  0.960  0.000  0.000     2.448     2.447
 238   1 H      0.061  0.939  0.000  0.000     2.193     2.316
 239   1 H      0.040  0.960  0.000  0.000     2.446     2.446
 240   1 H      0.043  0.957  0.000  0.000     2.414     2.430
 241   1 H      0.043  0.957  0.000  0.000     2.414     2.430
 242   1 H      0.031  0.969  0.000  0.000     2.569     2.506
 243   1 H      0.045  0.955  0.000  0.000     2.380     2.412
 244   7 N     -0.197  1.254  3.943  0.000    25.278     7.467
 245   6 C      0.023  1.060  2.917  0.000    20.195     6.398
 246   6 C      0.281  1.041  2.679  0.000    22.246     7.723
 247   8 O     -0.488  1.745  4.743  0.000    23.516     6.502
 248   6 C     -0.089  1.058  3.032  0.000    22.197     6.707
 249   6 C     -0.078  1.050  3.028  0.000    21.982     6.675
 250   6 C     -0.038  1.055  2.983  0.000    21.331     6.590
 251   7 N     -0.122  1.203  3.919  0.000    23.660     7.224
 252   6 C      0.227  1.019  2.755  0.000    23.230     7.891
 253   7 N     -0.228  1.225  4.003  0.000    25.993     7.572
 254   7 N     -0.261  1.239  4.022  0.000    26.779     7.686
 255   1 H      0.241  0.759  0.000  0.000     0.919     1.501
 256   1 H      0.076  0.924  0.000  0.000     2.016     2.220
 257   1 H      0.081  0.919  0.000  0.000     1.966     2.193
 258   1 H      0.065  0.935  0.000  0.000     2.136     2.286
 259   1 H      0.061  0.939  0.000  0.000     2.182     2.310
 260   1 H      0.074  0.926  0.000  0.000     2.046     2.237
 261   1 H      0.089  0.911  0.000  0.000     1.893     2.152
 262   1 H      0.103  0.897  0.000  0.000     1.754     2.071
 263   1 H      0.229  0.771  0.000  0.000     0.969     1.542
 264   1 H      0.229  0.771  0.000  0.000     0.968     1.542
 265   1 H      0.244  0.756  0.000  0.000     0.908     1.493
 266   1 H      0.232  0.768  0.000  0.000     0.955     1.531
 267   1 H      0.244  0.756  0.000  0.000     0.906     1.491
 268   7 N     -0.203  1.255  3.948  0.000    25.409     7.487
 269   6 C      0.023  1.061  2.916  0.000    20.191     6.399
 270   6 C      0.293  1.035  2.672  0.000    22.037     7.687
 271   8 O     -0.495  1.754  4.740  0.000    23.669     6.523
 272   6 C      0.070  1.042  2.888  0.000    19.602     6.340
 273   8 O     -0.494  1.733  4.761  0.000    22.762     6.441
 274   1 H      0.234  0.766  0.000  0.000     0.948     1.525
 275   1 H      0.058  0.942  0.000  0.000     2.226     2.333
 276   1 H      0.039  0.961  0.000  0.000     2.457     2.451
 277   1 H      0.063  0.937  0.000  0.000     2.161     2.299
 278   1 H      0.356  0.644  0.000  0.000     0.575     1.191
 279   7 N     -0.178  1.240  3.938  0.000    24.853     7.404
 280   6 C      0.023  1.057  2.920  0.000    20.189     6.398
 281   6 C      0.271  1.047  2.682  0.000    22.424     7.754
 282   8 O     -0.506  1.745  4.760  0.000    23.911     6.556
 283   6 C     -0.080  1.057  3.023  0.000    22.013     6.679
 284   6 C     -0.088  1.055  3.033  0.000    22.182     6.705
 285   6 C     -0.026  1.056  2.970  0.000    21.122     6.558
 286   7 N     -0.142  1.214  3.928  0.000    24.084     7.289
 287   6 C      0.234  1.020  2.746  0.000    23.095     7.868
 288   7 N     -0.241  1.230  4.011  0.000    26.291     7.615
 289   7 N     -0.257  1.242  4.015  0.000    26.667     7.669
 290   1 H      0.217  0.783  0.000  0.000     1.024     1.585
 291   1 H      0.075  0.925  0.000  0.000     2.030     2.228
 292   1 H      0.073  0.927  0.000  0.000     2.058     2.243
 293   1 H      0.070  0.930  0.000  0.000     2.081     2.256
 294   1 H      0.068  0.932  0.000  0.000     2.111     2.272
 295   1 H      0.076  0.924  0.000  0.000     2.017     2.221
 296   1 H      0.090  0.910  0.000  0.000     1.875     2.141
 297   1 H      0.086  0.914  0.000  0.000     1.921     2.168
 298   1 H      0.237  0.763  0.000  0.000     0.935     1.515
 299   1 H      0.239  0.761  0.000  0.000     0.925     1.507
 300   1 H      0.249  0.751  0.000  0.000     0.888     1.476
 301   1 H      0.250  0.750  0.000  0.000     0.881     1.471
 302   1 H      0.251  0.749  0.000  0.000     0.878     1.468
 303   7 N     -0.173  1.244  3.928  0.000    24.735     7.387
 304   6 C      0.018  1.062  2.920  0.000    20.286     6.414
 305   6 C      0.271  1.048  2.681  0.000    22.419     7.753
 306   8 O     -0.468  1.754  4.715  0.000    23.093     6.443
 307   6 C     -0.075  1.054  3.020  0.000    21.899     6.658
 308   6 C     -0.014  1.069  2.945  0.000    20.835     6.500
 309  16 S     -0.217  1.916  4.254  0.046   150.293    20.634
 310   6 C     -0.055  1.051  3.004  0.000    21.640     6.635
 311   1 H      0.217  0.783  0.000  0.000     1.025     1.586
 312   1 H      0.079  0.921  0.000  0.000     1.987     2.204
 313   1 H      0.070  0.930  0.000  0.000     2.085     2.258
 314   1 H      0.065  0.935  0.000  0.000     2.140     2.288
 315   1 H      0.047  0.953  0.000  0.000     2.352     2.398
 316   1 H      0.062  0.938  0.000  0.000     2.175     2.306
 317   1 H      0.067  0.933  0.000  0.000     2.116     2.275
 318   1 H      0.050  0.950  0.000  0.000     2.318     2.381
 319   1 H      0.060  0.940  0.000  0.000     2.195     2.317
 320   7 N     -0.189  1.255  3.934  0.000    25.104     7.441
 321   6 C      0.015  1.068  2.916  0.000    20.321     6.419
 322   6 C      0.274  1.043  2.683  0.000    22.369     7.744
 323   8 O     -0.444  1.720  4.724  0.000    22.582     6.371
 324   6 C     -0.018  1.063  2.955  0.000    20.863     6.497
 325   6 C     -0.127  1.040  3.087  0.000    22.991     6.837
 326   6 C     -0.119  1.040  3.079  0.000    22.840     6.814
 327   1 H      0.206  0.794  0.000  0.000     1.077     1.626
 328   1 H      0.055  0.945  0.000  0.000     2.258     2.350
 329   1 H      0.046  0.954  0.000  0.000     2.373     2.409
 330   1 H      0.055  0.945  0.000  0.000     2.255     2.348
 331   1 H      0.046  0.954  0.000  0.000     2.374     2.410
 332   1 H      0.073  0.927  0.000  0.000     2.057     2.243
 333   1 H      0.057  0.943  0.000  0.000     2.236     2.338
 334   1 H      0.048  0.952  0.000  0.000     2.344     2.394
 335   1 H      0.039  0.961  0.000  0.000     2.461     2.453
 336   7 N     -0.176  1.247  3.929  0.000    24.807     7.397
 337   6 C      0.012  1.070  2.919  0.000    20.397     6.433
 338   6 C      0.271  1.046  2.683  0.000    22.421     7.754
 339   8 O     -0.477  1.749  4.729  0.000    23.288     6.470
 340   6 C     -0.081  1.057  3.024  0.000    22.046     6.684
 341   6 C     -0.013  1.059  2.954  0.000    20.779     6.484
 342   6 C     -0.116  1.041  3.075  0.000    22.776     6.805
 343   6 C     -0.118  1.043  3.076  0.000    22.817     6.810
 344   1 H      0.202  0.798  0.000  0.000     1.094     1.638
 345   1 H      0.078  0.922  0.000  0.000     2.002     2.212
 346   1 H      0.065  0.935  0.000  0.000     2.136     2.285
 347   1 H      0.073  0.927  0.000  0.000     2.053     2.241
 348   1 H      0.033  0.967  0.000  0.000     2.551     2.498
 349   1 H      0.040  0.960  0.000  0.000     2.451     2.448
 350   1 H      0.037  0.963  0.000  0.000     2.493     2.469
 351   1 H      0.044  0.956  0.000  0.000     2.393     2.419
 352   1 H      0.041  0.959  0.000  0.000     2.435     2.440
 353   1 H      0.045  0.955  0.000  0.000     2.381     2.413
 354   1 H      0.038  0.962  0.000  0.000     2.482     2.464
 355   7 N     -0.176  1.244  3.932  0.000    24.805     7.397
 356   6 C      0.012  1.063  2.925  0.000    20.383     6.429
 357   6 C      0.270  1.048  2.682  0.000    22.439     7.757
 358   8 O     -0.448  1.723  4.725  0.000    22.665     6.383
 359   6 C     -0.075  1.051  3.023  0.000    21.921     6.665
 360   6 C     -0.092  1.053  3.038  0.000    22.251     6.716
 361   6 C     -0.020  1.053  2.967  0.000    21.025     6.544
 362   7 N     -0.151  1.207  3.944  0.000    24.260     7.315
 363   6 C      0.245  1.020  2.735  0.000    22.890     7.833
 364   7 N     -0.267  1.252  4.015  0.000    26.928     7.707
 365   7 N     -0.274  1.254  4.020  0.000    27.079     7.729
 366   1 H      0.200  0.800  0.000  0.000     1.104     1.646
 367   1 H      0.085  0.915  0.000  0.000     1.924     2.169
 368   1 H      0.071  0.929  0.000  0.000     2.074     2.252
 369   1 H      0.061  0.939  0.000  0.000     2.187     2.312
 370   1 H      0.075  0.925  0.000  0.000     2.035     2.231
 371   1 H      0.077  0.923  0.000  0.000     2.009     2.217
 372   1 H      0.091  0.909  0.000  0.000     1.871     2.139
 373   1 H      0.072  0.928  0.000  0.000     2.064     2.247
 374   1 H      0.196  0.804  0.000  0.000     1.127     1.663
 375   1 H      0.259  0.741  0.000  0.000     0.848     1.443
 376   1 H      0.226  0.774  0.000  0.000     0.981     1.552
 377   1 H      0.246  0.754  0.000  0.000     0.898     1.484
 378   1 H      0.235  0.765  0.000  0.000     0.942     1.520
 379   7 N     -0.167  1.237  3.930  0.000    24.611     7.368
 380   6 C      0.024  1.056  2.920  0.000    20.180     6.397
 381   6 C      0.201  1.088  2.711  0.000    23.718     7.976
 382   8 O     -0.350  1.743  4.607  0.000    20.712     6.102
 383   6 C     -0.133  1.044  3.089  0.000    23.112     6.855
 384   1 H      0.197  0.803  0.000  0.000     1.123     1.660
 385   1 H      0.107  0.893  0.000  0.000     1.725     2.054
 386   1 H      0.080  0.920  0.000  0.000     1.975     2.198
 387   1 H      0.083  0.917  0.000  0.000     1.946     2.182
 388   1 H      0.059  0.941  0.000  0.000     2.209     2.324
 389   7 N     -0.378  1.312  4.067  0.000    29.778     8.105
 390   6 C      0.032  1.061  2.908  0.000    20.060     6.380
 391   6 C      0.268  1.050  2.682  0.000    22.472     7.763
 392   8 O     -0.469  1.739  4.729  0.000    23.105     6.445
 393   6 C     -0.051  1.052  2.999  0.000    21.498     6.601
 394   6 C     -0.092  1.062  3.030  0.000    22.268     6.719
 395   6 C      0.365  1.027  2.608  0.000    20.805     7.464
 396   8 O     -0.635  1.773  4.863  0.000    27.003     6.967
 397   8 O     -0.612  1.768  4.845  0.000    26.424     6.892
 398   1 H      0.160  0.840  0.000  0.000     1.337     1.811
 399   1 H      0.031  0.969  0.000  0.000     2.573     2.509
 400   1 H      0.025  0.975  0.000  0.000     2.655     2.548
 401   1 H      0.021  0.979  0.000  0.000     2.713     2.576
 402   1 H      0.043  0.957  0.000  0.000     2.416     2.430
 403   1 H      0.019  0.981  0.000  0.000     2.754     2.595
 404   7 N     -0.168  1.242  3.926  0.000    24.635     7.372
 405   6 C      0.003  1.061  2.936  0.000    20.528     6.450
 406   6 C      0.275  1.039  2.686  0.000    22.350     7.742
 407   8 O     -0.489  1.757  4.732  0.000    23.544     6.506
 408   6 C     -0.142  1.045  3.097  0.000    23.295     6.881
 409   1 H      0.199  0.801  0.000  0.000     1.113     1.653
 410   1 H      0.098  0.902  0.000  0.000     1.804     2.100
 411   1 H      0.080  0.920  0.000  0.000     1.975     2.197
 412   1 H      0.082  0.918  0.000  0.000     1.957     2.188
 413   1 H      0.059  0.941  0.000  0.000     2.214     2.327
 414   7 N     -0.172  1.239  3.933  0.000    24.723     7.385
 415   6 C      0.025  1.056  2.919  0.000    20.158     6.394
 416   6 C      0.193  1.087  2.720  0.000    23.884     8.004
 417   8 O     -0.338  1.738  4.600  0.000    20.478     6.067
 418   6 C     -0.070  1.056  3.013  0.000    21.823     6.649
 419   6 C      0.007  1.079  2.913  0.000    27.851     8.656
 420   6 C     -0.040  1.082  2.958  0.000    28.987     8.829
 421   6 C     -0.042  1.080  2.962  0.000    29.041     8.838
 422   6 C     -0.043  1.081  2.962  0.000    29.060     8.840
 423   6 C     -0.032  1.079  2.953  0.000    28.793     8.799
 424   6 C     -0.036  1.079  2.957  0.000    28.900     8.816
 425   1 H      0.223  0.777  0.000  0.000     0.997     1.564
 426   1 H      0.082  0.918  0.000  0.000     1.964     2.191
 427   1 H      0.060  0.940  0.000  0.000     2.194     2.316
 428   1 H      0.068  0.932  0.000  0.000     2.107     2.270
 429   1 H      0.046  0.954  0.000  0.000     2.372     2.408
 430   1 H      0.031  0.969  0.000  0.000     2.567     2.506
 431   1 H      0.053  0.947  0.000  0.000     2.279     2.361
 432   1 H      0.047  0.953  0.000  0.000     2.358     2.401
 433   1 H      0.049  0.951  0.000  0.000     2.334     2.389
 434   7 N     -0.383  1.321  4.063  0.000    29.906     8.122
 435   6 C      0.033  1.058  2.909  0.000    20.043     6.377
 436   6 C      0.210  1.084  2.706  0.000    23.551     7.948
 437   8 O     -0.365  1.747  4.618  0.000    20.998     6.144
 438   6 C     -0.070  1.059  3.010  0.000    21.821     6.649
 439   6 C     -0.013  1.057  2.956  0.000    20.767     6.482
 440   6 C     -0.116  1.041  3.075  0.000    22.783     6.806
 441   6 C     -0.116  1.042  3.074  0.000    22.768     6.803
 442   1 H      0.156  0.844  0.000  0.000     1.360     1.827
 443   1 H      0.055  0.945  0.000  0.000     2.256     2.349
 444   1 H      0.060  0.940  0.000  0.000     2.200     2.319
 445   1 H      0.043  0.957  0.000  0.000     2.403     2.424
 446   1 H      0.013  0.987  0.000  0.000     2.850     2.640
 447   1 H      0.044  0.956  0.000  0.000     2.392     2.419
 448   1 H      0.031  0.969  0.000  0.000     2.579     2.511
 449   1 H      0.048  0.952  0.000  0.000     2.339     2.392
 450   1 H      0.045  0.955  0.000  0.000     2.388     2.417
 451   1 H      0.049  0.951  0.000  0.000     2.332     2.388
 452   1 H      0.037  0.963  0.000  0.000     2.483     2.464
 453   7 N     -0.391  1.311  4.080  0.000    30.126     8.152
 454   6 C      0.037  1.056  2.907  0.000    19.977     6.367
 455   6 C      0.196  1.099  2.705  0.000    23.819     7.992
 456   8 O     -0.379  1.739  4.640  0.000    21.257     6.182
 457   6 C     -0.070  1.053  3.018  0.000    21.826     6.648
 458   6 C     -0.007  1.068  2.939  0.000    20.718     6.482
 459  16 S     -0.238  1.915  4.272  0.051   151.249    20.699
 460   6 C     -0.054  1.052  3.002  0.000    21.615     6.632
 461   1 H      0.164  0.836  0.000  0.000     1.310     1.793
 462   1 H      0.081  0.919  0.000  0.000     1.970     2.195
 463   1 H      0.058  0.942  0.000  0.000     2.225     2.333
 464   1 H      0.080  0.920  0.000  0.000     1.978     2.199
 465   1 H      0.041  0.959  0.000  0.000     2.435     2.440
 466   1 H      0.058  0.942  0.000  0.000     2.227     2.334
 467   1 H      0.067  0.933  0.000  0.000     2.121     2.277
 468   1 H      0.050  0.950  0.000  0.000     2.314     2.379
 469   1 H      0.062  0.938  0.000  0.000     2.172     2.305
 470   7 N     -0.382  1.307  4.075  0.000    29.881     8.119
 471   6 C      0.042  1.054  2.904  0.000    19.877     6.350
 472   6 C      0.202  1.081  2.716  0.000    23.702     7.973
 473   8 O     -0.384  1.766  4.618  0.000    21.360     6.196
 474   6 C     -0.077  1.055  3.022  0.000    21.952     6.669
 475   6 C      0.002  1.071  2.926  0.000    27.969     8.675
 476   6 C     -0.043  1.080  2.963  0.000    29.058     8.840
 477   6 C     -0.039  1.081  2.958  0.000    28.976     8.828
 478   6 C     -0.072  1.075  2.997  0.000    29.805     8.953
 479   6 C     -0.051  1.075  2.977  0.000    29.270     8.872
 480   6 C      0.144  1.046  2.809  0.000    24.858     8.172
 481   8 O     -0.425  1.725  4.700  0.000    21.334     6.235
 482   1 H      0.155  0.845  0.000  0.000     1.369     1.833
 483   1 H      0.062  0.938  0.000  0.000     2.180     2.309
 484   1 H      0.060  0.940  0.000  0.000     2.201     2.320
 485   1 H      0.071  0.929  0.000  0.000     2.070     2.250
 486   1 H      0.045  0.955  0.000  0.000     2.385     2.415
 487   1 H      0.036  0.964  0.000  0.000     2.496     2.471
 488   1 H      0.026  0.974  0.000  0.000     2.650     2.546
 489   1 H      0.050  0.950  0.000  0.000     2.314     2.379
 490   1 H      0.319  0.681  0.000  0.000     0.667     1.283
 491   7 N     -0.394  1.317  4.076  0.000    30.190     8.160
 492   6 C      0.025  1.059  2.916  0.000    20.170     6.396
 493   6 C      0.275  1.048  2.677  0.000    22.351     7.742
 494   8 O     -0.493  1.758  4.735  0.000    23.631     6.518
 495   6 C     -0.028  1.070  2.958  0.000    21.033     6.521
 496   6 C     -0.071  1.053  3.017  0.000    21.851     6.656
 497   6 C     -0.116  1.037  3.079  0.000    22.768     6.804
 498   6 C     -0.112  1.037  3.075  0.000    22.704     6.795
 499   1 H      0.152  0.848  0.000  0.000     1.391     1.847
 500   1 H      0.059  0.941  0.000  0.000     2.209     2.324
 501   1 H      0.039  0.961  0.000  0.000     2.466     2.456
 502   1 H      0.043  0.957  0.000  0.000     2.415     2.430
 503   1 H      0.043  0.957  0.000  0.000     2.416     2.431
 504   1 H      0.054  0.946  0.000  0.000     2.273     2.358
 505   1 H      0.032  0.968  0.000  0.000     2.560     2.502
 506   1 H      0.031  0.969  0.000  0.000     2.568     2.506
 507   1 H      0.048  0.952  0.000  0.000     2.343     2.394
 508   1 H      0.045  0.955  0.000  0.000     2.385     2.415
 509   1 H      0.039  0.961  0.000  0.000     2.459     2.452
 510   7 N     -0.178  1.250  3.929  0.000    24.858     7.405
 511   6 C     -0.033  1.053  2.980  0.000    21.233     6.573
 512   6 C      0.197  1.082  2.721  0.000    23.796     7.989
 513   8 O     -0.358  1.746  4.612  0.000    20.867     6.125
 514   1 H      0.212  0.788  0.000  0.000     1.046     1.602
 515   1 H      0.113  0.887  0.000  0.000     1.671     2.022
 516   1 H      0.116  0.884  0.000  0.000     1.645     2.006
 517   1 H      0.187  0.813  0.000  0.000     1.172     1.696
 518   1 H      0.061  0.939  0.000  0.000     2.186     2.312
 519   1 H      0.178  0.822  0.000  0.000     1.224     1.733
 520   1 H      0.068  0.932  0.000  0.000     2.102     2.267
 521   1 H      0.183  0.817  0.000  0.000     1.198     1.715
 522   1 H      0.073  0.927  0.000  0.000     2.049     2.238
 523   1 H      0.193  0.807  0.000  0.000     1.144     1.675
 524   1 H      0.068  0.932  0.000  0.000     2.109     2.271
 525   1 H      0.182  0.818  0.000  0.000     1.204     1.719
 526   1 H      0.070  0.930  0.000  0.000     2.084     2.257
 527   1 H      0.170  0.830  0.000  0.000     1.271     1.766
 528   1 H      0.065  0.935  0.000  0.000     2.144     2.290
 529   1 H      0.162  0.838  0.000  0.000     1.322     1.801
 530   1 H      0.084  0.916  0.000  0.000     1.934     2.175
 531   1 H      0.184  0.816  0.000  0.000     1.190     1.709
 532   1 H      0.057  0.943  0.000  0.000     2.235     2.338
 533   1 H      0.182  0.818  0.000  0.000     1.201     1.717
 534   1 H      0.083  0.917  0.000  0.000     1.947     2.182
 535   1 H      0.185  0.815  0.000  0.000     1.183     1.704
 536   1 H      0.066  0.934  0.000  0.000     2.134     2.284
 537   1 H      0.184  0.816  0.000  0.000     1.189     1.708
 538   1 H      0.076  0.924  0.000  0.000     2.017     2.221

 Mol. C6AA /au·bohr⁶  :    2610263.701311
 Mol. C8AA /au·bohr⁸  :   58913975.161461
 Mol. α(0) /au        :       2434.935815

 
molecular dipole:
                 x           y           z       tot (Debye)
 q only:       36.411      91.559     319.370
   full:       34.550      93.134     322.445     857.602
molecular quadrupole (traceless):
                xx          xy          yy          xz          yz          zz
 q only:   -27141.410    2368.671  -21821.184    8649.791   22086.765   48962.595
  q+dip:   -27798.673    2279.384  -22108.887    8336.729   22702.992   49907.560
   full:   -27797.739    2278.719  -22111.735    8337.203   22701.408   49909.474
speedup  1.97
cpu  time for grad   52.08 s
wall time for grad   26.41 s

SCC energy    :    -791.2244609
rep           :      10.1467326
ES            :       1.8630575
AES           :      -0.0320264
AXC           :       0.3201796
disp          :      -0.6898945
XB            :       0.0000000
fix           :       0.0000000
Gborn         :       0.0000000
Gsasa         :       0.0000000
Ghb           :       0.0000000
Gshift        :       0.0000000
Gsolv         :      -0.4474037     -280.75
Etot ala COSMO:    -791.2244609
grad norm     :       0.7450526
total E       :    -781.0082821
atomizationE  :     146.7180052    92066.94
(atE without considering molecular charge,
 total energy contains solvation terms)
H-L gap (eV)  :          1.1601

------------------------------------------------------------------------
 * finished run on 2019/05/12 at 13:13:09.638     
------------------------------------------------------------------------
 total:
 * wall-time:     0 d,  0 h,  0 min, 28.428 sec
 *  cpu-time:     0 d,  0 h,  0 min, 55.457 sec
 * ratio c/w:     1.951 speedup
 SCF:
 * wall-time:     0 d,  0 h,  0 min, 27.876 sec
 *  cpu-time:     0 d,  0 h,  0 min, 54.750 sec
 * ratio c/w:     1.964 speedup

