      -----------------------------------------------------------      
     |                   =====================                   |     
     |                           x T B                           |     
     |                   =====================                   |     
     |                         S. Grimme                         |     
     |          Mulliken Center for Theoretical Chemistry        |     
     |                    University of Bonn                     |     
     |                 Version 6.0.1 (SAW181210)                 |     
      -----------------------------------------------------------      

   This program is distributed in the hope that it will be useful,
   but WITHOUT ANY WARRANTY; without even the implied warranty of
   MERCHANTABILITY or FITNESS FOR A PARTICULAR PURPOSE.
   
   FOR NON-COMMERCIAL, ACADEMIA USE ONLY.
   
   Cite this work as:
   S. Grimme, C. Bannwarth, P. Shushkov, J. Comput. Theory Chem., 2017,
   13, 1989-2009.
   C. Bannwarth, S. Ehlert and S. Grimme., ChemRxiv, 2018, preprint.
   http://doi.org/10.26434/chemrxiv.7246238.v1
   
   for sTDA-xTB:
   S. Grimme and C. Bannwarth, J. Chem. Phys., 2016, 145, 054103.
   
   in the mass-spec context:
   V. Asgeirsson, C. Bauer and S. Grimme, Chem. Sci., 2017, 8, 4879.
   
   if GBSA is used:
   P. Shushkov, F. März and S. Grimme, unpublished.
   
   for ANC optimizer:
   S. Grimme, unpublished.
   Rational Function algorithm used in ANCopt:
   F. Eckert, P. Pulay, H.-J. Werner, J. Comput. Chem., 1997, 18, 1473.
   
   with help from (in alphabetical order)
   C. Bannwarth, F. Bohle, G. Brandenburg, E. Caldeweyher, M. Checinski,
   S. Dohm, S. Ehlert, S. Ehrlich, F. März, H. Neugebauer, J. Pisarek,
   P. Pracht, P. Shushkov, and S. Spicher.
   
 * started run on 2019/05/07 at 11:22:04.423     
========================================================================
 # omp threads = 2
========================================================================
number of atoms            : 580
number of electrons        : 1520
charge                     : 2
spin                       : .0
first test random number   : .7558

########################################################################
# WARNING! Please study the warnings concerning your input carefully
#  - Process number higher than OMP_NUM_THREADS, I hope you know what you are doing.
########################################################################

           ------------------------------------------------- 
          |                 G F N 2 - x T B                 |
          | Geometry, Frequencies, Noncovalent interactions |
          |            JCTC 2018 parametrisation            |
           ------------------------------------------------- 
 
      method parameters     
 k(s)        :  1.8500
 k(p)        :  2.2300
 k(d)        :  2.2300
 k(f)        :  2.0000
 kEN (H0ij)  : -2.0000
 D4 a1       :  0.5200
 D4 a2       :  5.0000
 D4 s6       :  1.0000
 D4 s8       :  2.7000
 D4 s9       :  5.0000
 alphaj      :  2.0000

 Solvent             : h2o
 Using internal parameter file: .param_gbsa2_h2o
 Gsolv ref. state (COSMO-RS): gsolv [1 M gas/solution]
 temperature (mdtemp)       :    298.150000000000     
 dielectric constant        :    80.2000000000000     
 rho                        :    1.00000000000000     
 mass                       :    18.0000000000000     
 surface tension            :    15.5689454083859     
 probe radius               :   0.975313790000000     
 vdW radii scaling          :    1.00000000000000     
 Gshift (Eh)                :   1.857443126794793E-003
 c1                         :    1.55243817000000     
 soset                      :   0.130326360000000     
 HB correction              :  T

            Z     q(EN)     CN     RAES       Cart. coordinates
     1  N   5.0   -0.18    3.24    1.97    26.91537    65.60722   150.90582
     2  C   4.0    0.03    4.30    4.21    28.42958    63.99940   152.53078
     3  C   4.0    0.08    3.26    3.04    31.04855    63.73407   151.28051
     4  O   6.0   -0.27    1.13    1.80    31.19534    62.96644   149.09563
     5  C   4.0   -0.02    4.28    4.17    27.21923    61.36011   152.68567
     6  C   4.0   -0.08    4.14    3.87    29.03025    59.57192   154.02092
     7  C   4.0   -0.08    4.10    3.79    24.60860    61.41543   153.90236
     8  H   1.0    0.10    1.02    1.43    26.73602    65.04533   149.07934
     9  H   1.0    0.04    1.04    1.43    28.59653    64.90393   154.37764
    10  H   1.0    0.05    1.06    1.44    27.00240    60.71558   150.72853
    11  H   1.0    0.03    1.00    1.43    28.16231    57.72670   154.25696
    12  H   1.0    0.05    1.01    1.43    30.75928    59.34147   152.94098
    13  H   1.0    0.03    1.00    1.43    29.51886    60.30101   155.88211
    14  H   1.0    0.04    1.00    1.43    23.76989    59.54566   153.81706
    15  H   1.0    0.04    1.00    1.43    24.74247    61.99540   155.87053
    16  H   1.0    0.04    1.00    1.43    23.38875    62.73821   152.91180
    17  N   5.0   -0.18    3.23    1.96    47.49580    46.05719   159.37352
    18  C   4.0    0.03    4.37    4.32    45.16286    45.74124   158.02120
    19  C   4.0    0.16    3.50    3.12    45.54073    46.13677   155.18442
    20  O   6.0   -0.25    1.23    1.80    47.09082    47.62485   154.29301
    21  C   4.0   -0.04    4.38    4.35    43.17670    47.61466   158.95903
    22  C   4.0   -0.03    4.18    3.97    42.27419    47.07658   161.65722
    23  C   4.0   -0.07    4.11    3.82    41.09886    49.46396   162.75475
    24  C   4.0   -0.08    4.11    3.81    40.38584    44.90159   161.63834
    25  H   1.0    0.09    1.02    1.43    47.67360    47.51407   160.61091
    26  H   1.0    0.04    1.07    1.44    44.55971    43.79061   158.34842
    27  H   1.0    0.06    1.03    1.43    44.00959    49.49717   158.86988
    28  H   1.0    0.05    1.03    1.43    41.56304    47.61290   157.67464
    29  H   1.0    0.04    1.05    1.44    43.90616    46.55596   162.82001
    30  H   1.0    0.04    1.00    1.43    40.51139    49.16564   164.69607
    31  H   1.0    0.05    1.00    1.43    42.43377    51.03174   162.73906
    32  H   1.0    0.04    1.00    1.43    39.45472    50.00322   161.65505
    33  H   1.0    0.04    1.00    1.43    39.65922    44.56638   163.53369
    34  H   1.0    0.04    1.00    1.43    38.79734    45.34758   160.41245
    35  H   1.0    0.04    1.00    1.43    41.29185    43.17603   160.99340
    36  N   5.0   -0.09    3.66    2.22    43.93435    44.81297   153.76112
    37  C   4.0    0.04    4.47    4.49    43.59548    45.45551   151.09667
    38  C   4.0    0.09    3.21    3.04    42.37319    48.06304   150.77037
    39  O   6.0   -0.26    1.14    1.80    41.69953    49.40103   152.52190
    40  C   4.0   -0.04    4.28    4.17    41.83601    43.41400   149.98942
    41  C   4.0   -0.04    4.25    4.09    40.38921    42.49418   152.34076
    42  C   4.0   -0.02    4.35    4.29    42.23628    42.80564   154.56136
    43  H   1.0    0.06    1.05    1.44    45.46408    45.49258   150.21266
    44  H   1.0    0.05    1.02    1.43    40.58169    44.17837   148.55695
    45  H   1.0    0.05    1.02    1.43    42.95520    41.88559   149.18863
    46  H   1.0    0.04    1.04    1.43    38.74890    43.69857   152.66322
    47  H   1.0    0.04    1.02    1.43    39.76815    40.54849   152.15170
    48  H   1.0    0.03    1.02    1.43    41.19068    43.30175   156.26109
    49  H   1.0    0.04    1.02    1.43    43.34915    41.09586   154.88784
    50  N   5.0   -0.19    3.19    1.95    36.52788    52.15507   146.32820
    51  C   4.0    0.03    4.23    4.06    34.07445    51.44488   145.37716
    52  C   4.0    0.09    3.26    3.05    33.78844    52.00010   142.57324
    53  O   6.0   -0.25    1.12    1.80    34.32838    54.02917   141.58685
    54  C   4.0   -0.04    4.42    4.41    31.80537    52.78499   146.52567
    55  C   4.0   -0.03    4.18    3.95    31.33038    52.44143   149.33800
    56  C   4.0   -0.08    4.13    3.85    28.71361    53.52813   149.85272
    57  C   4.0   -0.08    4.12    3.83    31.50250    49.67463   150.11576
    58  H   1.0    0.10    1.02    1.43    37.01344    53.99357   146.39226
    59  H   1.0    0.04    1.06    1.44    33.93525    49.40842   145.68656
    60  H   1.0    0.06    1.03    1.43    31.92061    54.79427   146.06502
    61  H   1.0    0.04    1.05    1.44    30.16493    52.02983   145.51984
    62  H   1.0    0.04    1.05    1.44    32.73205    53.50611   150.42510
    63  H   1.0    0.03    1.00    1.43    28.33723    53.59983   151.86992
    64  H   1.0    0.04    1.00    1.43    28.57437    55.42799   149.08662
    65  H   1.0    0.04    1.00    1.43    27.29378    52.34074   148.96320
    66  H   1.0    0.04    1.00    1.43    30.79493    49.43698   152.02778
    67  H   1.0    0.04    1.00    1.43    30.38825    48.48713   148.85847
    68  H   1.0    0.04    1.00    1.43    33.45281    49.02780   150.08067
    69  N   5.0   -0.18    3.23    1.96    17.81536    64.17293   144.57044
    70  C   4.0    0.03    4.22    4.03    15.65904    62.62391   145.25957
    71  C   4.0    0.08    3.21    3.04    13.35798    64.30379   145.86072
    72  O   6.0   -0.26    1.12    1.80    13.51441    66.14129   147.28560
    73  C   4.0   -0.04    4.35    4.29    16.15467    61.10041   147.69253
    74  C   4.0   -0.02    3.58    3.16    18.35056    59.34599   147.43207
    75  C   4.0   -0.04    3.51    3.12    20.79548    60.29828   147.35146
    76  C   4.0   -0.04    3.47    3.10    17.94445    56.76239   147.33839
    77  C   4.0   -0.04    3.38    3.07    22.82802    58.67212   147.17437
    78  C   4.0   -0.04    3.38    3.07    19.98671    55.14741   147.24641
    79  C   4.0   -0.04    3.38    3.07    22.42569    56.08959   147.14847
    80  H   1.0    0.10    1.02    1.43    18.25122    65.61760   145.75463
    81  H   1.0    0.05    1.05    1.44    15.26344    61.36823   143.67079
    82  H   1.0    0.05    1.03    1.43    16.50960    62.45630   149.21251
    83  H   1.0    0.04    1.03    1.43    14.43624    60.06130   148.16200
    84  H   1.0    0.05    1.03    1.43    21.12929    62.30747   147.50352
    85  H   1.0    0.04    1.03    1.43    16.04731    56.02550   147.41218
    86  H   1.0    0.05    1.03    1.43    24.72696    59.41908   147.09418
    87  H   1.0    0.05    1.03    1.43    19.67802    53.13345   147.23856
    88  H   1.0    0.05    1.03    1.43    24.03018    54.83692   147.06606
    89  N   5.0   -0.17    3.24    1.97     0.44303    61.02930   163.36346
    90  C   4.0    0.04    4.20    4.01     2.32931    59.05933   163.71349
    91  C   4.0    0.09    3.21    3.04     3.97990    59.79041   165.98701
    92  O   6.0   -0.27    1.13    1.80     4.80643    61.95664   166.20373
    93  C   4.0   -0.04    4.38    4.34     3.88668    58.96377   161.28946
    94  C   4.0   -0.02    4.17    3.93     6.00346    57.00573   161.12353
    95  C   4.0   -0.07    4.10    3.81     4.95711    54.37348   160.61267
    96  C   4.0   -0.08    4.11    3.82     7.80519    57.77455   158.98581
    97  H   1.0    0.10    1.02    1.43     0.77125    62.43487   162.10531
    98  H   1.0    0.06    1.05    1.44     1.35321    57.28243   164.10573
    99  H   1.0    0.05    1.04    1.43     2.54562    58.63685   159.75550
   100  H   1.0    0.06    1.04    1.43     4.67449    60.85612   161.03318
   101  H   1.0    0.04    1.05    1.44     7.05203    56.98927   162.90716
   102  H   1.0    0.04    1.00    1.43     6.49610    53.02190   160.46262
   103  H   1.0    0.06    1.01    1.43     3.70276    53.79218   162.12743
   104  H   1.0    0.05    1.00    1.43     3.90635    54.36726   158.84492
   105  H   1.0    0.04    1.00    1.43     9.34566    56.42523   158.85530
   106  H   1.0    0.04    1.00    1.43     6.80424    57.79162   157.19415
   107  H   1.0    0.05    1.00    1.43     8.60123    59.63333   159.33144
   108  N   5.0   -0.21    3.26    1.97    10.65727    59.00583   170.13218
   109  C   4.0    0.03    4.37    4.33    13.34309    58.72192   169.64579
   110  C   4.0    0.15    3.49    3.11    14.24918    56.02658   170.03238
   111  O   6.0   -0.33    1.32    1.80    16.16960    55.28206   168.98491
   112  C   4.0   -0.04    4.47    4.49    14.73968    60.37379   171.50743
   113  C   4.0   -0.04    4.08    3.76    14.95574    63.02878   170.53176
   114  S   6.0   -0.03    2.54    3.10    17.68754    63.38713   168.56589
   115  C   4.0   -0.07    3.93    3.51    19.80284    60.89318   169.56561
   116  H   1.0    0.09    1.03    1.43    10.07777    60.19866   171.51238
   117  H   1.0    0.04    1.06    1.44    13.78181    59.25723   167.69219
   118  H   1.0    0.05    1.04    1.43    13.65011    60.39150   173.27198
   119  H   1.0    0.05    1.08    1.44    16.56982    59.57606   171.98579
   120  H   1.0    0.05    1.08    1.44    13.31465    63.58928   169.42186
   121  H   1.0    0.05    1.07    1.44    15.14632    64.34821   172.11158
   122  H   1.0    0.04    1.06    1.44    21.53133    61.28486   168.52830
   123  H   1.0    0.05    1.05    1.44    20.18453    61.01473   171.57834
   124  H   1.0    0.05    1.03    1.43    19.09672    59.04323   169.02796
   125  N   5.0   -0.14    3.52    2.09    12.95588    54.60262   171.65602
   126  C   4.0    0.04    4.49    4.53    13.88101    52.04664   172.02035
   127  C   4.0    0.15    3.51    3.12    13.29469    50.61187   169.60927
   128  O   6.0   -0.31    1.28    1.80    14.84403    49.20115   168.63914
   129  C   4.0    0.05    4.17    3.94    12.94915    50.68429   174.48735
   130  O   6.0   -0.25    2.12    1.84    14.31078    51.58352   176.60151
   131  C   4.0   -0.05    4.08    3.77    13.34510    47.81783   174.38729
   132  H   1.0    0.09    1.06    1.44    11.36627    55.20995   172.52285
   133  H   1.0    0.06    1.07    1.44    15.94939    52.14429   172.16929
   134  H   1.0    0.05    1.03    1.43    10.92843    51.09950   174.70967
   135  H   1.0    0.15    1.07    1.44    13.51297    53.14582   177.16958
   136  H   1.0    0.06    1.00    1.43    12.79351    47.02488   176.19573
   137  H   1.0    0.05    1.00    1.43    12.22843    46.97682   172.88656
   138  H   1.0    0.06    1.00    1.43    15.32741    47.40278   174.05753
   139  N   5.0   -0.15    3.54    2.10    10.94862    50.99935   168.73379
   140  C   4.0    0.03    4.37    4.33    10.02794    49.74735   166.46876
   141  C   4.0    0.16    3.47    3.10    11.89070    50.46687   164.31147
   142  O   6.0   -0.32    1.32    1.80    12.90304    48.88717   162.95016
   143  C   4.0   -0.04    4.26    4.12     7.32439    50.59607   165.87546
   144  C   4.0   -0.04    4.17    3.94     5.20328    49.60261   167.57583
   145  C   4.0    0.15    3.20    3.04     2.76695    51.15068   167.25269
   146  O   6.0   -0.31    1.22    1.80     2.66135    53.24301   166.25306
   147  N   5.0   -0.17    3.18    1.95     0.67137    50.09759   168.19750
   148  H   1.0    0.08    1.07    1.44     9.80335    52.29630   169.55375
   149  H   1.0    0.05    1.05    1.44    10.14454    47.69326   166.71151
   150  H   1.0    0.05    1.03    1.43     7.28380    52.66156   165.92312
   151  H   1.0    0.04    1.03    1.43     6.90527    50.03591   163.93390
   152  H   1.0    0.05    1.02    1.43     4.80253    47.62546   167.16813
   153  H   1.0    0.05    1.03    1.43     5.75265    49.76319   169.55838
   154  H   1.0    0.09    1.03    1.43     0.67367    48.38509   169.02680
   155  H   1.0    0.11    1.03    1.43    -0.96514    51.06873   168.08872
   156  N   5.0   -0.14    3.50    2.08    12.39002    52.94505   164.18523
   157  C   4.0    0.03    4.50    4.54    14.07990    53.91096   162.29981
   158  C   4.0    0.16    3.56    3.14    16.60425    52.55588   162.36073
   159  O   6.0   -0.32    1.31    1.80    17.61884    51.76340   160.42525
   160  C   4.0   -0.04    4.34    4.27    14.61545    56.72527   162.53750
   161  C   4.0   -0.01    3.54    3.13    15.76172    57.72160   160.11445
   162  C   4.0   -0.04    3.47    3.10    14.86051    57.03137   157.70782
   163  C   4.0   -0.04    3.46    3.10    17.76908    59.40197   160.20175
   164  C   4.0   -0.04    3.38    3.07    15.92383    58.02226   155.53879
   165  C   4.0   -0.04    3.40    3.08    18.76483    60.46429   157.98522
   166  C   4.0   -0.05    3.37    3.07    17.86953    59.78424   155.64216
   167  H   1.0    0.07    1.06    1.44    11.38912    54.19919   165.24021
   168  H   1.0    0.05    1.07    1.44    13.25895    53.49849   160.43986
   169  H   1.0    0.04    1.03    1.43    12.81509    57.67108   162.89495
   170  H   1.0    0.05    1.03    1.43    15.88138    57.09438   164.11832
   171  H   1.0    0.04    1.03    1.43    13.30218    55.73368   157.51128
   172  H   1.0    0.05    1.03    1.43    18.53631    59.98187   161.99866
   173  H   1.0    0.04    1.03    1.43    15.20412    57.44259   153.71867
   174  H   1.0    0.05    1.03    1.43    20.29094    61.80415   158.17019
   175  H   1.0    0.05    1.03    1.43    18.64108    60.57321   153.93034
   176  N   5.0   -0.14    3.55    2.12    17.65587    52.48245   164.64277
   177  C   4.0    0.03    4.44    4.45    20.08135    51.26001   164.99637
   178  C   4.0    0.16    3.51    3.12    19.91136    48.57449   163.90306
   179  O   6.0   -0.33    1.36    1.80    21.55260    47.72960   162.49161
   180  C   4.0   -0.05    4.36    4.30    20.83779    51.33153   167.74742
   181  C   4.0   -0.03    4.18    3.95    23.69630    51.28792   168.16312
   182  C   4.0   -0.07    4.12    3.83    24.13954    51.10918   171.03268
   183  C   4.0   -0.07    4.11    3.83    25.08373    49.09831   166.88504
   184  H   1.0    0.11    1.11    1.44    16.83436    53.27462   166.18234
   185  H   1.0    0.05    1.06    1.44    21.48586    52.26685   163.84042
   186  H   1.0    0.06    1.04    1.43    20.09368    53.06558   168.57761
   187  H   1.0    0.05    1.03    1.43    19.95445    49.74874   168.73563
   188  H   1.0    0.04    1.05    1.44    24.49088    53.06435   167.47224
   189  H   1.0    0.05    1.00    1.43    26.15310    51.11698   171.44505
   190  H   1.0    0.04    1.00    1.43    23.25624    52.69537   171.99443
   191  H   1.0    0.05    1.00    1.43    23.32628    49.37363   171.76808
   192  H   1.0    0.05    1.00    1.43    27.06798    49.15271   167.41237
   193  H   1.0    0.05    1.00    1.43    24.26470    47.31337   167.49548
   194  H   1.0    0.05    1.01    1.43    24.94007    49.21271   164.84518
   195  N   5.0   -0.14    3.50    2.08    17.86321    47.23303   164.52428
   196  C   4.0    0.05    4.42    4.42    17.65124    44.66824   163.60471
   197  C   4.0    0.18    3.58    3.15    17.70095    44.61085   160.66565
   198  O   6.0   -0.30    1.31    1.80    18.91403    43.06650   159.43152
   199  C   4.0    0.03    4.14    3.89    15.19297    43.38345   164.43769
   200  O   6.0   -0.24    2.12    1.84    14.62023    41.63022   162.46077
   201  H   1.0    0.12    1.09    1.44    16.60098    47.88560   165.81132
   202  H   1.0    0.05    1.05    1.44    19.28590    43.55849   164.23777
   203  H   1.0    0.05    1.00    1.43    15.42476    42.41713   166.24973
   204  H   1.0    0.06    1.01    1.43    13.69716    44.80808   164.57280
   205  H   1.0    0.12    1.02    1.43    13.13060    40.68339   162.92584
   206  N   5.0   -0.13    3.56    2.12    16.25782    46.37372   159.63821
   207  C   4.0    0.04    4.56    4.62    16.06814    46.44975   156.92851
   208  C   4.0    0.16    3.56    3.14    18.66479    47.02997   155.80099
   209  O   6.0   -0.30    1.29    1.80    19.29573    46.12654   153.76889
   210  C   4.0   -0.02    4.35    4.28    14.10049    48.31338   155.89248
   211  C   4.0   -0.04    4.21    4.01    11.53288    48.08965   157.17904
   212  C   4.0   -0.07    4.21    4.01    13.82766    47.66466   153.12303
   213  C   4.0   -0.08    4.03    3.68     9.60044    49.90648   156.07415
   214  H   1.0    0.12    1.11    1.45    15.24499    47.57214   160.72409
   215  H   1.0    0.06    1.07    1.44    15.59442    44.53935   156.26501
   216  H   1.0    0.05    1.05    1.44    14.83222    50.23425   156.13895
   217  H   1.0    0.05    1.03    1.43    10.84577    46.15290   156.98362
   218  H   1.0    0.06    1.05    1.44    11.72648    48.46568   159.19111
   219  H   1.0    0.04    1.00    1.43    12.90126    49.18333   152.09751
   220  H   1.0    0.06    1.03    1.43    15.65762    47.33411   152.25900
   221  H   1.0    0.05    1.00    1.43    12.71206    45.95196   152.91258
   222  H   1.0    0.04    1.00    1.43     7.86280    49.85902   157.17176
   223  H   1.0    0.03    1.00    1.43    10.32056    51.83188   156.08833
   224  H   1.0    0.04    1.00    1.43     9.13648    49.39984   154.14198
   225  N   5.0   -0.14    3.53    2.10    20.19385    48.60913   157.04758
   226  C   4.0    0.04    4.58    4.64    22.64340    49.02756   155.90752
   227  C   4.0    0.16    3.61    3.17    24.17259    46.61531   156.21898
   228  O   6.0   -0.32    1.31    1.80    25.34582    45.63661   154.47158
   229  C   4.0   -0.03    4.36    4.32    24.08766    51.26545   157.03280
   230  C   4.0   -0.05    4.18    3.97    23.44574    53.73597   155.64098
   231  C   4.0   -0.08    4.18    3.97    26.93312    50.81844   156.92208
   232  C   4.0   -0.07    4.06    3.73    21.60042    55.21253   157.27940
   233  H   1.0    0.12    1.10    1.44    19.62360    49.57943   158.59153
   234  H   1.0    0.05    1.07    1.44    22.38084    49.29212   153.86808
   235  H   1.0    0.05    1.07    1.44    23.53425    51.42889   159.01547
   236  H   1.0    0.03    1.03    1.43    25.15150    54.85436   155.36576
   237  H   1.0    0.04    1.03    1.43    22.62112    53.36924   153.79334
   238  H   1.0    0.03    1.00    1.43    27.93609    52.47687   157.60541
   239  H   1.0    0.04    1.01    1.43    27.49144    49.22603   158.07855
   240  H   1.0    0.04    1.00    1.43    27.51226    50.44635   154.98623
   241  H   1.0    0.04    1.03    1.43    21.08020    56.95318   156.34264
   242  H   1.0    0.06    1.01    1.43    19.89591    54.12980   157.63078
   243  H   1.0    0.04    1.00    1.43    22.46147    55.68242   159.08058
   244  N   5.0   -0.15    3.56    2.12    24.25984    45.75443   158.58215
   245  C   4.0    0.04    4.49    4.52    25.72699    43.54486   159.14653
   246  C   4.0    0.16    3.59    3.16    25.18535    41.40527   157.29109
   247  O   6.0   -0.30    1.28    1.80    26.85431    39.93984   156.62710
   248  C   4.0   -0.04    4.31    4.21    25.16387    42.54080   161.76767
   249  C   4.0   -0.04    4.28    4.16    26.77647    40.17650   162.15060
   250  C   4.0   -0.00    4.22    4.04    26.53428    38.98983   164.75799
   251  N   5.0   -0.14    3.45    2.05    27.50283    40.71508   166.63413
   252  C   4.0    0.10    3.35    3.06    28.76098    40.09827   168.69004
   253  N   5.0   -0.16    3.27    1.97    29.49336    37.74093   169.07386
   254  N   5.0   -0.18    3.24    1.97    29.21521    41.95205   170.36872
   255  H   1.0    0.12    1.14    1.45    23.13486    46.49226   159.94651
   256  H   1.0    0.04    1.05    1.44    27.75037    43.98209   158.96066
   257  H   1.0    0.04    1.03    1.43    25.58670    44.02094   163.13826
   258  H   1.0    0.06    1.03    1.43    23.15638    42.08264   161.88148
   259  H   1.0    0.06    1.05    1.44    26.24243    38.74176   160.77927
   260  H   1.0    0.04    1.03    1.43    28.75628    40.63569   161.80492
   261  H   1.0    0.05    1.02    1.43    24.54800    38.57953   165.16373
   262  H   1.0    0.07    1.06    1.44    27.56997    37.21902   164.74135
   263  H   1.0    0.07    1.08    1.44    26.96414    42.53622   166.41573
   264  H   1.0    0.11    1.04    1.44    29.38040    36.45203   167.67381
   265  H   1.0    0.12    1.04    1.43    30.59246    37.27938   170.55717
   266  H   1.0    0.08    1.03    1.43    28.39378    43.65463   170.12925
   267  H   1.0    0.09    1.03    1.43    29.68775    41.47020   172.15084
   268  N   5.0   -0.13    3.55    2.11    22.78975    41.14222   156.55403
   269  C   4.0    0.05    4.39    4.37    22.10026    38.99017   155.01971
   270  C   4.0    0.17    3.45    3.09    23.12873    39.17914   152.27135
   271  O   6.0   -0.27    1.23    1.80    23.30731    37.32326   150.89352
   272  C   4.0    0.04    4.13    3.86    19.21969    38.62791   155.05167
   273  O   6.0   -0.23    2.06    1.83    18.07751    40.39475   153.39283
   274  H   1.0    0.12    1.11    1.45    21.37391    42.23071   157.24699
   275  H   1.0    0.06    1.05    1.44    22.99376    37.28785   155.80852
   276  H   1.0    0.06    1.01    1.43    18.81278    36.69185   154.43458
   277  H   1.0    0.06    1.01    1.43    18.53726    38.90496   156.99026
   278  H   1.0    0.12    1.02    1.43    16.31993    39.95287   153.20589
   279  N   5.0   -0.13    3.57    2.13    23.78287    41.47932   151.51416
   280  C   4.0    0.05    4.46    4.48    24.94998    41.78721   149.10898
   281  C   4.0    0.16    3.42    3.08    27.78812    41.23340   149.17588
   282  O   6.0   -0.29    1.24    1.80    29.06320    41.43776   147.25417
   283  C   4.0   -0.04    4.32    4.24    24.50244    44.42387   148.06017
   284  C   4.0   -0.04    4.17    3.95    21.73464    44.95880   147.51073
   285  C   4.0   -0.01    4.23    4.05    21.57806    47.70489   146.57642
   286  N   5.0   -0.14    3.38    2.01    19.68989    48.06798   144.62786
   287  C   4.0    0.10    3.34    3.06    20.14013    48.06933   142.15367
   288  N   5.0   -0.17    3.25    1.97    22.42806    48.46663   141.18586
   289  N   5.0   -0.18    3.25    1.97    18.18075    47.93757   140.56736
   290  H   1.0    0.12    1.12    1.45    23.75114    42.93085   152.76327
   291  H   1.0    0.07    1.07    1.44    24.14536    40.35924   147.83293
   292  H   1.0    0.05    1.03    1.43    25.20906    45.77286   149.45478
   293  H   1.0    0.05    1.03    1.43    25.63708    44.60480   146.34522
   294  H   1.0    0.05    1.03    1.43    21.07228    43.65794   146.05614
   295  H   1.0    0.06    1.02    1.43    20.61282    44.67892   149.21386
   296  H   1.0    0.04    1.02    1.43    21.10343    48.93346   148.16470
   297  H   1.0    0.04    1.04    1.43    23.41887    48.28923   145.86376
   298  H   1.0    0.08    1.07    1.44    17.89096    47.76703   145.20109
   299  H   1.0    0.08    1.03    1.43    23.98891    48.47715   142.29997
   300  H   1.0    0.09    1.03    1.43    22.82351    47.79002   139.44836
   301  H   1.0    0.09    1.03    1.43    16.42671    47.55875   141.20513
   302  H   1.0    0.10    1.03    1.43    18.47065    47.83456   138.69092
   303  N   5.0   -0.12    3.51    2.09    28.79829    40.58981   151.40287
   304  C   4.0    0.04    4.44    4.44    31.41199    39.84061   151.61481
   305  C   4.0    0.15    3.40    3.08    31.63625    37.00367   152.19332
   306  O   6.0   -0.26    1.23    1.80    29.94761    35.71449   153.07570
   307  C   4.0   -0.04    4.36    4.31    32.73937    41.33219   153.68507
   308  C   4.0   -0.04    4.06    3.72    32.71872    44.14414   153.14304
   309  S   6.0   -0.05    2.48    3.10    34.70346    45.80729   155.47545
   310  C   4.0   -0.07    3.88    3.43    32.42895    47.69019   157.21445
   311  H   1.0    0.12    1.10    1.44    27.71763    40.25354   152.94901
   312  H   1.0    0.06    1.07    1.44    32.26612    40.22011   149.76437
   313  H   1.0    0.06    1.03    1.43    31.76319    40.95878   155.46663
   314  H   1.0    0.04    1.04    1.43    34.68782    40.68689   153.86853
   315  H   1.0    0.04    1.06    1.44    33.50878    44.53213   151.28341
   316  H   1.0    0.05    1.06    1.44    30.81804    44.91537   153.25161
   317  H   1.0    0.04    1.05    1.44    33.23096    48.05223   159.06458
   318  H   1.0    0.04    1.04    1.43    32.11460    49.46649   156.24017
   319  H   1.0    0.04    1.04    1.43    30.69724    46.60991   157.37668
   320  N   5.0   -0.13    3.48    2.07    33.92700    36.02909   151.61686
   321  C   4.0    0.04    4.37    4.32    34.30628    33.31847   151.31904
   322  C   4.0    0.09    3.20    3.04    34.89238    32.19635   153.93700
   323  O   6.0   -0.31    1.22    1.80    35.76621    33.53535   155.60140
   324  C   4.0   -0.02    4.23    4.05    36.29088    32.81932   149.22434
   325  C   4.0   -0.07    4.11    3.81    38.94748    33.61991   150.02418
   326  C   4.0   -0.07    4.09    3.78    36.28369    30.05733   148.37830
   327  H   1.0    0.07    1.07    1.44    35.23872    37.16614   150.82992
   328  H   1.0    0.06    1.06    1.44    32.48045    32.53210   150.72006
   329  H   1.0    0.05    1.06    1.44    35.70054    33.97722   147.61251
   330  H   1.0    0.05    1.00    1.43    40.23077    33.43593   148.43244
   331  H   1.0    0.04    1.00    1.43    38.99567    35.56729   150.67265
   332  H   1.0    0.05    1.00    1.43    39.61793    32.40958   151.54398
   333  H   1.0    0.05    1.00    1.43    37.48469    29.84596   146.72489
   334  H   1.0    0.05    1.00    1.43    37.02960    28.84358   149.85387
   335  H   1.0    0.05    1.00    1.43    34.39005    29.44625   147.86373
   336  N   5.0   -0.19    3.22    1.96    32.85322    31.27062   159.78828
   337  C   4.0    0.04    4.28    4.15    33.29184    33.26345   161.63764
   338  C   4.0    0.15    3.39    3.07    31.45391    32.86402   163.87541
   339  O   6.0   -0.31    1.28    1.80    29.44322    34.00621   164.04036
   340  C   4.0   -0.03    4.24    4.09    32.92599    35.87521   160.38561
   341  C   4.0   -0.05    4.14    3.89    34.79439    37.93289   161.19361
   342  C   4.0   -0.01    4.19    3.98    37.32278    37.81385   159.80508
   343  N   5.0   -0.14    3.39    2.02    39.02159    35.89609   160.79293
   344  C   4.0    0.10    3.35    3.07    40.68109    34.51834   159.51781
   345  N   5.0   -0.18    3.26    1.97    40.74548    34.55767   156.98495
   346  N   5.0   -0.17    3.26    1.97    42.48721    33.30156   160.79236
   347  H   1.0    0.10    1.03    1.43    31.21988    31.41314   158.81126
   348  H   1.0    0.05    1.05    1.44    35.22813    32.98483   162.29737
   349  H   1.0    0.07    1.04    1.43    33.06230    35.63321   158.34502
   350  H   1.0    0.06    1.04    1.43    31.00005    36.48173   160.80878
   351  H   1.0    0.04    1.03    1.43    33.96075    39.75614   160.72207
   352  H   1.0    0.05    1.02    1.43    35.08181    37.88048   163.23519
   353  H   1.0    0.05    1.04    1.43    36.95471    37.42918   157.81780
   354  H   1.0    0.04    1.02    1.43    38.27037    39.64818   159.95532
   355  H   1.0    0.08    1.08    1.44    39.20447    35.83921   162.69416
   356  H   1.0    0.11    1.07    1.44    39.08007    34.89097   156.09037
   357  H   1.0    0.09    1.04    1.43    41.84089    33.23783   156.15383
   358  H   1.0    0.13    1.09    1.44    42.14939    32.82639   162.63890
   359  H   1.0    0.10    1.03    1.43    43.53283    32.01116   159.85923
   360  N   5.0   -0.14    3.44    2.04    32.19159    31.19877   165.61933
   361  C   4.0    0.04    4.22    4.03    30.51483    30.47176   167.68009
   362  C   4.0    0.08    3.17    3.03    31.54854    31.14097   170.33775
   363  O   6.0   -0.28    1.12    1.80    30.64276    32.75000   171.73688
   364  C   4.0   -0.06    4.09    3.79    29.99465    27.63669   167.43182
   365  H   1.0    0.11    1.12    1.45    33.94351    30.35152   165.51121
   366  H   1.0    0.07    1.07    1.44    28.75646    31.53745   167.42823
   367  H   1.0    0.06    1.00    1.43    28.92821    26.94502   169.04443
   368  H   1.0    0.06    1.00    1.43    28.90416    27.30376   165.72401
   369  H   1.0    0.06    1.00    1.43    31.75329    26.58553   167.28329
   370  N   5.0   -0.19    3.24    1.96    36.17504    34.07100   172.79529
   371  C   4.0    0.03    4.28    4.16    37.95674    35.93441   171.77919
   372  C   4.0    0.15    3.43    3.09    36.34953    38.28411   171.29040
   373  O   6.0   -0.30    1.25    1.80    34.77642    38.31561   169.59600
   374  C   4.0   -0.03    4.18    3.96    39.32867    35.01184   169.33887
   375  C   4.0   -0.03    4.13    3.87    37.57438    33.78360   167.35767
   376  C   4.0    0.25    3.06    3.02    38.59501    31.31238   166.00002
   377  O   6.0   -0.29    1.24    1.80    40.81354    31.33687   165.22041
   378  O   6.0   -0.29    1.24    1.80    37.06571    29.51317   165.78979
   379  H   1.0    0.11    1.05    1.44    34.32382    34.32092   172.37213
   380  H   1.0    0.05    1.05    1.44    39.40652    36.27666   173.21185
   381  H   1.0    0.05    1.02    1.43    40.32991    36.62576   168.54290
   382  H   1.0    0.06    1.02    1.43    40.74492    33.62341   169.91551
   383  H   1.0    0.06    1.04    1.43    35.79609    33.25463   168.24903
   384  H   1.0    0.05    1.02    1.43    37.10999    35.15348   165.88955
   385  N   5.0   -0.13    3.43    2.04    36.64459    40.14262   172.98952
   386  C   4.0    0.04    4.37    4.33    35.13820    42.40802   172.91511
   387  C   4.0    0.15    3.48    3.11    36.49411    44.65518   171.75475
   388  O   6.0   -0.30    1.23    1.80    38.78500    44.89610   171.58634
   389  C   4.0   -0.07    4.16    3.91    34.39218    43.31141   175.53895
   390  H   1.0    0.08    1.06    1.44    38.09056    40.06941   174.22613
   391  H   1.0    0.06    1.08    1.44    33.50939    41.95133   171.72921
   392  H   1.0    0.05    1.00    1.43    33.07747    44.88185   175.43245
   393  H   1.0    0.05    1.00    1.43    33.53054    41.78639   176.61859
   394  H   1.0    0.05    1.00    1.43    36.06570    43.93972   176.55808
   395  N   5.0   -0.14    3.59    2.15    34.86036    46.45413   171.06031
   396  C   4.0    0.04    4.52    4.57    35.84926    48.90092   170.50315
   397  C   4.0    0.15    3.47    3.10    33.85053    50.81478   171.23236
   398  O   6.0   -0.31    1.26    1.80    31.64188    50.17269   171.38603
   399  C   4.0   -0.03    4.35    4.28    36.56360    49.03422   167.70539
   400  C   4.0   -0.01    3.60    3.16    34.27155    48.88128   166.02179
   401  C   4.0   -0.04    3.47    3.10    33.32414    46.55929   165.24732
   402  C   4.0   -0.03    3.48    3.11    33.05190    51.07845   165.27239
   403  C   4.0   -0.05    3.38    3.07    31.19742    46.44703   163.74438
   404  C   4.0   -0.05    3.37    3.07    30.90612    50.97120   163.79650
   405  C   4.0   -0.05    3.39    3.08    29.99354    48.65487   163.01436
   406  H   1.0    0.09    1.08    1.44    32.96279    46.33845   171.25150
   407  H   1.0    0.06    1.07    1.44    37.56109    49.19823   171.63469
   408  H   1.0    0.05    1.03    1.43    37.55303    50.81079   167.36977
   409  H   1.0    0.05    1.03    1.43    37.83854    47.45629   167.34119
   410  H   1.0    0.05    1.03    1.43    34.26591    44.84411   165.82491
   411  H   1.0    0.07    1.03    1.43    33.76287    52.87080   165.94461
   412  H   1.0    0.04    1.03    1.43    30.49164    44.63751   163.12975
   413  H   1.0    0.04    1.03    1.43    29.96303    52.68960   163.23759
   414  H   1.0    0.04    1.03    1.43    28.31431    48.55588   161.86524
   415  N   5.0   -0.14    3.56    2.12    34.78571    53.08689   171.77935
   416  C   4.0    0.04    4.45    4.46    33.29627    55.22528   172.50457
   417  C   4.0    0.15    3.46    3.10    32.45409    56.69414   170.20802
   418  O   6.0   -0.32    1.27    1.80    33.75768    56.83847   168.28074
   419  C   4.0   -0.03    4.39    4.37    35.01203    57.02829   173.94372
   420  C   4.0   -0.01    3.58    3.15    36.40282    55.68565   176.03576
   421  C   4.0   -0.04    3.45    3.10    35.50792    55.63575   178.52295
   422  C   4.0   -0.03    3.48    3.10    38.71118    54.54628   175.52415
   423  C   4.0   -0.03    3.43    3.09    36.87353    54.52101   180.44412
   424  C   4.0   -0.03    3.44    3.09    40.08008    53.42704   177.45413
   425  C   4.0    0.08    3.43    3.09    39.17877    53.37249   179.92482
   426  O   6.0   -0.25    2.13    1.84    40.45960    52.20178   181.79402
   427  H   1.0    0.10    1.11    1.44    36.56729    53.47439   171.19546
   428  H   1.0    0.05    1.05    1.44    31.69326    54.56769   173.62709
   429  H   1.0    0.06    1.04    1.43    36.39290    57.79508   172.61447
   430  H   1.0    0.05    1.03    1.43    33.90502    58.59372   174.70601
   431  H   1.0    0.06    1.03    1.43    33.72558    56.53361   178.94547
   432  H   1.0    0.07    1.04    1.43    39.51215    54.59415   173.65154
   433  H   1.0    0.06    1.03    1.43    36.15003    54.44925   182.34842
   434  H   1.0    0.07    1.03    1.43    41.86902    52.52492   177.03466
   435  H   1.0    0.12    1.02    1.43    42.07242    51.49503   181.22364
   436  N   5.0   -0.14    3.53    2.10    30.25254    57.89927   170.40689
   437  C   4.0    0.03    4.37    4.32    29.36626    59.58617   168.36965
   438  C   4.0    0.08    3.23    3.04    29.25213    62.13395   169.71856
   439  O   6.0   -0.29    1.16    1.80    28.26972    62.19964   171.82313
   440  C   4.0   -0.05    4.35    4.30    26.85989    58.51402   167.44364
   441  C   4.0   -0.03    4.18    3.97    25.86422    59.77531   165.08477
   442  C   4.0   -0.08    4.14    3.89    27.94523    60.04704   163.09542
   443  C   4.0   -0.08    4.11    3.82    23.71699    58.20216   163.93320
   444  H   1.0    0.09    1.07    1.44    29.26213    57.97155   172.03377
   445  H   1.0    0.05    1.07    1.44    30.81046    59.57124   166.90767
   446  H   1.0    0.04    1.04    1.43    27.19740    56.51438   167.04971
   447  H   1.0    0.04    1.03    1.43    25.48059    58.64691   168.97259
   448  H   1.0    0.04    1.05    1.44    25.14874    61.66369   165.54102
   449  H   1.0    0.04    1.00    1.43    27.11690    60.66160   161.31491
   450  H   1.0    0.04    1.00    1.43    29.37209    61.41895   163.62761
   451  H   1.0    0.03    1.00    1.43    28.83533    58.22156   162.78957
   452  H   1.0    0.04    1.00    1.43    22.90097    59.21148   162.34536
   453  H   1.0    0.03    1.00    1.43    24.45231    56.40033   163.27438
   454  H   1.0    0.04    1.00    1.43    22.25145    57.84253   165.32413
   455  N   5.0   -0.20    3.19    1.95    16.26196    60.56635   180.67167
   456  C   4.0    0.03    4.23    4.06    15.61473    58.44506   179.06470
   457  C   4.0    0.09    3.16    3.03    12.76724    57.77690   179.23209
   458  O   6.0   -0.30    1.18    1.80    11.92598    56.04306   177.95604
   459  C   4.0   -0.04    4.28    4.17    17.41772    56.18724   179.44366
   460  C   4.0   -0.04    4.02    3.65    20.19859    56.85999   178.98978
   461  S   6.0   -0.05    2.50    3.10    20.74070    57.74757   175.65420
   462  C   4.0   -0.06    3.85    3.40    24.13330    58.42489   175.43600
   463  H   1.0    0.09    1.02    1.43    17.10019    60.19592   182.34599
   464  H   1.0    0.05    1.07    1.44    15.84050    59.09342   177.10034
   465  H   1.0    0.05    1.03    1.43    17.23116    55.49458   181.37751
   466  H   1.0    0.06    1.04    1.43    16.87643    54.67987   178.15417
   467  H   1.0    0.05    1.06    1.44    20.80026    58.46220   180.13245
   468  H   1.0    0.05    1.06    1.44    21.37895    55.22262   179.38481
   469  H   1.0    0.05    1.04    1.43    24.40055    59.45927   173.68902
   470  H   1.0    0.05    1.04    1.43    24.68637    59.56802   177.03882
   471  H   1.0    0.04    1.03    1.43    25.16559    56.65153   175.39545
   472  N   5.0   -0.19    3.25    1.97    35.74451    61.32156   161.19479
   473  C   4.0    0.04    4.37    4.32    35.94275    59.12908   162.81776
   474  C   4.0    0.15    3.42    3.08    38.66074    58.32807   163.28338
   475  O   6.0   -0.28    1.24    1.80    40.37138    58.65222   161.75937
   476  C   4.0   -0.04    4.37    4.33    34.30426    57.00815   161.79842
   477  C   4.0   -0.01    3.62    3.18    35.31239    56.03607   159.36406
   478  C   4.0   -0.04    3.50    3.11    34.97243    57.45066   157.18138
   479  C   4.0   -0.04    3.46    3.10    36.49927    53.69443   159.27090
   480  C   4.0   -0.04    3.42    3.09    35.71368    56.50475   154.87003
   481  C   4.0   -0.03    3.43    3.09    37.31328    52.76595   156.98123
   482  C   4.0    0.07    3.46    3.10    36.90310    54.16420   154.77221
   483  O   6.0   -0.22    2.11    1.84    37.64038    53.15499   152.50703
   484  H   1.0    0.10    1.02    1.43    36.93118    61.57736   159.72308
   485  H   1.0    0.05    1.07    1.44    35.16861    59.69557   164.65419
   486  H   1.0    0.05    1.04    1.43    34.20909    55.51574   163.20834
   487  H   1.0    0.03    1.04    1.43    32.41561    57.78306   161.52247
   488  H   1.0    0.05    1.04    1.43    34.00805    59.24537   157.26377
   489  H   1.0    0.05    1.03    1.43    36.70483    52.61609   160.98623
   490  H   1.0    0.06    1.03    1.43    35.31796    57.55086   153.16364
   491  H   1.0    0.06    1.03    1.43    38.23171    50.95676   156.79914
   492  H   1.0    0.11    1.04    1.43    36.86920    54.12243   151.16016
   493  N   5.0   -0.14    3.48    2.06    39.05182    57.26235   165.53276
   494  C   4.0    0.04    4.36    4.31    41.59173    56.84429   166.47834
   495  C   4.0    0.14    3.52    3.12    41.66480    54.49950   168.07479
   496  O   6.0   -0.33    1.35    1.80    39.83839    54.03001   169.42668
   497  C   4.0   -0.05    4.14    3.89    42.38232    58.95202   168.30956
   498  H   1.0    0.10    1.08    1.44    37.61315    57.02727   166.77984
   499  H   1.0    0.06    1.06    1.44    42.87502    56.75373   164.86463
   500  H   1.0    0.05    1.00    1.43    44.33357    58.71230   168.90430
   501  H   1.0    0.06    1.00    1.43    42.20946    60.80444   167.43269
   502  H   1.0    0.06    1.00    1.43    41.18016    58.93424   169.97695
   503  N   5.0   -0.16    3.41    2.02    43.76983    53.13943   168.12759
   504  C   4.0    0.04    4.35    4.29    43.86495    51.14399   169.97507
   505  C   4.0    0.10    3.19    3.03    45.24088    51.83345   172.45994
   506  O   6.0   -0.27    1.13    1.80    45.16463    50.35706   174.21938
   507  C   4.0    0.04    4.15    3.90    44.90591    48.67340   168.89975
   508  O   6.0   -0.22    2.06    1.83    47.55455    48.75296   168.76059
   509  H   1.0    0.08    1.04    1.43    45.27518    53.44363   166.93331
   510  H   1.0    0.06    1.09    1.44    41.90537    50.78531   170.55977
   511  H   1.0    0.07    1.02    1.43    44.41462    47.14513   170.20178
   512  H   1.0    0.04    1.01    1.43    44.05376    48.30817   167.05694
   513  H   1.0    0.12    1.02    1.43    48.02036    49.44543   167.11807
   514  N   5.0   -0.18    3.27    1.97     6.50953    55.74411   144.31632
   515  C   4.0    0.03    4.46    4.48     6.75172    54.17233   146.53052
   516  C   4.0    0.16    3.53    3.13     4.43019    52.53711   146.99819
   517  O   6.0   -0.26    1.29    1.80     2.38836    53.11896   146.12420
   518  C   4.0   -0.02    4.41    4.40     7.00744    55.98884   148.76417
   519  C   4.0   -0.05    4.16    3.91     8.61818    54.85209   150.86876
   520  C   4.0   -0.05    4.21    4.01     4.33800    56.89158   149.44659
   521  C   4.0   -0.08    4.04    3.70    11.25080    54.24738   149.84553
   522  H   1.0    0.09    1.03    1.43     5.83907    57.51474   144.55459
   523  H   1.0    0.04    1.06    1.44     8.40062    52.96868   146.23338
   524  H   1.0    0.04    1.07    1.44     8.05851    57.62458   148.05613
   525  H   1.0    0.04    1.03    1.43     8.77981    56.22941   152.39750
   526  H   1.0    0.04    1.02    1.43     7.72926    53.17977   151.68015
   527  H   1.0    0.05    1.00    1.43     4.30255    58.91984   149.65749
   528  H   1.0    0.08    1.05    1.44     3.01901    56.45224   147.94516
   529  H   1.0    0.07    1.02    1.43     3.65188    55.93725   151.12116
   530  H   1.0    0.03    1.00    1.43    12.57318    53.97889   151.39970
   531  H   1.0    0.04    1.00    1.43    11.26996    52.53789   148.71253
   532  H   1.0    0.04    1.00    1.43    11.91783    55.81313   148.69660
   533  N   5.0   -0.14    3.33    1.99     4.74725    50.48787   148.49455
   534  C   4.0    0.02    4.14    3.88     2.55291    49.20201   149.51509
   535  C   4.0    0.09    3.10    3.02     1.04076    50.82156   151.43516
   536  O   6.0   -0.27    1.16    1.80     0.82711    53.10689   151.28545
   537  H   1.0    0.07    1.06    1.44     6.40997    50.24693   149.38846
   538  H   1.0    0.07    1.03    1.43     1.27071    48.83617   147.93268
   539  H   1.0    0.04    1.02    1.43     3.15660    47.42892   150.36284
   540  N   5.0   -0.20    3.19    1.95    44.32101    44.36645   181.70482
   541  C   4.0    0.04    4.23    4.06    42.80754    42.74528   183.31179
   542  C   4.0    0.10    3.16    3.03    43.65265    39.94520   183.14440
   543  O   6.0   -0.26    1.12    1.80    42.57172    38.34973   184.42045
   544  C   4.0   -0.03    4.28    4.16    39.95072    43.17781   182.93283
   545  C   4.0   -0.04    4.02    3.65    39.14290    45.92249   183.38671
   546  S   6.0   -0.01    2.47    3.10    39.64052    46.83576   186.72229
   547  C   4.0   -0.05    3.86    3.40    38.53079    50.11250   186.94049
   548  H   1.0    0.09    1.02    1.43    43.58110    44.90716   180.03050
   549  H   1.0    0.06    1.07    1.44    43.25615    43.26498   185.27616
   550  H   1.0    0.05    1.03    1.43    39.44414    42.66991   180.99898
   551  H   1.0    0.06    1.03    1.43    38.91594    41.95536   184.22232
   552  H   1.0    0.05    1.06    1.44    40.22962    47.24465   182.24404
   553  H   1.0    0.05    1.06    1.44    37.13472    46.12602   182.99168
   554  H   1.0    0.06    1.04    1.43    39.29296    50.86113   188.68747
   555  H   1.0    0.06    1.06    1.44    39.24424    51.16304   185.33767
   556  H   1.0    0.05    1.03    1.43    36.47887    50.11980   186.98104
   557  H   1.0    0.09    1.08    1.44    25.33276    65.70640   151.52072
   558  H   1.0    0.06    1.04    1.43    32.60764    64.18550   152.24824
   559  H   1.0    0.10    1.08    1.44    47.80234    44.67001   160.30857
   560  H   1.0    0.06    1.05    1.44    42.08555    48.76164   149.03824
   561  H   1.0    0.10    1.08    1.44    36.68877    51.62475   147.93613
   562  H   1.0    0.06    1.05    1.44    33.12387    50.66800   141.40923
   563  H   1.0    0.10    1.10    1.44    19.21000    63.20257   144.49340
   564  H   1.0    0.06    1.04    1.43    11.67768    63.91655   145.08762
   565  H   1.0    0.10    1.07    1.44    -1.01663    60.33104   162.83964
   566  H   1.0    0.06    1.04    1.43     4.39247    58.50344   167.30783
   567  H   1.0    0.10    1.07    1.44     9.88340    59.57611   168.72915
   568  H   1.0    0.06    1.04    1.43    34.55783    30.36796   154.27775
   569  H   1.0    0.12    1.09    1.44    34.10638    31.27732   158.63846
   570  H   1.0    0.06    1.05    1.44    33.05918    30.23349   171.02005
   571  H   1.0    0.10    1.08    1.44    36.57409    32.52529   172.20868
   572  H   1.0    0.06    1.04    1.43    29.96242    63.67554   168.88786
   573  H   1.0    0.10    1.07    1.44    17.34454    61.59019   179.85170
   574  H   1.0    0.07    1.04    1.43    11.63154    58.76107   180.37782
   575  H   1.0    0.09    1.09    1.44    34.20818    61.35124   160.46583
   576  H   1.0    0.06    1.04    1.43    46.17352    53.47097   172.60057
   577  H   1.0    0.09    1.07    1.44     8.03444    55.93888   143.58881
   578  H   1.0    0.06    1.05    1.44     0.17422    49.99196   152.89527
   579  H   1.0    0.10    1.07    1.44    44.66640    45.81591   182.52479
   580  H   1.0    0.07    1.04    1.43    45.07281    39.45375   181.99867

  Z AO/shell   Hii/eV     exponent
  1     Wed Apr 25 08:07:45 CEST 2018   EN: 2.200 GM2: 0.406  GM3: 0.0800  RAES: 1.40
     1s    -10.707211    1.230000
  6     Wed Apr 25 08:07:45 CEST 2018   EN: 2.550 GM2: 0.538  GM3: 0.1500  RAES: 3.00
     2s    -13.970922    2.096432
     2p    -10.063292    1.800000
  7     Wed Apr 25 08:07:45 CEST 2018   EN: 3.040 GM2: 0.461  GM3:-0.0640  RAES: 1.90
     2s    -16.686243    2.339881
     2p    -12.523956    2.014332
  8     Wed Apr 25 08:07:45 CEST 2018   EN: 3.440 GM2: 0.452  GM3:-0.0517  RAES: 1.80
     2s    -20.229985    2.439742
     2p    -15.503117    2.137023
 16     Tue Apr 24 11:44:34 CEST 2018   EN: 2.580 GM2: 0.340  GM3:-0.0502  RAES: 3.10
     3s    -20.029654    1.981333
     3p    -11.377694    2.025643
     3d     -0.420282    1.702555
 no old-style atom pair restraining (fixing) potential

molecular fragmentation (1/2 indicates fragments):
111111111111111122222222222222222222222222222222222222222222222222222222
222222222222222222222222222222222222222222222222222222222222222222222222
222222222222222222222222222222222222222222222222222222222222222222222222
222222222222222222222222222222222222222222222222222222222222222222222222
222222222222222222222222222222222222222222222222222222222222222222222222
222222222222222222222222222222222222222222222222222222222222222222222222
222222222222222222222222222222222222222222222222222222222222222222222222
222222222222222222222222222222222222222222222222222211222222222222222222
2222
# atoms in fragment 1/2:    18   562
 fragment masses (1/2) :      101.15     3776.79
CMA distance (Bohr)    :  17.147
constraining FC (au)   :  0.0500
           ------------------------------------------------- 
          |        Self-Consistent Charge Iterations        |
           ------------------------------------------------- 

 Ncao       : 1411
 Nao        : 1407
 Nshell     : 853
 Nel        : 1520
 T(el)      :   500.0
 intcut     :    35.0
 scfconv/Eh :  0.100E-06
   qconv/e  :  0.100E-04
 intneglect :  0.100E-08
 broydamp   :      0.400
 iter      E             dE          RMSdq      gap      omega  full diag
   1   -861.8863833 -0.861886E+03  0.452E+00    2.80       0.0  T
   2   -863.7206960 -0.183431E+01  0.216E+00    1.36       1.0  T
   3   -863.8226936 -0.101998E+00  0.119E+00    1.59       1.0  T
   4   -863.9636605 -0.140967E+00  0.246E-01    1.07       1.0  T
   5   -863.9702420 -0.658152E-02  0.117E-01    1.20       1.0  T
   6   -863.9717177 -0.147567E-02  0.494E-02    1.16       1.0  T
   7   -863.9720632 -0.345471E-03  0.229E-02    1.14       1.0  T
   8   -863.9721158 -0.526751E-04  0.112E-02    1.13       1.0  T
   9   -863.9721330 -0.171849E-04  0.529E-03    1.12       1.0  T
  10   -863.9721361 -0.313084E-05  0.248E-03    1.12       1.7  T
  11   -863.9721368 -0.650977E-06  0.122E-03    1.11       3.4  T
  12   -863.9721369 -0.146147E-06  0.605E-04    1.11       6.9  T
  13   -863.9721370 -0.556928E-07  0.275E-04    1.11      15.1  T
  14   -863.9721370 -0.632815E-08  0.120E-04    1.11      34.6  T
  15   -863.9721370 -0.184468E-08  0.478E-05    1.11      86.8  T
  16   -863.9721370 -0.206228E-09  0.216E-05    1.11     192.5  T
speedup  1.99
cpu  time for SCC   18.34 s
wall time for SCC    9.22 s

   *** convergence criteria satisfied after 16 iterations ***

          eigenvalues
 #    :         748        749        750        751        752        753        754        755
 occ. :        2.000      2.000      2.000      2.000      2.000      2.000      2.000      2.000
 eps  :       -10.070    -10.045     -9.982     -9.935     -9.935     -9.916     -9.847     -9.798
 #    :         756        757        758        759        760        761        762        763
 occ. :        2.000      2.000      2.000      2.000      2.000      0.000      0.000      0.000
 eps  :        -9.684     -9.637     -9.579     -9.466     -9.376     -8.264     -8.228     -8.217
 #    :         764        765        766        767        768        769        770        771
 occ. :        0.000      0.000      0.000      0.000      0.000      0.000      0.000      0.000
 eps  :        -8.094     -8.022     -7.873     -7.815     -7.808     -7.805     -7.631     -7.557


   #   Z            q   n(s)   n(p)   n(d)      C6AA      α(0)
   1   7 N     -0.390  1.323  4.066  0.000    30.088     8.147
   2   6 C      0.035  1.061  2.904  0.000    20.000     6.370
   3   6 C      0.206  1.089  2.705  0.000    23.625     7.960
   4   8 O     -0.376  1.759  4.617  0.000    21.212     6.175
   5   6 C     -0.015  1.063  2.952  0.000    20.805     6.487
   6   6 C     -0.113  1.039  3.074  0.000    22.716     6.795
   7   6 C     -0.111  1.038  3.073  0.000    22.689     6.792
   8   1 H      0.155  0.845  0.000  0.000     1.369     1.833
   9   1 H      0.052  0.948  0.000  0.000     2.301     2.372
  10   1 H      0.041  0.959  0.000  0.000     2.432     2.439
  11   1 H      0.059  0.941  0.000  0.000     2.211     2.325
  12   1 H      0.028  0.972  0.000  0.000     2.616     2.529
  13   1 H      0.040  0.960  0.000  0.000     2.449     2.447
  14   1 H      0.061  0.939  0.000  0.000     2.190     2.314
  15   1 H      0.044  0.956  0.000  0.000     2.391     2.418
  16   1 H      0.035  0.965  0.000  0.000     2.515     2.480
  17   7 N     -0.394  1.314  4.079  0.000    30.195     8.161
  18   6 C      0.036  1.055  2.909  0.000    19.982     6.366
  19   6 C      0.265  1.047  2.688  0.000    22.532     7.774
  20   8 O     -0.528  1.766  4.762  0.000    24.417     6.625
  21   6 C     -0.065  1.056  3.008  0.000    21.730     6.635
  22   6 C     -0.011  1.056  2.954  0.000    20.731     6.476
  23   6 C     -0.113  1.039  3.074  0.000    22.723     6.796
  24   6 C     -0.122  1.042  3.080  0.000    22.899     6.823
  25   1 H      0.149  0.851  0.000  0.000     1.410     1.860
  26   1 H      0.037  0.963  0.000  0.000     2.484     2.465
  27   1 H      0.030  0.970  0.000  0.000     2.580     2.512
  28   1 H      0.047  0.953  0.000  0.000     2.362     2.403
  29   1 H      0.025  0.975  0.000  0.000     2.660     2.550
  30   1 H      0.041  0.959  0.000  0.000     2.433     2.439
  31   1 H      0.019  0.981  0.000  0.000     2.748     2.592
  32   1 H      0.047  0.953  0.000  0.000     2.357     2.401
  33   1 H      0.046  0.954  0.000  0.000     2.372     2.408
  34   1 H      0.055  0.945  0.000  0.000     2.254     2.348
  35   1 H      0.043  0.957  0.000  0.000     2.406     2.426
  36   7 N     -0.083  1.225  3.858  0.000    22.849     7.099
  37   6 C      0.022  1.065  2.913  0.000    20.186     6.394
  38   6 C      0.202  1.083  2.716  0.000    23.712     7.975
  39   8 O     -0.357  1.757  4.600  0.000    20.834     6.120
  40   6 C     -0.079  1.058  3.021  0.000    21.999     6.676
  41   6 C     -0.077  1.056  3.022  0.000    21.957     6.668
  42   6 C     -0.025  1.058  2.967  0.000    21.078     6.546
  43   1 H      0.080  0.920  0.000  0.000     1.980     2.200
  44   1 H      0.073  0.927  0.000  0.000     2.052     2.240
  45   1 H      0.081  0.919  0.000  0.000     1.969     2.194
  46   1 H      0.072  0.928  0.000  0.000     2.058     2.244
  47   1 H      0.078  0.922  0.000  0.000     2.001     2.212
  48   1 H      0.079  0.921  0.000  0.000     1.987     2.204
  49   1 H      0.076  0.924  0.000  0.000     2.023     2.224
  50   7 N     -0.380  1.311  4.069  0.000    29.829     8.111
  51   6 C      0.037  1.051  2.912  0.000    19.963     6.364
  52   6 C      0.199  1.088  2.713  0.000    23.767     7.986
  53   8 O     -0.390  1.765  4.625  0.000    21.487     6.215
  54   6 C     -0.069  1.057  3.012  0.000    21.792     6.641
  55   6 C     -0.006  1.052  2.954  0.000    20.651     6.464
  56   6 C     -0.116  1.043  3.073  0.000    22.768     6.802
  57   6 C     -0.112  1.038  3.074  0.000    22.689     6.792
  58   1 H      0.149  0.851  0.000  0.000     1.405     1.857
  59   1 H      0.067  0.933  0.000  0.000     2.114     2.274
  60   1 H      0.038  0.962  0.000  0.000     2.475     2.460
  61   1 H      0.049  0.951  0.000  0.000     2.338     2.391
  62   1 H      0.023  0.977  0.000  0.000     2.689     2.564
  63   1 H      0.047  0.953  0.000  0.000     2.355     2.400
  64   1 H      0.040  0.960  0.000  0.000     2.453     2.449
  65   1 H      0.050  0.950  0.000  0.000     2.322     2.383
  66   1 H      0.043  0.957  0.000  0.000     2.407     2.426
  67   1 H      0.043  0.957  0.000  0.000     2.407     2.426
  68   1 H      0.038  0.962  0.000  0.000     2.482     2.464
  69   7 N     -0.388  1.323  4.064  0.000    30.035     8.139
  70   6 C      0.041  1.059  2.900  0.000    19.911     6.357
  71   6 C      0.199  1.090  2.711  0.000    23.769     7.985
  72   8 O     -0.384  1.766  4.617  0.000    21.359     6.196
  73   6 C     -0.064  1.053  3.011  0.000    21.709     6.631
  74   6 C      0.011  1.077  2.911  0.000    27.756     8.642
  75   6 C     -0.042  1.077  2.965  0.000    29.040     8.837
  76   6 C     -0.042  1.081  2.961  0.000    29.052     8.839
  77   6 C     -0.030  1.079  2.951  0.000    28.759     8.794
  78   6 C     -0.036  1.081  2.955  0.000    28.892     8.815
  79   6 C     -0.038  1.081  2.957  0.000    28.938     8.822
  80   1 H      0.155  0.845  0.000  0.000     1.368     1.832
  81   1 H      0.062  0.938  0.000  0.000     2.173     2.305
  82   1 H      0.047  0.953  0.000  0.000     2.353     2.399
  83   1 H      0.042  0.958  0.000  0.000     2.427     2.436
  84   1 H      0.024  0.976  0.000  0.000     2.670     2.555
  85   1 H      0.048  0.952  0.000  0.000     2.340     2.392
  86   1 H      0.025  0.975  0.000  0.000     2.663     2.552
  87   1 H      0.058  0.942  0.000  0.000     2.223     2.332
  88   1 H      0.050  0.950  0.000  0.000     2.320     2.382
  89   7 N     -0.392  1.314  4.077  0.000    30.138     8.153
  90   6 C      0.040  1.057  2.903  0.000    19.926     6.359
  91   6 C      0.203  1.091  2.706  0.000    23.692     7.971
  92   8 O     -0.377  1.761  4.616  0.000    21.231     6.178
  93   6 C     -0.067  1.061  3.005  0.000    21.763     6.640
  94   6 C     -0.010  1.057  2.953  0.000    20.714     6.474
  95   6 C     -0.120  1.041  3.079  0.000    22.855     6.816
  96   6 C     -0.114  1.042  3.071  0.000    22.728     6.797
  97   1 H      0.158  0.842  0.000  0.000     1.347     1.818
  98   1 H      0.063  0.937  0.000  0.000     2.159     2.298
  99   1 H      0.046  0.954  0.000  0.000     2.377     2.411
 100   1 H      0.043  0.957  0.000  0.000     2.411     2.428
 101   1 H      0.018  0.982  0.000  0.000     2.767     2.601
 102   1 H      0.041  0.959  0.000  0.000     2.432     2.439
 103   1 H      0.055  0.945  0.000  0.000     2.255     2.348
 104   1 H      0.038  0.962  0.000  0.000     2.472     2.459
 105   1 H      0.047  0.953  0.000  0.000     2.364     2.404
 106   1 H      0.042  0.958  0.000  0.000     2.424     2.435
 107   1 H      0.034  0.966  0.000  0.000     2.531     2.488
 108   7 N     -0.391  1.302  4.089  0.000    30.133     8.153
 109   6 C      0.030  1.053  2.916  0.000    20.072     6.380
 110   6 C      0.262  1.047  2.691  0.000    22.585     7.784
 111   8 O     -0.483  1.731  4.752  0.000    23.414     6.488
 112   6 C     -0.060  1.047  3.013  0.000    21.608     6.610
 113   6 C     -0.001  1.053  2.948  0.000    20.598     6.462
 114  16 S     -0.241  1.913  4.273  0.054   151.376    20.708
 115   6 C     -0.058  1.053  3.006  0.000    21.698     6.645
 116   1 H      0.162  0.838  0.000  0.000     1.320     1.800
 117   1 H      0.054  0.946  0.000  0.000     2.276     2.359
 118   1 H      0.040  0.960  0.000  0.000     2.447     2.446
 119   1 H      0.068  0.932  0.000  0.000     2.109     2.271
 120   1 H      0.050  0.950  0.000  0.000     2.320     2.382
 121   1 H      0.037  0.963  0.000  0.000     2.488     2.466
 122   1 H      0.072  0.928  0.000  0.000     2.059     2.244
 123   1 H      0.058  0.942  0.000  0.000     2.227     2.334
 124   1 H      0.071  0.929  0.000  0.000     2.076     2.253
 125   7 N     -0.174  1.242  3.932  0.000    24.770     7.392
 126   6 C     -0.004  1.072  2.932  0.000    20.646     6.468
 127   6 C      0.272  1.041  2.687  0.000    22.406     7.752
 128   8 O     -0.462  1.733  4.729  0.000    22.953     6.423
 129   6 C      0.115  1.051  2.834  0.000    18.813     6.196
 130   8 O     -0.477  1.724  4.753  0.000    22.397     6.389
 131   6 C     -0.130  1.043  3.087  0.000    23.052     6.847
 132   1 H      0.214  0.786  0.000  0.000     1.039     1.597
 133   1 H      0.105  0.895  0.000  0.000     1.741     2.063
 134   1 H      0.032  0.968  0.000  0.000     2.563     2.504
 135   1 H      0.328  0.672  0.000  0.000     0.641     1.258
 136   1 H      0.071  0.929  0.000  0.000     2.070     2.250
 137   1 H      0.051  0.949  0.000  0.000     2.309     2.376
 138   1 H      0.070  0.930  0.000  0.000     2.087     2.259
 139   7 N     -0.187  1.245  3.942  0.000    25.061     7.435
 140   6 C      0.010  1.069  2.920  0.000    20.413     6.434
 141   6 C      0.270  1.045  2.684  0.000    22.434     7.756
 142   8 O     -0.460  1.737  4.723  0.000    22.922     6.419
 143   6 C     -0.072  1.050  3.022  0.000    21.878     6.659
 144   6 C     -0.107  1.060  3.047  0.000    22.538     6.759
 145   6 C      0.284  1.042  2.674  0.000    22.189     7.713
 146   8 O     -0.498  1.753  4.745  0.000    23.747     6.534
 147   7 N     -0.288  1.266  4.022  0.000    27.424     7.778
 148   1 H      0.210  0.790  0.000  0.000     1.056     1.610
 149   1 H      0.088  0.912  0.000  0.000     1.895     2.153
 150   1 H      0.070  0.930  0.000  0.000     2.090     2.261
 151   1 H      0.073  0.927  0.000  0.000     2.057     2.243
 152   1 H      0.082  0.918  0.000  0.000     1.963     2.191
 153   1 H      0.083  0.917  0.000  0.000     1.953     2.186
 154   1 H      0.228  0.772  0.000  0.000     0.972     1.544
 155   1 H      0.229  0.771  0.000  0.000     0.969     1.542
 156   7 N     -0.174  1.243  3.931  0.000    24.759     7.390
 157   6 C      0.023  1.053  2.923  0.000    20.177     6.394
 158   6 C      0.277  1.036  2.687  0.000    22.312     7.736
 159   8 O     -0.482  1.737  4.745  0.000    23.392     6.484
 160   6 C     -0.077  1.054  3.023  0.000    21.954     6.669
 161   6 C      0.010  1.083  2.907  0.000    27.795     8.648
 162   6 C     -0.038  1.080  2.959  0.000    28.956     8.824
 163   6 C     -0.042  1.085  2.957  0.000    29.039     8.837
 164   6 C     -0.031  1.081  2.950  0.000    28.769     8.796
 165   6 C     -0.030  1.083  2.948  0.000    28.756     8.794
 166   6 C     -0.032  1.079  2.952  0.000    28.794     8.799
 167   1 H      0.198  0.802  0.000  0.000     1.115     1.654
 168   1 H      0.077  0.923  0.000  0.000     2.013     2.219
 169   1 H      0.062  0.938  0.000  0.000     2.180     2.309
 170   1 H      0.064  0.936  0.000  0.000     2.150     2.293
 171   1 H      0.034  0.966  0.000  0.000     2.528     2.487
 172   1 H      0.047  0.953  0.000  0.000     2.358     2.401
 173   1 H      0.044  0.956  0.000  0.000     2.398     2.422
 174   1 H      0.040  0.960  0.000  0.000     2.444     2.445
 175   1 H      0.039  0.961  0.000  0.000     2.461     2.453
 176   7 N     -0.184  1.251  3.933  0.000    24.992     7.425
 177   6 C      0.024  1.061  2.915  0.000    20.168     6.394
 178   6 C      0.278  1.045  2.677  0.000    22.300     7.734
 179   8 O     -0.480  1.727  4.753  0.000    23.354     6.479
 180   6 C     -0.083  1.057  3.026  0.000    22.066     6.686
 181   6 C     -0.017  1.059  2.958  0.000    20.843     6.494
 182   6 C     -0.122  1.045  3.078  0.000    22.892     6.821
 183   6 C     -0.125  1.042  3.083  0.000    22.963     6.833
 184   1 H      0.226  0.774  0.000  0.000     0.982     1.553
 185   1 H      0.077  0.923  0.000  0.000     2.015     2.220
 186   1 H      0.074  0.926  0.000  0.000     2.047     2.238
 187   1 H      0.056  0.944  0.000  0.000     2.242     2.342
 188   1 H      0.041  0.959  0.000  0.000     2.430     2.438
 189   1 H      0.051  0.949  0.000  0.000     2.306     2.375
 190   1 H      0.037  0.963  0.000  0.000     2.491     2.468
 191   1 H      0.043  0.957  0.000  0.000     2.404     2.425
 192   1 H      0.052  0.948  0.000  0.000     2.300     2.371
 193   1 H      0.035  0.965  0.000  0.000     2.521     2.483
 194   1 H      0.050  0.950  0.000  0.000     2.324     2.384
 195   7 N     -0.184  1.251  3.933  0.000    24.985     7.424
 196   6 C      0.020  1.063  2.917  0.000    20.234     6.404
 197   6 C      0.294  1.037  2.670  0.000    22.022     7.686
 198   8 O     -0.495  1.736  4.760  0.000    23.680     6.524
 199   6 C      0.064  1.046  2.890  0.000    19.720     6.362
 200   8 O     -0.494  1.740  4.753  0.000    22.754     6.439
 201   1 H      0.228  0.772  0.000  0.000     0.974     1.546
 202   1 H      0.072  0.928  0.000  0.000     2.069     2.249
 203   1 H      0.054  0.946  0.000  0.000     2.275     2.359
 204   1 H      0.057  0.943  0.000  0.000     2.230     2.335
 205   1 H      0.348  0.652  0.000  0.000     0.593     1.209
 206   7 N     -0.179  1.245  3.934  0.000    24.867     7.406
 207   6 C      0.022  1.062  2.916  0.000    20.189     6.394
 208   6 C      0.275  1.043  2.682  0.000    22.352     7.743
 209   8 O     -0.488  1.740  4.748  0.000    23.517     6.502
 210   6 C     -0.019  1.060  2.959  0.000    20.877     6.498
 211   6 C     -0.068  1.049  3.019  0.000    21.804     6.647
 212   6 C     -0.130  1.040  3.090  0.000    23.034     6.840
 213   6 C     -0.107  1.036  3.071  0.000    22.613     6.781
 214   1 H      0.232  0.768  0.000  0.000     0.958     1.534
 215   1 H      0.068  0.932  0.000  0.000     2.108     2.270
 216   1 H      0.042  0.958  0.000  0.000     2.423     2.434
 217   1 H      0.038  0.962  0.000  0.000     2.477     2.461
 218   1 H      0.045  0.955  0.000  0.000     2.388     2.416
 219   1 H      0.058  0.942  0.000  0.000     2.228     2.334
 220   1 H      0.060  0.940  0.000  0.000     2.196     2.317
 221   1 H      0.046  0.954  0.000  0.000     2.368     2.407
 222   1 H      0.036  0.964  0.000  0.000     2.502     2.474
 223   1 H      0.037  0.963  0.000  0.000     2.492     2.469
 224   1 H      0.046  0.954  0.000  0.000     2.375     2.410
 225   7 N     -0.196  1.251  3.944  0.000    25.244     7.462
 226   6 C      0.023  1.062  2.915  0.000    20.169     6.391
 227   6 C      0.281  1.043  2.676  0.000    22.245     7.725
 228   8 O     -0.500  1.742  4.758  0.000    23.783     6.538
 229   6 C     -0.029  1.067  2.961  0.000    21.048     6.525
 230   6 C     -0.067  1.054  3.013  0.000    21.779     6.644
 231   6 C     -0.117  1.041  3.076  0.000    22.795     6.807
 232   6 C     -0.121  1.039  3.082  0.000    22.871     6.818
 233   1 H      0.226  0.774  0.000  0.000     0.985     1.554
 234   1 H      0.076  0.924  0.000  0.000     2.018     2.222
 235   1 H      0.056  0.944  0.000  0.000     2.245     2.343
 236   1 H      0.048  0.952  0.000  0.000     2.345     2.395
 237   1 H      0.043  0.957  0.000  0.000     2.412     2.429
 238   1 H      0.055  0.945  0.000  0.000     2.263     2.352
 239   1 H      0.038  0.962  0.000  0.000     2.472     2.459
 240   1 H      0.044  0.956  0.000  0.000     2.403     2.424
 241   1 H      0.043  0.957  0.000  0.000     2.410     2.428
 242   1 H      0.043  0.957  0.000  0.000     2.404     2.424
 243   1 H      0.038  0.962  0.000  0.000     2.474     2.460
 244   7 N     -0.202  1.254  3.948  0.000    25.391     7.484
 245   6 C      0.030  1.054  2.916  0.000    20.052     6.374
 246   6 C      0.281  1.041  2.679  0.000    22.250     7.725
 247   8 O     -0.499  1.746  4.752  0.000    23.752     6.534
 248   6 C     -0.086  1.056  3.030  0.000    22.134     6.696
 249   6 C     -0.079  1.050  3.029  0.000    21.994     6.675
 250   6 C     -0.040  1.054  2.987  0.000    21.372     6.596
 251   7 N     -0.129  1.204  3.925  0.000    23.797     7.245
 252   6 C      0.233  1.017  2.751  0.000    23.122     7.873
 253   7 N     -0.214  1.219  3.995  0.000    25.678     7.526
 254   7 N     -0.262  1.241  4.021  0.000    26.800     7.689
 255   1 H      0.244  0.756  0.000  0.000     0.905     1.490
 256   1 H      0.066  0.934  0.000  0.000     2.127     2.281
 257   1 H      0.077  0.923  0.000  0.000     2.013     2.219
 258   1 H      0.063  0.937  0.000  0.000     2.168     2.303
 259   1 H      0.062  0.938  0.000  0.000     2.179     2.308
 260   1 H      0.070  0.930  0.000  0.000     2.089     2.260
 261   1 H      0.082  0.918  0.000  0.000     1.962     2.190
 262   1 H      0.112  0.888  0.000  0.000     1.677     2.025
 263   1 H      0.227  0.773  0.000  0.000     0.980     1.551
 264   1 H      0.233  0.767  0.000  0.000     0.953     1.529
 265   1 H      0.229  0.771  0.000  0.000     0.970     1.542
 266   1 H      0.241  0.759  0.000  0.000     0.918     1.501
 267   1 H      0.236  0.764  0.000  0.000     0.938     1.517
 268   7 N     -0.191  1.250  3.941  0.000    25.151     7.448
 269   6 C      0.025  1.061  2.914  0.000    20.159     6.393
 270   6 C      0.283  1.040  2.678  0.000    22.217     7.719
 271   8 O     -0.514  1.754  4.760  0.000    24.094     6.581
 272   6 C      0.072  1.041  2.887  0.000    19.594     6.343
 273   8 O     -0.472  1.723  4.749  0.000    22.298     6.374
 274   1 H      0.236  0.764  0.000  0.000     0.941     1.519
 275   1 H      0.060  0.940  0.000  0.000     2.200     2.320
 276   1 H      0.038  0.962  0.000  0.000     2.478     2.462
 277   1 H      0.056  0.944  0.000  0.000     2.246     2.344
 278   1 H      0.341  0.659  0.000  0.000     0.610     1.227
 279   7 N     -0.169  1.241  3.929  0.000    24.666     7.376
 280   6 C      0.024  1.053  2.923  0.000    20.161     6.391
 281   6 C      0.269  1.046  2.685  0.000    22.456     7.760
 282   8 O     -0.497  1.740  4.757  0.000    23.714     6.529
 283   6 C     -0.078  1.055  3.023  0.000    21.967     6.671
 284   6 C     -0.088  1.056  3.032  0.000    22.173     6.704
 285   6 C     -0.024  1.054  2.970  0.000    21.075     6.549
 286   7 N     -0.137  1.215  3.921  0.000    23.960     7.270
 287   6 C      0.234  1.020  2.746  0.000    23.097     7.868
 288   7 N     -0.249  1.248  4.001  0.000    26.481     7.643
 289   7 N     -0.257  1.239  4.018  0.000    26.671     7.670
 290   1 H      0.227  0.773  0.000  0.000     0.978     1.549
 291   1 H      0.079  0.921  0.000  0.000     1.987     2.205
 292   1 H      0.066  0.934  0.000  0.000     2.126     2.280
 293   1 H      0.074  0.926  0.000  0.000     2.046     2.237
 294   1 H      0.066  0.934  0.000  0.000     2.133     2.284
 295   1 H      0.078  0.922  0.000  0.000     1.998     2.211
 296   1 H      0.088  0.912  0.000  0.000     1.896     2.153
 297   1 H      0.082  0.918  0.000  0.000     1.961     2.190
 298   1 H      0.238  0.762  0.000  0.000     0.933     1.513
 299   1 H      0.236  0.764  0.000  0.000     0.939     1.518
 300   1 H      0.251  0.749  0.000  0.000     0.879     1.469
 301   1 H      0.251  0.749  0.000  0.000     0.879     1.469
 302   1 H      0.254  0.746  0.000  0.000     0.867     1.459
 303   7 N     -0.169  1.238  3.930  0.000    24.649     7.374
 304   6 C      0.014  1.061  2.925  0.000    20.343     6.422
 305   6 C      0.273  1.045  2.682  0.000    22.385     7.748
 306   8 O     -0.473  1.756  4.717  0.000    23.205     6.459
 307   6 C     -0.079  1.055  3.024  0.000    21.972     6.668
 308   6 C     -0.017  1.069  2.948  0.000    20.878     6.507
 309  16 S     -0.209  1.913  4.251  0.045   149.954    20.610
 310   6 C     -0.058  1.054  3.004  0.000    21.684     6.642
 311   1 H      0.206  0.794  0.000  0.000     1.076     1.625
 312   1 H      0.084  0.916  0.000  0.000     1.940     2.178
 313   1 H      0.071  0.929  0.000  0.000     2.076     2.253
 314   1 H      0.076  0.924  0.000  0.000     2.024     2.225
 315   1 H      0.056  0.944  0.000  0.000     2.246     2.344
 316   1 H      0.056  0.944  0.000  0.000     2.242     2.342
 317   1 H      0.065  0.935  0.000  0.000     2.136     2.286
 318   1 H      0.050  0.950  0.000  0.000     2.323     2.383
 319   1 H      0.053  0.947  0.000  0.000     2.284     2.363
 320   7 N     -0.180  1.245  3.935  0.000    24.898     7.411
 321   6 C      0.021  1.067  2.912  0.000    20.235     6.407
 322   6 C      0.202  1.087  2.711  0.000    23.693     7.971
 323   8 O     -0.349  1.731  4.617  0.000    20.683     6.097
 324   6 C     -0.021  1.068  2.954  0.000    20.916     6.505
 325   6 C     -0.132  1.042  3.090  0.000    23.086     6.851
 326   6 C     -0.126  1.041  3.085  0.000    22.971     6.834
 327   1 H      0.211  0.789  0.000  0.000     1.053     1.608
 328   1 H      0.080  0.920  0.000  0.000     1.984     2.203
 329   1 H      0.065  0.935  0.000  0.000     2.141     2.288
 330   1 H      0.068  0.932  0.000  0.000     2.106     2.269
 331   1 H      0.061  0.939  0.000  0.000     2.186     2.312
 332   1 H      0.051  0.949  0.000  0.000     2.303     2.373
 333   1 H      0.062  0.938  0.000  0.000     2.179     2.308
 334   1 H      0.051  0.949  0.000  0.000     2.306     2.375
 335   1 H      0.044  0.956  0.000  0.000     2.393     2.419
 336   7 N     -0.398  1.326  4.072  0.000    30.308     8.176
 337   6 C      0.030  1.063  2.906  0.000    20.082     6.384
 338   6 C      0.267  1.054  2.679  0.000    22.486     7.765
 339   8 O     -0.492  1.732  4.761  0.000    23.614     6.515
 340   6 C     -0.083  1.058  3.024  0.000    22.078     6.690
 341   6 C     -0.081  1.053  3.027  0.000    22.041     6.684
 342   6 C     -0.030  1.057  2.973  0.000    21.187     6.569
 343   7 N     -0.132  1.212  3.920  0.000    23.862     7.255
 344   6 C      0.233  1.024  2.743  0.000    23.114     7.871
 345   7 N     -0.258  1.264  3.994  0.000    26.695     7.674
 346   7 N     -0.281  1.278  4.002  0.000    27.247     7.752
 347   1 H      0.150  0.850  0.000  0.000     1.403     1.855
 348   1 H      0.036  0.964  0.000  0.000     2.500     2.473
 349   1 H      0.058  0.942  0.000  0.000     2.226     2.333
 350   1 H      0.062  0.938  0.000  0.000     2.172     2.305
 351   1 H      0.079  0.921  0.000  0.000     1.984     2.203
 352   1 H      0.055  0.945  0.000  0.000     2.255     2.348
 353   1 H      0.101  0.899  0.000  0.000     1.772     2.082
 354   1 H      0.089  0.911  0.000  0.000     1.885     2.147
 355   1 H      0.203  0.797  0.000  0.000     1.092     1.637
 356   1 H      0.248  0.752  0.000  0.000     0.890     1.478
 357   1 H      0.232  0.768  0.000  0.000     0.956     1.531
 358   1 H      0.248  0.752  0.000  0.000     0.893     1.480
 359   1 H      0.235  0.765  0.000  0.000     0.945     1.523
 360   7 N     -0.190  1.267  3.924  0.000    25.124     7.444
 361   6 C      0.026  1.059  2.915  0.000    20.150     6.393
 362   6 C      0.199  1.092  2.709  0.000    23.760     7.982
 363   8 O     -0.354  1.747  4.607  0.000    20.780     6.112
 364   6 C     -0.129  1.043  3.086  0.000    23.032     6.843
 365   1 H      0.226  0.774  0.000  0.000     0.985     1.555
 366   1 H      0.098  0.902  0.000  0.000     1.806     2.102
 367   1 H      0.063  0.937  0.000  0.000     2.166     2.302
 368   1 H      0.075  0.925  0.000  0.000     2.036     2.231
 369   1 H      0.062  0.938  0.000  0.000     2.179     2.308
 370   7 N     -0.390  1.323  4.067  0.000    30.101     8.148
 371   6 C      0.026  1.067  2.907  0.000    20.162     6.396
 372   6 C      0.264  1.048  2.688  0.000    22.539     7.775
 373   8 O     -0.472  1.732  4.740  0.000    23.184     6.456
 374   6 C     -0.055  1.054  3.001  0.000    21.576     6.614
 375   6 C     -0.099  1.070  3.029  0.000    22.400     6.740
 376   6 C      0.361  1.031  2.608  0.000    20.876     7.477
 377   8 O     -0.603  1.759  4.845  0.000    26.200     6.863
 378   8 O     -0.608  1.775  4.833  0.000    26.311     6.877
 379   1 H      0.161  0.839  0.000  0.000     1.330     1.806
 380   1 H      0.033  0.967  0.000  0.000     2.538     2.491
 381   1 H      0.039  0.961  0.000  0.000     2.468     2.457
 382   1 H      0.025  0.975  0.000  0.000     2.657     2.549
 383   1 H      0.028  0.972  0.000  0.000     2.612     2.527
 384   1 H      0.036  0.964  0.000  0.000     2.506     2.476
 385   7 N     -0.165  1.238  3.927  0.000    24.571     7.362
 386   6 C      0.004  1.056  2.940  0.000    20.505     6.446
 387   6 C      0.274  1.037  2.689  0.000    22.372     7.748
 388   8 O     -0.484  1.751  4.733  0.000    23.434     6.490
 389   6 C     -0.138  1.044  3.095  0.000    23.199     6.864
 390   1 H      0.201  0.799  0.000  0.000     1.101     1.644
 391   1 H      0.095  0.905  0.000  0.000     1.833     2.117
 392   1 H      0.077  0.923  0.000  0.000     2.012     2.218
 393   1 H      0.079  0.921  0.000  0.000     1.991     2.207
 394   1 H      0.053  0.947  0.000  0.000     2.279     2.361
 395   7 N     -0.171  1.236  3.935  0.000    24.705     7.382
 396   6 C      0.022  1.055  2.923  0.000    20.192     6.395
 397   6 C      0.269  1.037  2.695  0.000    22.465     7.762
 398   8 O     -0.472  1.733  4.739  0.000    23.176     6.454
 399   6 C     -0.073  1.054  3.020  0.000    21.893     6.660
 400   6 C      0.008  1.081  2.911  0.000    27.847     8.656
 401   6 C     -0.042  1.080  2.962  0.000    29.053     8.839
 402   6 C     -0.039  1.081  2.958  0.000    28.969     8.827
 403   6 C     -0.042  1.080  2.962  0.000    29.052     8.839
 404   6 C     -0.030  1.078  2.953  0.000    28.758     8.794
 405   6 C     -0.039  1.080  2.959  0.000    28.963     8.826
 406   1 H      0.217  0.783  0.000  0.000     1.021     1.583
 407   1 H      0.060  0.940  0.000  0.000     2.199     2.319
 408   1 H      0.054  0.946  0.000  0.000     2.276     2.359
 409   1 H      0.062  0.938  0.000  0.000     2.178     2.308
 410   1 H      0.046  0.954  0.000  0.000     2.365     2.405
 411   1 H      0.030  0.970  0.000  0.000     2.585     2.514
 412   1 H      0.052  0.948  0.000  0.000     2.291     2.367
 413   1 H      0.039  0.961  0.000  0.000     2.469     2.457
 414   1 H      0.044  0.956  0.000  0.000     2.398     2.422
 415   7 N     -0.172  1.243  3.929  0.000    24.727     7.385
 416   6 C      0.027  1.052  2.921  0.000    20.125     6.387
 417   6 C      0.267  1.043  2.690  0.000    22.489     7.767
 418   8 O     -0.485  1.741  4.744  0.000    23.456     6.493
 419   6 C     -0.074  1.054  3.020  0.000    21.895     6.658
 420   6 C     -0.000  1.077  2.923  0.000    28.037     8.685
 421   6 C     -0.043  1.084  2.959  0.000    29.057     8.840
 422   6 C     -0.047  1.086  2.960  0.000    29.163     8.856
 423   6 C     -0.059  1.073  2.986  0.000    29.472     8.902
 424   6 C     -0.075  1.079  2.996  0.000    29.884     8.965
 425   6 C      0.146  1.042  2.812  0.000    24.827     8.166
 426   8 O     -0.416  1.706  4.710  0.000    21.170     6.211
 427   1 H      0.230  0.770  0.000  0.000     0.965     1.539
 428   1 H      0.075  0.925  0.000  0.000     2.034     2.231
 429   1 H      0.060  0.940  0.000  0.000     2.197     2.318
 430   1 H      0.059  0.941  0.000  0.000     2.214     2.327
 431   1 H      0.050  0.950  0.000  0.000     2.325     2.384
 432   1 H      0.053  0.947  0.000  0.000     2.282     2.362
 433   1 H      0.049  0.951  0.000  0.000     2.338     2.391
 434   1 H      0.035  0.965  0.000  0.000     2.513     2.479
 435   1 H      0.333  0.667  0.000  0.000     0.630     1.247
 436   7 N     -0.166  1.247  3.919  0.000    24.583     7.364
 437   6 C      0.018  1.068  2.914  0.000    20.277     6.412
 438   6 C      0.200  1.087  2.713  0.000    23.744     7.981
 439   8 O     -0.358  1.756  4.603  0.000    20.869     6.125
 440   6 C     -0.069  1.056  3.013  0.000    21.808     6.647
 441   6 C     -0.014  1.054  2.960  0.000    20.782     6.484
 442   6 C     -0.122  1.042  3.079  0.000    22.883     6.820
 443   6 C     -0.118  1.043  3.075  0.000    22.805     6.808
 444   1 H      0.207  0.793  0.000  0.000     1.071     1.621
 445   1 H      0.101  0.899  0.000  0.000     1.780     2.086
 446   1 H      0.077  0.923  0.000  0.000     2.014     2.219
 447   1 H      0.057  0.943  0.000  0.000     2.230     2.335
 448   1 H      0.029  0.971  0.000  0.000     2.594     2.519
 449   1 H      0.050  0.950  0.000  0.000     2.320     2.382
 450   1 H      0.033  0.967  0.000  0.000     2.539     2.492
 451   1 H      0.050  0.950  0.000  0.000     2.321     2.382
 452   1 H      0.052  0.948  0.000  0.000     2.293     2.368
 453   1 H      0.048  0.952  0.000  0.000     2.346     2.395
 454   1 H      0.043  0.957  0.000  0.000     2.407     2.426
 455   7 N     -0.390  1.313  4.078  0.000    30.100     8.148
 456   6 C      0.036  1.059  2.905  0.000    20.000     6.371
 457   6 C      0.194  1.101  2.705  0.000    23.851     7.998
 458   8 O     -0.373  1.742  4.631  0.000    21.154     6.167
 459   6 C     -0.073  1.054  3.018  0.000    21.866     6.654
 460   6 C     -0.006  1.068  2.938  0.000    20.702     6.480
 461  16 S     -0.241  1.917  4.272  0.052   151.367    20.707
 462   6 C     -0.058  1.055  3.003  0.000    21.697     6.645
 463   1 H      0.163  0.837  0.000  0.000     1.315     1.797
 464   1 H      0.082  0.918  0.000  0.000     1.958     2.188
 465   1 H      0.054  0.946  0.000  0.000     2.270     2.356
 466   1 H      0.083  0.917  0.000  0.000     1.953     2.186
 467   1 H      0.043  0.957  0.000  0.000     2.416     2.431
 468   1 H      0.055  0.945  0.000  0.000     2.263     2.352
 469   1 H      0.073  0.927  0.000  0.000     2.057     2.243
 470   1 H      0.054  0.946  0.000  0.000     2.270     2.356
 471   1 H      0.058  0.942  0.000  0.000     2.219     2.329
 472   7 N     -0.390  1.307  4.083  0.000    30.103     8.149
 473   6 C      0.035  1.056  2.909  0.000    19.998     6.368
 474   6 C      0.278  1.042  2.680  0.000    22.298     7.733
 475   8 O     -0.506  1.756  4.750  0.000    23.924     6.558
 476   6 C     -0.079  1.053  3.026  0.000    21.989     6.674
 477   6 C      0.003  1.075  2.922  0.000    27.953     8.673
 478   6 C     -0.044  1.079  2.965  0.000    29.096     8.846
 479   6 C     -0.041  1.082  2.960  0.000    29.028     8.835
 480   6 C     -0.074  1.076  2.999  0.000    29.859     8.961
 481   6 C     -0.052  1.075  2.976  0.000    29.284     8.874
 482   6 C      0.141  1.049  2.810  0.000    24.916     8.181
 483   8 O     -0.422  1.723  4.699  0.000    21.274     6.227
 484   1 H      0.149  0.851  0.000  0.000     1.405     1.857
 485   1 H      0.051  0.949  0.000  0.000     2.304     2.374
 486   1 H      0.059  0.941  0.000  0.000     2.216     2.328
 487   1 H      0.060  0.940  0.000  0.000     2.202     2.320
 488   1 H      0.040  0.960  0.000  0.000     2.450     2.447
 489   1 H      0.039  0.961  0.000  0.000     2.465     2.455
 490   1 H      0.025  0.975  0.000  0.000     2.651     2.546
 491   1 H      0.053  0.947  0.000  0.000     2.286     2.365
 492   1 H      0.313  0.687  0.000  0.000     0.682     1.297
 493   7 N     -0.178  1.243  3.936  0.000    24.863     7.406
 494   6 C      0.026  1.050  2.923  0.000    20.133     6.389
 495   6 C      0.271  1.041  2.689  0.000    22.434     7.759
 496   8 O     -0.479  1.728  4.750  0.000    23.317     6.474
 497   6 C     -0.123  1.043  3.080  0.000    22.893     6.819
 498   1 H      0.219  0.781  0.000  0.000     1.014     1.578
 499   1 H      0.071  0.929  0.000  0.000     2.073     2.251
 500   1 H      0.061  0.939  0.000  0.000     2.187     2.313
 501   1 H      0.064  0.936  0.000  0.000     2.153     2.294
 502   1 H      0.061  0.939  0.000  0.000     2.185     2.311
 503   7 N     -0.165  1.238  3.927  0.000    24.561     7.360
 504   6 C      0.010  1.060  2.930  0.000    20.398     6.429
 505   6 C      0.207  1.083  2.710  0.000    23.609     7.957
 506   8 O     -0.350  1.751  4.600  0.000    20.712     6.102
 507   6 C      0.072  1.037  2.892  0.000    19.590     6.340
 508   8 O     -0.480  1.733  4.747  0.000    22.462     6.398
 509   1 H      0.214  0.786  0.000  0.000     1.040     1.597
 510   1 H      0.117  0.883  0.000  0.000     1.639     2.002
 511   1 H      0.079  0.921  0.000  0.000     1.987     2.204
 512   1 H      0.062  0.938  0.000  0.000     2.175     2.306
 513   1 H      0.337  0.663  0.000  0.000     0.618     1.235
 514   7 N     -0.393  1.312  4.081  0.000    30.171     8.158
 515   6 C      0.026  1.059  2.915  0.000    20.143     6.391
 516   6 C      0.282  1.044  2.673  0.000    22.218     7.719
 517   8 O     -0.480  1.755  4.726  0.000    23.352     6.479
 518   6 C     -0.023  1.071  2.952  0.000    20.934     6.506
 519   6 C     -0.067  1.051  3.016  0.000    21.783     6.645
 520   6 C     -0.121  1.036  3.085  0.000    22.875     6.819
 521   6 C     -0.113  1.039  3.073  0.000    22.712     6.796
 522   1 H      0.151  0.849  0.000  0.000     1.397     1.852
 523   1 H      0.050  0.950  0.000  0.000     2.315     2.379
 524   1 H      0.034  0.966  0.000  0.000     2.533     2.489
 525   1 H      0.042  0.958  0.000  0.000     2.429     2.437
 526   1 H      0.033  0.967  0.000  0.000     2.546     2.495
 527   1 H      0.023  0.977  0.000  0.000     2.691     2.565
 528   1 H      0.056  0.944  0.000  0.000     2.245     2.343
 529   1 H      0.046  0.954  0.000  0.000     2.365     2.405
 530   1 H      0.052  0.948  0.000  0.000     2.298     2.370
 531   1 H      0.045  0.955  0.000  0.000     2.380     2.412
 532   1 H      0.039  0.961  0.000  0.000     2.458     2.452
 533   7 N     -0.180  1.246  3.935  0.000    24.910     7.413
 534   6 C     -0.030  1.054  2.976  0.000    21.181     6.566
 535   6 C      0.199  1.084  2.717  0.000    23.766     7.983
 536   8 O     -0.358  1.760  4.599  0.000    20.865     6.124
 537   1 H      0.205  0.795  0.000  0.000     1.082     1.630
 538   1 H      0.114  0.886  0.000  0.000     1.659     2.014
 539   1 H      0.103  0.897  0.000  0.000     1.756     2.072
 540   7 N     -0.390  1.314  4.075  0.000    30.088     8.147
 541   6 C      0.036  1.059  2.906  0.000    19.998     6.371
 542   6 C      0.196  1.095  2.709  0.000    23.815     7.992
 543   8 O     -0.384  1.760  4.624  0.000    21.357     6.196
 544   6 C     -0.063  1.053  3.010  0.000    21.695     6.628
 545   6 C     -0.007  1.068  2.939  0.000    20.712     6.481
 546  16 S     -0.266  1.928  4.283  0.054   152.488    20.784
 547   6 C     -0.063  1.057  3.006  0.000    21.782     6.658
 548   1 H      0.168  0.832  0.000  0.000     1.285     1.775
 549   1 H      0.077  0.923  0.000  0.000     2.007     2.215
 550   1 H      0.055  0.945  0.000  0.000     2.259     2.351
 551   1 H      0.061  0.939  0.000  0.000     2.183     2.310
 552   1 H      0.056  0.944  0.000  0.000     2.250     2.345
 553   1 H      0.058  0.942  0.000  0.000     2.225     2.333
 554   1 H      0.057  0.943  0.000  0.000     2.233     2.337
 555   1 H      0.084  0.916  0.000  0.000     1.935     2.175
 556   1 H      0.051  0.949  0.000  0.000     2.309     2.376
 557   1 H      0.187  0.813  0.000  0.000     1.176     1.699
 558   1 H      0.062  0.938  0.000  0.000     2.180     2.309
 559   1 H      0.181  0.819  0.000  0.000     1.210     1.723
 560   1 H      0.072  0.928  0.000  0.000     2.068     2.249
 561   1 H      0.183  0.817  0.000  0.000     1.197     1.714
 562   1 H      0.072  0.928  0.000  0.000     2.067     2.248
 563   1 H      0.193  0.807  0.000  0.000     1.140     1.672
 564   1 H      0.066  0.934  0.000  0.000     2.125     2.279
 565   1 H      0.179  0.821  0.000  0.000     1.217     1.728
 566   1 H      0.068  0.932  0.000  0.000     2.110     2.271
 567   1 H      0.170  0.830  0.000  0.000     1.274     1.768
 568   1 H      0.073  0.927  0.000  0.000     2.057     2.243
 569   1 H      0.188  0.812  0.000  0.000     1.168     1.693
 570   1 H      0.067  0.933  0.000  0.000     2.120     2.277
 571   1 H      0.171  0.829  0.000  0.000     1.264     1.761
 572   1 H      0.078  0.922  0.000  0.000     1.996     2.209
 573   1 H      0.184  0.816  0.000  0.000     1.190     1.709
 574   1 H      0.086  0.914  0.000  0.000     1.916     2.164
 575   1 H      0.185  0.815  0.000  0.000     1.188     1.707
 576   1 H      0.080  0.920  0.000  0.000     1.978     2.199
 577   1 H      0.187  0.813  0.000  0.000     1.175     1.698
 578   1 H      0.079  0.921  0.000  0.000     1.989     2.205
 579   1 H      0.182  0.818  0.000  0.000     1.201     1.716
 580   1 H      0.081  0.919  0.000  0.000     1.972     2.196

 Mol. C6AA /au·bohr⁶  :    3095903.712673
 Mol. C8AA /au·bohr⁸  :   70433058.220983
 Mol. α(0) /au        :       2656.089383

 
molecular dipole:
                 x           y           z       tot (Debye)
 q only:       40.718      94.101     317.238
   full:       38.720      95.424     320.150     854.819
molecular quadrupole (traceless):
                xx          xy          yy          xz          yz          zz
 q only:   -26562.764    2871.259  -21444.792    9539.153   22680.878   48007.556
  q+dip:   -27181.221    2793.056  -21721.865    9145.634   23256.423   48903.086
   full:   -27178.575    2793.895  -21723.185    9147.221   23255.531   48901.759
speedup  1.99
cpu  time for grad   22.51 s
wall time for grad   11.30 s

SCC energy    :    -864.0035079
rep           :      11.0056034
ES            :       2.0481937
AES           :      -0.0248037
AXC           :       0.3450397
disp          :      -0.7559222
XB            :       0.0000000
fix           :       0.0000000
Gborn         :       0.0000000
Gsasa         :       0.0000000
Ghb           :       0.0000000
Gshift        :       0.0000000
Gsolv         :      -0.4730205     -296.82
Etot ala COSMO:    -864.0035079
grad norm     :       0.7852871
total E       :    -852.9169692
atomizationE  :     158.8645713    99689.02
(atE without considering molecular charge,
 total energy contains solvation terms)
H-L gap (eV)  :          1.1118

------------------------------------------------------------------------
 * finished run on 2019/05/07 at 11:22:16.619     
------------------------------------------------------------------------
 total:
 * wall-time:     0 d,  0 h,  0 min, 12.195 sec
 *  cpu-time:     0 d,  0 h,  0 min, 24.114 sec
 * ratio c/w:     1.977 speedup
 SCF:
 * wall-time:     0 d,  0 h,  0 min, 11.827 sec
 *  cpu-time:     0 d,  0 h,  0 min, 23.506 sec
 * ratio c/w:     1.988 speedup

