      -----------------------------------------------------------      
     |                   =====================                   |     
     |                           x T B                           |     
     |                   =====================                   |     
     |                         S. Grimme                         |     
     |          Mulliken Center for Theoretical Chemistry        |     
     |                    University of Bonn                     |     
     |                 Version 6.0.1 (SAW181210)                 |     
      -----------------------------------------------------------      

   This program is distributed in the hope that it will be useful,
   but WITHOUT ANY WARRANTY; without even the implied warranty of
   MERCHANTABILITY or FITNESS FOR A PARTICULAR PURPOSE.
   
   FOR NON-COMMERCIAL, ACADEMIA USE ONLY.
   
   Cite this work as:
   S. Grimme, C. Bannwarth, P. Shushkov, J. Comput. Theory Chem., 2017,
   13, 1989-2009.
   C. Bannwarth, S. Ehlert and S. Grimme., ChemRxiv, 2018, preprint.
   http://doi.org/10.26434/chemrxiv.7246238.v1
   
   for sTDA-xTB:
   S. Grimme and C. Bannwarth, J. Chem. Phys., 2016, 145, 054103.
   
   in the mass-spec context:
   V. Asgeirsson, C. Bauer and S. Grimme, Chem. Sci., 2017, 8, 4879.
   
   if GBSA is used:
   P. Shushkov, F. März and S. Grimme, unpublished.
   
   for ANC optimizer:
   S. Grimme, unpublished.
   Rational Function algorithm used in ANCopt:
   F. Eckert, P. Pulay, H.-J. Werner, J. Comput. Chem., 1997, 18, 1473.
   
   with help from (in alphabetical order)
   C. Bannwarth, F. Bohle, G. Brandenburg, E. Caldeweyher, M. Checinski,
   S. Dohm, S. Ehlert, S. Ehrlich, F. März, H. Neugebauer, J. Pisarek,
   P. Pracht, P. Shushkov, and S. Spicher.
   
 * started run on 2019/05/04 at 16:37:27.170     
========================================================================
 # omp threads = 2
========================================================================
number of atoms            : 788
number of electrons        : 2098
charge                     : -1
spin                       : .0
first test random number   : .8033

########################################################################
# WARNING! Please study the warnings concerning your input carefully
#  - Process number higher than OMP_NUM_THREADS, I hope you know what you are doing.
########################################################################

           ------------------------------------------------- 
          |                 G F N 2 - x T B                 |
          | Geometry, Frequencies, Noncovalent interactions |
          |            JCTC 2018 parametrisation            |
           ------------------------------------------------- 
 
      method parameters     
 k(s)        :  1.8500
 k(p)        :  2.2300
 k(d)        :  2.2300
 k(f)        :  2.0000
 kEN (H0ij)  : -2.0000
 D4 a1       :  0.5200
 D4 a2       :  5.0000
 D4 s6       :  1.0000
 D4 s8       :  2.7000
 D4 s9       :  5.0000
 alphaj      :  2.0000

 Solvent             : h2o
 Using internal parameter file: .param_gbsa2_h2o
 Gsolv ref. state (COSMO-RS): gsolv [1 M gas/solution]
 temperature (mdtemp)       :    298.150000000000     
 dielectric constant        :    80.2000000000000     
 rho                        :    1.00000000000000     
 mass                       :    18.0000000000000     
 surface tension            :    15.5689454083859     
 probe radius               :   0.975313790000000     
 vdW radii scaling          :    1.00000000000000     
 Gshift (Eh)                :   1.857443126794793E-003
 c1                         :    1.55243817000000     
 soset                      :   0.130326360000000     
 HB correction              :  T

            Z     q(EN)     CN     RAES       Cart. coordinates
     1  N   5.0   -0.21    3.25    1.97    26.14814    63.95022   -28.22684
     2  C   4.0    0.03    4.38    4.35    26.54876    65.97978   -26.39191
     3  C   4.0    0.15    3.46    3.10    27.45961    64.97823   -23.83511
     4  O   6.0   -0.31    1.23    1.80    28.62179    66.35395   -22.37058
     5  C   4.0   -0.03    4.11    3.82    24.10723    67.47455   -26.01586
     6  S   6.0   -0.07    2.53    3.10    21.76964    65.81349   -24.14503
     7  H   1.0    0.08    1.03    1.43    24.31510    63.36629   -28.35345
     8  H   1.0    0.04    1.06    1.44    27.97550    67.26857   -27.12891
     9  H   1.0    0.06    1.07    1.44    24.55132    69.23956   -25.05210
    10  H   1.0    0.05    1.07    1.44    23.27764    67.86762   -27.86023
    11  H   1.0    0.05    1.00    1.43    20.09386    66.96519   -23.14121
    12  N   5.0   -0.13    3.57    2.13    26.85301    62.59528   -23.30221
    13  C   4.0    0.03    4.41    4.40    27.54276    61.35373   -20.93816
    14  C   4.0    0.07    3.24    3.04    28.64447    58.76292   -21.49374
    15  O   6.0   -0.29    1.15    1.80    28.68415    57.93711   -23.66693
    16  C   4.0   -0.03    4.31    4.21    25.23351    60.95500   -19.22418
    17  C   4.0   -0.08    4.13    3.85    24.79887    63.24535   -17.60280
    18  C   4.0   -0.07    4.17    3.94    22.89970    60.31438   -20.77943
    19  H   1.0    0.09    1.07    1.44    25.86279    61.45578   -24.50030
    20  H   1.0    0.05    1.06    1.44    28.96005    62.53292   -20.01976
    21  H   1.0    0.04    1.07    1.44    25.59445    59.35629   -17.97696
    22  H   1.0    0.03    1.00    1.43    23.15481    62.91654   -16.40471
    23  H   1.0    0.03    1.01    1.43    26.46561    63.56660   -16.43495
    24  H   1.0    0.05    1.00    1.43    24.46817    64.87429   -18.81789
    25  H   1.0    0.04    1.00    1.43    21.30099    60.04415   -19.50953
    26  H   1.0    0.05    1.08    1.44    22.51231    61.86585   -22.07578
    27  H   1.0    0.05    1.00    1.43    23.25497    58.58528   -21.83956
    28  N   5.0   -0.19    3.25    1.97    32.54486    64.31493   -13.68540
    29  C   4.0    0.03    4.32    4.24    31.62456    66.33316   -15.34646
    30  C   4.0    0.08    3.21    3.04    33.57854    67.18732   -17.31745
    31  O   6.0   -0.29    1.13    1.80    35.64968    68.03958   -16.66738
    32  C   4.0   -0.02    4.36    4.31    30.75529    68.63296   -13.83657
    33  C   4.0   -0.05    4.24    4.08    29.12446    67.79770   -11.60859
    34  C   4.0   -0.06    4.16    3.91    29.28319    70.42442   -15.53355
    35  C   4.0   -0.08    4.04    3.70    26.50530    66.87929   -12.35314
    36  H   1.0    0.13    1.12    1.45    33.50862    64.96311   -12.14716
    37  H   1.0    0.04    1.06    1.44    30.06743    65.48278   -16.39337
    38  H   1.0    0.07    1.06    1.44    32.41447    69.61561   -13.10903
    39  H   1.0    0.06    1.05    1.44    30.07688    66.25190   -10.63727
    40  H   1.0    0.04    1.03    1.43    28.88824    69.39452   -10.32924
    41  H   1.0    0.05    1.00    1.43    28.67848    72.05336   -14.42617
    42  H   1.0    0.06    1.00    1.43    30.50018    71.03858   -17.07745
    43  H   1.0    0.05    1.01    1.43    27.63913    69.43798   -16.28566
    44  H   1.0    0.03    1.00    1.43    25.48106    66.32560   -10.65427
    45  H   1.0    0.04    1.00    1.43    25.50563    68.40619   -13.30934
    46  H   1.0    0.03    1.01    1.43    26.69616    65.26358   -13.61737
    47  N   5.0   -0.20    3.22    1.96    31.77952    71.00456   -22.62947
    48  C   4.0    0.02    4.31    4.22    31.00851    73.35727   -23.81433
    49  C   4.0    0.15    3.43    3.09    30.05987    75.19031   -21.81311
    50  O   6.0   -0.31    1.32    1.80    28.44227    74.51378   -20.25219
    51  C   4.0   -0.03    4.30    4.20    28.92792    72.85838   -25.75130
    52  C   4.0   -0.04    4.20    4.01    29.83310    71.70376   -28.23440
    53  C   4.0    0.14    3.21    3.04    27.65047    71.16141   -30.05420
    54  O   6.0   -0.30    1.22    1.80    25.47162    71.84171   -29.54775
    55  N   5.0   -0.19    3.16    1.95    28.22306    69.91041   -32.16692
    56  H   1.0    0.11    1.03    1.43    30.53041    70.32048   -21.33123
    57  H   1.0    0.04    1.06    1.44    32.62612    74.22655   -24.74785
    58  H   1.0    0.06    1.03    1.43    27.56354    71.55447   -24.92360
    59  H   1.0    0.07    1.03    1.43    28.00952    74.64795   -26.19916
    60  H   1.0    0.04    1.03    1.43    31.12568    73.01523   -29.15658
    61  H   1.0    0.04    1.03    1.43    30.79497    69.92553   -27.84133
    62  H   1.0    0.08    1.02    1.43    30.04097    69.36617   -32.50140
    63  H   1.0    0.09    1.02    1.43    26.84167    69.49845   -33.44626
    64  N   5.0   -0.13    3.45    2.05    31.07654    77.49199   -21.81878
    65  C   4.0    0.04    4.41    4.39    30.12412    79.45353   -20.11424
    66  C   4.0    0.16    3.42    3.09    27.34811    79.99966   -20.71518
    67  O   6.0   -0.27    1.25    1.80    26.57522    79.83714   -22.90159
    68  C   4.0   -0.04    4.29    4.18    31.71905    81.87616   -20.29377
    69  C   4.0    0.15    3.23    3.04    34.54797    81.38105   -19.99708
    70  O   6.0   -0.32    1.22    1.80    35.54197    81.19774   -17.89570
    71  N   5.0   -0.19    3.19    1.95    35.85566    81.19397   -22.12113
    72  H   1.0    0.07    1.06    1.44    32.52974    78.05135   -22.95450
    73  H   1.0    0.06    1.06    1.44    30.26585    78.79779   -18.16594
    74  H   1.0    0.05    1.03    1.43    31.41480    82.74354   -22.13625
    75  H   1.0    0.05    1.03    1.43    31.14079    83.17251   -18.80088
    76  H   1.0    0.09    1.02    1.43    37.75295    80.86515   -22.05877
    77  H   1.0    0.08    1.03    1.43    34.96560    81.37916   -23.82000
    78  N   5.0   -0.13    3.32    1.99    25.82122    80.56469   -18.79899
    79  C   4.0    0.03    4.28    4.16    23.19450    81.25822   -19.30922
    80  C   4.0    0.15    3.30    3.05    21.29910    81.17129   -17.16816
    81  O   6.0   -0.31    1.27    1.80    21.94917    80.75177   -14.99498
    82  H   1.0    0.11    1.07    1.44    26.32388    80.56091   -16.93761
    83  H   1.0    0.06    1.03    1.43    23.18316    83.18952   -20.02543
    84  H   1.0    0.07    1.04    1.43    22.48396    79.99588   -20.77376
    85  N   5.0   -0.14    3.43    2.04    18.91994    81.59081   -17.83145
    86  C   4.0    0.03    4.44    4.45    16.87714    81.56624   -16.00220
    87  C   4.0    0.14    3.39    3.08    15.58835    78.95653   -15.81512
    88  O   6.0   -0.34    1.49    1.80    14.22019    78.14017   -17.53666
    89  C   4.0   -0.05    4.35    4.30    14.95718    83.64116   -16.60691
    90  C   4.0   -0.03    4.20    4.01    13.08635    84.16272   -14.47152
    91  C   4.0   -0.07    4.14    3.88    14.51499    84.49343   -11.99787
    92  C   4.0   -0.08    4.09    3.78    11.41394    86.44362   -15.03466
    93  H   1.0    0.10    1.07    1.44    18.34924    81.95552   -19.63614
    94  H   1.0    0.05    1.09    1.44    17.71618    81.91017   -14.15216
    95  H   1.0    0.05    1.03    1.43    15.97574    85.38916   -16.99242
    96  H   1.0    0.05    1.03    1.43    13.87626    83.07613   -18.26609
    97  H   1.0    0.04    1.06    1.44    11.81457    82.55268   -14.28822
    98  H   1.0    0.04    1.00    1.43    13.16383    84.86381   -10.48798
    99  H   1.0    0.05    1.01    1.43    15.56378    82.76811   -11.59347
   100  H   1.0    0.05    1.00    1.43    15.81512    86.08080   -12.18117
   101  H   1.0    0.04    1.00    1.43    10.11948    86.73086   -13.45863
   102  H   1.0    0.04    1.00    1.43    12.60636    88.10658   -15.27654
   103  H   1.0    0.03    1.00    1.43    10.35003    86.08458   -16.76187
   104  N   5.0   -0.14    3.48    2.06    16.02866    77.67341   -13.69673
   105  C   4.0    0.04    4.47    4.49    15.06301    75.13739   -13.34147
   106  C   4.0    0.15    3.45    3.09    13.10525    75.01645   -11.27788
   107  O   6.0   -0.32    1.36    1.80    13.56445    75.79691    -9.16328
   108  C   4.0   -0.03    4.36    4.31    17.20029    73.34782   -12.64794
   109  C   4.0   -0.02    3.55    3.14    19.07678    72.89240   -14.73986
   110  C   4.0   -0.04    3.48    3.10    21.11769    74.51378   -15.10647
   111  C   4.0   -0.05    3.47    3.10    18.83112    70.81937   -16.33479
   112  C   4.0   -0.04    3.43    3.09    22.87891    74.06970   -17.00186
   113  C   4.0   -0.05    3.43    3.09    20.56778    70.36017   -18.22830
   114  C   4.0    0.07    3.45    3.10    22.58600    71.98155   -18.55333
   115  O   6.0   -0.24    2.11    1.84    24.32266    71.49589   -20.42794
   116  H   1.0    0.12    1.14    1.45    17.04722    78.35182   -12.20763
   117  H   1.0    0.07    1.09    1.44    14.15783    74.56859   -15.10080
   118  H   1.0    0.05    1.04    1.43    18.22830    74.14151   -11.04923
   119  H   1.0    0.04    1.04    1.43    16.38959    71.52613   -12.13015
   120  H   1.0    0.07    1.03    1.43    21.33501    76.14273   -13.89704
   121  H   1.0    0.05    1.03    1.43    17.25509    69.54569   -16.08913
   122  H   1.0    0.07    1.03    1.43    24.45683    75.33770   -17.26265
   123  H   1.0    0.05    1.03    1.43    20.34857    68.74067   -19.44906
   124  H   1.0    0.16    1.09    1.44    25.77964    72.62406   -20.24841
   125  N   5.0   -0.14    3.49    2.07    10.93017    73.96198   -11.88827
   126  C   4.0    0.04    4.45    4.46     9.19352    73.08704    -9.95697
   127  C   4.0    0.15    3.46    3.10     9.97208    70.41497    -9.19730
   128  O   6.0   -0.32    1.29    1.80    10.09303    68.71799   -10.78845
   129  C   4.0   -0.05    4.43    4.43     6.51766    73.00578   -11.02466
   130  C   4.0   -0.03    4.20    4.01     4.37850    73.79758    -9.29745
   131  C   4.0   -0.07    4.14    3.88     5.01911    76.32792    -8.05590
   132  C   4.0   -0.08    4.14    3.88     2.03523    74.01112   -10.89427
   133  H   1.0    0.09    1.07    1.44    10.31790    73.68797   -13.69484
   134  H   1.0    0.06    1.07    1.44     9.25588    74.33804    -8.32235
   135  H   1.0    0.03    1.05    1.44     6.45530    74.25489   -12.66116
   136  H   1.0    0.05    1.05    1.44     6.13027    71.06692   -11.60292
   137  H   1.0    0.05    1.05    1.44     4.06669    72.43131    -7.78756
   138  H   1.0    0.05    1.00    1.43     3.46765    76.87972    -6.81813
   139  H   1.0    0.05    1.01    1.43     6.75010    76.11816    -6.96175
   140  H   1.0    0.04    1.00    1.43     5.28367    77.74711    -9.52422
   141  H   1.0    0.04    1.00    1.43     0.45731    74.57992    -9.69807
   142  H   1.0    0.03    1.00    1.43     2.34893    75.42274   -12.36070
   143  H   1.0    0.04    1.00    1.43     1.64028    72.18186   -11.75410
   144  N   5.0   -0.13    3.51    2.09    10.55223    70.02757    -6.79356
   145  C   4.0    0.03    4.48    4.51    10.68262    67.45566    -5.84303
   146  C   4.0    0.07    3.36    3.07     8.14283    66.88874    -4.72620
   147  O   6.0   -0.30    1.18    1.80     6.75766    68.62540    -3.99299
   148  C   4.0   -0.03    4.39    4.37    12.61581    67.14007    -3.73221
   149  C   4.0   -0.05    4.22    4.04    15.29544    67.13251    -4.80557
   150  C   4.0   -0.08    4.18    3.97    12.07535    64.70800    -2.29413
   151  C   4.0   -0.08    4.03    3.68    17.05100    68.83516    -3.40151
   152  H   1.0    0.11    1.10    1.44    10.92829    71.40896    -5.50288
   153  H   1.0    0.05    1.07    1.44    11.17962    66.20655    -7.40395
   154  H   1.0    0.05    1.07    1.44    12.46463    68.73311    -2.43397
   155  H   1.0    0.03    1.04    1.43    16.04944    65.21822    -4.70542
   156  H   1.0    0.04    1.05    1.44    15.23119    67.76179    -6.76522
   157  H   1.0    0.04    1.00    1.43    13.46619    64.49635    -0.78991
   158  H   1.0    0.04    1.02    1.43    10.18184    64.81004    -1.49099
   159  H   1.0    0.04    1.00    1.43    12.20196    63.11685    -3.59615
   160  H   1.0    0.03    1.00    1.43    18.91805    68.73500    -4.26700
   161  H   1.0    0.04    1.00    1.43    16.33479    70.76457    -3.49788
   162  H   1.0    0.04    1.00    1.43    17.15304    68.22100    -1.43808
   163  N   5.0   -0.20    3.21    1.96    28.18337    67.51424     6.01311
   164  C   4.0    0.02    4.23    4.05    29.20760    68.66697     3.72465
   165  C   4.0    0.08    3.26    3.05    32.05164    68.57626     3.93630
   166  O   6.0   -0.29    1.13    1.80    33.20437    70.05970     5.34414
   167  C   4.0   -0.05    4.30    4.21    28.35723    71.41085     3.42418
   168  C   4.0   -0.05    4.20    4.01    29.54398    72.75445     1.16785
   169  C   4.0   -0.05    4.19    3.98    28.84100    75.54368     1.11494
   170  C   4.0   -0.03    4.14    3.88    30.93292    77.13483    -0.03590
   171  N   5.0   -0.12    4.01    2.88    30.12601    79.81258    -0.22299
   172  H   1.0    0.08    1.03    1.43    28.25518    68.65374     7.56457
   173  H   1.0    0.03    1.06    1.44    28.55187    67.58416     2.09949
   174  H   1.0    0.03    1.03    1.43    26.31254    71.44676     3.17285
   175  H   1.0    0.05    1.03    1.43    28.87690    72.45398     5.12305
   176  H   1.0    0.05    1.04    1.43    31.59433    72.60516     1.28690
   177  H   1.0    0.04    1.03    1.43    28.87312    71.88518    -0.57448
   178  H   1.0    0.04    1.03    1.43    27.13835    75.79691    -0.01701
   179  H   1.0    0.04    1.03    1.43    28.51219    76.20131     3.03868
   180  H   1.0    0.05    1.02    1.43    32.61289    77.03468     1.15273
   181  H   1.0    0.07    1.03    1.43    31.36567    76.44319    -1.92752
   182  H   1.0    0.06    1.01    1.43    31.56409    80.89539    -1.01289
   183  H   1.0    0.06    1.02    1.43    28.52541    79.95430    -1.35493
   184  H   1.0    0.05    1.02    1.43    29.70649    80.51555     1.56469
   185  N   5.0   -0.21    3.31    1.98    23.92393    70.10316    12.53644
   186  C   4.0    0.03    4.44    4.45    22.16460    72.01368    11.74465
   187  C   4.0    0.14    3.45    3.09    19.52654    71.47510    12.77077
   188  O   6.0   -0.29    1.23    1.80    17.87303    73.10783    12.68195
   189  C   4.0   -0.02    4.38    4.35    22.10223    72.26123     8.87793
   190  C   4.0   -0.05    4.25    4.09    21.09690    69.82726     7.68174
   191  C   4.0   -0.08    4.17    3.94    24.71006    72.86972     7.91606
   192  C   4.0   -0.08    4.02    3.66    20.59234    70.05781     4.87738
   193  H   1.0    0.08    1.03    1.43    23.75574    68.40430    11.64260
   194  H   1.0    0.05    1.06    1.44    22.77120    73.84293    12.47030
   195  H   1.0    0.06    1.06    1.44    20.83045    73.79569     8.35826
   196  H   1.0    0.04    1.03    1.43    22.48774    68.33060     7.95197
   197  H   1.0    0.05    1.04    1.43    19.32623    69.31704     8.60203
   198  H   1.0    0.03    1.01    1.43    24.64392    73.04169     5.86382
   199  H   1.0    0.04    1.00    1.43    25.33556    74.64606     8.75132
   200  H   1.0    0.04    1.01    1.43    25.99318    71.35038     8.45274
   201  H   1.0    0.04    1.00    1.43    19.88559    68.25501     4.17251
   202  H   1.0    0.05    1.00    1.43    19.18828    71.53180     4.56747
   203  H   1.0    0.03    1.00    1.43    22.34790    70.54725     3.91740
   204  N   5.0   -0.14    3.47    2.06    19.14103    69.21310    13.79878
   205  C   4.0    0.04    4.33    4.25    16.66927    68.54603    14.81356
   206  C   4.0    0.07    3.20    3.04    16.74297    66.34639    16.69762
   207  O   6.0   -0.29    1.12    1.80    18.19050    64.55115    16.39904
   208  C   4.0   -0.03    4.30    4.20    14.85325    67.96966    12.64983
   209  C   4.0   -0.03    4.23    4.07    12.08669    68.15486    13.35280
   210  C   4.0    0.15    3.23    3.04    10.44074    66.50890    11.69173
   211  O   6.0   -0.30    1.24    1.80    10.82057    66.38229     9.39950
   212  N   5.0   -0.19    3.17    1.95     8.62849    65.20121    12.84069
   213  H   1.0    0.09    1.07    1.44    20.47707    67.83171    13.95185
   214  H   1.0    0.05    1.06    1.44    16.00598    70.14285    15.93228
   215  H   1.0    0.06    1.04    1.43    15.20096    69.31137    11.12482
   216  H   1.0    0.06    1.04    1.43    15.20285    66.04970    11.99220
   217  H   1.0    0.04    1.04    1.43    11.84291    67.54447    15.30489
   218  H   1.0    0.05    1.03    1.43    11.46497    70.10694    13.14115
   219  H   1.0    0.08    1.03    1.43     8.40361    65.33916    14.74931
   220  H   1.0    0.09    1.02    1.43     7.46253    64.06171    11.81268
   221  N   5.0   -0.20    3.13    1.94     8.10692    66.39741     4.36716
   222  C   4.0    0.01    4.19    3.98     8.74187    67.72967     2.07114
   223  C   4.0    0.14    3.32    3.06     8.85148    70.54536     2.43964
   224  O   6.0   -0.29    1.24    1.80     9.64894    71.44487     4.42763
   225  H   1.0    0.12    1.04    1.43     9.05935    66.98323     5.93752
   226  H   1.0    0.04    1.04    1.43    10.58247    67.09094     1.40218
   227  H   1.0    0.05    1.04    1.43     7.32647    67.31960     0.63306
   228  N   5.0   -0.13    3.38    2.01     8.05212    71.92108     0.49322
   229  C   4.0    0.01    4.26    4.12     8.19196    74.66685     0.47243
   230  C   4.0    0.14    3.32    3.06     9.30123    75.60982    -1.99177
   231  O   6.0   -0.31    1.32    1.80    10.14783    74.12072    -3.56969
   232  H   1.0    0.11    1.08    1.44     7.29056    71.17275    -1.11116
   233  H   1.0    0.04    1.03    1.43     6.30413    75.46054     0.69731
   234  H   1.0    0.06    1.03    1.43     9.38060    75.31503     2.02579
   235  N   5.0   -0.13    3.46    2.05     9.25966    78.09670    -2.32247
   236  C   4.0    0.04    4.49    4.53    10.25743    79.33825    -4.57314
   237  C   4.0    0.14    3.49    3.11    12.96352    80.13383    -4.07425
   238  O   6.0   -0.30    1.26    1.80    13.46052    81.55868    -2.30925
   239  C   4.0    0.05    4.29    4.17     8.80612    81.76655    -5.10604
   240  O   6.0   -0.26    2.10    1.84     6.14728    81.24877    -5.18163
   241  C   4.0   -0.08    4.11    3.83     9.68296    82.90984    -7.56268
   242  H   1.0    0.08    1.06    1.44     8.53022    79.33259    -1.03557
   243  H   1.0    0.06    1.06    1.44    10.12704    78.02112    -6.15106
   244  H   1.0    0.05    1.05    1.44     9.15194    83.14227    -3.61316
   245  H   1.0    0.11    1.01    1.43     5.20808    82.80779    -5.51989
   246  H   1.0    0.04    1.00    1.43     8.64361    84.64649    -7.94252
   247  H   1.0    0.04    1.01    1.43    11.69362    83.34258    -7.46064
   248  H   1.0    0.04    1.00    1.43     9.36170    81.58703    -9.10848
   249  N   5.0   -0.14    3.51    2.08    14.71719    79.22865    -5.61627
   250  C   4.0    0.04    4.49    4.52    17.38170    79.63494    -5.11738
   251  C   4.0    0.14    3.48    3.11    18.68561    80.26044    -7.53056
   252  O   6.0   -0.32    1.37    1.80    18.37570    78.95275    -9.42217
   253  C   4.0   -0.03    4.36    4.30    18.60057    77.27278    -4.03079
   254  C   4.0   -0.02    3.53    3.13    17.80878    76.67563    -1.35871
   255  C   4.0   -0.05    3.45    3.10    19.36780    77.30113     0.66518
   256  C   4.0   -0.03    3.45    3.10    15.52032    75.45676    -0.84471
   257  C   4.0   -0.03    3.41    3.08    18.68750    76.73610     3.14450
   258  C   4.0   -0.04    3.41    3.08    14.80789    74.89740     1.62516
   259  C   4.0    0.07    3.42    3.09    16.40660    75.54746     3.63016
   260  O   6.0   -0.23    2.08    1.84    15.75087    75.04291     6.12271
   261  H   1.0    0.12    1.13    1.45    14.34869    78.21387    -7.21308
   262  H   1.0    0.06    1.07    1.44    17.58201    81.19963    -3.79268
   263  H   1.0    0.05    1.04    1.43    18.08657    75.66463    -5.20997
   264  H   1.0    0.04    1.04    1.43    20.64526    77.52412    -4.03645
   265  H   1.0    0.05    1.03    1.43    21.14225    78.24410     0.30614
   266  H   1.0    0.07    1.04    1.43    14.28822    74.94086    -2.38672
   267  H   1.0    0.06    1.03    1.43    19.93472    77.22365     4.68463
   268  H   1.0    0.07    1.03    1.43    13.02966    73.96576     1.99366
   269  H   1.0    0.13    1.02    1.43    14.10114    74.20387     6.18696
   270  N   5.0   -0.15    3.46    2.06    20.13692    82.29190    -7.46064
   271  C   4.0    0.04    4.44    4.44    21.94917    82.81913    -9.44107
   272  C   4.0    0.15    3.44    3.09    24.45305    81.49821    -8.86092
   273  O   6.0   -0.29    1.24    1.80    25.81933    82.20875    -7.11482
   274  C   4.0   -0.04    4.30    4.20    22.32900    85.65939    -9.72453
   275  C   4.0   -0.02    4.22    4.05    24.25463    86.37937   -11.70685
   276  C   4.0    0.24    3.13    3.03    24.73840    89.19129   -11.75221
   277  O   6.0   -0.29    1.17    1.80    23.06599    90.58968   -12.67628
   278  O   6.0   -0.29    1.17    1.80    26.76608    90.00576   -10.82624
   279  H   1.0    0.08    1.06    1.44    20.09724    83.60715    -6.05279
   280  H   1.0    0.07    1.08    1.44    21.22918    82.05379   -11.21363
   281  H   1.0    0.05    1.03    1.43    20.53187    86.51543   -10.25554
   282  H   1.0    0.06    1.03    1.43    22.96962    86.42284    -7.92173
   283  H   1.0    0.07    1.04    1.43    26.03475    85.42506   -11.30056
   284  H   1.0    0.06    1.03    1.43    23.56110    85.81435   -13.56256
   285  N   5.0   -0.13    3.51    2.09    25.02753    79.54801   -10.32357
   286  C   4.0    0.04    4.46    4.48    27.22906    78.00600    -9.83035
   287  C   4.0    0.15    3.41    3.08    29.21327    78.40095   -11.85992
   288  O   6.0   -0.30    1.27    1.80    28.62935    79.27967   -13.92917
   289  C   4.0   -0.05    4.38    4.34    26.47506    75.22999    -9.69051
   290  C   4.0   -0.02    4.24    4.07    24.22818    74.77079    -7.94063
   291  C   4.0   -0.08    4.10    3.80    22.53687    72.63351    -8.89872
   292  C   4.0   -0.08    4.12    3.83    25.14658    74.25678    -5.28745
   293  H   1.0    0.10    1.07    1.44    23.99952    78.99999   -11.85803
   294  H   1.0    0.06    1.07    1.44    28.07566    78.55024    -8.03323
   295  H   1.0    0.04    1.04    1.43    25.95917    74.58181   -11.57646
   296  H   1.0    0.04    1.04    1.43    28.07188    74.13773    -8.98187
   297  H   1.0    0.05    1.08    1.44    23.06033    76.46587    -7.90661
   298  H   1.0    0.04    1.00    1.43    20.96840    72.38217    -7.58914
   299  H   1.0    0.04    1.02    1.43    21.82067    73.13050   -10.76577
   300  H   1.0    0.03    1.00    1.43    23.64425    70.90063    -9.01021
   301  H   1.0    0.03    1.00    1.43    23.51953    73.93364    -4.06480
   302  H   1.0    0.04    1.00    1.43    26.35223    72.58626    -5.30635
   303  H   1.0    0.05    1.00    1.43    26.21428    75.88761    -4.62038
   304  N   5.0   -0.14    3.47    2.06    31.55464    77.72443   -11.24387
   305  C   4.0    0.04    4.47    4.49    33.67492    78.08159   -12.95974
   306  C   4.0    0.16    3.44    3.09    35.07898    75.66841   -13.55122
   307  O   6.0   -0.30    1.33    1.80    34.81820    73.76734   -12.24164
   308  C   4.0   -0.02    4.32    4.23    35.48527    80.02611   -11.87693
   309  C   4.0    0.02    3.75    3.29    34.26451    82.52055   -11.42717
   310  N   5.0   -0.10    3.57    2.13    33.09288    83.86226   -13.33391
   311  C   4.0    0.03    3.57    3.15    33.90168    83.86037    -9.28044
   312  C   4.0    0.07    3.56    3.14    32.11211    85.95418   -12.39093
   313  N   5.0   -0.14    2.51    1.90    32.57132    85.99576    -9.93429
   314  H   1.0    0.10    1.07    1.44    32.03841    76.92129    -9.56012
   315  H   1.0    0.06    1.08    1.44    32.92658    78.72220   -14.76821
   316  H   1.0    0.06    1.04    1.43    36.21093    79.33825   -10.07602
   317  H   1.0    0.06    1.04    1.43    37.03863    80.30579   -13.20163
   318  H   1.0    0.09    1.05    1.44    33.00028    83.32180   -15.18206
   319  H   1.0    0.05    1.01    1.43    34.53663    83.35014    -7.40962
   320  H   1.0    0.06    1.01    1.43    31.10867    87.38471   -13.44351
   321  N   5.0   -0.14    3.49    2.07    36.58698    75.76856   -15.54111
   322  C   4.0    0.04    4.47    4.49    37.92680    73.54624   -16.41227
   323  C   4.0    0.09    3.30    3.05    39.61621    72.38217   -14.38270
   324  O   6.0   -0.27    1.13    1.80    40.89367    73.70876   -12.97297
   325  C   4.0   -0.02    4.33    4.25    39.48960    74.16607   -18.71963
   326  C   4.0   -0.07    4.17    3.94    40.93902    71.87195   -19.53410
   327  C   4.0   -0.07    4.13    3.87    37.76239    75.11472   -20.83612
   328  H   1.0    0.09    1.08    1.44    36.91958    77.35404   -16.58612
   329  H   1.0    0.06    1.07    1.44    36.48116    72.15352   -16.87525
   330  H   1.0    0.05    1.06    1.44    40.84454    75.65518   -18.28310
   331  H   1.0    0.04    1.00    1.43    42.05774    72.34249   -21.19895
   332  H   1.0    0.05    1.01    1.43    42.17868    71.28235   -17.99775
   333  H   1.0    0.05    1.00    1.43    39.61055    70.36395   -19.98385
   334  H   1.0    0.04    1.00    1.43    38.90757    75.55502   -22.48963
   335  H   1.0    0.05    1.00    1.43    36.39801    73.64262   -21.29910
   336  H   1.0    0.05    1.01    1.43    36.77974    76.80602   -20.19172
   337  N   5.0   -0.18    3.23    1.96    37.40901    69.59672    -9.65083
   338  C   4.0    0.04    4.24    4.08    35.74606    69.34349    -7.49087
   339  C   4.0    0.08    3.20    3.04    34.77474    66.63552    -7.28489
   340  O   6.0   -0.32    1.28    1.80    33.95271    65.53948    -9.14249
   341  C   4.0   -0.03    4.27    4.14    33.54075    71.23700    -7.66284
   342  C   4.0    0.25    3.12    3.03    34.22105    73.84293    -6.58192
   343  O   6.0   -0.28    1.20    1.80    36.49439    74.46087    -6.54601
   344  O   6.0   -0.32    1.19    1.80    32.51462    75.27723    -5.78067
   345  H   1.0    0.12    1.06    1.44    36.82320    70.89118   -10.95285
   346  H   1.0    0.05    1.06    1.44    36.79296    69.78002    -5.77122
   347  H   1.0    0.07    1.05    1.44    33.01729    71.48266    -9.63949
   348  H   1.0    0.04    1.03    1.43    31.93826    70.50190    -6.59703
   349  N   5.0   -0.20    3.22    1.96    29.58177    61.70522    -2.79301
   350  C   4.0    0.03    4.35    4.29    27.26686    61.70522    -1.31147
   351  C   4.0    0.07    3.29    3.05    26.81899    59.08039    -0.22866
   352  O   6.0   -0.29    1.14    1.80    27.11379    57.19445    -1.53824
   353  C   4.0   -0.02    4.38    4.35    25.00107    62.47434    -2.93852
   354  C   4.0   -0.06    4.22    4.05    24.99729    65.32972    -3.33537
   355  C   4.0   -0.08    4.17    3.95    22.54632    61.60129    -1.73855
   356  C   4.0   -0.09    4.08    3.76    24.84423    66.78480    -0.92030
   357  H   1.0    0.10    1.03    1.43    29.85956    60.06683    -3.77000
   358  H   1.0    0.03    1.07    1.44    27.48984    63.02425     0.25511
   359  H   1.0    0.04    1.06    1.44    25.16926    61.55782    -4.77534
   360  H   1.0    0.03    1.03    1.43    26.73773    65.87207    -4.29346
   361  H   1.0    0.03    1.03    1.43    23.36835    65.84183    -4.48810
   362  H   1.0    0.03    1.00    1.43    20.97218    62.17576    -2.93663
   363  H   1.0    0.05    1.01    1.43    22.58034    59.54904    -1.55902
   364  H   1.0    0.04    1.00    1.43    22.36491    62.46678     0.12283
   365  H   1.0    0.03    1.00    1.43    24.84990    68.79925    -1.34926
   366  H   1.0    0.03    1.00    1.43    23.10379    66.28025     0.05858
   367  H   1.0    0.03    1.02    1.43    26.47128    66.31237     0.25133
   368  N   5.0   -0.21    3.22    1.96    11.66906    60.57706   -11.90527
   369  C   4.0    0.03    4.45    4.46    12.54778    63.06015   -12.55723
   370  C   4.0    0.14    3.49    3.11    11.85236    63.76691   -15.24064
   371  O   6.0   -0.31    1.25    1.80    11.72386    62.17765   -16.91872
   372  C   4.0   -0.03    4.39    4.35    15.39938    63.31527   -12.13960
   373  C   4.0   -0.05    4.23    4.05    16.07779    66.06293   -11.60670
   374  C   4.0   -0.07    4.19    3.98    16.84691    62.35529   -14.41294
   375  C   4.0   -0.09    4.04    3.69    18.84246    66.41253   -10.99821
   376  H   1.0    0.10    1.03    1.43    11.55567    59.33551   -13.37548
   377  H   1.0    0.05    1.07    1.44    11.53867    64.38296   -11.34214
   378  H   1.0    0.03    1.06    1.44    15.92094    62.17009   -10.50877
   379  H   1.0    0.04    1.03    1.43    15.64126    67.19677   -13.26966
   380  H   1.0    0.04    1.04    1.43    14.97986    66.72433    -9.99476
   381  H   1.0    0.03    1.01    1.43    18.86513    62.56127   -14.05956
   382  H   1.0    0.05    1.00    1.43    16.38581    60.37107   -14.71152
   383  H   1.0    0.05    1.01    1.43    16.30645    63.45889   -16.06645
   384  H   1.0    0.03    1.00    1.43    19.20340    68.40808   -10.63727
   385  H   1.0    0.03    1.00    1.43    19.30733    65.30137    -9.32580
   386  H   1.0    0.03    1.00    1.43    19.96873    65.77380   -12.60069
   387  N   5.0   -0.14    3.53    2.10    11.37615    66.19332   -15.60158
   388  C   4.0    0.03    4.54    4.59    10.59758    67.14007   -18.03177
   389  C   4.0    0.14    3.48    3.11    11.85803    69.69687   -18.44750
   390  O   6.0   -0.32    1.27    1.80    11.83535    71.33338   -16.77321
   391  C   4.0   -0.02    4.39    4.36     7.71197    67.39141   -18.15460
   392  C   4.0   -0.05    4.26    4.11     6.91262    68.83138   -20.51109
   393  C   4.0   -0.07    4.20    4.01     6.72364    68.71610   -15.84346
   394  C   4.0   -0.08    4.04    3.70     4.08748    68.89752   -20.83612
   395  H   1.0    0.10    1.08    1.44    11.51788    67.54258   -14.23342
   396  H   1.0    0.05    1.07    1.44    11.22497    65.87018   -19.52843
   397  H   1.0    0.04    1.06    1.44     6.92207    65.49034   -18.23397
   398  H   1.0    0.06    1.04    1.43     7.58725    70.77213   -20.37503
   399  H   1.0    0.05    1.03    1.43     7.72709    67.91675   -22.16838
   400  H   1.0    0.03    1.01    1.43     4.67329    68.86728   -15.98141
   401  H   1.0    0.06    1.01    1.43     7.23576    67.62384   -14.17483
   402  H   1.0    0.06    1.01    1.43     7.56079    70.59449   -15.73764
   403  H   1.0    0.04    1.00    1.43     3.63394    69.94821   -22.54821
   404  H   1.0    0.04    1.00    1.43     3.38450    66.96811   -20.99108
   405  H   1.0    0.03    1.01    1.43     3.24655    69.82348   -19.19962
   406  N   5.0   -0.14    3.47    2.06    13.07123    69.97277   -20.62825
   407  C   4.0    0.03    4.44    4.44    14.14838    72.37839   -21.37091
   408  C   4.0    0.15    3.46    3.10    12.01299    74.09049   -22.24018
   409  O   6.0   -0.30    1.25    1.80    10.60325    73.41018   -23.95417
   410  C   4.0   -0.05    4.38    4.35    15.98708    71.97210   -23.55732
   411  C   4.0   -0.02    4.18    3.97    18.05444    73.94309   -24.02598
   412  C   4.0   -0.07    4.10    3.80    19.16371    73.62750   -26.66403
   413  C   4.0   -0.06    4.18    3.95    17.07556    76.60949   -23.63480
   414  H   1.0    0.07    1.06    1.44    13.33391    68.56115   -21.91326
   415  H   1.0    0.05    1.06    1.44    15.14237    73.23822   -19.78543
   416  H   1.0    0.04    1.04    1.43    16.95084    70.18064   -23.23040
   417  H   1.0    0.05    1.04    1.43    14.87592    71.86817   -25.28831
   418  H   1.0    0.05    1.06    1.44    19.56244    73.64829   -22.65403
   419  H   1.0    0.06    1.00    1.43    20.62636    75.04858   -26.95127
   420  H   1.0    0.05    1.00    1.43    19.97440    71.74156   -26.82844
   421  H   1.0    0.05    1.00    1.43    17.66516    73.87128   -28.05487
   422  H   1.0    0.07    1.02    1.43    18.60435    77.94364   -23.98629
   423  H   1.0    0.05    1.01    1.43    15.52599    76.95531   -24.94816
   424  H   1.0    0.05    1.01    1.43    16.40849    76.80035   -21.69594
   425  N   5.0   -0.15    3.50    2.08    11.77299    76.31091   -21.07611
   426  C   4.0    0.04    4.40    4.37     9.83602    78.11938   -21.87358
   427  C   4.0    0.14    3.41    3.08    10.83002    80.05257   -23.76141
   428  O   6.0   -0.30    1.24    1.80     9.42595    80.84437   -25.43004
   429  C   4.0   -0.05    4.36    4.30     8.63416    79.48376   -19.61913
   430  C   4.0   -0.02    4.19    3.98     7.27544    77.96253   -17.57067
   431  C   4.0   -0.08    4.13    3.86     7.22631    79.51022   -15.17639
   432  C   4.0   -0.08    4.09    3.79     4.60715    77.16318   -18.30955
   433  H   1.0    0.13    1.26    1.48    12.86714    76.90429   -19.60402
   434  H   1.0    0.06    1.07    1.44     8.32235    77.05169   -22.77687
   435  H   1.0    0.05    1.04    1.43    10.13649    80.51933   -18.66293
   436  H   1.0    0.04    1.04    1.43     7.24143    80.79901   -20.37503
   437  H   1.0    0.05    1.06    1.44     8.30912    76.20509   -17.27776
   438  H   1.0    0.03    1.00    1.43     6.26066    78.44063   -13.70618
   439  H   1.0    0.04    1.00    1.43     9.16139    79.91084   -14.59624
   440  H   1.0    0.03    1.00    1.43     6.22287    81.27144   -15.53733
   441  H   1.0    0.03    1.00    1.43     3.77378    76.09548   -16.75809
   442  H   1.0    0.04    1.00    1.43     3.48276    78.84693   -18.68750
   443  H   1.0    0.04    1.00    1.43     4.70164    75.98966   -19.99897
   444  N   5.0   -0.14    3.44    2.04    13.21674    80.82358   -23.51764
   445  C   4.0    0.03    4.32    4.24    14.18617    82.87204   -25.11824
   446  C   4.0    0.14    3.34    3.06    17.08312    83.25566   -25.07099
   447  O   6.0   -0.31    1.26    1.80    18.44561    81.93852   -23.70472
   448  C   4.0   -0.06    4.12    3.85    12.82935    85.33813   -24.43983
   449  H   1.0    0.09    1.07    1.44    14.48853    80.09225   -22.26853
   450  H   1.0    0.05    1.06    1.44    13.84224    82.23898   -27.04765
   451  H   1.0    0.05    1.00    1.43    13.55500    86.85180   -25.63224
   452  H   1.0    0.05    1.00    1.43    10.80734    85.10003   -24.75730
   453  H   1.0    0.04    1.00    1.43    13.18273    85.77466   -22.45750
   454  N   5.0   -0.14    3.42    2.03    17.98641    85.07924   -26.57900
   455  C   4.0    0.04    4.35    4.29    20.56778    86.15261   -26.34089
   456  C   4.0    0.25    3.19    3.03    20.60368    89.01176   -25.91192
   457  O   6.0   -0.28    1.22    1.80    22.10979    90.36103   -27.07032
   458  C   4.0   -0.02    4.33    4.26    22.18160    85.52333   -28.66714
   459  C   4.0    0.16    3.24    3.04    22.21940    82.72275   -29.23973
   460  O   6.0   -0.27    1.20    1.80    23.90881    81.34892   -28.41392
   461  N   5.0   -0.18    3.19    1.95    20.29377    81.83836   -30.57577
   462  O   6.0   -0.28    1.21    1.80    19.12214    89.97930   -24.40203
   463  H   1.0    0.07    1.05    1.44    16.97352    85.87671   -28.01141
   464  H   1.0    0.07    1.06    1.44    21.40493    85.27955   -24.67415
   465  H   1.0    0.05    1.03    1.43    21.41060    86.50221   -30.30742
   466  H   1.0    0.07    1.03    1.43    24.11857    86.13371   -28.32888
   467  H   1.0    0.10    1.02    1.43    20.21062    79.96564   -31.02363
   468  H   1.0    0.08    1.03    1.43    18.89537    83.03078   -31.15591
   469  N   5.0   -0.20    3.22    1.96     8.69311    98.71477   -24.95383
   470  C   4.0    0.03    4.23    4.07     9.83551    98.72408   -22.44805
   471  C   4.0    0.08    3.19    3.03    11.70002   100.85013   -21.86602
   472  O   6.0   -0.28    1.12    1.80    12.95088   101.87344   -23.54032
   473  C   4.0   -0.03    4.51    4.56    10.99912    96.17952   -21.83956
   474  C   4.0   -0.04    4.12    3.84    12.25826    94.92081   -24.02976
   475  S   6.0   -0.02    2.60    3.10    13.35446    91.93365   -22.85624
   476  C   4.0   -0.06    3.95    3.54    14.60352    92.88827   -19.82134
   477  H   1.0    0.09    1.02    1.43     9.87570    99.22516   -26.38813
   478  H   1.0    0.05    1.07    1.44     8.26928    99.14651   -21.17816
   479  H   1.0    0.05    1.09    1.44    12.41932    96.44086   -20.36936
   480  H   1.0    0.04    1.06    1.44     9.51257    94.92194   -21.16682
   481  H   1.0    0.04    1.07    1.44    10.91910    94.62115   -25.56610
   482  H   1.0    0.06    1.07    1.44    13.85465    96.04105   -24.69494
   483  H   1.0    0.05    1.04    1.43    15.35813    91.23353   -18.85569
   484  H   1.0    0.05    1.04    1.43    16.10029    94.27177   -20.11802
   485  H   1.0    0.04    1.06    1.44    13.08797    93.72182   -18.70451
   486  N   5.0   -0.20    3.19    1.95    16.61968   103.70140   -15.17450
   487  C   4.0    0.03    4.21    4.02    17.94394   102.76832   -12.94462
   488  C   4.0    0.08    3.23    3.04    19.77822   104.73508   -11.89771
   489  O   6.0   -0.29    1.12    1.80    21.64402   105.41516   -13.12604
   490  C   4.0   -0.04    4.29    4.17    19.34858   100.31273   -13.57579
   491  C   4.0   -0.04    4.21    4.01    20.91998    99.25394   -11.43284
   492  C   4.0   -0.04    4.17    3.94    23.41654    98.14231   -12.36448
   493  C   4.0   -0.03    4.13    3.86    24.78299    96.78844   -10.21397
   494  N   5.0   -0.11    3.99    2.84    27.48291    96.22409   -10.75821
   495  H   1.0    0.10    1.03    1.43    17.35480   105.31942   -15.92094
   496  H   1.0    0.05    1.06    1.44    16.55878   102.37446   -11.47064
   497  H   1.0    0.04    1.03    1.43    17.96313    98.88004   -14.09547
   498  H   1.0    0.05    1.04    1.43    20.61810   100.67255   -15.15749
   499  H   1.0    0.05    1.04    1.43    21.34760   100.76206   -10.09681
   500  H   1.0    0.05    1.03    1.43    19.86180    97.75708   -10.49176
   501  H   1.0    0.06    1.03    1.43    23.04944    96.78260   -13.86681
   502  H   1.0    0.05    1.03    1.43    24.62701    99.65509   -13.06368
   503  H   1.0    0.04    1.03    1.43    24.71745    97.97910    -8.53400
   504  H   1.0    0.06    1.02    1.43    23.83041    94.99905    -9.84736
   505  H   1.0    0.06    1.01    1.43    28.29918    95.30538    -9.22564
   506  H   1.0    0.07    1.02    1.43    27.62166    95.06914   -12.34180
   507  H   1.0    0.05    1.01    1.43    28.46298    97.89405   -11.09836
   508  N   5.0   -0.14    3.45    2.04    30.34209   102.21715    -5.85815
   509  C   4.0    0.03    4.36    4.32    31.77729   103.58255    -3.93063
   510  C   4.0    0.07    3.19    3.03    33.94589   105.11389    -5.10226
   511  O   6.0   -0.28    1.13    1.80    34.29676   105.06553    -7.41151
   512  C   4.0   -0.04    4.33    4.26    32.79792   101.45950    -2.26200
   513  C   4.0   -0.04    4.29    4.17    32.96108    99.19270    -4.00055
   514  C   4.0   -0.00    4.22    4.04    31.29072    99.62921    -6.25310
   515  H   1.0    0.04    1.05    1.44    30.57123   104.81736    -2.80624
   516  H   1.0    0.04    1.03    1.43    34.65534   101.96891    -1.53257
   517  H   1.0    0.06    1.03    1.43    31.50190   101.10402    -0.70109
   518  H   1.0    0.04    1.03    1.43    34.91486    98.95693    -4.60715
   519  H   1.0    0.04    1.03    1.43    32.33684    97.51869    -2.97443
   520  H   1.0    0.05    1.02    1.43    32.37089    99.50440    -8.00110
   521  H   1.0    0.04    1.02    1.43    29.73708    98.27616    -6.28712
   522  N   5.0   -0.19    3.23    1.96    -1.28949    90.66014   -11.88827
   523  C   4.0    0.03    4.33    4.26     0.33656    89.59362    -9.95697
   524  C   4.0    0.15    3.45    3.09     2.26136    91.60392    -9.19730
   525  O   6.0   -0.32    1.29    1.80     3.67051    92.55714   -10.78845
   526  C   4.0   -0.05    4.43    4.43     1.74486    87.31690   -11.02466
   527  C   4.0   -0.03    4.21    4.01     2.12873    85.06842    -9.29745
   528  C   4.0   -0.08    4.13    3.87    -0.38292    84.35804    -8.05590
   529  C   4.0   -0.08    4.14    3.88     3.11543    82.93233   -10.89427
   530  H   1.0    0.10    1.04    1.43    -0.74605    90.26690   -13.69484
   531  H   1.0    0.03    1.07    1.44    -0.77801    89.02213    -8.32235
   532  H   1.0    0.04    1.05    1.44     0.69428    86.63834   -12.66116
   533  H   1.0    0.05    1.05    1.44     3.61766    87.95083   -11.60292
   534  H   1.0    0.05    1.06    1.44     3.46786    85.48153    -7.78756
   535  H   1.0    0.04    1.00    1.43    -0.08506    82.73853    -6.81813
   536  H   1.0    0.04    1.01    1.43    -1.06676    85.96200    -6.96175
   537  H   1.0    0.04    1.00    1.43    -1.74425    83.87757    -9.52422
   538  H   1.0    0.04    1.00    1.43     3.41179    81.28141    -9.69807
   539  H   1.0    0.03    1.00    1.43     1.73608    82.49819   -12.36070
   540  H   1.0    0.03    1.00    1.43     4.89709    83.50492   -11.75410
   541  N   5.0   -0.14    3.49    2.07     2.30678    92.30004    -6.79356
   542  C   4.0    0.04    4.59    4.65     4.46893    93.69892    -5.84303
   543  C   4.0    0.14    3.57    3.15     6.22979    91.78285    -4.72620
   544  O   6.0   -0.31    1.26    1.80     5.41839    89.71493    -3.99299
   545  C   4.0   -0.03    4.40    4.39     3.77564    95.53090    -3.73221
   546  C   4.0   -0.05    4.22    4.04     2.44237    97.85531    -4.80557
   547  C   4.0   -0.07    4.25    4.09     6.15211    96.27889    -2.29413
   548  C   4.0   -0.08    4.03    3.68     0.09006    98.52434    -3.40151
   549  H   1.0    0.07    1.05    1.44     0.92244    91.93501    -5.50288
   550  H   1.0    0.06    1.07    1.44     5.30219    94.75388    -7.40395
   551  H   1.0    0.04    1.07    1.44     2.47162    94.60346    -2.43397
   552  H   1.0    0.04    1.04    1.43     3.72320    99.46544    -4.70542
   553  H   1.0    0.04    1.05    1.44     1.92953    97.48503    -6.76522
   554  H   1.0    0.04    1.00    1.43     5.63999    97.58921    -0.78991
   555  H   1.0    0.05    1.05    1.44     7.01049    94.58804    -1.49099
   556  H   1.0    0.06    1.01    1.43     7.46678    97.18411    -3.59615
   557  H   1.0    0.04    1.00    1.43    -0.75673   100.19133    -4.26700
   558  H   1.0    0.04    1.00    1.43    -1.22275    96.93938    -3.49788
   559  H   1.0    0.04    1.00    1.43     0.57092    98.91980    -1.43808
   560  N   5.0   -0.14    3.61    2.16     8.62523    92.48287    -4.55046
   561  C   4.0    0.04    4.47    4.49    10.51929    90.81609    -3.47899
   562  C   4.0    0.15    3.52    3.12    12.74030    92.41916    -2.69853
   563  O   6.0   -0.33    1.42    1.80    12.97865    94.58391    -3.52434
   564  C   4.0   -0.03    4.36    4.31    11.38429    88.90213    -5.44808
   565  C   4.0   -0.01    3.60    3.16    12.98255    90.07583    -7.48709
   566  C   4.0   -0.04    3.48    3.11    15.58996    90.17815    -7.25466
   567  C   4.0   -0.03    3.47    3.10    11.87381    91.14207    -9.62437
   568  C   4.0   -0.03    3.43    3.09    17.06479    91.27840    -9.11037
   569  C   4.0   -0.05    3.43    3.09    13.33057    92.24716   -11.50465
   570  C   4.0    0.07    3.45    3.10    15.92647    92.30138   -11.23442
   571  O   6.0   -0.24    2.10    1.84    17.39621    93.38778   -13.08257
   572  H   1.0    0.11    1.11    1.45     9.30933    94.18926    -5.13250
   573  H   1.0    0.07    1.06    1.44     9.76375    89.83437    -1.83303
   574  H   1.0    0.05    1.03    1.43    12.50392    87.44286    -4.52022
   575  H   1.0    0.05    1.04    1.43     9.72970    88.06032    -6.33814
   576  H   1.0    0.05    1.03    1.43    16.48324    89.38682    -5.59926
   577  H   1.0    0.06    1.03    1.43     9.84223    91.10818    -9.82091
   578  H   1.0    0.06    1.03    1.43    19.09390    91.33923    -8.90439
   579  H   1.0    0.05    1.03    1.43    12.44565    93.05422   -13.15816
   580  H   1.0    0.11    1.03    1.43    16.32456    94.01938   -14.45451
   581  N   5.0   -0.13    3.43    2.04    14.40406    91.35913    -1.16029
   582  C   4.0    0.02    4.31    4.21    16.64013    92.73959    -0.39495
   583  C   4.0    0.14    3.38    3.07    17.44553    91.73388     2.12216
   584  O   6.0   -0.32    1.42    1.80    16.07690    90.26071     3.26356
   585  H   1.0    0.10    1.07    1.44    14.25586    89.58247    -0.42897
   586  H   1.0    0.04    1.03    1.43    18.15644    92.47163    -1.76311
   587  H   1.0    0.05    1.04    1.43    16.22731    94.75096    -0.23622
   588  N   5.0   -0.14    3.46    2.05    19.68262    92.46249     2.97821
   589  C   4.0    0.04    4.35    4.28    20.60950    91.54873     5.40651
   590  C   4.0    0.08    3.24    3.04    21.91775    93.63293     6.87671
   591  O   6.0   -0.29    1.15    1.80    23.21752    95.25181     5.79579
   592  C   4.0   -0.04    4.28    4.17    22.49453    89.38359     5.09848
   593  C   4.0   -0.03    4.27    4.15    24.66120    90.03008     3.32970
   594  C   4.0    0.15    3.23    3.04    27.20997    89.24754     4.34826
   595  O   6.0   -0.24    1.22    1.80    28.58771    90.78052     5.42351
   596  N   5.0   -0.18    3.17    1.95    27.86970    86.84630     3.98921
   597  H   1.0    0.10    1.06    1.44    20.87645    93.66017     2.05413
   598  H   1.0    0.05    1.07    1.44    18.96781    90.91512     6.47798
   599  H   1.0    0.05    1.04    1.43    23.29258    88.92351     6.94096
   600  H   1.0    0.05    1.03    1.43    21.51174    87.74478     4.32747
   601  H   1.0    0.05    1.04    1.43    24.37135    89.06192     1.53446
   602  H   1.0    0.07    1.05    1.44    24.69549    92.06829     3.03301
   603  H   1.0    0.08    1.03    1.43    26.67518    85.64604     3.06891
   604  H   1.0    0.10    1.02    1.43    29.57003    86.20671     4.63550
   605  N   5.0   -0.19    3.23    1.96    16.18288    86.25234    10.95852
   606  C   4.0    0.04    4.37    4.33    14.95436    86.63409     8.55290
   607  C   4.0    0.15    3.44    3.09    12.85436    88.54419     8.81179
   608  O   6.0   -0.29    1.24    1.80    11.43358    88.51818    10.65239
   609  C   4.0   -0.02    4.35    4.30    13.81823    84.16485     7.61938
   610  C   4.0    0.15    3.23    3.04    15.59084    82.71598     5.91862
   611  O   6.0   -0.29    1.21    1.80    17.81122    82.35482     6.52900
   612  N   5.0   -0.17    3.17    1.95    14.61675    81.86337     3.76055
   613  H   1.0    0.09    1.03    1.43    15.40891    84.83011    12.00354
   614  H   1.0    0.05    1.06    1.44    16.33634    87.32069     7.18852
   615  H   1.0    0.06    1.04    1.43    13.37326    82.97402     9.24076
   616  H   1.0    0.05    1.04    1.43    12.10299    84.57326     6.55357
   617  H   1.0    0.11    1.02    1.43    15.72024    80.87047     2.53034
   618  H   1.0    0.09    1.03    1.43    12.76680    82.20274     3.33726
   619  N   5.0   -0.14    3.57    2.13    12.66773    90.18646     6.92963
   620  C   4.0    0.04    4.50    4.53    10.60944    91.99409     6.72176
   621  C   4.0    0.14    3.53    3.13     9.11064    91.43424     4.32180
   622  O   6.0   -0.30    1.28    1.80    10.15034    90.50270     2.45097
   623  C   4.0   -0.02    4.28    4.16    11.63450    94.71997     6.56869
   624  C   4.0   -0.07    4.17    3.94    14.32797    94.81306     7.56079
   625  C   4.0   -0.07    4.18    3.96    11.54548    95.70941     3.84370
   626  H   1.0    0.12    1.16    1.46    13.94205    90.31121     5.48965
   627  H   1.0    0.06    1.06    1.44     9.37041    91.78934     8.35448
   628  H   1.0    0.04    1.05    1.44    10.44726    95.93728     7.73087
   629  H   1.0    0.04    1.00    1.43    15.02113    96.74943     7.43796
   630  H   1.0    0.05    1.00    1.43    14.34202    94.18401     9.52233
   631  H   1.0    0.06    1.02    1.43    15.50735    93.57157     6.41562
   632  H   1.0    0.04    1.00    1.43    12.28088    97.63308     3.80402
   633  H   1.0    0.06    1.00    1.43    12.70060    94.49102     2.64940
   634  H   1.0    0.05    1.02    1.43     9.59259    95.69041     3.18608
   635  N   5.0   -0.14    3.37    2.01     6.67325    91.99742     4.36716
   636  C   4.0    0.02    4.21    4.01     5.20201    91.88117     2.07114
   637  C   4.0    0.08    3.13    3.03     2.70874    90.56825     2.43964
   638  O   6.0   -0.29    1.13    1.80     1.53101    90.80912     4.42763
   639  H   1.0    0.09    1.05    1.44     5.68971    92.52934     5.93752
   640  H   1.0    0.04    1.04    1.43     4.83486    93.79454     1.40218
   641  H   1.0    0.06    1.04    1.44     6.26484    90.86043     0.63306
   642  N   5.0   -0.22    3.18    1.95    36.24928    99.53315     3.81914
   643  C   4.0    0.03    4.28    4.16    35.07085    97.03512     3.66418
   644  C   4.0    0.14    3.36    3.07    32.22396    96.91674     4.35582
   645  O   6.0   -0.24    1.33    1.80    31.22909    94.88691     4.96998
   646  C   4.0   -0.03    4.31    4.22    36.62497    95.12189     5.22320
   647  C   4.0    0.17    3.29    3.05    35.46439    92.50979     5.24210
   648  O   6.0   -0.25    1.24    1.80    34.18334    91.79200     7.03923
   649  N   5.0   -0.18    3.18    1.95    35.85675    91.09322     3.21820
   650  H   1.0    0.08    1.03    1.43    35.34610   100.75735     5.00210
   651  H   1.0    0.04    1.06    1.44    35.13525    96.47005     1.68375
   652  H   1.0    0.04    1.03    1.43    38.51344    94.97278     4.41440
   653  H   1.0    0.05    1.03    1.43    36.74204    95.78082     7.17151
   654  H   1.0    0.10    1.02    1.43    35.11765    89.31580     3.12939
   655  H   1.0    0.08    1.03    1.43    36.89838    91.77971     1.74800
   656  N   5.0   -0.13    3.45    2.05    30.92518    99.07558     4.24243
   657  C   4.0    0.04    4.45    4.46    28.20607    99.21208     4.82636
   658  C   4.0    0.13    3.47    3.10    26.90554   100.55382     2.64940
   659  O   6.0   -0.32    1.28    1.80    28.07368   102.15126     1.40974
   660  C   4.0    0.05    4.22    4.05    27.69735   100.70548     7.29056
   661  O   6.0   -0.24    2.09    1.84    28.89290    99.46242     9.36926
   662  C   4.0   -0.06    4.11    3.82    24.90136   100.89578     7.82158
   663  H   1.0    0.08    1.06    1.44    31.69793   100.77205     3.75111
   664  H   1.0    0.08    1.06    1.44    27.43610    97.31428     5.05691
   665  H   1.0    0.04    1.04    1.43    28.44995   102.61071     7.07891
   666  H   1.0    0.12    1.01    1.43    30.68990    99.90640     9.42406
   667  H   1.0    0.05    1.00    1.43    24.58397   101.95196     9.56201
   668  H   1.0    0.05    1.01    1.43    23.95432   101.86336     6.27011
   669  H   1.0    0.07    1.00    1.43    24.09241    99.01258     8.02756
   670  N   5.0   -0.14    3.49    2.07    24.50737    99.94169     2.18830
   671  C   4.0    0.04    4.44    4.45    23.23457   100.79320    -0.11527
   672  C   4.0    0.14    3.48    3.11    20.60506    99.70492    -0.27779
   673  O   6.0   -0.31    1.28    1.80    19.87071    98.22919     1.33982
   674  C   4.0   -0.03    4.39    4.37    24.68442    99.86934    -2.43397
   675  C   4.0   -0.01    3.59    3.16    24.82019    97.01503    -2.58703
   676  C   4.0   -0.04    3.48    3.11    22.89683    95.62964    -3.73221
   677  C   4.0   -0.03    3.47    3.10    26.85025    95.70607    -1.53068
   678  C   4.0   -0.04    3.42    3.09    23.01035    93.03306    -3.84748
   679  C   4.0   -0.04    3.44    3.09    26.97548    93.11189    -1.62705
   680  C   4.0    0.07    3.45    3.10    25.05940    91.77434    -2.78735
   681  O   6.0   -0.24    2.10    1.84    25.18118    89.16725    -2.87805
   682  H   1.0    0.11    1.08    1.44    23.40743    98.87241     3.35615
   683  H   1.0    0.05    1.05    1.44    23.14665   102.85032    -0.08504
   684  H   1.0    0.04    1.03    1.43    23.74075   100.55520    -4.13283
   685  H   1.0    0.06    1.04    1.43    26.61001   100.59704    -2.35460
   686  H   1.0    0.05    1.03    1.43    21.29744    96.60462    -4.53912
   687  H   1.0    0.06    1.03    1.43    28.34971    96.74854    -0.62172
   688  H   1.0    0.06    1.03    1.43    21.51750    91.97914    -4.75644
   689  H   1.0    0.06    1.03    1.43    28.56014    92.12840    -0.80124
   690  H   1.0    0.12    1.02    1.43    26.73291    88.57716    -2.05602
   691  N   5.0   -0.15    3.48    2.06    19.24936   100.32964    -2.30547
   692  C   4.0    0.04    4.44    4.45    16.80232    99.16341    -2.84971
   693  C   4.0    0.14    3.51    3.12    15.86129    99.83334    -5.45186
   694  O   6.0   -0.31    1.27    1.80    16.70683   101.65694    -6.59703
   695  C   4.0   -0.03    4.32    4.24    14.82480    99.99210    -0.95053
   696  C   4.0   -0.01    3.69    3.23    13.78757   102.63144    -1.35682
   697  C   4.0   -0.01    3.57    3.15    14.44181   104.77883    -0.05480
   698  C   4.0    0.01    3.89    3.45    11.80907   103.36355    -3.06136
   699  N   5.0   -0.12    3.47    2.06    13.01685   106.79718    -0.87872
   700  C   4.0    0.03    3.89    3.45    11.38561   105.97539    -2.71365
   701  C   4.0   -0.04    3.45    3.10    10.35691   102.06909    -4.83392
   702  C   4.0   -0.05    3.40    3.08     9.57206   107.30243    -4.08181
   703  C   4.0   -0.04    3.38    3.07     8.57149   103.39273    -6.19074
   704  C   4.0   -0.05    3.38    3.07     8.18657   105.98318    -5.80713
   705  H   1.0    0.09    1.07    1.44    19.79552   101.63999    -3.60938
   706  H   1.0    0.05    1.07    1.44    17.09572    97.12455    -2.80246
   707  H   1.0    0.05    1.03    1.43    13.23722    98.68273    -1.04880
   708  H   1.0    0.05    1.04    1.43    15.66345    99.94169     0.92975
   709  H   1.0    0.05    1.01    1.43    15.86698   104.87284     1.40407
   710  H   1.0    0.07    1.04    1.43    13.15459   108.60708    -0.22866
   711  H   1.0    0.07    1.07    1.44    10.62341   100.06926    -5.13816
   712  H   1.0    0.05    1.03    1.43     9.27439   109.29954    -3.78701
   713  H   1.0    0.05    1.03    1.43     7.44515   102.41076    -7.57969
   714  H   1.0    0.04    1.03    1.43     6.76346   106.95521    -6.89939
   715  N   5.0   -0.14    3.49    2.07    14.04271    98.39497    -6.37216
   716  C   4.0    0.01    4.32    4.23    13.33298    98.65292    -8.99132
   717  C   4.0    0.14    3.36    3.07    10.68932    97.74413    -9.53367
   718  O   6.0   -0.32    1.30    1.80     9.35344    96.81138    -7.85370
   719  H   1.0    0.12    1.15    1.45    13.05617    97.07258    -5.37438
   720  H   1.0    0.05    1.04    1.43    13.45096   100.63689    -9.53178
   721  H   1.0    0.05    1.03    1.43    14.63709    97.56200   -10.15539
   722  N   5.0   -0.15    3.47    2.06     9.93276    97.99250   -11.90527
   723  C   4.0    0.04    4.57    4.63     7.34297    97.51194   -12.55723
   724  C   4.0    0.14    3.49    3.11     7.07861    96.55631   -15.24064
   725  O   6.0   -0.33    1.27    1.80     8.51920    97.23966   -16.91872
   726  C   4.0   -0.02    4.38    4.35     5.69624    99.85394   -12.13960
   727  C   4.0   -0.05    4.22    4.05     2.97749    99.06763   -11.60670
   728  C   4.0   -0.07    4.19    3.97     5.80384   101.58753   -14.41294
   729  C   4.0   -0.08    4.04    3.69     1.29239   101.28711   -10.99821
   730  H   1.0    0.08    1.06    1.44    11.06466    98.51508   -13.37548
   731  H   1.0    0.06    1.08    1.44     6.70194    95.97662   -11.34214
   732  H   1.0    0.04    1.07    1.44     6.42720   100.87822   -10.50877
   733  H   1.0    0.05    1.03    1.43     2.21382    98.12267   -13.26966
   734  H   1.0    0.05    1.04    1.43     2.95366    97.78609    -9.99476
   735  H   1.0    0.04    1.01    1.43     4.61634   103.23238   -14.05956
   736  H   1.0    0.05    1.00    1.43     7.75276   102.18032   -14.71152
   737  H   1.0    0.05    1.01    1.43     5.11832   100.56768   -16.06645
   738  H   1.0    0.04    1.00    1.43    -0.61628   100.60191   -10.63727
   739  H   1.0    0.03    1.00    1.43     2.02225   102.24528    -9.32580
   740  H   1.0    0.04    1.00    1.43     1.28241   102.58185   -12.60069
   741  N   5.0   -0.14    3.53    2.10     5.21538    94.93070   -15.60158
   742  C   4.0    0.03    4.44    4.45     4.78475    93.78306   -18.03177
   743  C   4.0    0.06    3.27    3.05     1.94028    93.59624   -18.44750
   744  O   6.0   -0.30    1.15    1.80     0.53436    92.75835   -16.77321
   745  C   4.0   -0.02    4.38    4.35     6.00990    91.15838   -18.15460
   746  C   4.0   -0.05    4.25    4.11     5.16252    89.74614   -20.51109
   747  C   4.0   -0.07    4.20    4.01     5.35684    89.64012   -15.84346
   748  C   4.0   -0.08    4.05    3.70     6.51782    87.26642   -20.83612
   749  H   1.0    0.11    1.08    1.44     3.97602    94.37881   -14.23342
   750  H   1.0    0.04    1.06    1.44     5.57082    94.96135   -19.52843
   751  H   1.0    0.04    1.06    1.44     8.05122    91.42484   -18.23397
   752  H   1.0    0.04    1.04    1.43     3.14447    89.36001   -20.37503
   753  H   1.0    0.04    1.03    1.43     5.54738    90.90880   -22.16838
   754  H   1.0    0.03    1.01    1.43     6.25109    87.78887   -15.98141
   755  H   1.0    0.06    1.01    1.43     6.04671    90.62976   -14.17483
   756  H   1.0    0.06    1.01    1.43     3.31153    89.42592   -15.73764
   757  H   1.0    0.04    1.00    1.43     5.83466    86.34831   -22.54821
   758  H   1.0    0.04    1.00    1.43     8.54022    87.62233   -20.99108
   759  H   1.0    0.03    1.01    1.43     6.13637    86.07518   -19.19962
   760  H   1.0    0.09    1.08    1.44    37.84443    99.37412     4.38726
   761  H   1.0    0.05    1.04    1.43     1.18655    94.15380   -20.08826
   762  H   1.0    0.09    1.07    1.44    26.61581    64.48230   -29.77303
   763  H   1.0    0.05    1.04    1.44    29.34550    57.71295   -20.08762
   764  H   1.0    0.09    1.07    1.44    31.22663    63.40552   -13.11287
   765  H   1.0    0.06    1.04    1.43    33.18086    67.05698   -19.16025
   766  H   1.0    0.10    1.08    1.44    31.96490    69.80369   -23.81947
   767  H   1.0    0.05    1.05    1.44     7.55775    65.09871    -4.56960
   768  H   1.0    0.08    1.07    1.44    26.55033    67.11014     5.76325
   769  H   1.0    0.05    1.04    1.44    33.03371    67.30968     2.93512
   770  H   1.0    0.09    1.08    1.44    25.51215    70.64107    12.25221
   771  H   1.0    0.05    1.04    1.43    15.60086    66.35316    18.20314
   772  H   1.0    0.10    1.07    1.44     6.45082    66.59617     4.69939
   773  H   1.0    0.06    1.05    1.44    39.69665    70.50476   -14.18294
   774  H   1.0    0.11    1.07    1.44    38.95204    70.08216    -9.12551
   775  H   1.0    0.05    1.04    1.44    34.80804    65.74391    -5.61906
   776  H   1.0    0.09    1.08    1.44    29.53188    62.97432    -3.92415
   777  H   1.0    0.05    1.04    1.44    26.27774    58.88033     1.57081
   778  H   1.0    0.09    1.09    1.44    12.72337    59.88281   -10.76553
   779  H   1.0    0.09    1.08    1.44     8.13340    97.15031   -25.31679
   780  H   1.0    0.05    1.04    1.44    11.92946   101.44499   -20.08710
   781  H   1.0    0.10    1.08    1.44    16.67171   102.52335   -16.40008
   782  H   1.0    0.06    1.04    1.43    19.47848   105.49374   -10.19311
   783  H   1.0    0.08    1.09    1.44    28.72050   102.72910    -5.82748
   784  H   1.0    0.05    1.04    1.43    35.07500   106.15081    -3.99728
   785  H   1.0    0.09    1.07    1.44    -2.86657    90.05120   -11.70237
   786  H   1.0    0.05    1.04    1.44    21.73949    93.71864     8.75606
   787  H   1.0    0.10    1.07    1.44    17.81890    85.86281    10.70502
   788  H   1.0    0.06    1.05    1.44     1.99642    89.48904     1.06161

  Z AO/shell   Hii/eV     exponent
  1     Wed Apr 25 08:07:45 CEST 2018   EN: 2.200 GM2: 0.406  GM3: 0.0800  RAES: 1.40
     1s    -10.707211    1.230000
  6     Wed Apr 25 08:07:45 CEST 2018   EN: 2.550 GM2: 0.538  GM3: 0.1500  RAES: 3.00
     2s    -13.970922    2.096432
     2p    -10.063292    1.800000
  7     Wed Apr 25 08:07:45 CEST 2018   EN: 3.040 GM2: 0.461  GM3:-0.0640  RAES: 1.90
     2s    -16.686243    2.339881
     2p    -12.523956    2.014332
  8     Wed Apr 25 08:07:45 CEST 2018   EN: 3.440 GM2: 0.452  GM3:-0.0517  RAES: 1.80
     2s    -20.229985    2.439742
     2p    -15.503117    2.137023
 16     Tue Apr 24 11:44:34 CEST 2018   EN: 2.580 GM2: 0.340  GM3:-0.0502  RAES: 3.10
     3s    -20.029654    1.981333
     3p    -11.377694    2.025643
     3d     -0.420282    1.702555
 no old-style atom pair restraining (fixing) potential

molecular fragmentation (1/2 indicates fragments):
111111111111111111111111111222222222222222222222222222222222222222222222
222222222222222222222222222222222222222222222222222222222222222222222222
222222222222222222222222222222222222222222222222222222222222222222222222
222222222222222222222222222222222222222222222222222222222222222222222222
222222222222222222222222222222222222222222222222222222222222222222222222
222222222222222222222222222222222222222222222222222222222222222222222222
222222222222222222222222222222222222222222222222222222222222222222222222
222222222222222222222222222222222222222222222222222222222222222222222222
222222222222222222222222222222222222222222222222222222222222222222222222
222222222222222222222222222222222222222222222222222222222222222222222222
22222222222222222222222222222222222222222112222222222222222222222222
# atoms in fragment 1/2:    29   759
 fragment masses (1/2) :      204.29     5100.18
CMA distance (Bohr)    :  25.528
constraining FC (au)   :  0.0500
           ------------------------------------------------- 
          |        Self-Consistent Charge Iterations        |
           ------------------------------------------------- 

 Ncao       : 1916
 Nao        : 1914
 Nshell     : 1162
 Nel        : 2098
 T(el)      :   500.0
 intcut     :    35.0
 scfconv/Eh :  0.100E-06
   qconv/e  :  0.100E-04
 intneglect :  0.100E-08
 broydamp   :      0.400
 iter      E             dE          RMSdq      gap      omega  full diag
   1  -1194.4227448 -0.119442E+04  0.453E+00    2.91       0.0  T
   2  -1197.4134519 -0.299071E+01  0.212E+00    1.27       1.0  T
   3  -1197.6032162 -0.189764E+00  0.122E+00    1.40       1.0  T
   4  -1197.7797359 -0.176520E+00  0.258E-01    0.85       1.0  T
   5  -1197.7916049 -0.118690E-01  0.128E-01    1.04       1.0  T
   6  -1197.7938675 -0.226257E-02  0.587E-02    1.03       1.0  T
   7  -1197.7946153 -0.747825E-03  0.262E-02    1.03       1.0  T
   8  -1197.7947747 -0.159418E-03  0.137E-02    1.03       1.0  T
   9  -1197.7948111 -0.364093E-04  0.597E-03    1.03       1.0  T
  10  -1197.7948180 -0.692780E-05  0.314E-03    1.04       1.1  T
  11  -1197.7948197 -0.171298E-05  0.155E-03    1.04       2.3  T
  12  -1197.7948203 -0.544353E-06  0.752E-04    1.04       4.7  T
  13  -1197.7948204 -0.108401E-06  0.331E-04    1.04      10.8  T
  14  -1197.7948204 -0.143061E-07  0.171E-04    1.04      20.9  T
  15  -1197.7948204 -0.591126E-08  0.648E-05    1.04      55.0  T
  16  -1197.7948204 -0.683031E-09  0.331E-05    1.04     107.8  T
speedup  1.28
cpu  time for SCC    2 m  1.5 s
wall time for SCC    1 m 34.6 s

   *** convergence criteria satisfied after 16 iterations ***

          eigenvalues
 #    :        1037       1038       1039       1040       1041       1042       1043       1044
 occ. :        2.000      2.000      2.000      2.000      2.000      2.000      2.000      2.000
 eps  :        -9.990     -9.917     -9.915     -9.819     -9.730     -9.696     -9.679     -9.657
 #    :        1045       1046       1047       1048       1049       1050       1051       1052
 occ. :        2.000      2.000      2.000      2.000      2.000      0.000      0.000      0.000
 eps  :        -9.622     -9.586     -9.575     -9.553     -9.150     -8.107     -8.097     -8.026
 #    :        1053       1054       1055       1056       1057       1058       1059       1060
 occ. :        0.000      0.000      0.000      0.000      0.000      0.000      0.000      0.000
 eps  :        -7.999     -7.998     -7.839     -7.826     -7.799     -7.788     -7.746     -7.693


   #   Z            q   n(s)   n(p)   n(d)      C6AA      α(0)
   1   7 N     -0.392  1.324  4.068  0.000    30.154     8.156
   2   6 C      0.039  1.055  2.906  0.000    19.920     6.353
   3   6 C      0.276  1.041  2.683  0.000    22.338     7.739
   4   8 O     -0.505  1.749  4.756  0.000    23.890     6.553
   5   6 C      0.021  1.063  2.916  0.000    20.216     6.402
   6  16 S     -0.352  1.879  4.426  0.047   156.451    21.052
   7   1 H      0.171  0.829  0.000  0.000     1.265     1.762
   8   1 H      0.043  0.957  0.000  0.000     2.408     2.427
   9   1 H      0.037  0.963  0.000  0.000     2.487     2.466
  10   1 H      0.048  0.952  0.000  0.000     2.349     2.397
  11   1 H      0.210  0.790  0.000  0.000     1.051     1.603
  12   7 N     -0.142  1.231  3.912  0.000    24.085     7.289
  13   6 C      0.018  1.061  2.921  0.000    20.277     6.412
  14   6 C      0.193  1.087  2.720  0.000    23.869     8.001
  15   8 O     -0.366  1.757  4.609  0.000    21.008     6.145
  16   6 C     -0.016  1.058  2.958  0.000    20.828     6.490
  17   6 C     -0.109  1.042  3.067  0.000    22.631     6.782
  18   6 C     -0.136  1.044  3.091  0.000    23.162     6.862
  19   1 H      0.224  0.776  0.000  0.000     0.991     1.560
  20   1 H      0.095  0.905  0.000  0.000     1.827     2.114
  21   1 H      0.055  0.945  0.000  0.000     2.262     2.352
  22   1 H      0.055  0.945  0.000  0.000     2.260     2.351
  23   1 H      0.041  0.959  0.000  0.000     2.429     2.437
  24   1 H      0.042  0.958  0.000  0.000     2.419     2.432
  25   1 H      0.062  0.938  0.000  0.000     2.177     2.307
  26   1 H      0.068  0.932  0.000  0.000     2.104     2.268
  27   1 H      0.047  0.953  0.000  0.000     2.363     2.404
  28   7 N     -0.424  1.336  4.087  0.000    31.037     8.274
  29   6 C      0.042  1.057  2.901  0.000    19.876     6.350
  30   6 C      0.196  1.095  2.709  0.000    23.815     7.992
  31   8 O     -0.375  1.756  4.619  0.000    21.193     6.172
  32   6 C     -0.007  1.058  2.949  0.000    20.661     6.464
  33   6 C     -0.059  1.048  3.012  0.000    21.637     6.622
  34   6 C     -0.094  1.036  3.059  0.000    22.356     6.741
  35   6 C     -0.117  1.041  3.076  0.000    22.795     6.809
  36   1 H      0.206  0.794  0.000  0.000     1.078     1.626
  37   1 H      0.033  0.967  0.000  0.000     2.543     2.494
  38   1 H      0.029  0.971  0.000  0.000     2.598     2.521
  39   1 H      0.053  0.947  0.000  0.000     2.285     2.364
  40   1 H      0.021  0.979  0.000  0.000     2.722     2.580
  41   1 H      0.021  0.979  0.000  0.000     2.711     2.575
  42   1 H      0.014  0.986  0.000  0.000     2.820     2.626
  43   1 H      0.049  0.951  0.000  0.000     2.338     2.391
  44   1 H      0.049  0.951  0.000  0.000     2.328     2.386
  45   1 H      0.036  0.964  0.000  0.000     2.510     2.477
  46   1 H      0.045  0.955  0.000  0.000     2.381     2.413
  47   7 N     -0.376  1.313  4.063  0.000    29.711     8.095
  48   6 C      0.031  1.056  2.913  0.000    20.067     6.380
  49   6 C      0.278  1.047  2.675  0.000    22.290     7.731
  50   8 O     -0.501  1.752  4.749  0.000    23.803     6.541
  51   6 C     -0.049  1.044  3.005  0.000    21.453     6.593
  52   6 C     -0.097  1.060  3.037  0.000    22.344     6.730
  53   6 C      0.282  1.041  2.677  0.000    22.230     7.720
  54   8 O     -0.515  1.768  4.748  0.000    24.130     6.586
  55   7 N     -0.285  1.268  4.017  0.000    27.363     7.769
  56   1 H      0.155  0.845  0.000  0.000     1.366     1.831
  57   1 H      0.052  0.948  0.000  0.000     2.301     2.372
  58   1 H      0.045  0.955  0.000  0.000     2.388     2.417
  59   1 H      0.033  0.967  0.000  0.000     2.542     2.493
  60   1 H      0.077  0.923  0.000  0.000     2.006     2.215
  61   1 H      0.063  0.937  0.000  0.000     2.161     2.299
  62   1 H      0.238  0.762  0.000  0.000     0.932     1.512
  63   1 H      0.238  0.762  0.000  0.000     0.930     1.510
  64   7 N     -0.173  1.247  3.926  0.000    24.750     7.389
  65   6 C      0.033  1.056  2.911  0.000    20.022     6.372
  66   6 C      0.281  1.037  2.683  0.000    22.249     7.724
  67   8 O     -0.488  1.757  4.730  0.000    23.513     6.501
  68   6 C     -0.105  1.062  3.044  0.000    22.504     6.753
  69   6 C      0.280  1.036  2.683  0.000    22.253     7.724
  70   8 O     -0.493  1.749  4.745  0.000    23.640     6.519
  71   7 N     -0.265  1.267  3.998  0.000    26.878     7.700
  72   1 H      0.217  0.783  0.000  0.000     1.021     1.583
  73   1 H      0.072  0.928  0.000  0.000     2.067     2.248
  74   1 H      0.075  0.925  0.000  0.000     2.027     2.227
  75   1 H      0.074  0.926  0.000  0.000     2.046     2.237
  76   1 H      0.260  0.740  0.000  0.000     0.847     1.442
  77   1 H      0.235  0.765  0.000  0.000     0.943     1.521
  78   7 N     -0.170  1.239  3.930  0.000    24.674     7.377
  79   6 C     -0.012  1.039  2.973  0.000    20.847     6.511
  80   6 C      0.279  1.033  2.688  0.000    22.278     7.729
  81   8 O     -0.476  1.726  4.750  0.000    23.259     6.466
  82   1 H      0.223  0.777  0.000  0.000     0.997     1.564
  83   1 H      0.060  0.940  0.000  0.000     2.199     2.319
  84   1 H      0.084  0.916  0.000  0.000     1.940     2.178
  85   7 N     -0.174  1.242  3.932  0.000    24.767     7.391
  86   6 C      0.021  1.059  2.920  0.000    20.230     6.405
  87   6 C      0.264  1.050  2.687  0.000    22.552     7.776
  88   8 O     -0.492  1.726  4.766  0.000    23.587     6.512
  89   6 C     -0.068  1.053  3.016  0.000    21.797     6.646
  90   6 C     -0.016  1.055  2.961  0.000    20.830     6.491
  91   6 C     -0.124  1.043  3.081  0.000    22.933     6.828
  92   6 C     -0.119  1.045  3.074  0.000    22.842     6.815
  93   1 H      0.203  0.797  0.000  0.000     1.090     1.636
  94   1 H      0.077  0.923  0.000  0.000     2.012     2.218
  95   1 H      0.043  0.957  0.000  0.000     2.405     2.425
  96   1 H      0.047  0.953  0.000  0.000     2.356     2.400
  97   1 H      0.036  0.964  0.000  0.000     2.504     2.475
  98   1 H      0.063  0.937  0.000  0.000     2.165     2.301
  99   1 H      0.029  0.971  0.000  0.000     2.604     2.523
 100   1 H      0.037  0.963  0.000  0.000     2.486     2.466
 101   1 H      0.063  0.937  0.000  0.000     2.167     2.302
 102   1 H      0.039  0.961  0.000  0.000     2.457     2.451
 103   1 H      0.052  0.948  0.000  0.000     2.290     2.366
 104   7 N     -0.175  1.261  3.914  0.000    24.788     7.394
 105   6 C      0.023  1.053  2.923  0.000    20.183     6.396
 106   6 C      0.272  1.034  2.694  0.000    22.403     7.752
 107   8 O     -0.467  1.717  4.750  0.000    23.060     6.438
 108   6 C     -0.075  1.051  3.024  0.000    21.911     6.662
 109   6 C     -0.001  1.078  2.923  0.000    28.061     8.689
 110   6 C     -0.042  1.083  2.960  0.000    29.055     8.840
 111   6 C     -0.041  1.083  2.958  0.000    29.011     8.833
 112   6 C     -0.067  1.077  2.990  0.000    29.679     8.934
 113   6 C     -0.058  1.069  2.988  0.000    29.431     8.896
 114   6 C      0.149  1.047  2.803  0.000    24.755     8.155
 115   8 O     -0.450  1.716  4.734  0.000    21.851     6.310
 116   1 H      0.253  0.747  0.000  0.000     0.871     1.462
 117   1 H      0.076  0.924  0.000  0.000     2.020     2.223
 118   1 H      0.084  0.916  0.000  0.000     1.938     2.177
 119   1 H      0.064  0.936  0.000  0.000     2.150     2.293
 120   1 H      0.037  0.963  0.000  0.000     2.491     2.468
 121   1 H      0.044  0.956  0.000  0.000     2.390     2.417
 122   1 H      0.019  0.981  0.000  0.000     2.742     2.589
 123   1 H      0.042  0.958  0.000  0.000     2.424     2.435
 124   1 H      0.326  0.674  0.000  0.000     0.649     1.266
 125   7 N     -0.160  1.244  3.916  0.000    24.467     7.346
 126   6 C      0.014  1.060  2.926  0.000    20.333     6.420
 127   6 C      0.272  1.044  2.685  0.000    22.413     7.753
 128   8 O     -0.503  1.744  4.758  0.000    23.844     6.547
 129   6 C     -0.079  1.057  3.022  0.000    21.995     6.674
 130   6 C     -0.014  1.051  2.963  0.000    20.794     6.486
 131   6 C     -0.122  1.048  3.074  0.000    22.889     6.821
 132   6 C     -0.118  1.044  3.074  0.000    22.804     6.806
 133   1 H      0.214  0.786  0.000  0.000     1.038     1.596
 134   1 H      0.083  0.917  0.000  0.000     1.944     2.180
 135   1 H      0.057  0.943  0.000  0.000     2.239     2.340
 136   1 H      0.058  0.942  0.000  0.000     2.224     2.332
 137   1 H      0.031  0.969  0.000  0.000     2.576     2.510
 138   1 H      0.053  0.947  0.000  0.000     2.281     2.362
 139   1 H      0.040  0.960  0.000  0.000     2.450     2.448
 140   1 H      0.048  0.952  0.000  0.000     2.350     2.397
 141   1 H      0.053  0.947  0.000  0.000     2.289     2.366
 142   1 H      0.045  0.955  0.000  0.000     2.378     2.411
 143   1 H      0.039  0.961  0.000  0.000     2.467     2.456
 144   7 N     -0.170  1.245  3.925  0.000    24.681     7.378
 145   6 C      0.024  1.056  2.920  0.000    20.163     6.392
 146   6 C      0.197  1.087  2.716  0.000    23.798     7.991
 147   8 O     -0.380  1.753  4.627  0.000    21.282     6.185
 148   6 C     -0.026  1.065  2.961  0.000    20.997     6.516
 149   6 C     -0.071  1.049  3.022  0.000    21.845     6.653
 150   6 C     -0.136  1.048  3.087  0.000    23.161     6.862
 151   6 C     -0.113  1.038  3.075  0.000    22.721     6.797
 152   1 H      0.242  0.758  0.000  0.000     0.913     1.497
 153   1 H      0.090  0.910  0.000  0.000     1.881     2.145
 154   1 H      0.055  0.945  0.000  0.000     2.262     2.352
 155   1 H      0.055  0.945  0.000  0.000     2.260     2.351
 156   1 H      0.042  0.958  0.000  0.000     2.418     2.432
 157   1 H      0.069  0.931  0.000  0.000     2.099     2.266
 158   1 H      0.054  0.946  0.000  0.000     2.276     2.359
 159   1 H      0.062  0.938  0.000  0.000     2.170     2.304
 160   1 H      0.050  0.950  0.000  0.000     2.318     2.381
 161   1 H      0.037  0.963  0.000  0.000     2.484     2.465
 162   1 H      0.047  0.953  0.000  0.000     2.356     2.400
 163   7 N     -0.379  1.328  4.051  0.000    29.783     8.105
 164   6 C      0.032  1.053  2.914  0.000    20.048     6.378
 165   6 C      0.203  1.089  2.707  0.000    23.682     7.970
 166   8 O     -0.373  1.763  4.610  0.000    21.154     6.167
 167   6 C     -0.083  1.063  3.020  0.000    22.081     6.689
 168   6 C     -0.068  1.047  3.021  0.000    21.795     6.646
 169   6 C     -0.094  1.055  3.040  0.000    22.294     6.722
 170   6 C     -0.049  1.059  2.991  0.000    21.552     6.626
 171   7 N     -0.139  1.233  3.906  0.000    24.003     7.277
 172   1 H      0.160  0.840  0.000  0.000     1.335     1.810
 173   1 H      0.057  0.943  0.000  0.000     2.236     2.338
 174   1 H      0.060  0.940  0.000  0.000     2.198     2.318
 175   1 H      0.070  0.930  0.000  0.000     2.086     2.259
 176   1 H      0.034  0.966  0.000  0.000     2.525     2.485
 177   1 H      0.045  0.955  0.000  0.000     2.385     2.415
 178   1 H      0.074  0.926  0.000  0.000     2.040     2.233
 179   1 H      0.085  0.915  0.000  0.000     1.929     2.172
 180   1 H      0.108  0.892  0.000  0.000     1.710     2.045
 181   1 H      0.111  0.889  0.000  0.000     1.684     2.029
 182   1 H      0.298  0.702  0.000  0.000     0.721     1.330
 183   1 H      0.284  0.716  0.000  0.000     0.762     1.367
 184   1 H      0.299  0.701  0.000  0.000     0.718     1.327
 185   7 N     -0.396  1.322  4.074  0.000    30.259     8.170
 186   6 C      0.027  1.056  2.918  0.000    20.127     6.388
[...]
 502   1 H      0.075  0.925  0.000  0.000     2.035     2.231
 503   1 H      0.108  0.892  0.000  0.000     1.715     2.048
 504   1 H      0.106  0.894  0.000  0.000     1.733     2.059
 505   1 H      0.287  0.713  0.000  0.000     0.752     1.359
 506   1 H      0.285  0.715  0.000  0.000     0.761     1.367
 507   1 H      0.296  0.704  0.000  0.000     0.726     1.335
 508   7 N     -0.270  1.221  4.048  0.000    26.977     7.714
 509   6 C      0.023  1.062  2.915  0.000    20.184     6.396
 510   6 C      0.193  1.092  2.715  0.000    23.872     8.001
 511   8 O     -0.378  1.765  4.613  0.000    21.247     6.180
 512   6 C     -0.070  1.055  3.014  0.000    21.814     6.646
 513   6 C     -0.064  1.046  3.017  0.000    21.694     6.627
 514   6 C     -0.002  1.050  2.952  0.000    20.675     6.485
 515   1 H      0.066  0.934  0.000  0.000     2.133     2.284
 516   1 H      0.044  0.956  0.000  0.000     2.403     2.424
 517   1 H      0.064  0.936  0.000  0.000     2.151     2.293
 518   1 H      0.040  0.960  0.000  0.000     2.453     2.449
 519   1 H      0.040  0.960  0.000  0.000     2.453     2.449
 520   1 H      0.046  0.954  0.000  0.000     2.376     2.410
 521   1 H      0.036  0.964  0.000  0.000     2.507     2.476
 522   7 N     -0.392  1.326  4.066  0.000    30.140     8.154
 523   6 C      0.031  1.055  2.914  0.000    20.072     6.381
 524   6 C      0.272  1.049  2.679  0.000    22.402     7.752
 525   8 O     -0.495  1.739  4.756  0.000    23.678     6.524
 526   6 C     -0.075  1.060  3.015  0.000    21.913     6.661
 527   6 C     -0.014  1.053  2.961  0.000    20.782     6.484
 528   6 C     -0.121  1.045  3.075  0.000    22.863     6.817
 529   6 C     -0.123  1.044  3.079  0.000    22.903     6.821
 530   1 H      0.165  0.835  0.000  0.000     1.301     1.786
 531   1 H      0.033  0.967  0.000  0.000     2.548     2.496
 532   1 H      0.046  0.954  0.000  0.000     2.374     2.409
 533   1 H      0.044  0.956  0.000  0.000     2.392     2.418
 534   1 H      0.018  0.982  0.000  0.000     2.763     2.600
 535   1 H      0.045  0.955  0.000  0.000     2.383     2.414
 536   1 H      0.036  0.964  0.000  0.000     2.497     2.471
 537   1 H      0.043  0.957  0.000  0.000     2.405     2.425
 538   1 H      0.057  0.943  0.000  0.000     2.232     2.336
 539   1 H      0.044  0.956  0.000  0.000     2.398     2.422
 540   1 H      0.037  0.963  0.000  0.000     2.485     2.465
 541   7 N     -0.166  1.241  3.926  0.000    24.595     7.366
 542   6 C      0.011  1.060  2.929  0.000    20.372     6.424
 543   6 C      0.271  1.040  2.689  0.000    22.418     7.755
 544   8 O     -0.513  1.749  4.764  0.000    24.063     6.577
 545   6 C     -0.029  1.064  2.965  0.000    21.045     6.524
 546   6 C     -0.069  1.049  3.021  0.000    21.824     6.650
 547   6 C     -0.140  1.050  3.090  0.000    23.248     6.875
 548   6 C     -0.112  1.039  3.073  0.000    22.709     6.795
 549   1 H      0.200  0.800  0.000  0.000     1.105     1.647
 550   1 H      0.090  0.910  0.000  0.000     1.874     2.141
 551   1 H      0.039  0.961  0.000  0.000     2.458     2.452
 552   1 H      0.052  0.948  0.000  0.000     2.292     2.368
 553   1 H      0.045  0.955  0.000  0.000     2.384     2.415
 554   1 H      0.057  0.943  0.000  0.000     2.236     2.338
 555   1 H      0.043  0.957  0.000  0.000     2.403     2.424
 556   1 H      0.068  0.932  0.000  0.000     2.103     2.268
 557   1 H      0.047  0.953  0.000  0.000     2.363     2.404
 558   1 H      0.036  0.964  0.000  0.000     2.497     2.471
 559   1 H      0.042  0.958  0.000  0.000     2.428     2.437
 560   7 N     -0.175  1.245  3.930  0.000    24.788     7.394
 561   6 C      0.018  1.054  2.928  0.000    20.272     6.410
 562   6 C      0.271  1.039  2.690  0.000    22.418     7.755
 563   8 O     -0.479  1.727  4.752  0.000    23.314     6.474
 564   6 C     -0.079  1.054  3.025  0.000    21.995     6.675
 565   6 C     -0.003  1.078  2.925  0.000    28.106     8.696
 566   6 C     -0.046  1.082  2.964  0.000    29.151     8.854
 567   6 C     -0.036  1.083  2.953  0.000    28.894     8.815
 568   6 C     -0.053  1.071  2.982  0.000    29.325     8.880
 569   6 C     -0.073  1.076  2.997  0.000    29.823     8.955
 570   6 C      0.144  1.046  2.810  0.000    24.857     8.171
 571   8 O     -0.421  1.727  4.694  0.000    21.266     6.225
 572   1 H      0.239  0.761  0.000  0.000     0.927     1.508
 573   1 H      0.092  0.908  0.000  0.000     1.857     2.131
 574   1 H      0.061  0.939  0.000  0.000     2.191     2.315
 575   1 H      0.070  0.930  0.000  0.000     2.085     2.258
 576   1 H      0.044  0.956  0.000  0.000     2.395     2.420
 577   1 H      0.046  0.954  0.000  0.000     2.369     2.407
 578   1 H      0.046  0.954  0.000  0.000     2.373     2.409
 579   1 H      0.036  0.964  0.000  0.000     2.504     2.475
 580   1 H      0.308  0.692  0.000  0.000     0.697     1.311
 581   7 N     -0.142  1.229  3.914  0.000    24.082     7.288
 582   6 C     -0.038  1.044  2.993  0.000    21.297     6.580
 583   6 C      0.275  1.031  2.695  0.000    22.353     7.743
 584   8 O     -0.469  1.729  4.740  0.000    23.102     6.444
 585   1 H      0.229  0.771  0.000  0.000     0.971     1.544
 586   1 H      0.084  0.916  0.000  0.000     1.940     2.178
 587   1 H      0.117  0.883  0.000  0.000     1.637     2.001
 588   7 N     -0.147  1.229  3.918  0.000    24.181     7.303
 589   6 C      0.023  1.053  2.924  0.000    20.186     6.397
 590   6 C      0.196  1.087  2.717  0.000    23.812     7.992
 591   8 O     -0.352  1.754  4.597  0.000    20.743     6.106
 592   6 C     -0.068  1.050  3.017  0.000    21.791     6.645
 593   6 C     -0.108  1.054  3.053  0.000    22.551     6.760
 594   6 C      0.281  1.033  2.686  0.000    22.244     7.722
 595   8 O     -0.486  1.776  4.710  0.000    23.477     6.496
 596   7 N     -0.289  1.266  4.023  0.000    27.454     7.782
 597   1 H      0.218  0.782  0.000  0.000     1.021     1.583
 598   1 H      0.093  0.907  0.000  0.000     1.846     2.125
 599   1 H      0.069  0.931  0.000  0.000     2.102     2.267
 600   1 H      0.086  0.914  0.000  0.000     1.923     2.168
 601   1 H      0.072  0.928  0.000  0.000     2.061     2.245
 602   1 H      0.075  0.925  0.000  0.000     2.036     2.231
 603   1 H      0.230  0.770  0.000  0.000     0.964     1.538
 604   1 H      0.228  0.772  0.000  0.000     0.973     1.546
 605   7 N     -0.385  1.320  4.064  0.000    29.945     8.127
 606   6 C      0.042  1.048  2.909  0.000    19.872     6.348
 607   6 C      0.271  1.042  2.687  0.000    22.425     7.755
 608   8 O     -0.515  1.753  4.762  0.000    24.121     6.585
 609   6 C     -0.095  1.062  3.033  0.000    22.297     6.720
 610   6 C      0.284  1.037  2.679  0.000    22.195     7.714
 611   8 O     -0.498  1.747  4.751  0.000    23.740     6.533
 612   7 N     -0.265  1.262  4.003  0.000    26.862     7.697
 613   1 H      0.159  0.841  0.000  0.000     1.341     1.814
 614   1 H      0.045  0.955  0.000  0.000     2.378     2.412
 615   1 H      0.072  0.928  0.000  0.000     2.059     2.244
 616   1 H      0.042  0.958  0.000  0.000     2.423     2.434
 617   1 H      0.216  0.784  0.000  0.000     1.028     1.589
 618   1 H      0.215  0.785  0.000  0.000     1.032     1.592
 619   7 N     -0.191  1.254  3.937  0.000    25.148     7.448
 620   6 C      0.013  1.062  2.925  0.000    20.363     6.425
 621   6 C      0.270  1.045  2.685  0.000    22.434     7.757
 622   8 O     -0.485  1.744  4.741  0.000    23.459     6.494
 623   6 C     -0.023  1.064  2.960  0.000    20.950     6.510
 624   6 C     -0.124  1.044  3.080  0.000    22.932     6.828
 625   6 C     -0.124  1.046  3.078  0.000    22.930     6.828
 626   1 H      0.250  0.750  0.000  0.000     0.885     1.474
 627   1 H      0.061  0.939  0.000  0.000     2.182     2.310
 628   1 H      0.051  0.949  0.000  0.000     2.313     2.378
 629   1 H      0.060  0.940  0.000  0.000     2.203     2.321
 630   1 H      0.046  0.954  0.000  0.000     2.372     2.409
 631   1 H      0.047  0.953  0.000  0.000     2.360     2.402
 632   1 H      0.059  0.941  0.000  0.000     2.209     2.324
 633   1 H      0.050  0.950  0.000  0.000     2.318     2.381
 634   1 H      0.039  0.961  0.000  0.000     2.466     2.456
 635   7 N     -0.162  1.232  3.930  0.000    24.499     7.351
 636   6 C     -0.030  1.043  2.987  0.000    21.162     6.560
 637   6 C      0.200  1.080  2.720  0.000    23.744     7.980
 638   8 O     -0.366  1.757  4.609  0.000    21.011     6.146
 639   1 H      0.218  0.782  0.000  0.000     1.018     1.581
 640   1 H      0.119  0.881  0.000  0.000     1.622     1.991
 641   1 H      0.104  0.896  0.000  0.000     1.747     2.067
 642   7 N     -0.388  1.329  4.059  0.000    30.044     8.141
 643   6 C      0.027  1.063  2.909  0.000    20.134     6.392
 644   6 C      0.263  1.046  2.691  0.000    22.565     7.778
 645   8 O     -0.469  1.775  4.693  0.000    23.100     6.444
 646   6 C     -0.098  1.062  3.037  0.000    22.372     6.733
 647   6 C      0.298  1.030  2.673  0.000    21.944     7.670
 648   8 O     -0.499  1.760  4.739  0.000    23.754     6.535
 649   7 N     -0.287  1.266  4.021  0.000    27.400     7.774
 650   1 H      0.154  0.846  0.000  0.000     1.377     1.838
 651   1 H      0.062  0.938  0.000  0.000     2.178     2.308
 652   1 H      0.062  0.938  0.000  0.000     2.178     2.308
 653   1 H      0.058  0.942  0.000  0.000     2.225     2.333
 654   1 H      0.229  0.771  0.000  0.000     0.971     1.544
 655   1 H      0.224  0.776  0.000  0.000     0.992     1.560
 656   7 N     -0.176  1.240  3.936  0.000    24.801     7.396
 657   6 C      0.004  1.068  2.928  0.000    20.524     6.451
 658   6 C      0.267  1.043  2.690  0.000    22.494     7.767
 659   8 O     -0.482  1.741  4.741  0.000    23.392     6.485
 660   6 C      0.119  1.045  2.835  0.000    18.729     6.179
 661   8 O     -0.479  1.736  4.743  0.000    22.444     6.395
 662   6 C     -0.136  1.043  3.093  0.000    23.174     6.865
 663   1 H      0.210  0.790  0.000  0.000     1.055     1.609
 664   1 H      0.094  0.906  0.000  0.000     1.842     2.123
 665   1 H      0.028  0.972  0.000  0.000     2.619     2.531
 666   1 H      0.321  0.679  0.000  0.000     0.660     1.276
 667   1 H      0.071  0.929  0.000  0.000     2.071     2.251
 668   1 H      0.052  0.948  0.000  0.000     2.292     2.368
 669   1 H      0.071  0.929  0.000  0.000     2.072     2.251
 670   7 N     -0.166  1.239  3.927  0.000    24.585     7.364
 671   6 C      0.018  1.057  2.925  0.000    20.265     6.409
 672   6 C      0.272  1.035  2.692  0.000    22.401     7.751
 673   8 O     -0.480  1.739  4.741  0.000    23.339     6.477
 674   6 C     -0.086  1.054  3.031  0.000    22.120     6.694
 675   6 C     -0.009  1.080  2.929  0.000    28.232     8.715
 676   6 C     -0.051  1.082  2.969  0.000    29.279     8.874
 677   6 C     -0.035  1.080  2.955  0.000    28.865     8.811
 678   6 C     -0.059  1.071  2.988  0.000    29.476     8.903
 679   6 C     -0.068  1.077  2.992  0.000    29.705     8.937
 680   6 C      0.142  1.049  2.810  0.000    24.906     8.179
 681   8 O     -0.438  1.729  4.709  0.000    21.602     6.274
 682   1 H      0.221  0.779  0.000  0.000     1.007     1.572
 683   1 H      0.079  0.921  0.000  0.000     1.986     2.204
 684   1 H      0.063  0.937  0.000  0.000     2.162     2.299
 685   1 H      0.090  0.910  0.000  0.000     1.875     2.141
 686   1 H      0.048  0.952  0.000  0.000     2.345     2.395
 687   1 H      0.039  0.961  0.000  0.000     2.461     2.453
 688   1 H      0.043  0.957  0.000  0.000     2.411     2.428
 689   1 H      0.047  0.953  0.000  0.000     2.360     2.402
 690   1 H      0.341  0.659  0.000  0.000     0.609     1.226
 691   7 N     -0.167  1.236  3.931  0.000    24.609     7.368
 692   6 C      0.016  1.057  2.927  0.000    20.301     6.415
 693   6 C      0.276  1.033  2.691  0.000    22.331     7.740
 694   8 O     -0.497  1.742  4.755  0.000    23.722     6.530
 695   6 C     -0.076  1.048  3.028  0.000    21.935     6.666
 696   6 C     -0.041  1.072  2.969  0.000    28.980     8.830
 697   6 C     -0.011  1.069  2.942  0.000    28.265     8.721
 698   6 C     -0.020  1.074  2.945  0.000    28.347     8.722
 699   7 N     -0.116  1.231  3.885  0.000    23.515     7.202
 700   6 C      0.045  1.063  2.892  0.000    26.911     8.505
 701   6 C     -0.053  1.084  2.969  0.000    29.323     8.880
 702   6 C     -0.057  1.069  2.988  0.000    29.414     8.893
 703   6 C     -0.048  1.076  2.972  0.000    29.203     8.862
 704   6 C     -0.041  1.076  2.966  0.000    29.023     8.835
 705   1 H      0.211  0.789  0.000  0.000     1.053     1.607
 706   1 H      0.072  0.928  0.000  0.000     2.066     2.248
 707   1 H      0.069  0.931  0.000  0.000     2.101     2.267
 708   1 H      0.067  0.933  0.000  0.000     2.119     2.277
 709   1 H      0.040  0.960  0.000  0.000     2.448     2.447
 710   1 H      0.192  0.808  0.000  0.000     1.150     1.680
 711   1 H      0.045  0.955  0.000  0.000     2.383     2.414
 712   1 H      0.027  0.973  0.000  0.000     2.622     2.532
 713   1 H      0.021  0.979  0.000  0.000     2.724     2.581
 714   1 H      0.025  0.975  0.000  0.000     2.657     2.549
 715   7 N     -0.179  1.240  3.939  0.000    24.887     7.409
 716   6 C     -0.025  1.041  2.984  0.000    21.073     6.544
 717   6 C      0.270  1.037  2.693  0.000    22.434     7.757
 718   8 O     -0.477  1.736  4.741  0.000    23.283     6.469
 719   1 H      0.255  0.745  0.000  0.000     0.863     1.455
 720   1 H      0.093  0.907  0.000  0.000     1.852     2.128
 721   1 H      0.066  0.934  0.000  0.000     2.129     2.282
 722   7 N     -0.159  1.231  3.928  0.000    24.441     7.342
 723   6 C      0.010  1.057  2.933  0.000    20.405     6.429
 724   6 C      0.271  1.036  2.693  0.000    22.420     7.754
 725   8 O     -0.496  1.743  4.753  0.000    23.689     6.526
 726   6 C     -0.022  1.063  2.959  0.000    20.921     6.505
 727   6 C     -0.066  1.049  3.016  0.000    21.749     6.639
 728   6 C     -0.117  1.040  3.077  0.000    22.793     6.807
 729   6 C     -0.113  1.039  3.074  0.000    22.731     6.799
 730   1 H      0.202  0.798  0.000  0.000     1.096     1.640
 731   1 H      0.084  0.916  0.000  0.000     1.936     2.176
 732   1 H      0.052  0.948  0.000  0.000     2.297     2.370
 733   1 H      0.031  0.969  0.000  0.000     2.576     2.510
 734   1 H      0.044  0.956  0.000  0.000     2.400     2.422
 735   1 H      0.057  0.943  0.000  0.000     2.229     2.335
 736   1 H      0.046  0.954  0.000  0.000     2.376     2.411
 737   1 H      0.034  0.966  0.000  0.000     2.527     2.486
 738   1 H      0.045  0.955  0.000  0.000     2.381     2.413
 739   1 H      0.045  0.955  0.000  0.000     2.384     2.415
 740   1 H      0.045  0.955  0.000  0.000     2.383     2.414
 741   7 N     -0.161  1.238  3.923  0.000    24.479     7.348
 742   6 C      0.025  1.055  2.921  0.000    20.156     6.392
 743   6 C      0.192  1.089  2.719  0.000    23.904     8.007
 744   8 O     -0.350  1.758  4.592  0.000    20.701     6.100
 745   6 C     -0.018  1.061  2.957  0.000    20.856     6.495
 746   6 C     -0.064  1.048  3.017  0.000    21.722     6.634
 747   6 C     -0.124  1.040  3.085  0.000    22.935     6.827
 748   6 C     -0.112  1.038  3.074  0.000    22.708     6.795
 749   1 H      0.236  0.764  0.000  0.000     0.939     1.518
 750   1 H      0.070  0.930  0.000  0.000     2.080     2.256
 751   1 H      0.049  0.951  0.000  0.000     2.337     2.391
 752   1 H      0.039  0.961  0.000  0.000     2.456     2.451
 753   1 H      0.037  0.963  0.000  0.000     2.495     2.470
 754   1 H      0.056  0.944  0.000  0.000     2.246     2.344
 755   1 H      0.056  0.944  0.000  0.000     2.243     2.342
 756   1 H      0.059  0.941  0.000  0.000     2.205     2.322
 757   1 H      0.040  0.960  0.000  0.000     2.450     2.448
 758   1 H      0.041  0.959  0.000  0.000     2.440     2.443
 759   1 H      0.048  0.952  0.000  0.000     2.343     2.394
 760   1 H      0.192  0.808  0.000  0.000     1.145     1.676
 761   1 H      0.080  0.920  0.000  0.000     1.978     2.199
 762   1 H      0.188  0.812  0.000  0.000     1.169     1.694
 763   1 H      0.085  0.915  0.000  0.000     1.923     2.168
 764   1 H      0.183  0.817  0.000  0.000     1.199     1.715
 765   1 H      0.066  0.934  0.000  0.000     2.128     2.281
 766   1 H      0.188  0.812  0.000  0.000     1.168     1.693
 767   1 H      0.085  0.915  0.000  0.000     1.927     2.171
 768   1 H      0.189  0.811  0.000  0.000     1.166     1.691
 769   1 H      0.062  0.938  0.000  0.000     2.172     2.304
 770   1 H      0.187  0.813  0.000  0.000     1.173     1.696
 771   1 H      0.090  0.910  0.000  0.000     1.881     2.145
 772   1 H      0.174  0.826  0.000  0.000     1.248     1.750
 773   1 H      0.083  0.917  0.000  0.000     1.953     2.185
 774   1 H      0.167  0.833  0.000  0.000     1.288     1.778
 775   1 H      0.073  0.927  0.000  0.000     2.054     2.241
 776   1 H      0.174  0.826  0.000  0.000     1.250     1.751
 777   1 H      0.069  0.931  0.000  0.000     2.092     2.261
 778   1 H      0.188  0.812  0.000  0.000     1.168     1.693
 779   1 H      0.187  0.813  0.000  0.000     1.172     1.696
 780   1 H      0.074  0.926  0.000  0.000     2.038     2.232
 781   1 H      0.179  0.821  0.000  0.000     1.219     1.730
 782   1 H      0.075  0.925  0.000  0.000     2.029     2.227
 783   1 H      0.169  0.831  0.000  0.000     1.276     1.769
 784   1 H      0.061  0.939  0.000  0.000     2.184     2.311
 785   1 H      0.180  0.820  0.000  0.000     1.213     1.725
 786   1 H      0.089  0.911  0.000  0.000     1.887     2.148
 787   1 H      0.189  0.811  0.000  0.000     1.166     1.691
 788   1 H      0.087  0.913  0.000  0.000     1.908     2.160

 Mol. C6AA /au·bohr⁶  :    5701315.473522
 Mol. C8AA /au·bohr⁸  :  127564287.583037
 Mol. α(0) /au        :       3586.568662

 
molecular dipole:
                 x           y           z       tot (Debye)
 q only:      -27.438     -75.494      28.164
   full:      -26.322     -74.768      25.329     211.515
molecular quadrupole (traceless):
                xx          xy          yy          xz          yz          zz
 q only:     2466.604   -3081.210   -5027.866     824.903    3483.836    2561.263
  q+dip:     2414.603   -2864.439   -5022.168     705.313    3140.969    2607.566
   full:     2418.327   -2875.529   -5020.871     699.944    3137.043    2602.544
speedup  1.22
cpu  time for grad    2 m 32.0 s
wall time for grad    2 m  4.5 s

SCC energy    :   -1197.8275428
rep           :      14.9337167
ES            :       3.2381049
AES           :      -0.0299201
AXC           :       0.4297682
disp          :      -1.0879540
XB            :       0.0000000
fix           :       0.0000000
Gborn         :       0.0000000
Gsasa         :       0.0000000
Ghb           :       0.0000000
Gshift        :       0.0000000
Gsolv         :      -0.6235738     -391.30
Etot ala COSMO:   -1197.8275428
grad norm     :       0.9489556
total E       :   -1182.7637808
atomizationE  :     219.4708763   137720.05
(atE without considering molecular charge,
 total energy contains solvation terms)
H-L gap (eV)  :          1.0423

------------------------------------------------------------------------
 * finished run on 2019/05/04 at 16:39:34.135     
------------------------------------------------------------------------
 total:
 * wall-time:     0 d,  0 h,  2 min,  6.963 sec
 *  cpu-time:     0 d,  0 h,  2 min, 34.668 sec
 * ratio c/w:     1.218 speedup
 SCF:
 * wall-time:     0 d,  0 h,  2 min,  5.885 sec
 *  cpu-time:     0 d,  0 h,  2 min, 33.739 sec
 * ratio c/w:     1.221 speedup

