      -----------------------------------------------------------      
     |                   =====================                   |     
     |                           x T B                           |     
     |                   =====================                   |     
     |                         S. Grimme                         |     
     |          Mulliken Center for Theoretical Chemistry        |     
     |                    University of Bonn                     |     
     |                 Version 6.0.1 (SAW181210)                 |     
      -----------------------------------------------------------      

   This program is distributed in the hope that it will be useful,
   but WITHOUT ANY WARRANTY; without even the implied warranty of
   MERCHANTABILITY or FITNESS FOR A PARTICULAR PURPOSE.
   
   FOR NON-COMMERCIAL, ACADEMIA USE ONLY.
   
   Cite this work as:
   S. Grimme, C. Bannwarth, P. Shushkov, J. Comput. Theory Chem., 2017,
   13, 1989-2009.
   C. Bannwarth, S. Ehlert and S. Grimme., ChemRxiv, 2018, preprint.
   http://doi.org/10.26434/chemrxiv.7246238.v1
   
   for sTDA-xTB:
   S. Grimme and C. Bannwarth, J. Chem. Phys., 2016, 145, 054103.
   
   in the mass-spec context:
   V. Asgeirsson, C. Bauer and S. Grimme, Chem. Sci., 2017, 8, 4879.
   
   if GBSA is used:
   P. Shushkov, F. März and S. Grimme, unpublished.
   
   for ANC optimizer:
   S. Grimme, unpublished.
   Rational Function algorithm used in ANCopt:
   F. Eckert, P. Pulay, H.-J. Werner, J. Comput. Chem., 1997, 18, 1473.
   
   with help from (in alphabetical order)
   C. Bannwarth, F. Bohle, G. Brandenburg, E. Caldeweyher, M. Checinski,
   S. Dohm, S. Ehlert, S. Ehrlich, F. März, H. Neugebauer, J. Pisarek,
   P. Pracht, P. Shushkov, and S. Spicher.
   
 * started run on 2019/05/11 at 17:05:47.456     
========================================================================
 # omp threads = 2
========================================================================
number of atoms            : 476
number of electrons        : 1282
charge                     : 2
spin                       : .0
first test random number   : .9388

########################################################################
# WARNING! Please study the warnings concerning your input carefully
#  - Process number higher than OMP_NUM_THREADS, I hope you know what you are doing.
########################################################################

           ------------------------------------------------- 
          |                 G F N 2 - x T B                 |
          | Geometry, Frequencies, Noncovalent interactions |
          |            JCTC 2018 parametrisation            |
           ------------------------------------------------- 
 
      method parameters     
 k(s)        :  1.8500
 k(p)        :  2.2300
 k(d)        :  2.2300
 k(f)        :  2.0000
 kEN (H0ij)  : -2.0000
 D4 a1       :  0.5200
 D4 a2       :  5.0000
 D4 s6       :  1.0000
 D4 s8       :  2.7000
 D4 s9       :  5.0000
 alphaj      :  2.0000

 Solvent             : h2o
 Using internal parameter file: .param_gbsa2_h2o
 Gsolv ref. state (COSMO-RS): gsolv [1 M gas/solution]
 temperature (mdtemp)       :    298.150000000000     
 dielectric constant        :    80.2000000000000     
 rho                        :    1.00000000000000     
 mass                       :    18.0000000000000     
 surface tension            :    15.5689454083859     
 probe radius               :   0.975313790000000     
 vdW radii scaling          :    1.00000000000000     
 Gshift (Eh)                :   1.857443126794793E-003
 c1                         :    1.55243817000000     
 soset                      :   0.130326360000000     
 HB correction              :  T

            Z     q(EN)     CN     RAES       Cart. coordinates
     1  N   5.0   -0.20    3.22    1.96     2.02630    54.70671     3.13150
     2  C   4.0    0.03    4.33    4.26     0.86563    54.25820     5.57505
     3  C   4.0    0.15    3.42    3.08     2.12952    52.03224     6.87010
     4  O   6.0   -0.28    1.22    1.80     3.08830    50.29711     5.69063
     5  C   4.0   -0.05    4.27    4.14    -2.02590    53.83744     5.34309
     6  C   4.0   -0.02    4.23    4.05    -2.67621    51.38976     3.96297
     7  C   4.0    0.15    3.21    3.04    -5.41890    50.88398     3.49803
     8  O   6.0   -0.27    1.20    1.80    -6.18923    48.76268     2.86157
     9  N   5.0   -0.18    3.19    1.95    -7.05531    52.91490     3.62059
    10  H   1.0    0.11    1.03    1.43     2.99793    53.27802     2.33172
    11  H   1.0    0.06    1.07    1.44     1.11583    55.95782     6.73422
    12  H   1.0    0.05    1.03    1.43    -2.80691    53.82786     7.23592
    13  H   1.0    0.05    1.03    1.43    -2.74368    55.46978     4.30272
    14  H   1.0    0.06    1.03    1.43    -1.76905    51.40713     2.08438
    15  H   1.0    0.08    1.04    1.43    -1.93833    49.75031     4.94763
    16  H   1.0    0.09    1.04    1.43    -6.46729    54.59522     4.06786
    17  H   1.0    0.11    1.03    1.43    -8.88213    52.57008     3.24585
    18  N   5.0   -0.14    3.50    2.08     2.04796    52.22323     9.41428
    19  C   4.0    0.04    4.52    4.57     2.99721    50.32524    11.11993
    20  C   4.0    0.14    3.45    3.09     0.79413    49.27012    12.65857
    21  O   6.0   -0.32    1.24    1.80    -0.54261    50.64943    13.97301
    22  C   4.0   -0.02    4.30    4.19     4.97413    51.44661    12.87002
    23  C   4.0   -0.08    4.14    3.89     5.68203    49.58460    14.94062
    24  C   4.0   -0.07    4.13    3.86     7.29047    52.17287    11.34157
    25  H   1.0    0.11    1.10    1.44     1.22565    53.76413    10.17460
    26  H   1.0    0.06    1.06    1.44     3.79853    48.79641     9.96717
    27  H   1.0    0.05    1.06    1.44     4.17719    53.14252    13.73670
    28  H   1.0    0.04    1.00    1.43     7.10496    50.39582    16.17549
    29  H   1.0    0.05    1.00    1.43     4.03652    49.10694    16.08339
    30  H   1.0    0.04    1.00    1.43     6.42636    47.84723    14.11623
    31  H   1.0    0.03    0.99    1.43     8.68702    53.10456    12.56010
    32  H   1.0    0.05    1.00    1.43     8.17473    50.51103    10.51684
    33  H   1.0    0.05    1.00    1.43     6.80774    53.48053     9.83543
    34  N   5.0   -0.14    3.45    2.04     0.47238    46.78331    12.42774
    35  C   4.0    0.03    4.32    4.24    -1.38438    45.33951    13.84659
    36  C   4.0    0.15    3.51    3.12     0.02039    43.94296    16.03607
    37  O   6.0   -0.32    1.33    1.80     1.41822    42.15888    15.61327
    38  C   4.0   -0.05    4.12    3.83    -2.58809    43.36711    12.12305
    39  H   1.0    0.09    1.06    1.44     1.65360    45.75753    11.28918
    40  H   1.0    0.05    1.07    1.44    -2.76515    46.63902    14.57051
    41  H   1.0    0.05    1.00    1.43    -3.99206    42.28630    13.19299
    42  H   1.0    0.07    1.01    1.43    -3.50080    44.24010    10.53659
    43  H   1.0    0.06    1.00    1.43    -1.13953    42.06053    11.46096
    44  N   5.0   -0.10    3.70    2.27    -0.30531    44.86506    18.37570
    45  C   4.0    0.04    4.62    4.69     0.76383    43.44361    20.45966
    46  C   4.0    0.16    3.44    3.09    -0.27301    40.74201    20.45768
    47  O   6.0   -0.29    1.24    1.80    -2.37342    40.25917    19.60806
    48  C   4.0   -0.03    4.35    4.29    -0.08223    44.90199    22.79377
    49  C   4.0   -0.03    4.28    4.16    -0.66103    47.53717    21.81590
    50  C   4.0   -0.00    4.37    4.33    -1.73788    47.01561    19.18656
    51  H   1.0    0.05    1.05    1.44     2.83426    43.37370    20.31057
    52  H   1.0    0.07    1.02    1.43    -1.81238    44.04395    23.58094
    53  H   1.0    0.05    1.02    1.43     1.35249    44.89709    24.27734
    54  H   1.0    0.07    1.02    1.43    -2.04585    48.53612    22.98089
    55  H   1.0    0.05    1.03    1.43     1.03729    48.65949    21.69800
    56  H   1.0    0.06    1.02    1.43    -3.74839    46.54354    19.29859
    57  H   1.0    0.06    1.02    1.43    -1.48286    48.63728    17.94294
    58  N   5.0   -0.14    3.45    2.05     1.26727    39.02422    21.49466
    59  C   4.0    0.05    4.35    4.28     0.51203    36.41491    21.90945
    60  C   4.0    0.11    3.30    3.05    -0.64431    36.12287    24.54690
    61  O   6.0   -0.29    1.18    1.80     0.67942    36.22794    26.49426
    62  C   4.0   -0.03    4.34    4.26     2.79466    34.68292    21.66615
    63  C   4.0    0.15    3.28    3.05     2.19180    32.08550    22.69583
    64  O   6.0   -0.28    1.26    1.80     0.01528    31.40093    23.13175
    65  N   5.0   -0.18    3.18    1.95     4.22971    30.61922    23.06516
    66  H   1.0    0.11    1.10    1.44     2.96027    39.58027    22.19595
    67  H   1.0    0.05    1.06    1.44    -0.91435    35.95179    20.51335
    68  H   1.0    0.05    1.03    1.43     3.41481    34.51627    19.71856
    69  H   1.0    0.05    1.03    1.43     4.39260    35.43594    22.76963
    70  H   1.0    0.11    1.03    1.43     4.01644    28.88174    23.80941
    71  H   1.0    0.09    1.03    1.43     6.00092    31.32948    22.86829
    72  N   5.0   -0.17    3.21    1.96     2.70271    32.28588    29.52387
    73  C   4.0    0.04    4.23    4.07     5.27952    32.90932    30.21028
    74  C   4.0    0.10    3.23    3.04     5.57560    32.87477    33.11414
    75  O   6.0   -0.26    1.13    1.80     4.18211    34.06024    34.45919
    76  C   4.0   -0.02    4.33    4.25     5.92449    35.59083    29.26112
    77  C   4.0   -0.02    3.59    3.16     8.49030    36.32527    30.15590
    78  C   4.0   -0.03    3.45    3.10     8.88421    38.02850    32.17800
    79  C   4.0   -0.05    3.46    3.10    10.68007    35.24410    29.08342
    80  C   4.0   -0.04    3.41    3.08    11.21108    38.65888    33.00470
    81  C   4.0   -0.03    3.43    3.09    12.98877    35.87258    29.85174
    82  C   4.0    0.07    3.45    3.10    13.37420    37.61709    31.83195
    83  O   6.0   -0.23    2.11    1.84    15.75365    38.27336    32.48811
    84  H   1.0    0.13    1.07    1.44     1.75917    33.58965    28.46744
    85  H   1.0    0.04    1.04    1.43     6.57866    31.52581    29.36681
    86  H   1.0    0.05    1.03    1.43     5.84641    35.56569    27.20671
    87  H   1.0    0.07    1.03    1.43     4.48414    36.86976    29.97796
    88  H   1.0    0.06    1.03    1.43     7.19846    38.79878    33.06812
    89  H   1.0    0.05    1.03    1.43    10.39867    33.87381    27.56252
    90  H   1.0    0.06    1.03    1.43    11.50258    39.93694    34.55294
    91  H   1.0    0.07    1.02    1.43    14.67239    35.04001    28.98918
    92  H   1.0    0.12    1.01    1.43    15.71298    39.52803    33.89301
    93  N   5.0   -0.14    3.45    2.05    18.25956    45.25548    36.93071
    94  C   4.0    0.02    4.47    4.49    16.06157    46.90494    36.73212
    95  C   4.0    0.15    3.41    3.08    15.31155    47.14701    33.92158
    96  O   6.0   -0.32    1.34    1.80    16.85617    46.91227    32.20423
    97  C   4.0   -0.04    4.33    4.26    16.91671    49.40177    37.86006
    98  C   4.0   -0.03    4.26    4.12    19.77328    49.40774    37.41252
    99  C   4.0    0.01    4.26    4.12    20.48645    46.63205    37.78180
   100  H   1.0    0.04    1.05    1.44    14.47150    46.05518    37.74507
   101  H   1.0    0.05    1.02    1.43    15.99346    51.02045    36.95891
   102  H   1.0    0.05    1.03    1.43    16.53177    49.44515    39.87105
   103  H   1.0    0.06    1.02    1.43    20.15714    49.98236    35.44443
   104  H   1.0    0.05    1.03    1.43    20.76587    50.64198    38.67710
   105  H   1.0    0.06    1.01    1.43    22.15428    46.09030    36.68433
   106  H   1.0    0.05    1.02    1.43    20.80765    46.20680    39.77906
   107  N   5.0   -0.14    3.44    2.04    12.86311    47.60882    33.47601
   108  C   4.0    0.04    4.44    4.45    11.94930    48.12344    30.94988
   109  C   4.0    0.16    3.45    3.09    12.94710    50.69826    30.04898
   110  O   6.0   -0.29    1.22    1.80    12.53051    52.65236    31.25055
   111  C   4.0   -0.04    4.33    4.25     9.05047    48.19308    30.98856
   112  C   4.0   -0.02    3.57    3.15     8.03591    48.34477    28.32018
   113  C   4.0   -0.04    3.46    3.10     7.44795    46.14547    27.00511
   114  C   4.0   -0.02    3.46    3.10     7.74717    50.69387    27.12944
   115  C   4.0   -0.04    3.38    3.07     6.57756    46.30427    24.53569
   116  C   4.0   -0.02    3.37    3.07     6.90880    50.81282    24.65234
   117  C   4.0   -0.04    3.38    3.07     6.32751    48.60974    23.38425
   118  H   1.0    0.08    1.06    1.44    11.77813    48.21022    34.95189
   119  H   1.0    0.06    1.07    1.44    12.59907    46.65064    29.70256
   120  H   1.0    0.04    1.03    1.43     8.34325    46.49229    31.88929
   121  H   1.0    0.05    1.02    1.43     8.44963    49.89441    32.04998
   122  H   1.0    0.05    1.03    1.43     7.63787    44.34819    27.90694
   123  H   1.0    0.07    1.03    1.43     8.18947    52.40031    28.14742
   124  H   1.0    0.07    1.04    1.43     6.15898    44.57934    23.52788
   125  H   1.0    0.07    1.03    1.43     6.71195    52.63053    23.76213
   126  H   1.0    0.05    1.02    1.43     5.71325    48.72455    21.42031
   127  N   5.0   -0.13    3.43    2.04    14.20535    50.62864    27.86894
   128  C   4.0    0.04    4.44    4.44    14.84532    52.93679    26.49173
   129  C   4.0    0.15    3.47    3.10    15.78672    52.24914    23.86492
   130  O   6.0   -0.30    1.27    1.80    17.32323    50.58219    23.51443
   131  C   4.0   -0.03    4.27    4.14    16.93844    54.48978    27.76121
   132  C   4.0   -0.03    4.20    3.99    17.46327    56.90089    26.24849
   133  C   4.0    0.23    3.10    3.02    19.00956    58.82270    27.77143
   134  O   6.0   -0.29    1.22    1.80    21.47139    59.05421    27.25542
   135  O   6.0   -0.27    1.14    1.80    17.87384    60.11578    29.45054
   136  H   1.0    0.11    1.08    1.44    14.57677    48.97233    26.97205
   137  H   1.0    0.07    1.07    1.44    13.14600    54.11069    26.36393
   138  H   1.0    0.07    1.02    1.43    16.32299    55.04404    29.66502
   139  H   1.0    0.06    1.03    1.43    18.63379    53.33766    27.91834
   140  H   1.0    0.05    1.03    1.43    18.43192    56.49200    24.48225
   141  H   1.0    0.06    1.04    1.43    15.67444    57.83606    25.86078
   142  N   5.0   -0.14    3.51    2.09    14.86232    53.67624    22.03757
   143  C   4.0    0.03    4.50    4.53    15.76983    53.63816    19.45814
   144  C   4.0    0.14    3.42    3.08    16.77718    56.26282    18.73989
   145  O   6.0   -0.32    1.30    1.80    15.66304    58.14325    19.40833
   146  C   4.0   -0.02    4.27    4.14    13.63087    52.86242    17.63145
   147  C   4.0   -0.07    4.13    3.85    14.62867    52.69745    14.96254
   148  C   4.0   -0.07    4.13    3.86    12.49456    50.36400    18.50799
   149  H   1.0    0.10    1.08    1.44    13.60592    55.07368    22.48343
   150  H   1.0    0.05    1.06    1.44    17.31556    52.23785    19.38220
   151  H   1.0    0.04    1.06    1.44    12.19225    54.33545    17.73250
   152  H   1.0    0.04    1.00    1.43    13.17367    51.96056    13.70315
   153  H   1.0    0.05    1.00    1.43    15.20974    54.53973    14.27741
   154  H   1.0    0.05    1.00    1.43    16.26110    51.43493    14.85687
   155  H   1.0    0.03    1.00    1.43    11.19211    49.65302    17.10422
   156  H   1.0    0.05    1.00    1.43    13.96407    48.98294    18.86051
   157  H   1.0    0.05    1.00    1.43    11.45751    50.63548    20.28184
   158  N   5.0   -0.14    3.44    2.04    18.90471    56.29595    17.34346
   159  C   4.0    0.04    4.33    4.25    20.06035    58.65174    16.55373
   160  C   4.0    0.08    3.21    3.04    20.41382    58.72944    13.69619
   161  O   6.0   -0.27    1.12    1.80    21.14321    56.88244    12.47340
   162  C   4.0   -0.04    4.25    4.11    22.59133    59.07597    17.85274
   163  C   4.0   -0.04    4.18    3.97    22.20136    59.49203    20.69635
   164  C   4.0    0.00    4.22    4.03    24.68457    59.83702    22.20794
   165  N   5.0   -0.13    3.38    2.01    26.35710    57.64499    22.07391
   166  C   4.0    0.11    3.35    3.06    25.66571    55.50226    23.23579
   167  N   5.0   -0.17    3.26    1.97    23.90343    55.25882    24.76734
   168  N   5.0   -0.18    3.19    1.95    27.30214    53.34829    22.63688
   169  H   1.0    0.09    1.05    1.44    19.74150    54.64363    16.80015
   170  H   1.0    0.06    1.07    1.44    18.74274    60.14885    17.11638
   171  H   1.0    0.06    1.02    1.43    23.78827    57.41264    17.52711
   172  H   1.0    0.05    1.03    1.43    23.53496    60.69711    16.99863
   173  H   1.0    0.06    1.04    1.43    21.06116    61.17845    20.98652
   174  H   1.0    0.06    1.04    1.43    21.20075    57.89311    21.47522
   175  H   1.0    0.05    1.02    1.43    25.75510    61.42036    21.38872
   176  H   1.0    0.07    1.04    1.43    24.19139    60.28103    24.13595
   177  H   1.0    0.09    1.07    1.44    27.73679    57.71957    20.83640
   178  H   1.0    0.12    1.10    1.44    22.91585    56.74173    25.57635
   179  H   1.0    0.12    1.06    1.44    23.62128    53.47600    25.63883
   180  H   1.0    0.11    1.04    1.43    28.46315    53.41323    21.33414
   181  H   1.0    0.12    1.03    1.43    26.77324    51.77371    23.53266
   182  N   5.0   -0.19    3.23    1.96    15.15975    66.34793    18.60975
   183  C   4.0    0.04    4.37    4.33    15.04980    64.38790    20.50407
   184  C   4.0    0.15    3.47    3.10    12.30294    63.77645    21.00211
   185  O   6.0   -0.29    1.25    1.80    10.71799    65.42586    21.01185
   186  C   4.0    0.06    4.20    4.00    16.39244    65.20994    23.03306
   187  O   6.0   -0.26    2.11    1.84    18.95624    64.40899    22.79201
   188  C   4.0   -0.05    4.11    3.82    15.16724    64.10296    25.37007
   189  H   1.0    0.11    1.03    1.43    13.94949    67.79487    18.93008
   190  H   1.0    0.06    1.05    1.44    16.08610    62.72949    19.78260
   191  H   1.0    0.06    1.04    1.43    16.36053    67.27760    23.11553
   192  H   1.0    0.14    1.03    1.43    19.83922    64.81127    24.31197
   193  H   1.0    0.07    1.00    1.43    16.28870    64.59388    27.02854
   194  H   1.0    0.06    1.01    1.43    13.29212    64.84386    25.60171
   195  H   1.0    0.06    1.00    1.43    15.12339    62.04823    25.27686
   196  N   5.0   -0.15    3.50    2.08    11.83973    61.31956    21.36719
   197  C   4.0    0.04    4.43    4.43     9.34119    60.35967    21.90967
   198  C   4.0    0.15    3.42    3.08     9.38091    58.82486    24.36265
   199  O   6.0   -0.32    1.26    1.80    10.63812    56.89875    24.55717
   200  C   4.0   -0.04    4.38    4.35     8.48142    58.60237    19.82055
   201  C   4.0   -0.02    4.19    3.97     8.53035    59.79179    17.16265
   202  C   4.0   -0.08    4.10    3.81     7.97397    57.76606    15.19112
   203  C   4.0   -0.06    4.10    3.80     6.61998    61.96994    16.98451
   204  H   1.0    0.11    1.10    1.44    13.23728    60.04056    21.09915
   205  H   1.0    0.06    1.07    1.44     8.07953    61.97937    22.09834
   206  H   1.0    0.05    1.03    1.43     9.67587    56.92321    19.85236
   207  H   1.0    0.06    1.02    1.43     6.53511    57.98763    20.26295
   208  H   1.0    0.05    1.06    1.44    10.42612    60.53366    16.83608
   209  H   1.0    0.04    1.01    1.43     8.02147    58.55465    13.32703
   210  H   1.0    0.04    1.00    1.43     9.36716    56.26790    15.33835
   211  H   1.0    0.04    1.00    1.43     6.10672    56.95491    15.53777
   212  H   1.0    0.06    1.00    1.43     6.36720    62.51142    15.02431
   213  H   1.0    0.05    1.00    1.43     4.80491    61.34114    17.72639
   214  H   1.0    0.06    1.00    1.43     7.25501    63.57892    18.06635
   215  N   5.0   -0.14    3.51    2.08     7.88094    59.69892    26.21163
   216  C   4.0    0.04    4.44    4.44     7.85251    58.69404    28.75092
   217  C   4.0    0.14    3.44    3.09     5.31034    57.46284    29.33017
   218  O   6.0   -0.30    1.25    1.80     4.97265    56.15838    31.21660
   219  C   4.0    0.06    4.24    4.08     8.34115    60.85593    30.67168
   220  O   6.0   -0.24    2.13    1.84    10.36393    62.38476    29.87136
   221  C   4.0   -0.06    4.08    3.76     8.78587    59.86408    33.31659
   222  H   1.0    0.08    1.07    1.44     7.22539    61.49729    26.02998
   223  H   1.0    0.07    1.06    1.44     9.35887    57.28595    28.88413
   224  H   1.0    0.05    1.04    1.43     6.69536    62.13922    30.62888
   225  H   1.0    0.13    1.03    1.43    11.94692    61.55572    30.12650
   226  H   1.0    0.06    0.99    1.43     9.03438    61.46931    34.61780
   227  H   1.0    0.07    1.01    1.43     7.17856    58.75516    33.91720
   228  H   1.0    0.06    1.00    1.43    10.48073    58.72958    33.36702
   229  N   5.0   -0.14    3.48    2.07     3.38182    58.10964    27.78343
   230  C   4.0    0.05    4.46    4.48     0.90460    57.05692    28.33068
   231  C   4.0    0.17    3.41    3.08     0.81311    54.29987    27.41193
   232  O   6.0   -0.29    1.23    1.80     1.27830    53.70870    25.27488
   233  C   4.0   -0.03    4.30    4.19    -1.14437    58.64942    27.04909
   234  C   4.0    0.15    3.23    3.04    -3.69100    58.08643    28.24063
   235  O   6.0   -0.33    1.34    1.80    -4.61442    55.99477    28.25059
   236  N   5.0   -0.19    3.18    1.95    -4.85991    60.09649    29.32578
   237  H   1.0    0.10    1.08    1.44     3.72238    58.53551    25.94344
   238  H   1.0    0.06    1.07    1.44     0.69359    57.13008    30.38466
   239  H   1.0    0.05    1.03    1.43    -0.65065    60.63399    27.16800
   240  H   1.0    0.07    1.03    1.43    -1.21180    58.08411    25.04757
   241  H   1.0    0.10    1.03    1.43    -6.49683    59.78503    30.25119
   242  H   1.0    0.09    1.03    1.43    -4.09375    61.79132    29.35622
   243  N   5.0   -0.14    3.50    2.08     0.13473    52.62488    29.24974
   244  C   4.0    0.03    4.39    4.37     0.08011    49.91225    28.82601
   245  C   4.0    0.15    3.37    3.07    -2.62834    48.85829    28.52724
   246  O   6.0   -0.30    1.25    1.80    -3.01335    46.64651    28.46544
   247  C   4.0   -0.04    4.27    4.13     1.58681    48.51223    30.83368
   248  C   4.0   -0.04    4.20    4.00     0.99383    49.36817    33.52007
   249  C   4.0   -0.05    4.17    3.93     2.47715    47.81348    35.46158
   250  C   4.0   -0.03    4.12    3.84     1.98192    48.75943    38.14718
   251  N   5.0   -0.11    4.01    2.89     3.51370    47.33098    40.01748
   252  H   1.0    0.08    1.07    1.44    -0.21285    53.24228    30.99057
   253  H   1.0    0.06    1.06    1.44     0.99349    49.60843    26.97723
   254  H   1.0    0.06    1.04    1.43     1.15991    46.51584    30.63082
   255  H   1.0    0.05    1.03    1.43     3.59573    48.80306    30.45308
   256  H   1.0    0.05    1.03    1.43     1.52036    51.36220    33.75590
   257  H   1.0    0.05    1.03    1.43    -1.02774    49.16938    33.86568
   258  H   1.0    0.05    1.03    1.43     1.94029    45.84637    35.28201
   259  H   1.0    0.04    1.02    1.43     4.49722    47.98995    35.00716
   260  H   1.0    0.05    1.02    1.43     2.47033    50.76797    38.27161
   261  H   1.0    0.05    1.03    1.43    -0.00728    48.51811    38.58152
   262  H   1.0    0.07    1.02    1.43     3.11961    47.92448    41.82718
   263  H   1.0    0.06    1.02    1.43     3.15260    45.42865    39.87813
   264  H   1.0    0.06    1.02    1.43     5.43054    47.60890    39.68147
   265  N   5.0   -0.14    3.47    2.06    -4.46416    50.60574    28.36385
   266  C   4.0    0.04    4.35    4.30    -7.06952    49.93443    27.91631
   267  C   4.0    0.16    3.38    3.07    -8.06492    50.66863    25.26113
   268  O   6.0   -0.28    1.22    1.80    -9.26504    49.21830    23.98978
   269  C   4.0    0.04    4.14    3.87    -8.80068    51.05381    29.98769
   270  O   6.0   -0.26    2.09    1.84    -9.08862    53.68826    29.88286
   271  H   1.0    0.11    1.11    1.44    -3.99047    52.48303    28.25828
   272  H   1.0    0.07    1.07    1.44    -7.22293    47.88465    28.01911
   273  H   1.0    0.06    1.01    1.43   -10.69555    50.22438    29.76460
   274  H   1.0    0.05    1.02    1.43    -8.02358    50.50441    31.80341
   275  H   1.0    0.15    1.07    1.44    -7.46397    54.48428    29.66827
   276  N   5.0   -0.13    3.46    2.05    -7.68568    53.13221    24.59274
   277  C   4.0    0.04    4.41    4.40    -8.50350    53.96163    22.10989
   278  C   4.0    0.16    3.43    3.09    -6.65397    53.05668    20.05318
   279  O   6.0   -0.29    1.22    1.80    -4.36960    52.87028    20.41120
   280  C   4.0   -0.04    4.25    4.11    -8.67326    56.87877    21.90975
   281  C   4.0   -0.05    4.15    3.91   -11.09965    57.97899    23.05209
   282  C   4.0   -0.04    4.17    3.95   -11.01475    57.92224    25.95434
   283  C   4.0   -0.03    4.11    3.83   -13.64103    57.99529    27.16458
   284  N   5.0   -0.12    4.00    2.85   -13.40803    57.40025    29.92865
   285  H   1.0    0.11    1.08    1.44    -6.31138    54.15476    25.45671
   286  H   1.0    0.06    1.06    1.44   -10.33207    53.08534    21.75830
   287  H   1.0    0.05    1.03    1.43    -7.02009    57.69247    22.81482
   288  H   1.0    0.06    1.04    1.43    -8.61668    57.33525    19.91185
   289  H   1.0    0.04    1.03    1.43   -11.33263    59.88423    22.39355
   290  H   1.0    0.05    1.03    1.43   -12.69638    56.85759    22.37397
   291  H   1.0    0.06    1.05    1.44   -10.09006    56.15840    26.52323
   292  H   1.0    0.05    1.02    1.43    -9.86499    59.52291    26.60140
   293  H   1.0    0.05    1.03    1.43   -14.49935    59.82263    26.96557
   294  H   1.0    0.05    1.03    1.43   -14.78879    56.55236    26.26453
   295  H   1.0    0.07    1.02    1.43   -15.11919    56.85991    30.65565
   296  H   1.0    0.08    1.01    1.43   -12.10275    55.78826    30.09238
   297  H   1.0    0.07    1.04    1.44   -12.63809    58.76469    30.85780
   298  N   5.0   -0.14    3.49    2.07    -7.77249    52.57085    17.81975
   299  C   4.0    0.03    4.52    4.57    -6.29995    52.64299    15.49203
   300  C   4.0    0.15    3.47    3.10    -5.61761    55.42505    15.04026
   301  O   6.0   -0.29    1.25    1.80    -7.19020    57.08891    15.37717
   302  C   4.0   -0.02    4.34    4.28    -7.83589    51.55961    13.28565
   303  C   4.0   -0.04    4.21    4.01    -8.43127    48.78919    13.80288
   304  C   4.0   -0.06    4.14    3.88    -6.35761    51.90138    10.84897
   305  C   4.0   -0.06    4.02    3.65   -10.18681    47.60753    11.89364
   306  H   1.0    0.08    1.07    1.44    -9.60126    53.08720    17.57673
   307  H   1.0    0.06    1.06    1.44    -4.55741    51.57014    15.80126
   308  H   1.0    0.05    1.06    1.44    -9.58569    52.61966    13.13973
   309  H   1.0    0.04    1.03    1.43    -6.66619    47.69680    13.82428
   310  H   1.0    0.05    1.03    1.43    -9.26476    48.62307    15.69174
   311  H   1.0    0.05    1.00    1.43    -7.30610    50.97834     9.27963
   312  H   1.0    0.06    1.00    1.43    -6.11491    53.88427    10.40569
   313  H   1.0    0.06    0.99    1.43    -4.47110    51.03341    11.02224
   314  H   1.0    0.06    1.00    1.43   -10.82923    45.75743    12.57393
   315  H   1.0    0.05    1.00    1.43   -11.86299    48.77219    11.58750
   316  H   1.0    0.06    1.00    1.43    -9.27071    47.28016    10.08891
   317  N   5.0   -0.14    3.45    2.05    -3.19699    55.89439    14.45766
   318  C   4.0    0.04    4.40    4.39    -2.28527    58.48106    14.21522
   319  C   4.0    0.15    3.41    3.08    -1.18412    58.86060    11.56731
   320  O   6.0   -0.32    1.28    1.80     0.00061    57.15682    10.51398
   321  C   4.0   -0.04    4.26    4.12    -0.22407    59.08749    16.17649
   322  C   4.0   -0.03    4.21    4.01    -1.10892    58.70047    18.90139
   323  C   4.0    0.14    3.22    3.04     0.72014    60.00835    20.70317
   324  O   6.0   -0.30    1.20    1.80     2.39667    58.93110    21.86914
   325  N   5.0   -0.19    3.18    1.95     0.28978    62.53755    21.00705
   326  H   1.0    0.10    1.07    1.44    -1.97194    54.46309    14.23003
   327  H   1.0    0.06    1.07    1.44    -3.92477    59.69844    14.49035
   328  H   1.0    0.05    1.02    1.43     1.41160    57.83792    15.80383
   329  H   1.0    0.05    1.03    1.43     0.42179    61.01461    15.85023
   330  H   1.0    0.05    1.03    1.43    -2.96454    59.56996    19.11775
   331  H   1.0    0.07    1.03    1.43    -1.19968    56.71669    19.37535
   332  H   1.0    0.09    1.03    1.43    -0.99392    63.42411    19.95901
   333  H   1.0    0.10    1.03    1.43     1.55131    63.52064    21.99935
   334  N   5.0   -0.12    3.46    2.05    -1.54681    61.17107    10.55178
   335  C   4.0    0.04    4.43    4.43    -0.44358    61.88314     8.16320
   336  C   4.0    0.15    3.43    3.09     2.29412    62.77053     8.51710
   337  O   6.0   -0.29    1.22    1.80     2.97238    63.85886    10.47747
   338  C   4.0   -0.03    4.33    4.25    -1.88408    64.04394     6.91427
   339  C   4.0    0.16    3.22    3.04    -4.54030    63.26639     6.14003
   340  O   6.0   -0.27    1.23    1.80    -6.03688    62.46577     7.69914
   341  N   5.0   -0.17    3.18    1.95    -5.11444    63.47483     3.73671
   342  H   1.0    0.09    1.07    1.44    -2.62684    62.43964    11.44413
   343  H   1.0    0.05    1.05    1.44    -0.43260    60.20727     6.93017
   344  H   1.0    0.06    1.04    1.43    -2.00890    65.61070     8.21955
   345  H   1.0    0.05    1.03    1.43    -0.82250    64.64443     5.22343
   346  H   1.0    0.11    1.03    1.43    -6.89372    63.16119     3.15211
   347  H   1.0    0.09    1.01    1.43    -3.94030    64.30210     2.39184
   348  N   5.0   -0.14    3.50    2.08     3.79380    62.33709     6.53763
   349  C   4.0    0.04    4.41    4.39     6.35756    63.20506     6.43918
   350  C   4.0    0.09    3.26    3.04     6.70767    64.97669     4.19807
   351  O   6.0   -0.26    1.15    1.80     5.37695    64.83961     2.35228
   352  C   4.0   -0.02    4.26    4.11     8.28578    61.01468     6.29883
   353  C   4.0   -0.07    4.14    3.89     7.46140    58.86369     8.02726
   354  C   4.0   -0.06    4.14    3.89     8.63686    60.02479     3.63294
   355  H   1.0    0.09    1.07    1.44     3.08530    61.45484     5.00938
   356  H   1.0    0.06    1.06    1.44     6.73226    64.25087     8.19998
   357  H   1.0    0.04    1.05    1.44    10.09381    61.79277     6.98097
   358  H   1.0    0.04    1.00    1.43     9.00209    57.54777     8.32084
   359  H   1.0    0.05    1.00    1.43     6.88730    59.63929     9.85983
   360  H   1.0    0.05    1.01    1.43     5.86527    57.87343     7.23550
   361  H   1.0    0.05    1.00    1.43     9.90599    58.40074     3.65493
   362  H   1.0    0.06    1.01    1.43     6.84975    59.45460     2.83735
   363  H   1.0    0.06    1.00    1.43     9.47228    61.45164     2.39135
   364  N   5.0   -0.20    3.21    1.96    20.46128    46.09306    22.10945
   365  C   4.0    0.05    4.25    4.09    21.94235    45.47614    24.29379
   366  C   4.0    0.09    3.21    3.04    22.39674    42.63347    24.51022
   367  O   6.0   -0.25    1.12    1.80    24.44968    41.75049    25.02309
   368  C   4.0   -0.02    4.31    4.21    20.71998    46.45940    26.68204
   369  C   4.0    0.16    3.21    3.04    21.97133    48.90693    27.62483
   370  O   6.0   -0.30    1.26    1.80    23.57852    50.04721    26.39081
   371  N   5.0   -0.18    3.17    1.95    21.21671    49.67866    29.94725
   372  H   1.0    0.12    1.05    1.44    19.25655    47.57137    22.24009
   373  H   1.0    0.08    1.06    1.44    23.84276    46.33495    24.10437
   374  H   1.0    0.07    1.04    1.43    18.72477    46.87263    26.35306
   375  H   1.0    0.06    1.03    1.43    20.83101    45.05867    28.19380
   376  H   1.0    0.11    1.04    1.43    21.84130    51.29841    30.61712
   377  H   1.0    0.11    1.05    1.44    19.75679    48.75721    30.80036
   378  N   5.0   -0.21    3.26    1.97    11.87091    36.66465    22.26524
   379  C   4.0    0.03    4.33    4.26    10.24764    38.66028    23.17439
   380  C   4.0    0.14    3.40    3.08     8.14281    39.28730    21.32717
   381  O   6.0   -0.33    1.28    1.80     6.32405    40.57499    21.99983
   382  C   4.0   -0.04    4.28    4.17    11.76334    41.06879    23.70127
   383  C   4.0   -0.04    4.24    4.08    13.29468    40.78286    26.11949
   384  C   4.0    0.15    3.21    3.04    14.66963    43.17591    26.94799
   385  O   6.0   -0.31    1.23    1.80    14.48952    45.21912    25.88311
   386  N   5.0   -0.19    3.21    1.96    16.09502    42.85193    29.01011
   387  H   1.0    0.09    1.03    1.43    13.64620    37.14866    21.73465
   388  H   1.0    0.04    1.05    1.44     9.33190    38.04097    24.94936
   389  H   1.0    0.05    1.03    1.43    13.03461    41.44065    22.12758
   390  H   1.0    0.06    1.03    1.43    10.47329    42.67325    23.90464
   391  H   1.0    0.04    1.03    1.43    12.01953    40.26825    27.68002
   392  H   1.0    0.05    1.03    1.43    14.63867    39.25149    25.90781
   393  H   1.0    0.10    1.05    1.44    16.05746    41.18172    29.96495
   394  H   1.0    0.12    1.08    1.44    16.75709    44.36569    29.96722
   395  N   5.0   -0.14    3.51    2.08     8.47188    38.43418    18.97718
   396  C   4.0    0.03    4.50    4.53     7.09156    39.35644    16.75895
   397  C   4.0    0.14    3.45    3.09     6.03480    37.12313    15.29668
   398  O   6.0   -0.29    1.23    1.80     7.16187    35.11960    15.02348
   399  C   4.0   -0.02    4.28    4.17     8.98907    40.88330    15.14299
   400  C   4.0   -0.06    4.15    3.90     8.09028    41.25882    12.48934
   401  C   4.0   -0.07    4.13    3.85     9.51359    43.40988    16.40112
   402  H   1.0    0.09    1.09    1.44     9.95216    37.31252    18.56138
   403  H   1.0    0.06    1.07    1.44     5.55088    40.54829    17.40068
   404  H   1.0    0.05    1.05    1.44    10.76270    39.77162    15.07542
   405  H   1.0    0.05    1.00    1.43     9.48643    42.33691    11.42597
   406  H   1.0    0.06    1.00    1.43     7.81214    39.45582    11.52964
   407  H   1.0    0.05    1.00    1.43     6.30315    42.29382    12.46435
   408  H   1.0    0.04    1.00    1.43    10.90935    44.44744    15.30933
   409  H   1.0    0.04    1.01    1.43     7.79354    44.50321    16.51684
   410  H   1.0    0.05    1.00    1.43    10.25248    43.14225    18.31065
   411  N   5.0   -0.15    3.49    2.07     3.76739    37.62852    14.28379
   412  C   4.0    0.04    4.31    4.22     2.60283    35.82256    12.54356
   413  C   4.0    0.08    3.21    3.04     3.51429    36.49136     9.87433
   414  O   6.0   -0.30    1.16    1.80     2.50264    38.22146     8.58853
   415  C   4.0   -0.04    4.35    4.28    -0.29382    35.91584    12.68835
   416  C   4.0   -0.02    4.19    3.97    -1.34185    35.20005    15.27721
   417  C   4.0   -0.06    4.11    3.82    -4.15751    35.77679    15.37152
   418  C   4.0   -0.06    4.10    3.81    -0.86800    32.41915    15.89939
   419  H   1.0    0.11    1.11    1.45     2.87582    39.26561    14.56782
   420  H   1.0    0.06    1.06    1.44     3.30205    33.93601    13.03518
   421  H   1.0    0.06    1.03    1.43    -0.87908    37.82928    12.19660
   422  H   1.0    0.05    1.03    1.43    -1.05242    34.63248    11.25190
   423  H   1.0    0.06    1.06    1.44    -0.38573    36.40525    16.66888
   424  H   1.0    0.06    1.00    1.43    -4.95527    35.16023    17.15387
   425  H   1.0    0.06    1.00    1.43    -4.47081    37.80844    15.21006
   426  H   1.0    0.05    1.00    1.43    -5.14407    34.82715    13.84337
   427  H   1.0    0.06    1.00    1.43    -1.59596    31.97727    17.77583
   428  H   1.0    0.05    1.00    1.43    -1.80463    31.22188    14.54270
   429  H   1.0    0.05    1.00    1.43     1.14529    31.99539    15.92012
   430  N   5.0   -0.19    3.18    1.95    -0.35475    37.59444     4.03923
   431  C   4.0    0.04    4.22    4.04    -1.87844    39.89037     3.78673
   432  C   4.0    0.10    3.21    3.04    -0.40023    42.28049     4.51418
   433  O   6.0   -0.27    1.20    1.80    -1.50285    44.14109     5.36232
   434  C   4.0   -0.02    4.32    4.24    -4.30074    39.67636     5.39384
   435  C   4.0    0.18    3.31    3.05    -5.81359    42.07932     5.46565
   436  O   6.0   -0.28    1.20    1.80    -6.61244    42.93836     7.46898
   437  N   5.0   -0.16    3.20    1.96    -6.44853    43.05502     3.19769
   438  H   1.0    0.12    1.06    1.44     0.72340    37.51028     5.62036
   439  H   1.0    0.06    1.05    1.44    -2.36690    40.04989     1.78864
   440  H   1.0    0.05    1.04    1.43    -5.47756    38.22460     4.56499
   441  H   1.0    0.06    1.03    1.43    -3.81558    39.18779     7.34147
   442  H   1.0    0.13    1.04    1.43    -7.25775    44.81284     3.24403
   443  H   1.0    0.10    1.03    1.43    -5.81519    42.37978     1.57404
   444  N   5.0   -0.18    3.20    1.96   -23.40989    58.02956    15.16135
   445  C   4.0    0.03    4.20    4.00   -22.47972    60.61553    15.45798
   446  C   4.0    0.09    3.19    3.04   -19.73756    60.71579    14.36458
   447  O   6.0   -0.27    1.12    1.80   -18.11743    59.20433    15.06128
   448  C   4.0   -0.04    4.34    4.27   -22.45826    61.37400    18.25270
   449  C   4.0   -0.03    4.07    3.74   -21.68330    64.12436    18.59968
   450  S   6.0   -0.01    2.52    3.10   -19.28313    64.49083    20.90327
   451  C   4.0   -0.06    3.87    3.42   -16.38393    63.35508    19.26347
   452  H   1.0    0.10    1.03    1.43   -23.40299    56.91323    16.69543
   453  H   1.0    0.05    1.05    1.44   -23.68725    61.86796    14.34709
   454  H   1.0    0.05    1.03    1.43   -24.32259    61.04560    19.00338
   455  H   1.0    0.06    1.05    1.44   -21.11216    60.12453    19.22391
   456  H   1.0    0.05    1.08    1.44   -20.94399    64.94022    16.85111
   457  H   1.0    0.06    1.10    1.44   -23.20778    65.29842    19.26197
   458  H   1.0    0.05    1.04    1.43   -14.87397    63.47326    20.63126
   459  H   1.0    0.06    1.04    1.44   -16.68422    61.46428    18.62397
   460  H   1.0    0.06    1.04    1.43   -16.04013    64.62755    17.70116
   461  H   1.0    0.10    1.08    1.44     0.82506    55.11441     1.99865
   462  H   1.0    0.07    1.04    1.43    -2.50303    35.84031    24.73766
   463  H   1.0    0.11    1.07    1.44     2.68955    30.85012    28.61230
   464  H   1.0    0.07    1.05    1.44     6.94916    31.85094    33.91173
   465  H   1.0    0.09    1.11    1.45    17.87396    43.90960    37.89635
   466  H   1.0    0.06    1.05    1.44    20.05084    60.31974    12.74212
   467  H   1.0    0.10    1.08    1.44    16.72888    67.00210    18.56009
   468  H   1.0    0.07    1.05    1.44     8.06501    66.29095     4.23562
   469  H   1.0    0.11    1.08    1.44    21.49365    46.47320    20.81242
   470  H   1.0    0.07    1.05    1.44    20.97252    41.42456    24.22524
   471  H   1.0    0.10    1.07    1.44    12.06697    35.49333    23.48267
   472  H   1.0    0.07    1.04    1.43     4.95478    35.54261     9.10238
   473  H   1.0    0.10    1.08    1.44    -1.37696    36.23559     4.07339
   474  H   1.0    0.07    1.04    1.43     1.47652    42.33274     4.29938
   475  H   1.0    0.10    1.07    1.44   -25.02836    58.06470    14.63991
   476  H   1.0    0.06    1.04    1.43   -19.28019    62.02309    13.07895

  Z AO/shell   Hii/eV     exponent
  1     Wed Apr 25 08:07:45 CEST 2018   EN: 2.200 GM2: 0.406  GM3: 0.0800  RAES: 1.40
     1s    -10.707211    1.230000
  6     Wed Apr 25 08:07:45 CEST 2018   EN: 2.550 GM2: 0.538  GM3: 0.1500  RAES: 3.00
     2s    -13.970922    2.096432
     2p    -10.063292    1.800000
  7     Wed Apr 25 08:07:45 CEST 2018   EN: 3.040 GM2: 0.461  GM3:-0.0640  RAES: 1.90
     2s    -16.686243    2.339881
     2p    -12.523956    2.014332
  8     Wed Apr 25 08:07:45 CEST 2018   EN: 3.440 GM2: 0.452  GM3:-0.0517  RAES: 1.80
     2s    -20.229985    2.439742
     2p    -15.503117    2.137023
 16     Tue Apr 24 11:44:34 CEST 2018   EN: 2.580 GM2: 0.340  GM3:-0.0502  RAES: 3.10
     3s    -20.029654    1.981333
     3p    -11.377694    2.025643
     3d     -0.420282    1.702555
 no old-style atom pair restraining (fixing) potential

molecular fragmentation (1/2 indicates fragments):
111111111111111111111111111111111111111111111111111111111111111111111112
222222222222222222222222222222222222222222222222222222222222222222222222
222222222222222222222222222222222222222222222222222222222222222222222222
222222222222222222222222222222222222222222222222222222222222222222222222
222222222222222222222222222222222222222222222222222222222222222222222222
222222222222222222222222222222222222222222222222222222222222222222222222
22222222222222222222222222221122222222222222
# atoms in fragment 1/2:    73   403
 fragment masses (1/2) :      511.58     2735.27
CMA distance (Bohr)    :  10.794
constraining FC (au)   :  0.0500
           ------------------------------------------------- 
          |        Self-Consistent Charge Iterations        |
           ------------------------------------------------- 

 Ncao       : 1163
 Nao        : 1162
 Nshell     : 704
 Nel        : 1282
 T(el)      :   500.0
 intcut     :    35.0
 scfconv/Eh :  0.100E-06
   qconv/e  :  0.100E-04
 intneglect :  0.100E-08
 broydamp   :      0.400
 iter      E             dE          RMSdq      gap      omega  full diag
   1   -733.7622677 -0.733762E+03  0.467E+00    2.83       0.0  T
   2   -735.5628449 -0.180058E+01  0.216E+00    1.21       1.0  T
   3   -735.6753813 -0.112536E+00  0.125E+00    1.58       1.0  T
   4   -735.7937599 -0.118379E+00  0.259E-01    1.01       1.0  T
   5   -735.8010341 -0.727412E-02  0.130E-01    1.26       1.0  T
   6   -735.8028618 -0.182774E-02  0.570E-02    1.17       1.0  T
   7   -735.8032353 -0.373548E-03  0.242E-02    1.18       1.0  T
   8   -735.8032874 -0.520420E-04  0.130E-02    1.18       1.0  T
   9   -735.8033088 -0.213945E-04  0.551E-03    1.18       1.0  T
  10   -735.8033126 -0.386029E-05  0.259E-03    1.18       1.8  T
  11   -735.8033132 -0.527692E-06  0.127E-03    1.17       3.6  T
  12   -735.8033133 -0.168942E-06  0.615E-04    1.18       7.4  T
  13   -735.8033134 -0.428305E-07  0.271E-04    1.17      16.9  T
  14   -735.8033134 -0.487955E-08  0.149E-04    1.17      30.7  T
  15   -735.8033134 -0.256807E-08  0.537E-05    1.17      85.3  T
  16   -735.8033134 -0.310138E-09  0.243E-05    1.17     188.5  T
speedup  1.46
cpu  time for SCC   14.77 s
wall time for SCC   10.14 s

   *** convergence criteria satisfied after 16 iterations ***

          eigenvalues
 #    :         629        630        631        632        633        634        635        636
 occ. :        2.000      2.000      2.000      2.000      2.000      2.000      2.000      2.000
 eps  :       -10.568    -10.564    -10.450    -10.265    -10.193    -10.163    -10.152    -10.121
 #    :         637        638        639        640        641        642        643        644
 occ. :        2.000      2.000      2.000      2.000      2.000      0.000      0.000      0.000
 eps  :       -10.086     -9.812     -9.794     -9.689     -9.680     -8.505     -8.161     -8.160
 #    :         645        646        647        648        649        650        651        652
 occ. :        0.000      0.000      0.000      0.000      0.000      0.000      0.000      0.000
 eps  :        -7.896     -7.889     -7.798     -7.649     -7.457     -6.757     -6.641     -6.587


   #   Z            q   n(s)   n(p)   n(d)      C6AA      α(0)
   1   7 N     -0.386  1.308  4.078  0.000    29.979     8.132
   2   6 C      0.020  1.062  2.919  0.000    20.257     6.410
   3   6 C      0.274  1.042  2.684  0.000    22.364     7.744
   4   8 O     -0.492  1.750  4.742  0.000    23.606     6.514
   5   6 C     -0.075  1.058  3.017  0.000    21.938     6.668
   6   6 C     -0.085  1.047  3.037  0.000    22.115     6.695
   7   6 C      0.280  1.051  2.669  0.000    22.253     7.724
   8   8 O     -0.509  1.760  4.749  0.000    23.989     6.567
   9   7 N     -0.300  1.261  4.040  0.000    27.740     7.822
  10   1 H      0.159  0.841  0.000  0.000     1.342     1.815
  11   1 H      0.064  0.936  0.000  0.000     2.158     2.298
  12   1 H      0.048  0.952  0.000  0.000     2.350     2.397
  13   1 H      0.055  0.945  0.000  0.000     2.253     2.347
  14   1 H      0.075  0.925  0.000  0.000     2.032     2.229
  15   1 H      0.064  0.936  0.000  0.000     2.158     2.297
  16   1 H      0.225  0.775  0.000  0.000     0.988     1.557
  17   1 H      0.229  0.771  0.000  0.000     0.969     1.542
  18   7 N     -0.193  1.249  3.944  0.000    25.182     7.453
  19   6 C      0.023  1.060  2.917  0.000    20.179     6.395
  20   6 C      0.269  1.045  2.686  0.000    22.451     7.759
  21   8 O     -0.489  1.738  4.751  0.000    23.535     6.504
  22   6 C     -0.014  1.056  2.958  0.000    20.789     6.484
  23   6 C     -0.113  1.038  3.075  0.000    22.717     6.795
  24   6 C     -0.122  1.042  3.080  0.000    22.886     6.820
  25   1 H      0.223  0.777  0.000  0.000     0.996     1.563
  26   1 H      0.058  0.942  0.000  0.000     2.226     2.333
  27   1 H      0.050  0.950  0.000  0.000     2.314     2.379
  28   1 H      0.064  0.936  0.000  0.000     2.155     2.296
  29   1 H      0.026  0.974  0.000  0.000     2.642     2.542
  30   1 H      0.043  0.957  0.000  0.000     2.403     2.424
  31   1 H      0.057  0.943  0.000  0.000     2.232     2.336
  32   1 H      0.048  0.952  0.000  0.000     2.350     2.397
  33   1 H      0.047  0.953  0.000  0.000     2.358     2.401
  34   7 N     -0.169  1.252  3.917  0.000    24.663     7.376
  35   6 C      0.028  1.059  2.914  0.000    20.122     6.389
  36   6 C      0.258  1.051  2.692  0.000    22.661     7.796
  37   8 O     -0.487  1.727  4.761  0.000    23.500     6.500
  38   6 C     -0.109  1.036  3.073  0.000    22.632     6.783
  39   1 H      0.197  0.803  0.000  0.000     1.123     1.660
  40   1 H      0.067  0.933  0.000  0.000     2.121     2.278
  41   1 H      0.054  0.946  0.000  0.000     2.270     2.356
  42   1 H      0.071  0.929  0.000  0.000     2.078     2.254
  43   1 H      0.052  0.948  0.000  0.000     2.300     2.372
  44   7 N     -0.071  1.228  3.843  0.000    22.611     7.062
  45   6 C      0.020  1.065  2.915  0.000    20.208     6.395
  46   6 C      0.278  1.040  2.683  0.000    22.302     7.733
  47   8 O     -0.484  1.750  4.734  0.000    23.440     6.491
  48   6 C     -0.064  1.052  3.012  0.000    21.702     6.628
  49   6 C     -0.055  1.045  3.010  0.000    21.542     6.603
  50   6 C     -0.000  1.046  2.954  0.000    20.617     6.470
  51   1 H      0.071  0.929  0.000  0.000     2.069     2.250
  52   1 H      0.055  0.945  0.000  0.000     2.264     2.353
  53   1 H      0.071  0.929  0.000  0.000     2.079     2.255
  54   1 H      0.055  0.945  0.000  0.000     2.262     2.352
  55   1 H      0.064  0.936  0.000  0.000     2.150     2.293
  56   1 H      0.053  0.947  0.000  0.000     2.283     2.363
  57   1 H      0.070  0.930  0.000  0.000     2.088     2.260
  58   7 N     -0.186  1.253  3.933  0.000    25.038     7.432
  59   6 C      0.041  1.048  2.911  0.000    19.893     6.351
  60   6 C      0.201  1.092  2.707  0.000    23.718     7.976
  61   8 O     -0.361  1.749  4.611  0.000    20.909     6.131
  62   6 C     -0.097  1.058  3.039  0.000    22.333     6.726
  63   6 C      0.292  1.033  2.675  0.000    22.056     7.690
  64   8 O     -0.491  1.759  4.732  0.000    23.577     6.510
  65   7 N     -0.279  1.263  4.016  0.000    27.203     7.746
  66   1 H      0.235  0.765  0.000  0.000     0.943     1.521
  67   1 H      0.088  0.912  0.000  0.000     1.898     2.154
  68   1 H      0.085  0.915  0.000  0.000     1.927     2.171
  69   1 H      0.081  0.919  0.000  0.000     1.973     2.197
  70   1 H      0.234  0.766  0.000  0.000     0.947     1.525
  71   1 H      0.232  0.768  0.000  0.000     0.955     1.531
  72   7 N     -0.385  1.318  4.067  0.000    29.962     8.130
  73   6 C      0.043  1.060  2.897  0.000    19.870     6.350
  74   6 C      0.205  1.085  2.710  0.000    23.648     7.964
  75   8 O     -0.342  1.739  4.603  0.000    20.552     6.078
  76   6 C     -0.068  1.054  3.013  0.000    21.789     6.644
  77   6 C     -0.016  1.088  2.927  0.000    28.399     8.741
  78   6 C     -0.042  1.083  2.959  0.000    29.046     8.838
  79   6 C     -0.042  1.077  2.965  0.000    29.044     8.838
  80   6 C     -0.078  1.076  3.002  0.000    29.936     8.972
  81   6 C     -0.058  1.070  2.988  0.000    29.430     8.896
  82   6 C      0.131  1.049  2.820  0.000    25.128     8.216
  83   8 O     -0.417  1.726  4.691  0.000    21.190     6.214
  84   1 H      0.183  0.817  0.000  0.000     1.200     1.716
  85   1 H      0.027  0.973  0.000  0.000     2.629     2.536
  86   1 H      0.049  0.951  0.000  0.000     2.328     2.386
  87   1 H      0.076  0.924  0.000  0.000     2.020     2.223
  88   1 H      0.055  0.945  0.000  0.000     2.258     2.350
  89   1 H      0.033  0.967  0.000  0.000     2.537     2.491
  90   1 H      0.059  0.941  0.000  0.000     2.212     2.326
  91   1 H      0.044  0.956  0.000  0.000     2.402     2.424
  92   1 H      0.344  0.656  0.000  0.000     0.603     1.220
  93   7 N     -0.285  1.285  4.000  0.000    27.355     7.768
  94   6 C      0.018  1.067  2.915  0.000    20.258     6.406
  95   6 C      0.261  1.056  2.683  0.000    22.600     7.785
  96   8 O     -0.482  1.739  4.743  0.000    23.383     6.483
  97   6 C     -0.063  1.052  3.011  0.000    21.680     6.625
  98   6 C     -0.062  1.050  3.013  0.000    21.677     6.625
  99   6 C      0.012  1.047  2.941  0.000    20.419     6.441
 100   1 H      0.050  0.950  0.000  0.000     2.319     2.381
 101   1 H      0.035  0.965  0.000  0.000     2.511     2.478
 102   1 H      0.060  0.940  0.000  0.000     2.200     2.320
 103   1 H      0.033  0.967  0.000  0.000     2.542     2.493
 104   1 H      0.043  0.957  0.000  0.000     2.413     2.429
 105   1 H      0.038  0.962  0.000  0.000     2.480     2.463
 106   1 H      0.021  0.979  0.000  0.000     2.726     2.582
 107   7 N     -0.174  1.256  3.918  0.000    24.769     7.392
 108   6 C      0.019  1.061  2.920  0.000    20.249     6.407
 109   6 C      0.277  1.042  2.681  0.000    22.314     7.735
 110   8 O     -0.497  1.751  4.745  0.000    23.711     6.529
 111   6 C     -0.087  1.061  3.026  0.000    22.147     6.699
 112   6 C      0.004  1.083  2.913  0.000    27.939     8.670
 113   6 C     -0.045  1.082  2.963  0.000    29.109     8.848
 114   6 C     -0.039  1.080  2.959  0.000    28.957     8.825
 115   6 C     -0.037  1.082  2.955  0.000    28.917     8.818
 116   6 C     -0.026  1.078  2.949  0.000    28.655     8.778
 117   6 C     -0.030  1.077  2.953  0.000    28.747     8.793
 118   1 H      0.224  0.776  0.000  0.000     0.990     1.558
 119   1 H      0.072  0.928  0.000  0.000     2.059     2.244
 120   1 H      0.091  0.909  0.000  0.000     1.874     2.141
 121   1 H      0.075  0.925  0.000  0.000     2.032     2.229
 122   1 H      0.056  0.944  0.000  0.000     2.243     2.342
 123   1 H      0.019  0.981  0.000  0.000     2.748     2.592
 124   1 H      0.053  0.947  0.000  0.000     2.284     2.363
 125   1 H      0.023  0.977  0.000  0.000     2.694     2.567
 126   1 H      0.025  0.975  0.000  0.000     2.656     2.549
 127   7 N     -0.183  1.253  3.930  0.000    24.965     7.421
 128   6 C      0.024  1.061  2.915  0.000    20.164     6.393
 129   6 C      0.274  1.037  2.689  0.000    22.361     7.744
 130   8 O     -0.473  1.727  4.746  0.000    23.198     6.458
 131   6 C     -0.047  1.048  2.999  0.000    21.408     6.586
 132   6 C     -0.079  1.058  3.021  0.000    22.008     6.679
 133   6 C      0.343  1.048  2.609  0.000    21.165     7.529
 134   8 O     -0.640  1.795  4.845  0.000    27.127     6.983
 135   8 O     -0.606  1.786  4.820  0.000    26.274     6.872
 136   1 H      0.221  0.779  0.000  0.000     1.004     1.570
 137   1 H      0.068  0.932  0.000  0.000     2.113     2.273
 138   1 H      0.051  0.949  0.000  0.000     2.306     2.375
 139   1 H      0.039  0.961  0.000  0.000     2.460     2.453
 140   1 H      0.026  0.974  0.000  0.000     2.640     2.541
 141   1 H      0.030  0.970  0.000  0.000     2.579     2.512
 142   7 N     -0.166  1.241  3.925  0.000    24.581     7.363
 143   6 C      0.012  1.069  2.920  0.000    20.386     6.429
 144   6 C      0.270  1.044  2.686  0.000    22.436     7.756
 145   8 O     -0.467  1.730  4.736  0.000    23.058     6.438
 146   6 C     -0.014  1.059  2.955  0.000    20.781     6.484
 147   6 C     -0.125  1.040  3.085  0.000    22.943     6.829
 148   6 C     -0.119  1.039  3.080  0.000    22.835     6.813
 149   1 H      0.206  0.794  0.000  0.000     1.074     1.624
 150   1 H      0.073  0.927  0.000  0.000     2.054     2.241
 151   1 H      0.043  0.957  0.000  0.000     2.414     2.429
 152   1 H      0.064  0.936  0.000  0.000     2.150     2.293
 153   1 H      0.040  0.960  0.000  0.000     2.454     2.450
 154   1 H      0.052  0.948  0.000  0.000     2.293     2.368
 155   1 H      0.061  0.939  0.000  0.000     2.182     2.310
 156   1 H      0.055  0.945  0.000  0.000     2.255     2.348
 157   1 H      0.035  0.965  0.000  0.000     2.516     2.480
 158   7 N     -0.166  1.241  3.925  0.000    24.587     7.364
 159   6 C      0.024  1.055  2.921  0.000    20.174     6.396
 160   6 C      0.194  1.088  2.718  0.000    23.856     7.999
 161   8 O     -0.356  1.759  4.597  0.000    20.820     6.118
 162   6 C     -0.076  1.057  3.019  0.000    21.952     6.670
 163   6 C     -0.078  1.052  3.026  0.000    21.994     6.677
 164   6 C     -0.030  1.056  2.974  0.000    21.177     6.565
 165   7 N     -0.155  1.216  3.940  0.000    24.363     7.331
 166   6 C      0.234  1.030  2.736  0.000    23.103     7.870
 167   7 N     -0.224  1.253  3.970  0.000    25.894     7.558
 168   7 N     -0.331  1.248  4.083  0.000    28.525     7.932
 169   1 H      0.217  0.783  0.000  0.000     1.023     1.584
 170   1 H      0.093  0.907  0.000  0.000     1.852     2.128
 171   1 H      0.073  0.927  0.000  0.000     2.058     2.243
 172   1 H      0.074  0.926  0.000  0.000     2.037     2.232
 173   1 H      0.076  0.924  0.000  0.000     2.016     2.220
 174   1 H      0.044  0.956  0.000  0.000     2.399     2.422
 175   1 H      0.082  0.918  0.000  0.000     1.958     2.188
 176   1 H      0.090  0.910  0.000  0.000     1.878     2.143
 177   1 H      0.236  0.764  0.000  0.000     0.939     1.518
 178   1 H      0.262  0.738  0.000  0.000     0.837     1.434
 179   1 H      0.246  0.754  0.000  0.000     0.899     1.485
 180   1 H      0.236  0.764  0.000  0.000     0.939     1.518
 181   1 H      0.222  0.778  0.000  0.000     0.998     1.565
 182   7 N     -0.389  1.323  4.066  0.000    30.055     8.142
 183   6 C      0.020  1.067  2.913  0.000    20.259     6.411
 184   6 C      0.281  1.038  2.682  0.000    22.252     7.725
 185   8 O     -0.487  1.735  4.753  0.000    23.502     6.500
 186   6 C      0.109  1.057  2.834  0.000    18.891     6.208
 187   8 O     -0.481  1.716  4.765  0.000    22.489     6.402
 188   6 C     -0.115  1.036  3.079  0.000    22.764     6.804
 189   1 H      0.166  0.834  0.000  0.000     1.298     1.785
 190   1 H      0.061  0.939  0.000  0.000     2.183     2.311
 191   1 H      0.018  0.982  0.000  0.000     2.757     2.597
 192   1 H      0.317  0.683  0.000  0.000     0.673     1.289
 193   1 H      0.045  0.955  0.000  0.000     2.382     2.414
 194   1 H      0.047  0.953  0.000  0.000     2.352     2.398
 195   1 H      0.034  0.966  0.000  0.000     2.525     2.485
 196   7 N     -0.190  1.250  3.940  0.000    25.128     7.445
 197   6 C      0.025  1.056  2.918  0.000    20.150     6.392
 198   6 C      0.274  1.046  2.679  0.000    22.359     7.743
 199   8 O     -0.482  1.738  4.744  0.000    23.381     6.483
 200   6 C     -0.067  1.057  3.010  0.000    21.766     6.640
 201   6 C     -0.012  1.057  2.955  0.000    20.751     6.479
 202   6 C     -0.116  1.041  3.075  0.000    22.767     6.803
 203   6 C     -0.118  1.039  3.078  0.000    22.808     6.810
 204   1 H      0.221  0.779  0.000  0.000     1.004     1.570
 205   1 H      0.067  0.933  0.000  0.000     2.121     2.277
 206   1 H      0.045  0.955  0.000  0.000     2.389     2.417
 207   1 H      0.059  0.941  0.000  0.000     2.217     2.328
 208   1 H      0.031  0.969  0.000  0.000     2.577     2.510
 209   1 H      0.054  0.946  0.000  0.000     2.274     2.358
 210   1 H      0.040  0.960  0.000  0.000     2.450     2.448
 211   1 H      0.037  0.963  0.000  0.000     2.493     2.469
 212   1 H      0.046  0.954  0.000  0.000     2.366     2.405
 213   1 H      0.037  0.963  0.000  0.000     2.491     2.468
 214   1 H      0.042  0.958  0.000  0.000     2.416     2.431
 215   7 N     -0.182  1.254  3.928  0.000    24.938     7.417
 216   6 C      0.012  1.064  2.924  0.000    20.391     6.431
 217   6 C      0.264  1.047  2.689  0.000    22.555     7.778
 218   8 O     -0.454  1.733  4.722  0.000    22.799     6.402
 219   6 C      0.116  1.049  2.835  0.000    18.784     6.188
 220   8 O     -0.468  1.709  4.759  0.000    22.216     6.363
 221   6 C     -0.139  1.043  3.096  0.000    23.245     6.875
 222   1 H      0.209  0.791  0.000  0.000     1.060     1.613
 223   1 H      0.076  0.924  0.000  0.000     2.017     2.221
 224   1 H      0.057  0.943  0.000  0.000     2.232     2.336
 225   1 H      0.305  0.695  0.000  0.000     0.706     1.320
 226   1 H      0.065  0.935  0.000  0.000     2.144     2.290
 227   1 H      0.086  0.914  0.000  0.000     1.918     2.166
 228   1 H      0.053  0.947  0.000  0.000     2.287     2.365
 229   7 N     -0.179  1.259  3.920  0.000    24.881     7.408
 230   6 C      0.019  1.063  2.918  0.000    20.249     6.406
 231   6 C      0.277  1.038  2.685  0.000    22.313     7.735
 232   8 O     -0.450  1.748  4.703  0.000    22.710     6.389
 233   6 C     -0.113  1.060  3.052  0.000    22.644     6.774
 234   6 C      0.284  1.040  2.676  0.000    22.187     7.713
 235   8 O     -0.474  1.718  4.756  0.000    23.211     6.459
 236   7 N     -0.270  1.262  4.008  0.000    26.998     7.717
 237   1 H      0.214  0.786  0.000  0.000     1.037     1.595
 238   1 H      0.087  0.913  0.000  0.000     1.909     2.161
 239   1 H      0.090  0.910  0.000  0.000     1.883     2.146
 240   1 H      0.083  0.917  0.000  0.000     1.946     2.181
 241   1 H      0.256  0.744  0.000  0.000     0.862     1.454
 242   1 H      0.241  0.759  0.000  0.000     0.917     1.500
 243   7 N     -0.196  1.247  3.949  0.000    25.252     7.463
 244   6 C      0.008  1.065  2.928  0.000    20.461     6.442
 245   6 C      0.277  1.038  2.686  0.000    22.322     7.736
 246   8 O     -0.465  1.735  4.730  0.000    23.021     6.433
 247   6 C     -0.081  1.050  3.031  0.000    22.038     6.683
 248   6 C     -0.081  1.053  3.028  0.000    22.040     6.684
 249   6 C     -0.097  1.056  3.041  0.000    22.343     6.730
 250   6 C     -0.055  1.059  2.996  0.000    21.659     6.643
 251   7 N     -0.148  1.230  3.918  0.000    24.184     7.304
 252   1 H      0.218  0.782  0.000  0.000     1.018     1.580
 253   1 H      0.071  0.929  0.000  0.000     2.078     2.254
 254   1 H      0.075  0.925  0.000  0.000     2.035     2.231
 255   1 H      0.056  0.944  0.000  0.000     2.251     2.346
 256   1 H      0.061  0.939  0.000  0.000     2.188     2.313
 257   1 H      0.062  0.938  0.000  0.000     2.176     2.307
 258   1 H      0.082  0.918  0.000  0.000     1.958     2.188
 259   1 H      0.072  0.928  0.000  0.000     2.060     2.244
 260   1 H      0.121  0.879  0.000  0.000     1.602     1.979
 261   1 H      0.124  0.876  0.000  0.000     1.578     1.964
 262   1 H      0.303  0.697  0.000  0.000     0.704     1.314
 263   1 H      0.298  0.702  0.000  0.000     0.719     1.329
 264   1 H      0.296  0.704  0.000  0.000     0.724     1.333
 265   7 N     -0.202  1.247  3.955  0.000    25.385     7.483
 266   6 C     -0.005  1.066  2.939  0.000    20.670     6.475
 267   6 C      0.274  1.045  2.681  0.000    22.361     7.743
 268   8 O     -0.476  1.751  4.725  0.000    23.258     6.466
 269   6 C      0.052  1.044  2.904  0.000    19.927     6.396
 270   8 O     -0.455  1.681  4.774  0.000    21.954     6.325
 271   1 H      0.219  0.781  0.000  0.000     1.012     1.576
 272   1 H      0.080  0.920  0.000  0.000     1.976     2.198
 273   1 H      0.068  0.932  0.000  0.000     2.104     2.268
 274   1 H      0.065  0.935  0.000  0.000     2.147     2.291
 275   1 H      0.349  0.651  0.000  0.000     0.591     1.208
 276   7 N     -0.179  1.252  3.927  0.000    24.869     7.406
 277   6 C      0.009  1.067  2.923  0.000    20.423     6.435
 278   6 C      0.269  1.049  2.682  0.000    22.451     7.759
 279   8 O     -0.484  1.753  4.731  0.000    23.425     6.489
 280   6 C     -0.078  1.056  3.022  0.000    21.979     6.674
 281   6 C     -0.076  1.052  3.025  0.000    21.957     6.671
 282   6 C     -0.113  1.062  3.051  0.000    22.654     6.777
 283   6 C     -0.053  1.061  2.992  0.000    21.625     6.638
 284   7 N     -0.157  1.230  3.928  0.000    24.390     7.335
 285   1 H      0.222  0.778  0.000  0.000     0.999     1.565
 286   1 H      0.080  0.920  0.000  0.000     1.983     2.202
 287   1 H      0.064  0.936  0.000  0.000     2.158     2.297
 288   1 H      0.056  0.944  0.000  0.000     2.249     2.345
 289   1 H      0.068  0.932  0.000  0.000     2.110     2.272
 290   1 H      0.057  0.943  0.000  0.000     2.239     2.340
 291   1 H      0.092  0.908  0.000  0.000     1.857     2.131
 292   1 H      0.083  0.917  0.000  0.000     1.946     2.182
 293   1 H      0.123  0.877  0.000  0.000     1.591     1.972
 294   1 H      0.111  0.889  0.000  0.000     1.691     2.033
 295   1 H      0.296  0.704  0.000  0.000     0.727     1.336
 296   1 H      0.301  0.699  0.000  0.000     0.711     1.322
 297   1 H      0.291  0.709  0.000  0.000     0.740     1.347
 298   7 N     -0.190  1.273  3.917  0.000    25.117     7.443
 299   6 C      0.017  1.067  2.916  0.000    20.287     6.412
 300   6 C      0.271  1.047  2.682  0.000    22.418     7.754
 301   8 O     -0.485  1.738  4.746  0.000    23.445     6.492
 302   6 C     -0.019  1.061  2.958  0.000    20.881     6.499
 303   6 C     -0.059  1.048  3.010  0.000    21.627     6.620
 304   6 C     -0.107  1.036  3.071  0.000    22.592     6.777
 305   6 C     -0.107  1.036  3.072  0.000    22.615     6.782
 306   1 H      0.209  0.791  0.000  0.000     1.062     1.614
 307   1 H      0.071  0.929  0.000  0.000     2.071     2.251
 308   1 H      0.054  0.946  0.000  0.000     2.270     2.356
 309   1 H      0.029  0.971  0.000  0.000     2.598     2.521
 310   1 H      0.045  0.955  0.000  0.000     2.379     2.412
 311   1 H      0.052  0.948  0.000  0.000     2.298     2.371
 312   1 H      0.033  0.967  0.000  0.000     2.545     2.495
 313   1 H      0.030  0.970  0.000  0.000     2.583     2.514
 314   1 H      0.039  0.961  0.000  0.000     2.459     2.452
 315   1 H      0.042  0.958  0.000  0.000     2.420     2.433
 316   1 H      0.040  0.960  0.000  0.000     2.455     2.450
 317   7 N     -0.170  1.240  3.929  0.000    24.670     7.377
 318   6 C      0.014  1.063  2.922  0.000    20.338     6.422
 319   6 C      0.265  1.048  2.687  0.000    22.523     7.772
 320   8 O     -0.478  1.738  4.740  0.000    23.302     6.472
 321   6 C     -0.061  1.054  3.006  0.000    21.663     6.626
 322   6 C     -0.098  1.055  3.043  0.000    22.367     6.733
 323   6 C      0.283  1.046  2.672  0.000    22.214     7.717
 324   8 O     -0.479  1.747  4.732  0.000    23.314     6.474
 325   7 N     -0.293  1.266  4.027  0.000    27.558     7.797
 326   1 H      0.212  0.788  0.000  0.000     1.046     1.602
 327   1 H      0.089  0.911  0.000  0.000     1.892     2.151
 328   1 H      0.053  0.947  0.000  0.000     2.289     2.366
 329   1 H      0.064  0.936  0.000  0.000     2.147     2.292
 330   1 H      0.073  0.927  0.000  0.000     2.057     2.243
 331   1 H      0.078  0.922  0.000  0.000     2.003     2.213
 332   1 H      0.231  0.769  0.000  0.000     0.960     1.535
 333   1 H      0.224  0.776  0.000  0.000     0.993     1.561
 334   7 N     -0.152  1.233  3.919  0.000    24.293     7.320
 335   6 C      0.028  1.056  2.916  0.000    20.104     6.384
 336   6 C      0.263  1.045  2.692  0.000    22.567     7.780
 337   8 O     -0.482  1.753  4.729  0.000    23.394     6.485
 338   6 C     -0.110  1.063  3.047  0.000    22.589     6.765
 339   6 C      0.293  1.027  2.680  0.000    22.024     7.684
 340   8 O     -0.501  1.750  4.751  0.000    23.803     6.541
 341   7 N     -0.276  1.269  4.007  0.000    27.139     7.737
 342   1 H      0.221  0.779  0.000  0.000     1.004     1.570
 343   1 H      0.071  0.929  0.000  0.000     2.078     2.255
 344   1 H      0.093  0.907  0.000  0.000     1.849     2.127
 345   1 H      0.073  0.927  0.000  0.000     2.055     2.242
 346   1 H      0.239  0.761  0.000  0.000     0.929     1.510
 347   1 H      0.233  0.767  0.000  0.000     0.952     1.528
 348   7 N     -0.144  1.225  3.919  0.000    24.122     7.294
 349   6 C      0.014  1.060  2.925  0.000    20.339     6.422
 350   6 C      0.203  1.080  2.717  0.000    23.676     7.969
 351   8 O     -0.355  1.743  4.612  0.000    20.797     6.114
 352   6 C     -0.016  1.064  2.953  0.000    20.829     6.491
 353   6 C     -0.119  1.039  3.079  0.000    22.821     6.811
 354   6 C     -0.121  1.039  3.082  0.000    22.871     6.819
 355   1 H      0.213  0.787  0.000  0.000     1.044     1.600
 356   1 H      0.096  0.904  0.000  0.000     1.821     2.110
 357   1 H      0.058  0.942  0.000  0.000     2.228     2.334
 358   1 H      0.061  0.939  0.000  0.000     2.185     2.312
 359   1 H      0.044  0.956  0.000  0.000     2.392     2.418
 360   1 H      0.052  0.948  0.000  0.000     2.289     2.366
 361   1 H      0.059  0.941  0.000  0.000     2.211     2.325
 362   1 H      0.057  0.943  0.000  0.000     2.240     2.340
 363   1 H      0.035  0.965  0.000  0.000     2.512     2.479
 364   7 N     -0.395  1.305  4.090  0.000    30.224     8.165
 365   6 C      0.051  1.044  2.905  0.000    19.743     6.329
 366   6 C      0.201  1.089  2.710  0.000    23.724     7.977
 367   8 O     -0.378  1.755  4.624  0.000    21.252     6.181
 368   6 C     -0.102  1.063  3.039  0.000    22.447     6.744
 369   6 C      0.286  1.048  2.665  0.000    22.145     7.705
 370   8 O     -0.487  1.735  4.752  0.000    23.498     6.499
 371   7 N     -0.285  1.265  4.020  0.000    27.351     7.767
 372   1 H      0.186  0.814  0.000  0.000     1.182     1.703
 373   1 H      0.047  0.953  0.000  0.000     2.357     2.401
 374   1 H      0.110  0.890  0.000  0.000     1.693     2.035
 375   1 H      0.073  0.927  0.000  0.000     2.049     2.239
 376   1 H      0.213  0.787  0.000  0.000     1.041     1.598
 377   1 H      0.234  0.766  0.000  0.000     0.947     1.525
 378   7 N     -0.391  1.310  4.081  0.000    30.135     8.153
 379   6 C      0.025  1.058  2.916  0.000    20.165     6.395
 380   6 C      0.262  1.049  2.689  0.000    22.585     7.782
 381   8 O     -0.499  1.738  4.761  0.000    23.754     6.534
 382   6 C     -0.060  1.049  3.012  0.000    21.656     6.624
 383   6 C     -0.099  1.059  3.039  0.000    22.374     6.733
 384   6 C      0.286  1.039  2.675  0.000    22.148     7.706
 385   8 O     -0.499  1.750  4.750  0.000    23.772     6.537
 386   7 N     -0.303  1.282  4.022  0.000    27.815     7.833
 387   1 H      0.165  0.835  0.000  0.000     1.301     1.787
 388   1 H      0.054  0.946  0.000  0.000     2.274     2.358
 389   1 H      0.050  0.950  0.000  0.000     2.322     2.383
 390   1 H      0.058  0.942  0.000  0.000     2.225     2.333
 391   1 H      0.066  0.934  0.000  0.000     2.133     2.284
 392   1 H      0.065  0.935  0.000  0.000     2.138     2.286
 393   1 H      0.215  0.785  0.000  0.000     1.032     1.591
 394   1 H      0.231  0.769  0.000  0.000     0.960     1.535
 395   7 N     -0.166  1.243  3.922  0.000    24.585     7.364
 396   6 C      0.005  1.071  2.924  0.000    20.497     6.446
 397   6 C      0.272  1.040  2.689  0.000    22.409     7.752
 398   8 O     -0.482  1.747  4.735  0.000    23.384     6.483
 399   6 C     -0.015  1.061  2.953  0.000    20.802     6.487
 400   6 C     -0.110  1.036  3.074  0.000    22.662     6.787
 401   6 C     -0.119  1.040  3.080  0.000    22.835     6.813
 402   1 H      0.221  0.779  0.000  0.000     1.003     1.569
 403   1 H      0.081  0.919  0.000  0.000     1.967     2.194
 404   1 H      0.051  0.949  0.000  0.000     2.305     2.374
 405   1 H      0.061  0.939  0.000  0.000     2.186     2.312
 406   1 H      0.027  0.973  0.000  0.000     2.635     2.538
 407   1 H      0.037  0.963  0.000  0.000     2.487     2.466
 408   1 H      0.060  0.940  0.000  0.000     2.196     2.317
 409   1 H      0.047  0.953  0.000  0.000     2.363     2.404
 410   1 H      0.047  0.953  0.000  0.000     2.360     2.403
 411   7 N     -0.183  1.256  3.927  0.000    24.961     7.420
 412   6 C      0.027  1.060  2.912  0.000    20.122     6.388
 413   6 C      0.190  1.098  2.712  0.000    23.940     8.013
 414   8 O     -0.375  1.770  4.606  0.000    21.194     6.172
 415   6 C     -0.069  1.057  3.013  0.000    21.823     6.650
 416   6 C     -0.009  1.055  2.955  0.000    20.704     6.472
 417   6 C     -0.111  1.039  3.072  0.000    22.671     6.788
 418   6 C     -0.119  1.040  3.079  0.000    22.828     6.812
 419   1 H      0.236  0.764  0.000  0.000     0.942     1.520
 420   1 H      0.085  0.915  0.000  0.000     1.926     2.170
 421   1 H      0.057  0.943  0.000  0.000     2.239     2.340
 422   1 H      0.054  0.946  0.000  0.000     2.274     2.358
 423   1 H      0.034  0.966  0.000  0.000     2.529     2.487
 424   1 H      0.045  0.955  0.000  0.000     2.387     2.416
 425   1 H      0.035  0.965  0.000  0.000     2.515     2.480
 426   1 H      0.042  0.958  0.000  0.000     2.421     2.433
 427   1 H      0.042  0.958  0.000  0.000     2.418     2.432
 428   1 H      0.050  0.950  0.000  0.000     2.317     2.380
 429   1 H      0.036  0.964  0.000  0.000     2.499     2.472
 430   7 N     -0.390  1.326  4.065  0.000    30.101     8.148
 431   6 C      0.034  1.062  2.904  0.000    20.024     6.375
 432   6 C      0.200  1.090  2.710  0.000    23.738     7.979
 433   8 O     -0.367  1.764  4.603  0.000    21.036     6.149
 434   6 C     -0.102  1.059  3.042  0.000    22.429     6.741
 435   6 C      0.298  1.035  2.666  0.000    21.935     7.669
 436   8 O     -0.507  1.751  4.756  0.000    23.934     6.559
 437   7 N     -0.289  1.264  4.026  0.000    27.467     7.784
 438   1 H      0.173  0.827  0.000  0.000     1.252     1.753
 439   1 H      0.086  0.914  0.000  0.000     1.917     2.165
 440   1 H      0.077  0.923  0.000  0.000     2.014     2.219
 441   1 H      0.067  0.933  0.000  0.000     2.118     2.276
 442   1 H      0.224  0.776  0.000  0.000     0.990     1.559
 443   1 H      0.214  0.786  0.000  0.000     1.039     1.597
 444   7 N     -0.390  1.318  4.072  0.000    30.090     8.147
 445   6 C      0.038  1.062  2.900  0.000    19.951     6.363
 446   6 C      0.200  1.093  2.707  0.000    23.744     7.980
 447   8 O     -0.352  1.756  4.597  0.000    20.753     6.108
 448   6 C     -0.067  1.056  3.011  0.000    21.751     6.634
 449   6 C     -0.004  1.052  2.952  0.000    20.656     6.471
 450  16 S     -0.225  1.909  4.264  0.052   150.690    20.661
 451   6 C     -0.070  1.061  3.009  0.000    21.916     6.679
 452   1 H      0.173  0.827  0.000  0.000     1.253     1.754
 453   1 H      0.039  0.961  0.000  0.000     2.464     2.455
 454   1 H      0.057  0.943  0.000  0.000     2.238     2.339
 455   1 H      0.070  0.930  0.000  0.000     2.090     2.261
 456   1 H      0.031  0.969  0.000  0.000     2.569     2.507
 457   1 H      0.056  0.944  0.000  0.000     2.242     2.342
 458   1 H      0.088  0.912  0.000  0.000     1.899     2.155
 459   1 H      0.067  0.933  0.000  0.000     2.114     2.274
 460   1 H      0.045  0.955  0.000  0.000     2.382     2.413
 461   1 H      0.182  0.818  0.000  0.000     1.201     1.717
 462   1 H      0.078  0.922  0.000  0.000     1.996     2.209
 463   1 H      0.168  0.832  0.000  0.000     1.284     1.775
 464   1 H      0.058  0.942  0.000  0.000     2.228     2.334
 465   1 H      0.176  0.824  0.000  0.000     1.239     1.744
 466   1 H      0.089  0.911  0.000  0.000     1.891     2.150
 467   1 H      0.189  0.811  0.000  0.000     1.162     1.688
 468   1 H      0.075  0.925  0.000  0.000     2.032     2.229
 469   1 H      0.180  0.820  0.000  0.000     1.215     1.726
 470   1 H      0.072  0.928  0.000  0.000     2.064     2.246
 471   1 H      0.182  0.818  0.000  0.000     1.204     1.719
 472   1 H      0.084  0.916  0.000  0.000     1.941     2.179
 473   1 H      0.192  0.808  0.000  0.000     1.147     1.677
 474   1 H      0.085  0.915  0.000  0.000     1.928     2.171
 475   1 H      0.182  0.818  0.000  0.000     1.200     1.716
 476   1 H      0.062  0.938  0.000  0.000     2.178     2.308

 Mol. C6AA /au·bohr⁶  :    2054030.137596
 Mol. C8AA /au·bohr⁸  :   45780665.025655
 Mol. α(0) /au        :       2145.365373

 
molecular dipole:
                 x           y           z       tot (Debye)
 q only:       -5.740     109.039      64.656
   full:       -4.921     109.987      64.026     323.724
molecular quadrupole (traceless):
                xx          xy          yy          xz          yz          zz
 q only:    -3874.765    -773.541    4694.634    -320.468    5025.783    -819.869
  q+dip:    -3913.134    -719.478    4810.392    -231.063    4997.342    -897.258
   full:    -3913.026    -716.197    4806.997    -228.560    4994.149    -893.971
speedup  1.52
cpu  time for grad   17.49 s
wall time for grad   11.52 s

SCC energy    :    -735.8255485
rep           :       8.9180824
ES            :       2.1239354
AES           :      -0.0796367
AXC           :       0.2492764
disp          :      -0.6141798
XB            :       0.0000000
fix           :       0.0000000
Gborn         :       0.0000000
Gsasa         :       0.0000000
Ghb           :       0.0000000
Gshift        :       0.0000000
Gsolv         :      -0.5348182     -335.60
Etot ala COSMO:    -735.8255485
grad norm     :       0.7490907
total E       :    -726.8452225
atomizationE  :     131.7305771    82662.19
(atE without considering molecular charge,
 total energy contains solvation terms)
H-L gap (eV)  :          1.1747

------------------------------------------------------------------------
 * finished run on 2019/05/11 at 17:06:00.058     
------------------------------------------------------------------------
 total:
 * wall-time:     0 d,  0 h,  0 min, 12.600 sec
 *  cpu-time:     0 d,  0 h,  0 min, 18.667 sec
 * ratio c/w:     1.482 speedup
 SCF:
 * wall-time:     0 d,  0 h,  0 min, 12.153 sec
 *  cpu-time:     0 d,  0 h,  0 min, 18.282 sec
 * ratio c/w:     1.504 speedup

