      -----------------------------------------------------------      
     |                   =====================                   |     
     |                           x T B                           |     
     |                   =====================                   |     
     |                         S. Grimme                         |     
     |          Mulliken Center for Theoretical Chemistry        |     
     |                    University of Bonn                     |     
     |                 Version 6.0.1 (SAW181210)                 |     
      -----------------------------------------------------------      

   This program is distributed in the hope that it will be useful,
   but WITHOUT ANY WARRANTY; without even the implied warranty of
   MERCHANTABILITY or FITNESS FOR A PARTICULAR PURPOSE.
   
   FOR NON-COMMERCIAL, ACADEMIA USE ONLY.
   
   Cite this work as:
   S. Grimme, C. Bannwarth, P. Shushkov, J. Comput. Theory Chem., 2017,
   13, 1989-2009.
   C. Bannwarth, S. Ehlert and S. Grimme., ChemRxiv, 2018, preprint.
   http://doi.org/10.26434/chemrxiv.7246238.v1
   
   for sTDA-xTB:
   S. Grimme and C. Bannwarth, J. Chem. Phys., 2016, 145, 054103.
   
   in the mass-spec context:
   V. Asgeirsson, C. Bauer and S. Grimme, Chem. Sci., 2017, 8, 4879.
   
   if GBSA is used:
   P. Shushkov, F. März and S. Grimme, unpublished.
   
   for ANC optimizer:
   S. Grimme, unpublished.
   Rational Function algorithm used in ANCopt:
   F. Eckert, P. Pulay, H.-J. Werner, J. Comput. Chem., 1997, 18, 1473.
   
   with help from (in alphabetical order)
   C. Bannwarth, F. Bohle, G. Brandenburg, E. Caldeweyher, M. Checinski,
   S. Dohm, S. Ehlert, S. Ehrlich, F. März, H. Neugebauer, J. Pisarek,
   P. Pracht, P. Shushkov, and S. Spicher.
   
 * started run on 2019/05/12 at 13:11:41.458     
========================================================================
 # omp threads = 2
========================================================================
number of atoms            : 460
number of electrons        : 1202
charge                     : 5
spin                       : .0
first test random number   : .9250

########################################################################
# WARNING! Please study the warnings concerning your input carefully
#  - Process number higher than OMP_NUM_THREADS, I hope you know what you are doing.
########################################################################

           ------------------------------------------------- 
          |                 G F N 2 - x T B                 |
          | Geometry, Frequencies, Noncovalent interactions |
          |            JCTC 2018 parametrisation            |
           ------------------------------------------------- 
 
      method parameters     
 k(s)        :  1.8500
 k(p)        :  2.2300
 k(d)        :  2.2300
 k(f)        :  2.0000
 kEN (H0ij)  : -2.0000
 D4 a1       :  0.5200
 D4 a2       :  5.0000
 D4 s6       :  1.0000
 D4 s8       :  2.7000
 D4 s9       :  5.0000
 alphaj      :  2.0000

 Solvent             : h2o
 Using internal parameter file: .param_gbsa2_h2o
 Gsolv ref. state (COSMO-RS): gsolv [1 M gas/solution]
 temperature (mdtemp)       :    298.150000000000     
 dielectric constant        :    80.2000000000000     
 rho                        :    1.00000000000000     
 mass                       :    18.0000000000000     
 surface tension            :    15.5689454083859     
 probe radius               :   0.975313790000000     
 vdW radii scaling          :    1.00000000000000     
 Gshift (Eh)                :   1.857443126794793E-003
 c1                         :    1.55243817000000     
 soset                      :   0.130326360000000     
 HB correction              :  T

            Z     q(EN)     CN     RAES       Cart. coordinates
     1  N   5.0   -0.23    3.26    1.97   124.12476   101.76741   395.79932
     2  C   4.0    0.02    4.46    4.47   122.28795    99.71706   395.51397
     3  C   4.0    0.15    3.46    3.10   121.23348    98.91393   398.09534
     4  O   6.0   -0.32    1.25    1.80   118.95447    98.40559   398.35234
     5  C   4.0   -0.03    4.46    4.48   123.44824    97.44561   394.11935
     6  C   4.0   -0.05    4.33    4.26   124.34586    98.21473   391.50208
     7  C   4.0   -0.08    4.27    4.13   121.49615    95.33478   394.06077
     8  C   4.0   -0.06    4.15    3.90   125.78583    96.13414   390.16038
     9  H   1.0    0.11    1.08    1.44   125.61764   101.45372   395.23807
    10  H   1.0    0.04    1.13    1.45   120.90845   100.35957   394.49352
    11  H   1.0    0.05    1.13    1.45   124.93734    96.83901   394.99997
    12  H   1.0    0.05    1.10    1.44   122.88888    98.64747   390.47596
    13  H   1.0    0.06    1.10    1.44   125.45702    99.66415   391.65515
    14  H   1.0    0.05    1.06    1.44   122.19913    93.89481   393.17071
    15  H   1.0    0.05    1.07    1.44   121.07663    94.86235   395.78042
    16  H   1.0    0.05    1.06    1.44   119.99571    95.93383   393.19339
    17  H   1.0    0.07    1.06    1.44   126.19212    96.68972   388.46151
    18  H   1.0    0.07    1.06    1.44   127.32784    95.78076   391.08823
    19  H   1.0    0.06    1.06    1.44   124.73892    94.62992   390.09235
    20  N   5.0   -0.17    3.48    2.06   122.88888    98.70228   400.02664
    21  C   4.0    0.03    4.45    4.46   122.02716    98.01820   402.57021
    22  C   4.0    0.16    3.49    3.11   120.11665    99.94572   403.53208
    23  O   6.0   -0.29    1.26    1.80   118.08708    99.27108   404.46749
    24  C   4.0   -0.05    4.31    4.22   124.25704    97.79521   404.42592
    25  C   4.0   -0.05    4.18    3.97   125.25859    95.09290   405.06276
    26  C   4.0   -0.05    4.15    3.91   127.17100    95.00408   407.37389
    27  C   4.0   -0.02    4.14    3.89   129.16844    92.83846   407.07721
    28  N   5.0   -0.16    4.04    2.98   130.73313    92.97074   404.56576
    29  H   1.0    0.10    1.13    1.45   124.49137    98.94416   399.90381
    30  H   1.0    0.06    1.13    1.45   121.23537    96.36846   402.48139
    31  H   1.0    0.05    1.09    1.44   125.66867    98.72495   403.71727
    32  H   1.0    0.06    1.10    1.44   123.74114    98.55299   406.01329
    33  H   1.0    0.05    1.08    1.44   123.82996    94.02331   405.48417
    34  H   1.0    0.05    1.08    1.44   126.12976    94.42772   403.59444
    35  H   1.0    0.06    1.08    1.44   128.06862    96.59901   407.47783
    36  H   1.0    0.06    1.08    1.44   126.23558    94.70929   408.92158
    37  H   1.0    0.07    1.07    1.44   130.35330    92.93483   408.47371
    38  H   1.0    0.06    1.07    1.44   128.29727    91.22652   407.10366
    39  H   1.0    0.10    1.07    1.44   131.85941    91.72352   404.52230
    40  H   1.0    0.08    1.07    1.44   129.70701    92.82712   403.24106
    41  H   1.0    0.09    1.07    1.44   131.54382    94.44094   404.46938
    42  N   5.0   -0.16    3.55    2.11   120.72325   102.37401   403.29208
    43  C   4.0    0.03    4.62    4.69   119.15478   104.30909   404.46371
    44  C   4.0    0.16    3.53    3.13   116.54129   104.29964   403.28264
    45  O   6.0   -0.31    1.27    1.80   114.59109   104.34500   404.58277
    46  C   4.0   -0.03    4.43    4.43   120.41145   106.90369   404.19348
    47  C   4.0   -0.07    4.26    4.12   118.53495   108.92002   405.02685
    48  C   4.0   -0.07    4.25    4.10   122.85486   106.92258   405.63723
    49  H   1.0    0.09    1.13    1.45   122.01205   102.93904   402.47761
    50  H   1.0    0.07    1.13    1.45   118.98281   103.93304   406.24951
    51  H   1.0    0.05    1.13    1.45   120.85553   107.28163   402.45494
    52  H   1.0    0.06    1.06    1.44   119.35509   110.55842   404.97016
    53  H   1.0    0.06    1.06    1.44   117.09687   108.90302   403.89113
    54  H   1.0    0.06    1.06    1.44   117.98693   108.55531   406.73705
    55  H   1.0    0.06    1.06    1.44   123.68823   108.53452   405.37834
    56  H   1.0    0.06    1.06    1.44   122.49582   106.68448   407.41925
    57  H   1.0    0.06    1.06    1.44   123.92067   105.56387   405.02685
    58  N   5.0   -0.16    3.55    2.11   116.49594   104.27508   400.76930
    59  C   4.0    0.03    4.58    4.64   114.15268   104.33177   399.31799
    60  C   4.0    0.16    3.55    3.14   112.57286   101.99796   399.85656
    61  O   6.0   -0.31    1.29    1.80   110.26740   102.13969   400.22128
    62  C   4.0   -0.03    4.50    4.54   114.80463   104.57365   396.50041
    63  C   4.0   -0.05    4.35    4.29   115.55485   107.32132   395.99585
    64  C   4.0   -0.09    4.26    4.12   112.65034   103.59478   394.83178
    65  C   4.0   -0.08    4.22    4.03   116.37121   107.55942   393.34646
    66  H   1.0    0.09    1.14    1.45   117.82630   104.22595   399.83578
    67  H   1.0    0.05    1.13    1.45   113.15490   105.78497   399.82444
    68  H   1.0    0.05    1.14    1.45   116.23137   103.50785   396.06388
    69  H   1.0    0.05    1.10    1.44   114.11866   108.42303   396.28120
    70  H   1.0    0.05    1.10    1.44   116.94191   107.80131   397.09378
    71  H   1.0    0.04    1.06    1.44   113.10199   103.83477   393.07056
    72  H   1.0    0.05    1.06    1.44   112.39145   101.81276   395.17193
    73  H   1.0    0.05    1.06    1.44   111.12155   104.53208   395.21729
    74  H   1.0    0.06    1.06    1.44   116.86065   109.29797   393.02709
    75  H   1.0    0.05    1.06    1.44   117.79796   106.44637   393.05922
    76  H   1.0    0.05    1.07    1.44   114.98038   107.09077   392.24853
    77  N   5.0   -0.17    3.56    2.12   113.78418    99.81343   399.88491
    78  C   4.0    0.04    4.48    4.51   112.50105    97.49474   400.60111
    79  C   4.0    0.17    3.46    3.10   111.27084    97.74607   403.21461
    80  O   6.0   -0.30    1.23    1.80   109.19214    96.75775   403.64546
    81  C   4.0    0.03    4.29    4.18   114.44936    95.37636   400.46694
    82  O   6.0   -0.28    2.12    1.84   113.22860    93.03877   400.36679
    83  H   1.0    0.12    1.16    1.46   115.35076    99.61690   399.49562
    84  H   1.0    0.06    1.13    1.45   111.12722    97.09412   399.45594
    85  H   1.0    0.05    1.08    1.44   115.47170    95.58990   398.96083
    86  H   1.0    0.06    1.08    1.44   115.51328    95.43683   401.95983
    87  H   1.0    0.14    1.08    1.44   114.30007    91.86903   400.31955
    88  N   5.0   -0.15    3.52    2.09   112.50483    99.10668   404.95882
    89  C   4.0    0.05    4.47    4.49   111.37856    99.60557   407.42491
    90  C   4.0    0.18    3.52    3.12   109.16758   101.43671   407.17925
    91  O   6.0   -0.29    1.26    1.80   107.15691   101.05687   408.31120
    92  C   4.0    0.04    4.26    4.11   113.36844   100.65436   409.25039
    93  O   6.0   -0.26    2.11    1.84   112.17602   101.92804   411.29507
    94  H   1.0    0.13    1.14    1.45   113.98260    99.75296   404.75473
    95  H   1.0    0.07    1.13    1.45   110.75684    98.02764   408.12033
    96  H   1.0    0.06    1.07    1.44   114.36999    99.26919   409.90801
    97  H   1.0    0.07    1.08    1.44   114.44369   101.83544   408.35277
    98  H   1.0    0.16    1.08    1.44   113.27017   102.46850   412.30986
    99  N   5.0   -0.15    3.54    2.11   109.50773   103.47194   405.74306
   100  C   4.0    0.04    4.46    4.48   107.41769   105.23317   405.41425
   101  C   4.0    0.17    3.51    3.12   105.11790   103.89902   404.34655
   102  O   6.0   -0.32    1.28    1.80   102.98817   104.46783   405.08921
   103  C   4.0   -0.07    4.22    4.04   108.17358   107.42903   403.71160
   104  H   1.0    0.13    1.15    1.45   110.88156   103.86123   404.96827
   105  H   1.0    0.06    1.13    1.45   106.99250   105.93048   407.05453
   106  H   1.0    0.06    1.06    1.44   106.75440   108.57987   403.55854
   107  H   1.0    0.06    1.06    1.44   109.60411   108.29830   404.45804
   108  H   1.0    0.06    1.06    1.44   108.62901   106.77519   402.05998
   109  N   5.0   -0.16    3.57    2.13   105.49206   102.07166   402.64769
   110  C   4.0    0.04    4.65    4.71   103.30565   100.83200   401.50629
   111  C   4.0    0.16    3.54    3.13   102.01497    98.99896   403.29964
   112  O   6.0   -0.29    1.39    1.80    99.70950    98.74574   403.25051
   113  C   4.0   -0.04    4.23    4.07   103.97839    99.36179   399.15169
   114  S   6.0   -0.07    2.50    3.10   104.92703   101.38569   396.71962
   115  H   1.0    0.13    1.15    1.45   106.94148   101.53498   402.14313
   116  H   1.0    0.05    1.16    1.45   102.16992   102.20205   401.06032
   117  H   1.0    0.06    1.16    1.46   105.35978    98.21473   399.52397
   118  H   1.0    0.05    1.16    1.46   102.51385    98.41693   398.58478
   119  H   1.0    0.06    1.01    1.43   106.70527   102.60645   397.42448
   120  N   5.0   -0.16    3.53    2.10   103.41903    97.60057   404.84355
   121  C   4.0    0.05    4.54    4.59   102.06410    95.93761   406.59344
   122  C   4.0    0.17    3.47    3.10   100.37090    97.50608   408.30742
   123  O   6.0   -0.24    1.21    1.80    98.21662    96.72562   408.85733
   124  C   4.0   -0.04    4.26    4.13   103.94627    94.19717   407.95971
   125  C   4.0   -0.04    4.22    4.04   104.01052    91.57234   406.46493
   126  C   4.0   -0.05    4.20    4.00   106.59566    90.69362   405.36133
   127  C   4.0   -0.02    4.23    4.06   106.27252    88.73964   403.20894
   128  N   5.0   -0.16    4.10    3.15   108.72727    87.70407   402.22817
   129  H   1.0    0.12    1.13    1.45   105.04231    97.57600   404.91536
   130  H   1.0    0.07    1.15    1.45   100.94916    94.77543   405.71849
   131  H   1.0    0.06    1.08    1.44   105.62056    94.94361   407.95026
   132  H   1.0    0.06    1.08    1.44   103.40013    93.90426   409.68503
   133  H   1.0    0.06    1.08    1.44   103.45305    90.25709   407.61389
   134  H   1.0    0.05    1.10    1.44   102.85022    91.70084   405.05142
   135  H   1.0    0.07    1.08    1.44   107.48572    92.14682   404.68481
   136  H   1.0    0.06    1.08    1.44   107.58588    89.91694   406.69359
   137  H   1.0    0.06    1.08    1.44   105.28230    87.32991   403.83633
   138  H   1.0    0.06    1.08    1.44   105.40513    89.54277   401.80865
   139  H   1.0    0.08    1.08    1.44   108.43247    86.59291   400.99985
   140  H   1.0    0.09    1.09    1.44   109.67591    88.95318   401.61779
   141  H   1.0    0.08    1.08    1.44   109.56631    86.93873   403.46783
   142  N   5.0   -0.15    3.52    2.09   101.17026    99.84178   408.88378
   143  C   4.0    0.04    4.54    4.59    99.81343   101.37435   410.72627
   144  C   4.0    0.16    3.44    3.09    97.71017   102.96361   409.55653
   145  O   6.0   -0.25    1.24    1.80    95.63714   103.01463   410.59210
   146  C   4.0    0.05    4.35    4.28   101.62001   103.09967   412.19269
   147  O   6.0   -0.26    2.14    1.85   103.75918   101.70694   413.11488
   148  C   4.0   -0.06    4.22    4.04   100.23295   104.32988   414.35832
   149  H   1.0    0.12    1.13    1.45   102.47606   100.55988   408.23372
   150  H   1.0    0.08    1.14    1.45    99.04999   100.20650   411.91301
   151  H   1.0    0.05    1.11    1.45   102.24929   104.40925   411.07775
   152  H   1.0    0.17    1.08    1.44   104.67192   101.24774   411.89979
   153  H   1.0    0.07    1.06    1.44   101.32900   105.53175   415.20303
   154  H   1.0    0.07    1.06    1.44    98.75141   105.21049   413.73471
   155  H   1.0    0.07    1.06    1.44    99.70383   103.05809   415.56774
   156  N   5.0   -0.16    3.51    2.09    98.17693   104.29209   407.45704
   157  C   4.0    0.04    4.49    4.53    96.25508   105.89646   406.24951
   158  C   4.0    0.16    3.43    3.09    95.12880   104.80231   403.82499
   159  O   6.0   -0.26    1.24    1.80    93.44506   105.95315   402.67981
   160  C   4.0   -0.03    4.45    4.46    97.34167   108.52696   405.63534
   161  C   4.0    0.00    3.69    3.23    98.39992   109.72127   407.93325
   162  C   4.0   -0.02    3.59    3.16    96.87302   110.98549   409.59432
   163  C   4.0   -0.03    3.59    3.16   100.86979   109.49072   408.51718
   164  C   4.0   -0.01    3.51    3.12    97.81599   112.01540   411.79018
   165  C   4.0   -0.04    3.54    3.13   101.85434   110.51495   410.71871
   166  C   4.0    0.09    3.52    3.12   100.33878   111.78674   412.35710
   167  O   6.0   -0.22    2.13    1.84   101.38947   112.84121   414.53406
   168  H   1.0    0.12    1.15    1.45    99.60745   104.29775   406.68414
   169  H   1.0    0.08    1.14    1.45    94.89637   106.07977   407.46649
   170  H   1.0    0.06    1.10    1.44    98.67960   108.36256   404.39379
   171  H   1.0    0.07    1.10    1.44    96.00753   109.60222   404.98150
   172  H   1.0    0.08    1.11    1.44    95.16282   111.15368   409.23149
   173  H   1.0    0.07    1.11    1.45   101.93749   108.62523   407.41925
   174  H   1.0    0.09    1.10    1.44    96.74452   112.86577   412.89189
   175  H   1.0    0.07    1.10    1.44   103.56454   110.33165   411.07775
   176  H   1.0    0.16    1.10    1.44   102.95794   112.60121   414.55107
   177  N   5.0   -0.15    3.54    2.11    96.03209   102.64802   402.98217
   178  C   4.0    0.05    4.68    4.74    95.18928   101.51041   400.62001
   179  C   4.0    0.17    3.51    3.12    93.06333    99.69060   401.31921
   180  O   6.0   -0.24    1.24    1.80    93.48852    97.43427   401.83888
   181  C   4.0   -0.03    4.29    4.17    97.37947   100.19894   399.30098
   182  S   6.0   -0.01    2.60    3.10    96.96373   100.50696   396.14136
   183  H   1.0    0.13    1.16    1.46    97.16593   101.77686   403.75507
   184  H   1.0    0.06    1.18    1.46    94.52976   102.78030   399.47295
   185  H   1.0    0.05    1.20    1.46    98.96495   100.98507   399.78097
   186  H   1.0    0.08    1.19    1.46    97.40403    98.41882   399.73751
   187  H   1.0    0.05    1.01    1.43    98.34134    99.05754   395.07178
   188  N   5.0   -0.14    3.41    2.03    90.75976   100.69027   401.42881
   189  C   4.0    0.03    4.37    4.32    88.62437    99.03676   401.89936
   190  C   4.0    0.17    3.41    3.08    88.33713    97.11302   399.77530
   191  O   6.0   -0.26    1.23    1.80    88.76610    97.67238   397.53598
   192  H   1.0    0.12    1.12    1.45    90.40071   102.26441   401.24362
   193  H   1.0    0.07    1.10    1.44    88.87003    98.13914   403.47728
   194  H   1.0    0.06    1.09    1.44    87.08613   100.02886   402.00896
   195  N   5.0   -0.15    3.47    2.06    87.69840    94.77920   400.53119
   196  C   4.0    0.04    4.45    4.46    87.17873    92.71751   398.78320
   197  C   4.0    0.18    3.43    3.09    89.57679    91.88226   397.40748
   198  O   6.0   -0.24    1.22    1.80    91.47407    91.18495   398.62068
   199  C   4.0   -0.04    4.38    4.34    85.04901    93.51309   396.94260
   200  C   4.0   -0.04    4.25    4.10    82.40717    93.79088   398.32399
   201  C   4.0   -0.04    4.26    4.11    80.29068    94.59590   396.56088
   202  C   4.0   -0.02    4.25    4.11    77.71120    94.46740   397.88369
   203  N   5.0   -0.15    4.10    3.15    75.57392    95.36880   396.24719
   204  H   1.0    0.11    1.13    1.45    87.55100    94.34457   402.09022
   205  H   1.0    0.06    1.13    1.45    86.59102    91.24542   399.70160
   206  H   1.0    0.07    1.09    1.44    85.47608    95.13069   396.19427
   207  H   1.0    0.06    1.09    1.44    84.88082    92.24130   395.63491
   208  H   1.0    0.06    1.09    1.44    81.94608    92.17516   399.05532
   209  H   1.0    0.06    1.09    1.44    82.55457    95.05699   399.64302
   210  H   1.0    0.06    1.09    1.44    80.57602    96.32311   396.01853
   211  H   1.0    0.06    1.09    1.44    80.25099    93.48096   395.10768
   212  H   1.0    0.07    1.08    1.44    77.36916    92.72885   398.35234
   213  H   1.0    0.07    1.08    1.44    77.75655    95.52376   399.38224
   214  H   1.0    0.11    1.08    1.44    74.12450    95.29132   397.09945
   215  H   1.0    0.10    1.08    1.44    75.84226    96.95806   395.77097
   216  H   1.0    0.10    1.08    1.44    75.45109    94.40126   394.87524
   217  N   5.0   -0.14    3.51    2.08    89.50120    91.92572   394.86958
   218  C   4.0    0.05    4.48    4.51    91.71596    91.26054   393.32189
   219  C   4.0    0.16    3.44    3.09    94.08568    92.72885   394.11746
   220  O   6.0   -0.27    1.23    1.80    93.98174    95.01542   394.52754
   221  C   4.0    0.05    4.33    4.25    91.16227    91.84635   390.51376
   222  O   6.0   -0.25    2.17    1.85    88.54500    91.35502   390.01865
   223  C   4.0   -0.07    4.17    3.94    92.81200    90.37614   388.66183
   224  H   1.0    0.11    1.16    1.45    88.18973    92.33201   394.00030
   225  H   1.0    0.06    1.12    1.45    92.05044    89.47096   393.54299
   226  H   1.0    0.05    1.12    1.45    91.56100    93.61135   390.21518
   227  H   1.0    0.16    1.08    1.44    88.15572    91.88981   388.57490
   228  H   1.0    0.06    1.05    1.44    92.45295    90.90716   386.94595
   229  H   1.0    0.05    1.05    1.44    94.58267    90.68039   389.02276
   230  H   1.0    0.07    1.05    1.44    92.47374    88.58090   388.81300
   231  N   5.0   -0.16    3.49    2.07    96.26831    91.43250   394.23274
   232  C   4.0    0.04    4.43    4.44    98.67960    92.57201   395.07934
   233  C   4.0    0.14    3.50    3.12   100.64113    91.44573   393.27087
   234  O   6.0   -0.26    1.25    1.80   100.56366    89.14782   392.76253
   235  C   4.0    0.05    4.24    4.08    99.15014    91.91627   397.85156
   236  O   6.0   -0.27    2.08    1.84   101.38191    92.97830   398.85312
   237  H   1.0    0.12    1.14    1.45    96.40815    89.86403   393.82645
   238  H   1.0    0.05    1.13    1.45    98.73062    94.40126   394.96217
   239  H   1.0    0.07    1.08    1.44    97.73096    92.53421   398.83611
   240  H   1.0    0.07    1.08    1.44    99.26730    90.09268   397.99707
   241  H   1.0    0.15    1.08    1.44   102.11701    91.92005   399.77908
   242  N   5.0   -0.09    3.68    2.24   102.32866    92.98019   392.19750
   243  C   4.0    0.04    4.57    4.63   104.09933    92.02776   390.28888
   244  C   4.0    0.09    3.23    3.04   106.35756    90.63126   391.36224
   245  O   6.0   -0.28    1.14    1.80   107.06242    90.93550   393.54677
   246  C   4.0   -0.05    4.50    4.54   105.02530    94.42394   388.96418
   247  C   4.0   -0.05    4.46    4.47   104.54909    96.46295   390.68761
   248  C   4.0   -0.02    4.44    4.45   103.02597    95.55210   392.93828
   249  H   1.0    0.06    1.12    1.45   103.18093    90.92605   389.14749
   250  H   1.0    0.04    1.11    1.44   106.81865    94.27654   388.61269
   251  H   1.0    0.04    1.10    1.44   104.09744    94.66393   387.40327
   252  H   1.0    0.04    1.11    1.44   106.15913    97.12435   391.26020
   253  H   1.0    0.04    1.11    1.44   103.61556    97.76497   389.79944
   254  H   1.0    0.05    1.08    1.44   104.04642    95.54265   394.46139
   255  H   1.0    0.04    1.08    1.44   101.53686    96.59145   393.18772
   256  N   5.0   -0.22    3.24    1.96   113.98449    88.18217   391.90082
   257  C   4.0    0.03    4.28    4.16   116.42602    89.44073   391.84034
   258  C   4.0    0.10    3.20    3.04   117.61843    89.27443   389.21363
   259  O   6.0   -0.27    1.11    1.80   118.74093    91.11692   388.31790
   260  C   4.0   -0.05    4.33    4.25   118.13055    88.33524   393.90204
   261  C   4.0   -0.06    4.23    4.06   117.46537    89.26498   396.64970
   262  C   4.0   -0.05    4.24    4.07   116.85498    87.04834   398.42982
   263  C   4.0   -0.03    4.24    4.08   114.13567    86.02033   397.98951
   264  N   5.0   -0.16    4.10    3.16   113.60277    83.67518   399.47862
   265  H   1.0    0.11    1.09    1.44   113.85788    86.94440   392.94772
   266  H   1.0    0.04    1.13    1.45   116.22193    91.22463   392.20884
   267  H   1.0    0.06    1.09    1.44   117.97181    86.50787   393.87747
   268  H   1.0    0.06    1.09    1.44   119.86343    88.81901   393.55244
   269  H   1.0    0.05    1.08    1.44   118.89589    90.17961   397.33945
   270  H   1.0    0.04    1.09    1.44   115.99705    90.36103   396.57600
   271  H   1.0    0.06    1.09    1.44   118.04173    85.68395   398.12746
   272  H   1.0    0.05    1.08    1.44   116.98160    87.61336   400.16837
   273  H   1.0    0.05    1.08    1.44   112.92435    87.29967   398.49218
   274  H   1.0    0.05    1.08    1.44   113.92591    85.62348   396.21128
   275  H   1.0    0.09    1.08    1.44   112.02673    83.15928   399.19516
   276  H   1.0    0.09    1.09    1.44   114.66668    82.45252   399.02886
   277  H   1.0    0.08    1.09    1.44   113.78796    83.98320   401.12079
   278  N   5.0   -0.21    3.25    1.97   114.40590    94.46740   385.27544
   279  C   4.0    0.03    4.39    4.36   115.21281    96.99774   386.04456
   280  C   4.0    0.10    3.25    3.04   117.76394    97.62135   384.89560
   281  O   6.0   -0.24    1.11    1.80   118.13622    99.65470   383.80334
   282  C   4.0   -0.03    4.47    4.50   115.29407    97.19427   388.94151
   283  C   4.0   -0.06    4.37    4.33   112.58798    96.86735   389.94117
   284  C   4.0   -0.08    4.26    4.11   116.43546    99.66793   389.78999
   285  C   4.0   -0.09    4.18    3.97   112.44247    96.30232   392.64915
   286  H   1.0    0.11    1.09    1.44   114.29818    93.41860   386.51321
   287  H   1.0    0.05    1.13    1.45   113.99016    98.21095   385.41717
   288  H   1.0    0.05    1.13    1.45   116.36932    95.87147   389.61803
   289  H   1.0    0.04    1.10    1.44   111.66202    98.42260   389.64637
   290  H   1.0    0.04    1.11    1.45   111.79241    95.48407   389.03977
   291  H   1.0    0.04    1.06    1.44   116.36743    99.76052   391.61925
   292  H   1.0    0.06    1.06    1.44   118.17590    99.74729   389.22307
   293  H   1.0    0.05    1.06    1.44   115.47548   101.04932   389.05867
   294  H   1.0    0.05    1.06    1.44   110.68125    96.14737   393.13292
   295  H   1.0    0.05    1.06    1.44   113.32120    94.72818   392.97796
   296  H   1.0    0.04    1.07    1.44   113.23049    97.66671   393.58645
   297  N   5.0   -0.21    3.25    1.97   100.66192   101.14947   374.15818
   298  C   4.0    0.03    4.38    4.35    98.94227   100.09311   376.06491
   299  C   4.0    0.16    3.42    3.08   100.08745   100.21028   378.71620
   300  O   6.0   -0.29    1.22    1.80    98.79298   100.91137   380.53978
   301  C   4.0   -0.05    4.38    4.34    98.28465    97.39270   375.36760
   302  C   4.0   -0.05    4.25    4.10    96.21162    97.16593   373.34749
   303  C   4.0   -0.04    4.25    4.09    96.30232    94.52409   372.01334
   304  C   4.0   -0.02    4.27    4.13    93.64726    93.50931   371.50122
   305  N   5.0   -0.15    4.12    3.21    93.60002    91.51754   369.52646
   306  H   1.0    0.12    1.08    1.44   101.25908   100.07233   373.09804
   307  H   1.0    0.06    1.13    1.45    97.40214   101.08711   376.08570
   308  H   1.0    0.06    1.10    1.44    99.78887    96.57067   374.71565
   309  H   1.0    0.06    1.10    1.44    97.69694    96.52342   376.86994
   310  H   1.0    0.06    1.09    1.44    94.56756    97.36057   374.13739
   311  H   1.0    0.06    1.09    1.44    96.45350    98.46417   372.07759
   312  H   1.0    0.07    1.09    1.44    97.17727    94.68283   370.41085
   313  H   1.0    0.06    1.09    1.44    97.17727    93.32979   373.09237
   314  H   1.0    0.06    1.08    1.44    92.97641    92.78743   373.04702
   315  H   1.0    0.07    1.09    1.44    92.57956    94.88692   370.93809
   316  H   1.0    0.11    1.09    1.44    92.02209    90.99786   369.26946
   317  H   1.0    0.10    1.09    1.44    94.21607    92.12414   368.08271
   318  H   1.0    0.10    1.09    1.44    94.53543    90.20418   370.00834
   319  N   5.0   -0.15    3.47    2.06   102.52897    99.54887   378.93163
   320  C   4.0    0.04    4.41    4.40   103.98028    99.88147   381.25788
   321  C   4.0    0.09    3.25    3.04   103.93871   102.62157   382.17818
   322  O   6.0   -0.31    1.15    1.80   103.49840   103.15447   384.42506
   323  C   4.0    0.05    4.34    4.27   106.75251    99.07266   380.87049
   324  O   6.0   -0.26    2.14    1.85   107.01707    96.67271   379.62894
   325  C   4.0   -0.08    4.23    4.05   108.07910    98.85156   383.37248
   326  H   1.0    0.11    1.14    1.45   103.40013    98.89125   377.72787
   327  H   1.0    0.06    1.13    1.45   103.20927    98.80810   382.52778
   328  H   1.0    0.06    1.11    1.45   107.51596   100.36146   379.81413
   329  H   1.0    0.16    1.08    1.44   108.55342    96.29477   379.49854
   330  H   1.0    0.05    1.06    1.44   109.82331    98.35079   383.11548
   331  H   1.0    0.05    1.06    1.44   108.04508   100.46350   384.24554
   332  H   1.0    0.05    1.06    1.44   107.24573    97.59301   384.41561
   333  N   5.0   -0.21    3.16    1.95   100.03642   107.13234   381.20119
   334  C   4.0    0.03    4.23    4.06    97.54765   107.81642   382.17440
   335  C   4.0    0.17    3.35    3.06    97.08278   106.91314   384.86537
   336  O   6.0   -0.27    1.23    1.80    96.12658   108.34744   386.43951
   337  H   1.0    0.12    1.07    1.44   100.00052   106.19315   379.87460
   338  H   1.0    0.07    1.09    1.44    97.37569   109.64001   382.14794
   339  H   1.0    0.07    1.09    1.44    96.26075   107.07943   381.09536
   340  N   5.0   -0.15    3.47    2.06    97.71584   104.50562   385.41717
   341  C   4.0    0.04    4.49    4.52    97.75363   103.60800   388.04011
   342  C   4.0    0.16    3.49    3.11    99.49596   105.19537   389.69173
   343  O   6.0   -0.29    1.23    1.80    98.75330   106.03819   391.75720
   344  C   4.0   -0.05    4.54    4.59    98.62291   100.87546   388.22719
   345  C   4.0   -0.03    4.39    4.36    96.70673    98.96117   387.37870
   346  C   4.0   -0.08    4.30    4.20    98.21851    96.61413   386.74942
   347  C   4.0   -0.07    4.28    4.17    94.79621    98.27898   389.29677
   348  H   1.0    0.12    1.13    1.45    98.12591   103.38124   384.31924
   349  H   1.0    0.07    1.13    1.45    96.02642   103.73084   388.63726
   350  H   1.0    0.06    1.11    1.45   100.11390   100.66570   387.18217
   351  H   1.0    0.04    1.11    1.45    99.02920   100.51263   389.97707
   352  H   1.0    0.06    1.14    1.45    95.74863    99.65659   385.98030
   353  H   1.0    0.05    1.06    1.44    97.07522    95.30833   386.16172
   354  H   1.0    0.05    1.06    1.44    99.43171    97.02042   385.43795
   355  H   1.0    0.04    1.06    1.44    99.09345    96.04721   388.25742
   356  H   1.0    0.05    1.06    1.44    93.66427    97.02231   388.59002
   357  H   1.0    0.06    1.07    1.44    95.64659    97.59490   390.76887
   358  H   1.0    0.06    1.06    1.44    93.85324    99.78131   389.75976
   359  N   5.0   -0.17    3.50    2.08   101.87135   105.53741   388.86970
   360  C   4.0    0.04    4.56    4.62   103.71383   106.78085   390.50431
   361  C   4.0    0.10    3.34    3.06   102.91259   109.45671   391.08067
   362  O   6.0   -0.28    1.14    1.80   102.96739   110.23338   393.27276
   363  C   4.0   -0.03    4.46    4.47   106.35189   106.74306   389.33646
   364  C   4.0   -0.07    4.31    4.22   107.99028   108.58743   390.74619
   365  C   4.0   -0.09    4.30    4.19   107.31376   104.12390   389.48764
   366  H   1.0    0.12    1.15    1.45   102.43826   105.07632   387.41650
   367  H   1.0    0.06    1.14    1.45   103.76674   105.83599   392.07467
   368  H   1.0    0.06    1.13    1.45   106.35000   107.24762   387.57523
   369  H   1.0    0.05    1.06    1.44   109.71560   108.43059   390.14904
   370  H   1.0    0.07    1.07    1.44   107.37423   110.28630   390.44006
   371  H   1.0    0.05    1.06    1.44   107.91091   108.20760   392.53765
   372  H   1.0    0.05    1.06    1.44   108.94837   104.04075   388.65994
   373  H   1.0    0.04    1.07    1.44   107.48194   103.65147   391.25075
   374  H   1.0    0.05    1.07    1.44   106.13079   103.00518   388.64860
   375  N   5.0   -0.20    3.19    1.95    97.47017   111.92658   391.01642
   376  C   4.0    0.03    4.26    4.11    95.33478   111.90579   392.73796
   377  C   4.0    0.17    3.36    3.07    96.14737   111.96626   395.46295
   378  O   6.0   -0.22    1.21    1.80    95.08534   113.39490   396.98985
   379  H   1.0    0.14    1.08    1.44    97.47773   110.73794   389.90904
   380  H   1.0    0.08    1.09    1.44    94.28032   113.36844   392.41671
   381  H   1.0    0.07    1.09    1.44    94.34835   110.38645   392.46395
   382  N   5.0   -0.14    3.48    2.06    98.08434   110.44503   396.07711
   383  C   4.0    0.05    4.33    4.25    99.21061   110.38267   398.59612
   384  C   4.0    0.11    3.24    3.04   100.46917   112.88467   399.21972
   385  O   6.0   -0.23    1.12    1.80    99.83611   114.09598   401.08299
   386  C   4.0   -0.08    4.21    4.03   101.14191   108.23972   398.80965
   387  H   1.0    0.12    1.14    1.45    98.78920   109.41324   395.03776
   388  H   1.0    0.07    1.13    1.45    97.86702   110.06709   399.80365
   389  H   1.0    0.05    1.06    1.44   101.80899   108.20571   400.51608
   390  H   1.0    0.05    1.05    1.44   100.31421   106.65046   398.42982
   391  H   1.0    0.07    1.06    1.44   102.50063   108.54019   397.61535
   392  O   6.0   -0.34    2.00    1.83   108.11689    92.17327   398.64714
   393  H   1.0    0.16    1.03    1.43   109.51907    92.75531   398.18793
   394  H   1.0    0.16    1.02    1.43   107.02085    93.21262   398.12179
   395  N   5.0   -0.19    3.23    1.96    99.84178   101.17026   425.50202
   396  C   4.0    0.04    4.36    4.30   101.37435    99.81343   423.65954
   397  C   4.0    0.11    3.23    3.04   102.96361    97.71017   424.82928
   398  O   6.0   -0.22    1.12    1.80   103.01463    95.63714   423.79371
   399  C   4.0    0.05    4.34    4.27   103.09967   101.62001   422.19311
   400  O   6.0   -0.26    2.14    1.85   101.70694   103.75918   421.27093
   401  C   4.0   -0.05    4.22    4.03   104.32988   100.23295   420.02749
   402  H   1.0    0.13    1.08    1.44   100.55988   102.47606   426.15209
   403  H   1.0    0.08    1.13    1.45   100.20650    99.04999   422.47279
   404  H   1.0    0.06    1.11    1.45   104.40925   102.24929   423.30805
   405  H   1.0    0.16    1.08    1.44   101.24774   104.67192   422.48602
   406  H   1.0    0.07    1.06    1.44   105.53175   101.32900   419.18278
   407  H   1.0    0.07    1.06    1.44   105.21049    98.75141   420.65110
   408  H   1.0    0.07    1.06    1.44   103.05809    99.70383   418.81806
   409  N   5.0   -0.18    3.24    1.97   123.52950    97.77253   419.47191
   410  C   4.0    0.04    4.27    4.14   124.08508    99.53942   417.43478
   411  C   4.0    0.10    3.23    3.04   126.72124   100.67137   417.72769
   412  O   6.0   -0.20    1.12    1.80   127.99114   100.40870   419.71379
   413  C   4.0   -0.04    4.40    4.38   122.23503   101.79009   417.27416
   414  C   4.0   -0.03    4.34    4.28   119.44769   101.18727   417.20046
   415  C   4.0    0.16    3.32    3.06   118.66156    99.98729   414.80428
   416  O   6.0   -0.27    1.21    1.80   119.84075   100.46917   412.80117
   417  N   5.0   -0.23    3.21    1.96   116.56963    98.49630   414.90255
   418  H   1.0    0.14    1.08    1.44   123.84130    98.31866   420.97235
   419  H   1.0    0.06    1.12    1.45   123.97547    98.53787   415.90221
   420  H   1.0    0.07    1.10    1.44   122.51093   102.85211   418.74436
   421  H   1.0    0.07    1.10    1.44   122.61865   102.72739   415.74537
   422  H   1.0    0.06    1.11    1.44   119.05085   100.03453   418.56862
   423  H   1.0    0.06    1.10    1.44   118.49527   102.74251   417.39321
   424  H   1.0    0.12    1.08    1.44   115.78162    98.29410   416.31040
   425  H   1.0    0.13    1.08    1.44   116.03484    97.75552   413.55895
   426  N   5.0   -0.20    3.24    1.97   125.05261   111.57320   412.13032
   427  C   4.0    0.04    4.31    4.21   122.40889   112.09287   412.65567
   428  C   4.0    0.11    3.21    3.04   122.05551   114.91423   413.09219
   429  O   6.0   -0.23    1.12    1.80   120.18279   115.97626   412.19268
   430  C   4.0   -0.04    4.38    4.35   121.53017   110.44125   414.86476
   431  C   4.0   -0.03    4.30    4.20   118.69936   110.16157   415.11798
   432  C   4.0    0.16    3.26    3.05   117.49371   108.36444   413.20936
   433  O   6.0   -0.28    1.20    1.80   118.64833   106.46716   412.53850
   434  N   5.0   -0.23    3.18    1.95   115.10510   108.94081   412.35142
   435  H   1.0    0.12    1.09    1.44   125.78961   110.62834   413.22636
   436  H   1.0    0.06    1.13    1.45   121.32419   111.63745   411.25160
   437  H   1.0    0.06    1.10    1.44   122.22936   108.76129   414.64366
   438  H   1.0    0.07    1.10    1.44   122.15000   111.18014   416.42378
   439  H   1.0    0.06    1.09    1.44   118.32330   109.51907   416.79417
   440  H   1.0    0.07    1.10    1.44   117.92646   111.80753   414.88932
   441  H   1.0    0.12    1.08    1.44   114.34732   110.27307   412.89377
   442  H   1.0    0.13    1.08    1.44   114.37188   107.96949   411.27617
   443  H   1.0    0.11    1.08    1.44   123.57679   103.14142   394.96003
   444  H   1.0    0.06    1.05    1.44   107.32088    89.41884   390.27914
   445  H   1.0    0.10    1.08    1.44   112.77969    89.30095   392.33598
   446  H   1.0    0.08    1.04    1.43   117.49087    87.67353   388.21769
   447  H   1.0    0.10    1.08    1.44   112.87082    94.55742   384.54880
   448  H   1.0    0.08    1.05    1.44   119.18252    96.37845   385.01343
   449  H   1.0    0.12    1.08    1.44    99.84240   102.32703   373.24477
   450  H   1.0    0.07    1.04    1.43   104.27005   104.03122   380.96402
   451  H   1.0    0.12    1.08    1.44   100.89211   108.54308   380.78864
   452  H   1.0    0.07    1.05    1.44   102.33934   110.59303   389.68381
   453  H   1.0    0.13    1.08    1.44    97.48917   113.39180   390.15310
   454  H   1.0    0.08    1.05    1.44   101.83369   113.56075   398.10077
   455  H   1.0    0.13    1.08    1.44    98.41134   101.71432   424.76013
   456  H   1.0    0.09    1.04    1.43   103.94080    98.03425   426.41393
   457  H   1.0    0.11    1.08    1.44   121.87727    97.37043   419.43984
   458  H   1.0    0.07    1.04    1.43   127.48840   101.65863   416.31070
   459  H   1.0    0.11    1.08    1.44   125.18873   110.78310   410.63040
   460  H   1.0    0.09    1.04    1.43   123.33094   115.88208   414.09600

  Z AO/shell   Hii/eV     exponent
  1     Wed Apr 25 08:07:45 CEST 2018   EN: 2.200 GM2: 0.406  GM3: 0.0800  RAES: 1.40
     1s    -10.707211    1.230000
  6     Wed Apr 25 08:07:45 CEST 2018   EN: 2.550 GM2: 0.538  GM3: 0.1500  RAES: 3.00
     2s    -13.970922    2.096432
     2p    -10.063292    1.800000
  7     Wed Apr 25 08:07:45 CEST 2018   EN: 3.040 GM2: 0.461  GM3:-0.0640  RAES: 1.90
     2s    -16.686243    2.339881
     2p    -12.523956    2.014332
  8     Wed Apr 25 08:07:45 CEST 2018   EN: 3.440 GM2: 0.452  GM3:-0.0517  RAES: 1.80
     2s    -20.229985    2.439742
     2p    -15.503117    2.137023
 16     Tue Apr 24 11:44:34 CEST 2018   EN: 2.580 GM2: 0.340  GM3:-0.0502  RAES: 3.10
     3s    -20.029654    1.981333
     3p    -11.377694    2.025643
     3d     -0.420282    1.702555
 no old-style atom pair restraining (fixing) potential

molecular fragmentation (1/2 indicates fragments):
111111111111111111111111111111111111111111111111111111111111111111111111
111111111111111111111111111111111111111111111111111111111111111111111111
111111111111111111111111111111111111111111111111111111111111111111111111
111111111111111111111111111111111111111222222222222222222222222222222222
222222222222222222222222222222222222222222222222222222222222222222222222
222222222222222222222222222222222222222222222222222222222222222222222222
2222222222112222222222222222
# atoms in fragment 1/2:   257   203
 fragment masses (1/2) :     1773.15     1261.61
CMA distance (Bohr)    :   6.339
constraining FC (au)   :  0.0500
           ------------------------------------------------- 
          |        Self-Consistent Charge Iterations        |
           ------------------------------------------------- 

 Ncao       : 1099
 Nao        : 1097
 Nshell     : 671
 Nel        : 1202
 T(el)      :   500.0
 intcut     :    35.0
 scfconv/Eh :  0.100E-06
   qconv/e  :  0.100E-04
 intneglect :  0.100E-08
 broydamp   :      0.400
 iter      E             dE          RMSdq      gap      omega  full diag
   1   -691.2079445 -0.691208E+03  0.461E+00    2.79       0.0  T
   2   -692.7080470 -0.150010E+01  0.222E+00    1.74       1.0  T
   3   -692.7890304 -0.809834E-01  0.124E+00    2.01       1.0  T
   4   -692.9075307 -0.118500E+00  0.277E-01    1.37       1.0  T
   5   -692.9151381 -0.760736E-02  0.126E-01    1.65       1.0  T
   6   -692.9161770 -0.103890E-02  0.528E-02    1.60       1.0  T
   7   -692.9164660 -0.289070E-03  0.261E-02    1.63       1.0  T
   8   -692.9165027 -0.366463E-04  0.114E-02    1.62       1.0  T
   9   -692.9165134 -0.106869E-04  0.496E-03    1.62       1.0  T
  10   -692.9165149 -0.153477E-05  0.222E-03    1.62       2.1  T
  11   -692.9165153 -0.417618E-06  0.104E-03    1.63       4.5  T
  12   -692.9165154 -0.604865E-07  0.389E-04    1.62      12.0  T
  13   -692.9165154 -0.101302E-07  0.181E-04    1.62      25.8  T
  14   -692.9165154 -0.185344E-08  0.761E-05    1.62      61.2  T
  15   -692.9165154 -0.432692E-09  0.322E-05    1.62     144.8  T
speedup  1.69
cpu  time for SCC   10.88 s
wall time for SCC    6.42 s

   *** convergence criteria satisfied after 15 iterations ***

          eigenvalues
 #    :         589        590        591        592        593        594        595        596
 occ. :        2.000      2.000      2.000      2.000      2.000      2.000      2.000      2.000
 eps  :       -10.570    -10.433    -10.284    -10.253    -10.196    -10.167    -10.111    -10.091
 #    :         597        598        599        600        601        602        603        604
 occ. :        2.000      2.000      2.000      2.000      2.000      0.000      0.000      0.000
 eps  :       -10.069     -9.872     -9.859     -9.851     -9.821     -8.196     -7.935     -7.909
 #    :         605        606        607        608        609        610        611        612
 occ. :        0.000      0.000      0.000      0.000      0.000      0.000      0.000      0.000
 eps  :        -7.883     -7.736     -7.604     -7.592     -7.543     -7.438     -6.801     -6.738


   #   Z            q   n(s)   n(p)   n(d)      C6AA      α(0)
   1   7 N     -0.425  1.277  4.147  0.000    31.067     8.278
   2   6 C      0.012  1.043  2.946  0.000    20.388     6.430
   3   6 C      0.252  1.062  2.686  0.000    22.771     7.814
   4   8 O     -0.495  1.745  4.750  0.000    23.674     6.523
   5   6 C     -0.042  1.042  3.000  0.000    21.289     6.562
   6   6 C     -0.080  1.001  3.080  0.000    22.016     6.678
   7   6 C     -0.156  0.978  3.178  0.000    23.555     6.916
   8   6 C     -0.146  0.975  3.172  0.000    23.363     6.889
   9   1 H      0.181  0.819  0.000  0.000     1.208     1.721
  10   1 H      0.064  0.936  0.000  0.000     2.150     2.293
  11   1 H      0.061  0.939  0.000  0.000     2.187     2.313
  12   1 H      0.044  0.956  0.000  0.000     2.398     2.422
  13   1 H      0.038  0.962  0.000  0.000     2.470     2.457
  14   1 H      0.064  0.936  0.000  0.000     2.156     2.296
  15   1 H      0.071  0.929  0.000  0.000     2.077     2.253
  16   1 H      0.064  0.936  0.000  0.000     2.153     2.294
  17   1 H      0.037  0.963  0.000  0.000     2.493     2.469
  18   1 H      0.050  0.950  0.000  0.000     2.318     2.381
  19   1 H      0.061  0.939  0.000  0.000     2.186     2.312
  20   7 N     -0.188  1.214  3.974  0.000    25.086     7.439
  21   6 C     -0.005  1.046  2.959  0.000    20.666     6.473
  22   6 C      0.270  1.043  2.687  0.000    22.437     7.757
  23   8 O     -0.489  1.751  4.738  0.000    23.547     6.506
  24   6 C     -0.115  1.017  3.097  0.000    22.682     6.779
  25   6 C     -0.118  1.023  3.095  0.000    22.752     6.792
  26   6 C     -0.118  1.027  3.091  0.000    22.756     6.792
  27   6 C     -0.073  1.046  3.027  0.000    22.003     6.698
  28   7 N     -0.155  1.153  4.001  0.000    24.334     7.327
  29   1 H      0.226  0.774  0.000  0.000     0.982     1.552
  30   1 H      0.123  0.877  0.000  0.000     1.588     1.971
  31   1 H      0.085  0.915  0.000  0.000     1.925     2.170
  32   1 H      0.078  0.922  0.000  0.000     1.996     2.209
  33   1 H      0.091  0.909  0.000  0.000     1.864     2.135
  34   1 H      0.090  0.910  0.000  0.000     1.874     2.141
  35   1 H      0.092  0.908  0.000  0.000     1.862     2.134
  36   1 H      0.101  0.899  0.000  0.000     1.776     2.084
  37   1 H      0.126  0.874  0.000  0.000     1.563     1.955
  38   1 H      0.141  0.859  0.000  0.000     1.455     1.886
  39   1 H      0.287  0.713  0.000  0.000     0.752     1.359
  40   1 H      0.289  0.711  0.000  0.000     0.746     1.353
  41   1 H      0.287  0.713  0.000  0.000     0.754     1.360
  42   7 N     -0.193  1.207  3.986  0.000    25.187     7.454
  43   6 C      0.004  1.044  2.952  0.000    20.495     6.443
  44   6 C      0.270  1.044  2.686  0.000    22.435     7.756
  45   8 O     -0.506  1.754  4.752  0.000    23.915     6.557
  46   6 C     -0.037  1.035  3.002  0.000    21.195     6.547
  47   6 C     -0.148  0.976  3.173  0.000    23.397     6.893
  48   6 C     -0.159  0.977  3.182  0.000    23.617     6.924
  49   1 H      0.219  0.781  0.000  0.000     1.016     1.579
  50   1 H      0.097  0.903  0.000  0.000     1.808     2.103
  51   1 H      0.065  0.935  0.000  0.000     2.137     2.286
  52   1 H      0.061  0.939  0.000  0.000     2.189     2.313
  53   1 H      0.053  0.947  0.000  0.000     2.282     2.362
  54   1 H      0.054  0.946  0.000  0.000     2.266     2.354
  55   1 H      0.062  0.938  0.000  0.000     2.178     2.307
  56   1 H      0.062  0.938  0.000  0.000     2.175     2.306
  57   1 H      0.075  0.925  0.000  0.000     2.036     2.231
  58   7 N     -0.190  1.209  3.980  0.000    25.109     7.442
  59   6 C     -0.001  1.044  2.956  0.000    20.588     6.459
  60   6 C      0.268  1.042  2.691  0.000    22.483     7.765
  61   8 O     -0.507  1.747  4.760  0.000    23.931     6.559
  62   6 C     -0.051  1.047  3.004  0.000    21.446     6.585
  63   6 C     -0.089  1.001  3.088  0.000    22.181     6.703
  64   6 C     -0.163  0.982  3.181  0.000    23.701     6.938
  65   6 C     -0.151  0.972  3.180  0.000    23.445     6.898
  66   1 H      0.217  0.783  0.000  0.000     1.023     1.584
  67   1 H      0.087  0.913  0.000  0.000     1.911     2.162
  68   1 H      0.074  0.926  0.000  0.000     2.043     2.235
  69   1 H      0.054  0.946  0.000  0.000     2.269     2.356
  70   1 H      0.049  0.951  0.000  0.000     2.336     2.390
  71   1 H      0.085  0.915  0.000  0.000     1.927     2.171
  72   1 H      0.075  0.925  0.000  0.000     2.026     2.226
  73   1 H      0.061  0.939  0.000  0.000     2.183     2.310
  74   1 H      0.046  0.954  0.000  0.000     2.367     2.406
  75   1 H      0.057  0.943  0.000  0.000     2.235     2.338
  76   1 H      0.066  0.934  0.000  0.000     2.125     2.279
  77   7 N     -0.179  1.207  3.972  0.000    24.873     7.407
  78   6 C     -0.005  1.044  2.961  0.000    20.659     6.471
  79   6 C      0.264  1.047  2.689  0.000    22.551     7.776
  80   8 O     -0.473  1.741  4.732  0.000    23.189     6.456
  81   6 C      0.040  1.000  2.960  0.000    20.067     6.408
  82   8 O     -0.469  1.653  4.816  0.000    22.232     6.365
  83   1 H      0.233  0.767  0.000  0.000     0.952     1.528
  84   1 H      0.127  0.873  0.000  0.000     1.554     1.950
  85   1 H      0.091  0.909  0.000  0.000     1.865     2.136
  86   1 H      0.069  0.931  0.000  0.000     2.095     2.263
  87   1 H      0.359  0.641  0.000  0.000     0.567     1.182
  88   7 N     -0.186  1.209  3.978  0.000    25.039     7.432
  89   6 C      0.006  1.041  2.953  0.000    20.482     6.444
  90   6 C      0.278  1.042  2.681  0.000    22.305     7.734
  91   8 O     -0.512  1.753  4.759  0.000    24.049     6.575
  92   6 C      0.058  0.998  2.944  0.000    19.792     6.367
  93   8 O     -0.499  1.681  4.818  0.000    22.868     6.456
  94   1 H      0.222  0.778  0.000  0.000     1.001     1.567
  95   1 H      0.113  0.887  0.000  0.000     1.667     2.019
  96   1 H      0.075  0.925  0.000  0.000     2.030     2.228
  97   1 H      0.073  0.927  0.000  0.000     2.048     2.238
  98   1 H      0.327  0.673  0.000  0.000     0.644     1.260
  99   7 N     -0.185  1.212  3.973  0.000    25.015     7.428
 100   6 C      0.018  1.033  2.949  0.000    20.258     6.407
 101   6 C      0.275  1.044  2.681  0.000    22.349     7.742
 102   8 O     -0.520  1.753  4.767  0.000    24.239     6.601
 103   6 C     -0.162  0.982  3.180  0.000    23.667     6.932
 104   1 H      0.240  0.760  0.000  0.000     0.924     1.505
 105   1 H      0.085  0.915  0.000  0.000     1.927     2.171
 106   1 H      0.073  0.927  0.000  0.000     2.050     2.239
 107   1 H      0.088  0.912  0.000  0.000     1.902     2.157
 108   1 H      0.087  0.913  0.000  0.000     1.905     2.158
 109   7 N     -0.194  1.210  3.984  0.000    25.200     7.456
 110   6 C      0.021  1.032  2.947  0.000    20.182     6.388
 111   6 C      0.261  1.041  2.697  0.000    22.595     7.785
 112   8 O     -0.510  1.765  4.745  0.000    24.007     6.569
 113   6 C     -0.030  1.013  3.017  0.000    21.091     6.536
 114  16 S     -0.302  1.885  4.381  0.036   154.135    20.896
 115   1 H      0.239  0.761  0.000  0.000     0.926     1.507
 116   1 H      0.073  0.927  0.000  0.000     2.047     2.237
 117   1 H      0.101  0.899  0.000  0.000     1.772     2.081
 118   1 H      0.090  0.910  0.000  0.000     1.873     2.140
 119   1 H      0.227  0.773  0.000  0.000     0.973     1.542
 120   7 N     -0.178  1.210  3.968  0.000    24.856     7.405
 121   6 C      0.005  1.046  2.949  0.000    20.476     6.441
 122   6 C      0.276  1.045  2.678  0.000    22.328     7.738
 123   8 O     -0.509  1.774  4.735  0.000    23.989     6.567
 124   6 C     -0.109  1.023  3.086  0.000    22.584     6.766
 125   6 C     -0.112  1.024  3.088  0.000    22.643     6.775
 126   6 C     -0.128  1.020  3.108  0.000    22.959     6.821
 127   6 C     -0.085  1.028  3.057  0.000    22.206     6.724
 128   7 N     -0.133  1.140  3.993  0.000    23.881     7.258
 129   1 H      0.240  0.760  0.000  0.000     0.924     1.505
 130   1 H      0.116  0.884  0.000  0.000     1.645     2.006
 131   1 H      0.098  0.902  0.000  0.000     1.802     2.099
 132   1 H      0.073  0.927  0.000  0.000     2.049     2.238
 133   1 H      0.082  0.918  0.000  0.000     1.963     2.191
 134   1 H      0.072  0.928  0.000  0.000     2.067     2.248
 135   1 H      0.112  0.888  0.000  0.000     1.677     2.025
 136   1 H      0.104  0.896  0.000  0.000     1.753     2.070
 137   1 H      0.130  0.870  0.000  0.000     1.534     1.937
 138   1 H      0.131  0.869  0.000  0.000     1.526     1.932
 139   1 H      0.295  0.705  0.000  0.000     0.727     1.336
 140   1 H      0.296  0.704  0.000  0.000     0.724     1.333
 141   1 H      0.294  0.706  0.000  0.000     0.731     1.339
 142   7 N     -0.197  1.205  3.991  0.000    25.274     7.467
 143   6 C      0.003  1.044  2.954  0.000    20.530     6.450
 144   6 C      0.271  1.046  2.683  0.000    22.425     7.754
 145   8 O     -0.499  1.755  4.745  0.000    23.772     6.537
 146   6 C      0.106  1.023  2.871  0.000    18.922     6.208
 147   8 O     -0.479  1.675  4.804  0.000    22.445     6.396
 148   6 C     -0.158  0.977  3.181  0.000    23.595     6.922
 149   1 H      0.215  0.785  0.000  0.000     1.032     1.591
 150   1 H      0.099  0.901  0.000  0.000     1.798     2.097
 151   1 H      0.048  0.952  0.000  0.000     2.350     2.397
 152   1 H      0.335  0.665  0.000  0.000     0.624     1.241
 153   1 H      0.085  0.915  0.000  0.000     1.924     2.169
 154   1 H      0.055  0.945  0.000  0.000     2.262     2.352
 155   1 H      0.080  0.920  0.000  0.000     1.983     2.202
 156   7 N     -0.202  1.214  3.988  0.000    25.389     7.484
 157   6 C      0.016  1.043  2.941  0.000    20.308     6.416
 158   6 C      0.268  1.042  2.690  0.000    22.471     7.763
 159   8 O     -0.511  1.755  4.756  0.000    24.031     6.572
 160   6 C     -0.088  1.007  3.081  0.000    22.160     6.698
 161   6 C     -0.002  1.066  2.936  0.000    28.066     8.690
 162   6 C     -0.058  1.055  3.003  0.000    29.448     8.901
 163   6 C     -0.063  1.052  3.011  0.000    29.562     8.918
 164   6 C     -0.074  1.049  3.025  0.000    29.847     8.960
 165   6 C     -0.093  1.048  3.045  0.000    30.338     9.034
 166   6 C      0.138  1.044  2.818  0.000    24.984     8.192
 167   8 O     -0.468  1.690  4.778  0.000    22.212     6.362
 168   1 H      0.230  0.770  0.000  0.000     0.964     1.538
 169   1 H      0.096  0.904  0.000  0.000     1.819     2.109
 170   1 H      0.073  0.927  0.000  0.000     2.049     2.238
 171   1 H      0.080  0.920  0.000  0.000     1.978     2.199
 172   1 H      0.062  0.938  0.000  0.000     2.173     2.305
 173   1 H      0.075  0.925  0.000  0.000     2.029     2.228
 174   1 H      0.070  0.930  0.000  0.000     2.084     2.257
 175   1 H      0.077  0.923  0.000  0.000     2.009     2.216
 176   1 H      0.349  0.651  0.000  0.000     0.589     1.205
 177   7 N     -0.187  1.211  3.976  0.000    25.057     7.435
 178   6 C      0.039  1.029  2.932  0.000    19.857     6.332
 179   6 C      0.271  1.043  2.685  0.000    22.419     7.754
 180   8 O     -0.486  1.758  4.728  0.000    23.473     6.496
 181   6 C      0.006  0.998  2.996  0.000    20.466     6.439
 182  16 S     -0.355  1.900  4.391  0.064   156.611    21.063
 183   1 H      0.221  0.779  0.000  0.000     1.006     1.571
 184   1 H      0.075  0.925  0.000  0.000     2.032     2.229
 185   1 H      0.073  0.927  0.000  0.000     2.047     2.237
 186   1 H      0.087  0.913  0.000  0.000     1.912     2.162
 187   1 H      0.242  0.758  0.000  0.000     0.908     1.490
 188   7 N     -0.179  1.205  3.974  0.000    24.873     7.407
 189   6 C     -0.043  1.006  3.037  0.000    21.384     6.591
 190   6 C      0.277  1.039  2.684  0.000    22.305     7.733
 191   8 O     -0.478  1.756  4.722  0.000    23.314     6.474
 192   1 H      0.219  0.781  0.000  0.000     1.015     1.578
 193   1 H      0.090  0.910  0.000  0.000     1.876     2.142
 194   1 H      0.110  0.890  0.000  0.000     1.694     2.035
 195   7 N     -0.175  1.204  3.971  0.000    24.797     7.396
 196   6 C      0.005  1.040  2.955  0.000    20.500     6.447
 197   6 C      0.272  1.047  2.681  0.000    22.403     7.751
 198   8 O     -0.511  1.766  4.746  0.000    24.040     6.574
 199   6 C     -0.117  1.021  3.096  0.000    22.740     6.789
 200   6 C     -0.104  1.014  3.090  0.000    22.478     6.749
 201   6 C     -0.115  1.011  3.104  0.000    22.698     6.782
 202   6 C     -0.074  1.025  3.050  0.000    21.997     6.692
 203   7 N     -0.146  1.147  3.999  0.000    24.140     7.297
 204   1 H      0.222  0.778  0.000  0.000     1.002     1.568
 205   1 H      0.103  0.897  0.000  0.000     1.755     2.071
 206   1 H      0.084  0.916  0.000  0.000     1.935     2.175
 207   1 H      0.085  0.915  0.000  0.000     1.932     2.173
 208   1 H      0.080  0.920  0.000  0.000     1.974     2.197
 209   1 H      0.067  0.933  0.000  0.000     2.117     2.275
 210   1 H      0.090  0.910  0.000  0.000     1.882     2.145
 211   1 H      0.098  0.902  0.000  0.000     1.804     2.100
 212   1 H      0.132  0.868  0.000  0.000     1.518     1.926
 213   1 H      0.127  0.873  0.000  0.000     1.557     1.951
 214   1 H      0.292  0.708  0.000  0.000     0.736     1.344
 215   1 H      0.289  0.711  0.000  0.000     0.746     1.353
 216   1 H      0.293  0.707  0.000  0.000     0.734     1.342
 217   7 N     -0.173  1.209  3.963  0.000    24.739     7.387
 218   6 C      0.005  1.044  2.952  0.000    20.504     6.448
 219   6 C      0.273  1.044  2.683  0.000    22.376     7.746
 220   8 O     -0.471  1.758  4.714  0.000    23.155     6.452
 221   6 C      0.101  1.025  2.873  0.000    18.996     6.221
 222   8 O     -0.503  1.684  4.819  0.000    22.955     6.468
 223   6 C     -0.173  0.982  3.191  0.000    23.920     6.971
 224   1 H      0.237  0.763  0.000  0.000     0.936     1.515
 225   1 H      0.086  0.914  0.000  0.000     1.921     2.167
 226   1 H      0.057  0.943  0.000  0.000     2.237     2.339
 227   1 H      0.349  0.651  0.000  0.000     0.590     1.207
 228   1 H      0.085  0.915  0.000  0.000     1.927     2.171
 229   1 H      0.070  0.930  0.000  0.000     2.085     2.258
 230   1 H      0.078  0.922  0.000  0.000     1.995     2.209
 231   7 N     -0.196  1.214  3.982  0.000    25.258     7.464
 232   6 C      0.009  1.039  2.952  0.000    20.443     6.439
 233   6 C      0.252  1.046  2.702  0.000    22.759     7.813
 234   8 O     -0.511  1.758  4.753  0.000    24.023     6.571
 235   6 C      0.060  0.994  2.946  0.000    19.759     6.362
 236   8 O     -0.482  1.664  4.818  0.000    22.513     6.405
 237   1 H      0.225  0.775  0.000  0.000     0.987     1.556
 238   1 H      0.083  0.917  0.000  0.000     1.945     2.181
 239   1 H      0.047  0.953  0.000  0.000     2.356     2.400
 240   1 H      0.069  0.931  0.000  0.000     2.101     2.266
 241   1 H      0.347  0.653  0.000  0.000     0.594     1.210
 242   7 N     -0.070  1.233  3.837  0.000    22.596     7.060
 243   6 C      0.006  1.044  2.950  0.000    20.442     6.432
 244   6 C      0.186  1.086  2.727  0.000    24.006     8.024
 245   8 O     -0.327  1.733  4.593  0.000    20.270     6.036
 246   6 C     -0.091  1.004  3.087  0.000    22.207     6.703
 247   6 C     -0.108  0.998  3.109  0.000    22.514     6.748
 248   6 C     -0.037  1.015  3.022  0.000    21.259     6.570
 249   1 H      0.102  0.898  0.000  0.000     1.766     2.078
 250   1 H      0.094  0.906  0.000  0.000     1.843     2.123
 251   1 H      0.086  0.914  0.000  0.000     1.913     2.163
 252   1 H      0.102  0.898  0.000  0.000     1.762     2.076
 253   1 H      0.087  0.913  0.000  0.000     1.912     2.162
 254   1 H      0.101  0.899  0.000  0.000     1.772     2.081
 255   1 H      0.062  0.938  0.000  0.000     2.177     2.307
 256   7 N     -0.419  1.286  4.133  0.000    30.911     8.257
 257   6 C      0.019  1.035  2.946  0.000    20.274     6.413
 258   6 C      0.189  1.095  2.716  0.000    23.960     8.016
 259   8 O     -0.393  1.774  4.619  0.000    21.541     6.223
 260   6 C     -0.110  1.021  3.089  0.000    22.584     6.765
 261   6 C     -0.112  1.019  3.093  0.000    22.634     6.773
 262   6 C     -0.130  1.023  3.107  0.000    22.982     6.824
 263   6 C     -0.093  1.029  3.064  0.000    22.359     6.748
 264   7 N     -0.141  1.143  3.998  0.000    24.038     7.282
 265   1 H      0.201  0.799  0.000  0.000     1.099     1.642
 266   1 H      0.082  0.918  0.000  0.000     1.962     2.190
 267   1 H      0.084  0.916  0.000  0.000     1.939     2.177
 268   1 H      0.059  0.941  0.000  0.000     2.205     2.322
 269   1 H      0.084  0.916  0.000  0.000     1.941     2.178
 270   1 H      0.090  0.910  0.000  0.000     1.883     2.146
 271   1 H      0.096  0.904  0.000  0.000     1.818     2.108
 272   1 H      0.108  0.892  0.000  0.000     1.716     2.048
 273   1 H      0.142  0.858  0.000  0.000     1.445     1.879
 274   1 H      0.126  0.874  0.000  0.000     1.567     1.957
 275   1 H      0.291  0.709  0.000  0.000     0.740     1.348
 276   1 H      0.285  0.715  0.000  0.000     0.760     1.365
 277   1 H      0.293  0.707  0.000  0.000     0.735     1.343
 278   7 N     -0.419  1.292  4.127  0.000    30.899     8.256
 279   6 C      0.022  1.037  2.941  0.000    20.209     6.401
 280   6 C      0.202  1.091  2.707  0.000    23.697     7.972
 281   8 O     -0.411  1.775  4.635  0.000    21.900     6.274
 282   6 C     -0.041  1.043  2.998  0.000    21.271     6.559
 283   6 C     -0.097  1.002  3.095  0.000    22.333     6.725
 284   6 C     -0.149  0.974  3.175  0.000    23.411     6.895
 285   6 C     -0.159  0.972  3.187  0.000    23.619     6.925
 286   1 H      0.192  0.808  0.000  0.000     1.145     1.676
 287   1 H      0.070  0.930  0.000  0.000     2.089     2.260
 288   1 H      0.069  0.931  0.000  0.000     2.097     2.264
 289   1 H      0.062  0.938  0.000  0.000     2.177     2.307
 290   1 H      0.057  0.943  0.000  0.000     2.230     2.335
 291   1 H      0.075  0.925  0.000  0.000     2.030     2.228
 292   1 H      0.033  0.967  0.000  0.000     2.539     2.492
 293   1 H      0.053  0.947  0.000  0.000     2.277     2.359
 294   1 H      0.071  0.929  0.000  0.000     2.074     2.252
 295   1 H      0.064  0.936  0.000  0.000     2.152     2.294
 296   1 H      0.057  0.943  0.000  0.000     2.235     2.338
 297   7 N     -0.430  1.288  4.142  0.000    31.220     8.298
 298   6 C      0.016  1.036  2.948  0.000    20.313     6.418
 299   6 C      0.258  1.056  2.687  0.000    22.663     7.795
 300   8 O     -0.501  1.759  4.742  0.000    23.812     6.542
 301   6 C     -0.104  1.013  3.090  0.000    22.467     6.746
 302   6 C     -0.099  1.014  3.085  0.000    22.383     6.735
 303   6 C     -0.120  1.018  3.103  0.000    22.798     6.797
 304   6 C     -0.073  1.020  3.054  0.000    21.982     6.689
 305   7 N     -0.143  1.145  3.998  0.000    24.082     7.289
 306   1 H      0.194  0.806  0.000  0.000     1.135     1.669
 307   1 H      0.064  0.936  0.000  0.000     2.153     2.294
 308   1 H      0.076  0.924  0.000  0.000     2.021     2.223
 309   1 H      0.072  0.928  0.000  0.000     2.063     2.246
 310   1 H      0.069  0.931  0.000  0.000     2.093     2.262
 311   1 H      0.065  0.935  0.000  0.000     2.140     2.287
 312   1 H      0.090  0.910  0.000  0.000     1.881     2.145
 313   1 H      0.096  0.904  0.000  0.000     1.824     2.112
 314   1 H      0.131  0.869  0.000  0.000     1.523     1.930
 315   1 H      0.124  0.876  0.000  0.000     1.578     1.964
 316   1 H      0.291  0.709  0.000  0.000     0.740     1.347
 317   1 H      0.287  0.713  0.000  0.000     0.752     1.359
 318   1 H      0.293  0.707  0.000  0.000     0.735     1.343
 319   7 N     -0.174  1.205  3.969  0.000    24.774     7.392
 320   6 C      0.004  1.044  2.952  0.000    20.514     6.449
 321   6 C      0.192  1.093  2.715  0.000    23.903     8.007
 322   8 O     -0.344  1.750  4.593  0.000    20.589     6.084
 323   6 C      0.101  1.024  2.875  0.000    18.998     6.221
 324   8 O     -0.498  1.679  4.819  0.000    22.849     6.453
 325   6 C     -0.173  0.979  3.194  0.000    23.910     6.968
 326   1 H      0.232  0.768  0.000  0.000     0.958     1.533
 327   1 H      0.119  0.881  0.000  0.000     1.617     1.989
 328   1 H      0.054  0.946  0.000  0.000     2.269     2.355
 329   1 H      0.345  0.655  0.000  0.000     0.600     1.217
 330   1 H      0.076  0.924  0.000  0.000     2.024     2.225
 331   1 H      0.074  0.926  0.000  0.000     2.039     2.233
 332   1 H      0.095  0.905  0.000  0.000     1.830     2.115
 333   7 N     -0.407  1.272  4.135  0.000    30.568     8.211
 334   6 C     -0.028  1.001  3.027  0.000    21.147     6.560
 335   6 C      0.265  1.051  2.684  0.000    22.528     7.772
 336   8 O     -0.531  1.767  4.764  0.000    24.482     6.634
 337   1 H      0.182  0.818  0.000  0.000     1.205     1.719
 338   1 H      0.059  0.941  0.000  0.000     2.213     2.326
 339   1 H      0.067  0.933  0.000  0.000     2.114     2.273
 340   7 N     -0.189  1.214  3.975  0.000    25.099     7.441
 341   6 C      0.010  1.040  2.950  0.000    20.401     6.431
 342   6 C      0.267  1.048  2.685  0.000    22.488     7.766
 343   8 O     -0.504  1.768  4.736  0.000    23.876     6.551
 344   6 C     -0.115  1.016  3.099  0.000    22.667     6.773
 345   6 C     -0.029  1.021  3.008  0.000    21.054     6.525
 346   6 C     -0.163  0.982  3.180  0.000    23.662     6.927
 347   6 C     -0.151  0.974  3.177  0.000    23.441     6.897
 348   1 H      0.233  0.767  0.000  0.000     0.950     1.527
 349   1 H      0.080  0.920  0.000  0.000     1.980     2.200
 350   1 H      0.096  0.904  0.000  0.000     1.824     2.112
 351   1 H      0.084  0.916  0.000  0.000     1.940     2.178
 352   1 H      0.052  0.948  0.000  0.000     2.297     2.370
 353   1 H      0.062  0.938  0.000  0.000     2.173     2.305
 354   1 H      0.065  0.935  0.000  0.000     2.143     2.289
 355   1 H      0.068  0.932  0.000  0.000     2.108     2.271
 356   1 H      0.053  0.947  0.000  0.000     2.276     2.359
 357   1 H      0.059  0.941  0.000  0.000     2.211     2.325
 358   1 H      0.037  0.963  0.000  0.000     2.489     2.467
 359   7 N     -0.186  1.211  3.975  0.000    25.031     7.431
 360   6 C      0.002  1.044  2.954  0.000    20.530     6.448
 361   6 C      0.207  1.081  2.712  0.000    23.610     7.958
 362   8 O     -0.377  1.756  4.621  0.000    21.226     6.177
 363   6 C     -0.034  1.030  3.004  0.000    21.145     6.539
 364   6 C     -0.157  0.977  3.180  0.000    23.556     6.914
 365   6 C     -0.179  0.980  3.199  0.000    24.021     6.981
 366   1 H      0.241  0.759  0.000  0.000     0.918     1.500
 367   1 H      0.117  0.883  0.000  0.000     1.635     1.999
 368   1 H      0.069  0.931  0.000  0.000     2.100     2.266
 369   1 H      0.080  0.920  0.000  0.000     1.982     2.201
 370   1 H      0.039  0.961  0.000  0.000     2.463     2.454
 371   1 H      0.068  0.932  0.000  0.000     2.103     2.268
 372   1 H      0.083  0.917  0.000  0.000     1.952     2.184
 373   1 H      0.086  0.914  0.000  0.000     1.917     2.165
 374   1 H      0.083  0.917  0.000  0.000     1.952     2.185
 375   7 N     -0.404  1.268  4.136  0.000    30.486     8.200
 376   6 C     -0.022  0.997  3.025  0.000    21.027     6.540
 377   6 C      0.269  1.049  2.682  0.000    22.462     7.761
 378   8 O     -0.533  1.768  4.765  0.000    24.528     6.640
 379   1 H      0.183  0.817  0.000  0.000     1.195     1.712
 380   1 H      0.060  0.940  0.000  0.000     2.203     2.321
 381   1 H      0.073  0.927  0.000  0.000     2.053     2.241
 382   7 N     -0.175  1.211  3.964  0.000    24.797     7.396
 383   6 C      0.023  1.032  2.945  0.000    20.193     6.399
 384   6 C      0.204  1.085  2.711  0.000    23.658     7.966
 385   8 O     -0.371  1.761  4.610  0.000    21.115     6.161
 386   6 C     -0.157  0.980  3.176  0.000    23.570     6.918
 387   1 H      0.238  0.762  0.000  0.000     0.929     1.510
 388   1 H      0.082  0.918  0.000  0.000     1.956     2.187
 389   1 H      0.072  0.928  0.000  0.000     2.060     2.244
 390   1 H      0.084  0.916  0.000  0.000     1.937     2.176
 391   1 H      0.106  0.894  0.000  0.000     1.728     2.056
 392   8 O     -0.612  1.643  4.969  0.000    25.468     6.812
 393   1 H      0.321  0.679  0.000  0.000     0.659     1.275
 394   1 H      0.289  0.711  0.000  0.000     0.753     1.363
 395   7 N     -0.420  1.287  4.133  0.000    30.946     8.262
 396   6 C      0.010  1.040  2.950  0.000    20.418     6.435
 397   6 C      0.195  1.090  2.716  0.000    23.847     7.997
 398   8 O     -0.366  1.756  4.609  0.000    21.005     6.145
 399   6 C      0.106  1.024  2.870  0.000    18.920     6.208
 400   8 O     -0.497  1.687  4.810  0.000    22.820     6.449
 401   6 C     -0.164  0.979  3.185  0.000    23.718     6.940
 402   1 H      0.185  0.815  0.000  0.000     1.186     1.706
 403   1 H      0.085  0.915  0.000  0.000     1.924     2.169
 404   1 H      0.044  0.956  0.000  0.000     2.396     2.420
 405   1 H      0.326  0.674  0.000  0.000     0.646     1.262
 406   1 H      0.085  0.915  0.000  0.000     1.923     2.168
 407   1 H      0.067  0.933  0.000  0.000     2.120     2.277
 408   1 H      0.078  0.922  0.000  0.000     1.999     2.211
 409   7 N     -0.408  1.284  4.124  0.000    30.589     8.214
 410   6 C      0.024  1.038  2.938  0.000    20.178     6.398
 411   6 C      0.187  1.093  2.720  0.000    23.985     8.021
 412   8 O     -0.402  1.784  4.618  0.000    21.722     6.249
 413   6 C     -0.087  1.006  3.081  0.000    22.142     6.696
 414   6 C     -0.111  1.004  3.107  0.000    22.598     6.765
 415   6 C      0.272  1.044  2.684  0.000    22.401     7.750
 416   8 O     -0.490  1.762  4.727  0.000    23.557     6.507
 417   7 N     -0.311  1.199  4.112  0.000    27.996     7.858
 418   1 H      0.176  0.824  0.000  0.000     1.235     1.741
 419   1 H      0.108  0.892  0.000  0.000     1.714     2.047
 420   1 H      0.057  0.943  0.000  0.000     2.235     2.337
 421   1 H      0.086  0.914  0.000  0.000     1.919     2.166
 422   1 H      0.076  0.924  0.000  0.000     2.021     2.223
 423   1 H      0.092  0.908  0.000  0.000     1.860     2.132
 424   1 H      0.229  0.771  0.000  0.000     0.970     1.543
 425   1 H      0.234  0.766  0.000  0.000     0.949     1.526
 426   7 N     -0.417  1.285  4.132  0.000    30.855     8.250
 427   6 C      0.026  1.030  2.943  0.000    20.145     6.392
 428   6 C      0.196  1.094  2.711  0.000    23.826     7.994
 429   8 O     -0.391  1.767  4.624  0.000    21.509     6.218
 430   6 C     -0.086  1.010  3.077  0.000    22.128     6.695
 431   6 C     -0.122  1.011  3.111  0.000    22.816     6.799
 432   6 C      0.273  1.051  2.676  0.000    22.386     7.747
 433   8 O     -0.467  1.745  4.721  0.000    23.058     6.438
 434   7 N     -0.318  1.202  4.117  0.000    28.197     7.886
 435   1 H      0.195  0.805  0.000  0.000     1.131     1.666
 436   1 H      0.079  0.921  0.000  0.000     1.985     2.203
 437   1 H      0.092  0.908  0.000  0.000     1.862     2.133
 438   1 H      0.066  0.934  0.000  0.000     2.131     2.283
 439   1 H      0.094  0.906  0.000  0.000     1.845     2.124
 440   1 H      0.069  0.931  0.000  0.000     2.099     2.266
 441   1 H      0.224  0.776  0.000  0.000     0.991     1.560
 442   1 H      0.227  0.773  0.000  0.000     0.978     1.549
 443   1 H      0.168  0.832  0.000  0.000     1.285     1.775
 444   1 H      0.087  0.913  0.000  0.000     1.905     2.158
 445   1 H      0.186  0.814  0.000  0.000     1.181     1.702
 446   1 H      0.065  0.935  0.000  0.000     2.142     2.289
 447   1 H      0.183  0.817  0.000  0.000     1.196     1.713
 448   1 H      0.065  0.935  0.000  0.000     2.136     2.285
 449   1 H      0.171  0.829  0.000  0.000     1.265     1.762
 450   1 H      0.082  0.918  0.000  0.000     1.962     2.190
 451   1 H      0.181  0.819  0.000  0.000     1.205     1.720
 452   1 H      0.053  0.947  0.000  0.000     2.277     2.360
 453   1 H      0.177  0.823  0.000  0.000     1.229     1.737
 454   1 H      0.085  0.915  0.000  0.000     1.927     2.171
 455   1 H      0.189  0.811  0.000  0.000     1.163     1.689
 456   1 H      0.076  0.924  0.000  0.000     2.019     2.222
 457   1 H      0.187  0.813  0.000  0.000     1.175     1.698
 458   1 H      0.080  0.920  0.000  0.000     1.981     2.201
 459   1 H      0.190  0.810  0.000  0.000     1.160     1.687
 460   1 H      0.072  0.928  0.000  0.000     2.066     2.248

 Mol. C6AA /au·bohr⁶  :    1795203.360846
 Mol. C8AA /au·bohr⁸  :   40176159.212394
 Mol. α(0) /au        :       1998.939861

 
molecular dipole:
                 x           y           z       tot (Debye)
 q only:      542.887     445.606    1961.942
   full:      543.597     447.841    1960.846    5295.843
molecular quadrupole (traceless):
                xx          xy          yy          xz          yz          zz
 q only:  -344505.489   72810.030 -376067.799  320651.740  262074.936  720573.289
  q+dip:  -344131.638   73276.059 -375310.993  320930.970  263257.862  719442.631
   full:  -344131.010   73276.999 -375311.920  320930.558  263257.777  719442.930
speedup  1.71
cpu  time for grad   13.28 s
wall time for grad    7.77 s

SCC energy    :    -692.9374302
rep           :      14.9563897
ES            :       2.7908023
AES           :      -0.0969397
AXC           :       0.1159667
disp          :      -0.5447720
XB            :       0.0000000
fix           :       0.0000000
Gborn         :       0.0000000
Gsasa         :       0.0000000
Ghb           :       0.0000000
Gshift        :       0.0000000
Gsolv         :      -1.2604564     -790.95
Etot ala COSMO:    -692.9374302
grad norm     :       2.7869043
total E       :    -677.9323670
atomizationE  :     118.5456347    74388.51
(atE without considering molecular charge,
 total energy contains solvation terms)
H-L gap (eV)  :          1.6249

------------------------------------------------------------------------
 * finished run on 2019/05/12 at 13:11:50.213     
------------------------------------------------------------------------
 total:
 * wall-time:     0 d,  0 h,  0 min,  8.753 sec
 *  cpu-time:     0 d,  0 h,  0 min, 14.447 sec
 * ratio c/w:     1.650 speedup
 SCF:
 * wall-time:     0 d,  0 h,  0 min,  8.305 sec
 *  cpu-time:     0 d,  0 h,  0 min, 14.017 sec
 * ratio c/w:     1.688 speedup

