      -----------------------------------------------------------      
     |                   =====================                   |     
     |                           x T B                           |     
     |                   =====================                   |     
     |                         S. Grimme                         |     
     |          Mulliken Center for Theoretical Chemistry        |     
     |                    University of Bonn                     |     
     |                 Version 6.0.1 (SAW181210)                 |     
      -----------------------------------------------------------      

   This program is distributed in the hope that it will be useful,
   but WITHOUT ANY WARRANTY; without even the implied warranty of
   MERCHANTABILITY or FITNESS FOR A PARTICULAR PURPOSE.
   
   FOR NON-COMMERCIAL, ACADEMIA USE ONLY.
   
   Cite this work as:
   S. Grimme, C. Bannwarth, P. Shushkov, J. Comput. Theory Chem., 2017,
   13, 1989-2009.
   C. Bannwarth, S. Ehlert and S. Grimme., ChemRxiv, 2018, preprint.
   http://doi.org/10.26434/chemrxiv.7246238.v1
   
   for sTDA-xTB:
   S. Grimme and C. Bannwarth, J. Chem. Phys., 2016, 145, 054103.
   
   in the mass-spec context:
   V. Asgeirsson, C. Bauer and S. Grimme, Chem. Sci., 2017, 8, 4879.
   
   if GBSA is used:
   P. Shushkov, F. März and S. Grimme, unpublished.
   
   for ANC optimizer:
   S. Grimme, unpublished.
   Rational Function algorithm used in ANCopt:
   F. Eckert, P. Pulay, H.-J. Werner, J. Comput. Chem., 1997, 18, 1473.
   
   with help from (in alphabetical order)
   C. Bannwarth, F. Bohle, G. Brandenburg, E. Caldeweyher, M. Checinski,
   S. Dohm, S. Ehlert, S. Ehrlich, F. März, H. Neugebauer, J. Pisarek,
   P. Pracht, P. Shushkov, and S. Spicher.
   
 * started run on 2019/05/12 at 13:11:41.919     
========================================================================
 # omp threads = 2
========================================================================
number of atoms            : 460
number of electrons        : 1202
charge                     : 5
spin                       : .0
first test random number   : .4718

########################################################################
# WARNING! Please study the warnings concerning your input carefully
#  - Process number higher than OMP_NUM_THREADS, I hope you know what you are doing.
########################################################################

           ------------------------------------------------- 
          |                 G F N 2 - x T B                 |
          | Geometry, Frequencies, Noncovalent interactions |
          |            JCTC 2018 parametrisation            |
           ------------------------------------------------- 
 
      method parameters     
 k(s)        :  1.8500
 k(p)        :  2.2300
 k(d)        :  2.2300
 k(f)        :  2.0000
 kEN (H0ij)  : -2.0000
 D4 a1       :  0.5200
 D4 a2       :  5.0000
 D4 s6       :  1.0000
 D4 s8       :  2.7000
 D4 s9       :  5.0000
 alphaj      :  2.0000

 Solvent             : h2o
 Using internal parameter file: .param_gbsa2_h2o
 Gsolv ref. state (COSMO-RS): gsolv [1 M gas/solution]
 temperature (mdtemp)       :    298.150000000000     
 dielectric constant        :    80.2000000000000     
 rho                        :    1.00000000000000     
 mass                       :    18.0000000000000     
 surface tension            :    15.5689454083859     
 probe radius               :   0.975313790000000     
 vdW radii scaling          :    1.00000000000000     
 Gshift (Eh)                :   1.857443126794793E-003
 c1                         :    1.55243817000000     
 soset                      :   0.130326360000000     
 HB correction              :  T

            Z     q(EN)     CN     RAES       Cart. coordinates
     1  N   5.0   -0.21    3.23    1.96   124.09418   101.81097   395.76935
     2  C   4.0    0.02    4.48    4.51   122.35060    99.66838   395.53696
     3  C   4.0    0.14    3.41    3.08   121.17678    98.92819   398.07891
     4  O   6.0   -0.32    1.24    1.80   118.91258    98.37953   398.26796
     5  C   4.0   -0.03    4.46    4.48   123.36457    97.49564   394.00637
     6  C   4.0   -0.05    4.33    4.25   124.37944    98.22441   391.50564
     7  C   4.0   -0.07    4.29    4.19   121.49736    95.45701   394.05760
     8  C   4.0   -0.06    4.14    3.88   125.73409    96.19475   390.14041
     9  H   1.0    0.10    1.06    1.44   125.74938   101.43396   395.19349
    10  H   1.0    0.04    1.11    1.44   120.84502   100.38637   394.45522
    11  H   1.0    0.05    1.10    1.44   124.99153    96.81740   395.03752
    12  H   1.0    0.05    1.09    1.44   122.81972    98.67165   390.42622
    13  H   1.0    0.06    1.09    1.44   125.51752    99.74348   391.66333
    14  H   1.0    0.05    1.03    1.43   122.22783    93.83929   393.13553
    15  H   1.0    0.05    1.04    1.43   121.05863    94.84290   395.85863
    16  H   1.0    0.05    1.05    1.44   119.91191    95.96489   393.14609
    17  H   1.0    0.07    1.04    1.43   126.21302    96.72033   388.37260
    18  H   1.0    0.07    1.03    1.43   127.39288    95.76280   391.12440
    19  H   1.0    0.06    1.04    1.43   124.69197    94.55882   390.08685
    20  N   5.0   -0.15    3.47    2.06   122.87608    98.74518   400.03697
    21  C   4.0    0.03    4.40    4.38   122.14361    98.08628   402.60832
    22  C   4.0    0.16    3.44    3.09   120.06692    99.98047   403.50535
    23  O   6.0   -0.29    1.24    1.80   118.02954    99.29460   404.43960
    24  C   4.0   -0.05    4.31    4.22   124.19141    97.69844   404.33898
    25  C   4.0   -0.05    4.14    3.88   125.19721    95.15763   405.15769
    26  C   4.0   -0.04    4.07    3.74   127.17624    94.92721   407.51200
    27  C   4.0   -0.03    3.96    3.55   129.17902    92.85866   407.18177
    28  N   5.0   -0.15    3.84    2.50   130.80016    92.93632   404.35201
    29  H   1.0    0.09    1.10    1.44   124.63170    98.96919   399.88179
    30  H   1.0    0.06    1.10    1.44   121.19427    96.30855   402.47593
    31  H   1.0    0.05    1.08    1.44   125.72882    98.76900   403.68858
    32  H   1.0    0.05    1.08    1.44   123.71861    98.58621   406.07508
    33  H   1.0    0.05    1.06    1.44   123.75443    93.96718   405.50693
    34  H   1.0    0.05    1.05    1.44   126.15916    94.40578   403.53827
    35  H   1.0    0.06    1.06    1.44   128.10503    96.66897   407.48300
    36  H   1.0    0.06    1.07    1.44   126.17464    94.68842   409.02338
    37  H   1.0    0.07    1.05    1.44   130.42826    92.94394   408.55489
    38  H   1.0    0.06    1.05    1.44   128.25832    91.15143   407.10050
    39  H   1.0    0.10    1.04    1.43   131.95621    91.61066   404.52604
    40  H   1.0    0.08    1.04    1.44   129.60007    92.81284   403.11350
    41  H   1.0    0.09    1.04    1.43   131.60401    94.55637   404.46612
    42  N   5.0   -0.15    3.62    2.17   120.59595   102.49360   403.27085
    43  C   4.0    0.04    4.69    4.75   119.20164   104.39342   404.41455
    44  C   4.0    0.15    3.55    3.14   116.51451   104.32185   403.32007
    45  O   6.0   -0.31    1.24    1.80   114.55486   104.41401   404.67135
    46  C   4.0   -0.02    4.49    4.52   120.39711   106.76597   404.25959
    47  C   4.0   -0.06    4.28    4.16   118.52049   108.82602   404.96186
    48  C   4.0   -0.07    4.28    4.16   122.80201   106.85745   405.58162
    49  H   1.0    0.08    1.11    1.44   122.12220   102.97679   402.41239
    50  H   1.0    0.07    1.12    1.45   118.97188   103.91609   406.32523
    51  H   1.0    0.05    1.12    1.45   120.86743   107.28843   402.38096
    52  H   1.0    0.06    1.02    1.43   119.39062   110.62146   404.96599
    53  H   1.0    0.06    1.05    1.44   117.01660   108.90293   403.82777
    54  H   1.0    0.06    1.03    1.43   117.95926   108.53979   406.81733
    55  H   1.0    0.06    1.03    1.43   123.72233   108.60237   405.36458
    56  H   1.0    0.06    1.04    1.43   122.48330   106.67353   407.49883
    57  H   1.0    0.05    1.05    1.44   123.98269   105.49056   404.99283
    58  N   5.0   -0.15    3.56    2.12   116.44752   104.25147   400.73769
    59  C   4.0    0.03    4.58    4.64   114.26428   104.29465   399.26231
    60  C   4.0    0.15    3.51    3.12   112.54832   102.00794   399.85364
    61  O   6.0   -0.32    1.29    1.80   110.23784   102.12270   400.22708
    62  C   4.0   -0.03    4.51    4.55   114.80911   104.64664   396.54167
    63  C   4.0   -0.05    4.30    4.20   115.53945   107.36430   396.13867
    64  C   4.0   -0.08    4.21    4.01   112.69918   103.55939   394.77187
    65  C   4.0   -0.07    4.18    3.96   116.29171   107.44474   393.33048
    66  H   1.0    0.09    1.12    1.45   117.94742   104.22249   399.76439
    67  H   1.0    0.05    1.11    1.44   113.11468   105.84056   399.84598
    68  H   1.0    0.04    1.12    1.45   116.30057   103.46428   396.05257
    69  H   1.0    0.05    1.08    1.44   114.03406   108.48769   396.30025
    70  H   1.0    0.05    1.08    1.44   117.02578   107.82743   397.16113
    71  H   1.0    0.04    1.04    1.43   113.12952   103.84805   392.96443
    72  H   1.0    0.05    1.04    1.43   112.37982   101.72410   395.18980
    73  H   1.0    0.05    1.03    1.43   111.05636   104.56992   395.23052
    74  H   1.0    0.06    1.02    1.43   116.87815   109.35925   393.01321
    75  H   1.0    0.05    1.04    1.43   117.87163   106.38836   393.04290
    76  H   1.0    0.05    1.04    1.44   114.89390   107.06462   392.17640
    77  N   5.0   -0.15    3.57    2.13   113.71401    99.79943   399.93609
    78  C   4.0    0.05    4.49    4.52   112.52512    97.46949   400.63106
    79  C   4.0    0.17    3.45    3.09   111.20303    97.73049   403.23171
    80  O   6.0   -0.30    1.23    1.80   109.14851    96.71715   403.60081
    81  C   4.0    0.04    4.28    4.16   114.43255    95.39821   400.42473
    82  O   6.0   -0.26    2.14    1.85   113.17728    93.20264   400.29148
    83  H   1.0    0.11    1.13    1.45   115.47158    99.60882   399.46716
    84  H   1.0    0.06    1.11    1.45   111.06186    97.07841   399.40107
    85  H   1.0    0.05    1.07    1.44   115.52642    95.60839   398.87618
    86  H   1.0    0.06    1.06    1.44   115.56336    95.44384   402.02961
    87  H   1.0    0.11    1.03    1.43   114.35633    91.81030   400.31965
    88  N   5.0   -0.14    3.53    2.10   112.39774    99.10836   404.96674
    89  C   4.0    0.05    4.46    4.48   111.42780    99.67946   407.33531
    90  C   4.0    0.17    3.53    3.13   109.15801   101.49565   407.14345
    91  O   6.0   -0.29    1.28    1.80   107.12237   101.11422   408.29752
    92  C   4.0    0.04    4.23    4.05   113.33839   100.67398   409.26917
    93  O   6.0   -0.23    2.10    1.84   112.07290   101.96948   411.18826
    94  H   1.0    0.12    1.12    1.45   114.09119    99.79667   404.73088
    95  H   1.0    0.06    1.09    1.44   110.72443    97.97051   408.14688
    96  H   1.0    0.05    1.05    1.44   114.41641    99.20017   409.93904
    97  H   1.0    0.07    1.06    1.44   114.49732   101.89633   408.30724
    98  H   1.0    0.13    1.04    1.43   113.32732   102.49669   412.36389
    99  N   5.0   -0.14    3.58    2.14   109.44266   103.47563   405.79814
   100  C   4.0    0.04    4.51    4.56   107.38256   105.21267   405.33287
   101  C   4.0    0.17    3.56    3.15   105.15264   103.92124   404.33325
   102  O   6.0   -0.32    1.33    1.80   103.07830   104.45940   405.11402
   103  C   4.0   -0.07    4.24    4.08   108.09483   107.37630   403.74071
   104  H   1.0    0.12    1.13    1.45   110.99035   103.88286   404.91455
   105  H   1.0    0.06    1.11    1.45   106.96526   105.95590   407.12589
   106  H   1.0    0.05    1.04    1.43   106.67784   108.64026   403.55221
   107  H   1.0    0.06    1.03    1.43   109.66200   108.33289   404.49203
   108  H   1.0    0.06    1.04    1.43   108.64900   106.74577   401.98419
   109  N   5.0   -0.14    3.62    2.18   105.43368   102.12183   402.68593
   110  C   4.0    0.04    4.70    4.77   103.36608   100.79102   401.54225
   111  C   4.0    0.16    3.56    3.14   102.04635    99.03086   403.27973
   112  O   6.0   -0.29    1.41    1.80    99.76063    98.75250   403.27367
   113  C   4.0   -0.04    4.25    4.09   103.87264    99.39272   399.17806
   114  S   6.0   -0.06    2.55    3.10   104.79109   101.37141   396.80612
   115  H   1.0    0.11    1.13    1.45   107.05975   101.50173   402.10831
   116  H   1.0    0.05    1.14    1.45   102.11444   102.25567   401.04705
   117  H   1.0    0.06    1.13    1.45   105.41497    98.16626   399.54060
   118  H   1.0    0.05    1.16    1.46   102.42963    98.36574   398.55160
   119  H   1.0    0.06    0.99    1.43   106.75382   102.62905   397.45746
   120  N   5.0   -0.14    3.55    2.11   103.37332    97.68087   404.81115
   121  C   4.0    0.04    4.48    4.50   102.13903    96.04406   406.70327
   122  C   4.0    0.16    3.44    3.09   100.31922    97.52382   408.29102
   123  O   6.0   -0.23    1.16    1.80    98.03140    96.67212   408.77079
   124  C   4.0   -0.04    4.16    3.91   103.96552    94.21164   408.10372
   125  C   4.0   -0.04    4.16    3.92   104.07013    91.60521   406.47036
   126  C   4.0   -0.04    4.19    3.98   106.54022    90.68061   405.23840
   127  C   4.0   -0.02    4.21    4.02   106.26062    88.78467   403.14181
   128  N   5.0   -0.13    4.10    3.14   108.63472    87.68903   402.23699
   129  H   1.0    0.11    1.10    1.44   105.17354    97.57859   404.91749
   130  H   1.0    0.07    1.09    1.44   100.90504    94.74780   405.68387
   131  H   1.0    0.06    1.07    1.44   105.70618    94.98334   407.95179
   132  H   1.0    0.07    1.07    1.44   103.36145    93.88323   409.79709
   133  H   1.0    0.06    1.05    1.44   103.42564    90.19951   407.66689
   134  H   1.0    0.05    1.07    1.44   102.79490    91.71007   404.99053
   135  H   1.0    0.07    1.07    1.44   107.52892    92.22351   404.64985
   136  H   1.0    0.06    1.05    1.44   107.62084    89.88824   406.74521
   137  H   1.0    0.06    1.07    1.44   105.23597    87.26890   403.86518
   138  H   1.0    0.06    1.08    1.44   105.35414    89.59243   401.72262
   139  H   1.0    0.07    1.06    1.44   108.39899    86.50805   400.90164
   140  H   1.0    0.08    1.06    1.44   109.73384    89.04770   401.57546
   141  H   1.0    0.07    1.05    1.44   109.62142    86.88625   403.56380
   142  N   5.0   -0.14    3.51    2.08   101.12493    99.84107   408.86086
   143  C   4.0    0.04    4.56    4.61    99.83901   101.44654   410.65851
   144  C   4.0    0.16    3.46    3.10    97.76533   102.99009   409.59205
   145  O   6.0   -0.26    1.26    1.80    95.77979   103.01371   410.67994
   146  C   4.0    0.05    4.32    4.24   101.57907   103.06507   412.25325
   147  O   6.0   -0.24    2.09    1.84   103.83149   101.75180   413.19113
   148  C   4.0   -0.05    4.23    4.07   100.23343   104.32187   414.24853
   149  H   1.0    0.11    1.11    1.45   102.59202   100.61154   408.17729
   150  H   1.0    0.08    1.11    1.45    99.01206   100.16193   411.95789
   151  H   1.0    0.05    1.09    1.44   102.27733   104.46486   411.02741
   152  H   1.0    0.15    1.06    1.44   104.73636   101.21654   411.81510
   153  H   1.0    0.06    1.03    1.43   101.37885   105.58142   415.23659
   154  H   1.0    0.07    1.05    1.44    98.67133   105.25758   413.69768
   155  H   1.0    0.07    1.04    1.43    99.68160   103.00327   415.61865
   156  N   5.0   -0.14    3.53    2.10    98.10454   104.30655   407.41659
   157  C   4.0    0.04    4.47    4.50    96.33205   105.89934   406.16808
   158  C   4.0    0.15    3.41    3.08    95.06792   104.87824   403.82073
   159  O   6.0   -0.26    1.24    1.80    93.37160   105.94547   402.53841
   160  C   4.0   -0.02    4.49    4.52    97.38834   108.52521   405.64495
   161  C   4.0   -0.00    3.72    3.26    98.41837   109.74393   407.83440
   162  C   4.0   -0.01    3.71    3.25    96.99575   110.96047   409.60153
   163  C   4.0   -0.02    3.71    3.24   100.75395   109.56096   408.45773
   164  C   4.0   -0.00    3.60    3.17    97.86518   111.92208   411.72631
   165  C   4.0   -0.03    3.64    3.20   101.68463   110.49963   410.72526
   166  C   4.0    0.08    3.50    3.11   100.33082   111.75797   412.39639
   167  O   6.0   -0.20    2.09    1.84   101.40076   112.92098   414.57638
   168  H   1.0    0.11    1.13    1.45    99.72846   104.29320   406.62824
   169  H   1.0    0.08    1.10    1.44    94.84115   106.08853   407.51192
   170  H   1.0    0.05    1.10    1.44    98.75066   108.35106   404.32712
   171  H   1.0    0.07    1.08    1.44    95.94438   109.64232   404.95254
   172  H   1.0    0.08    1.07    1.44    95.06892   111.16513   409.21682
   173  H   1.0    0.07    1.08    1.44   102.00523   108.57313   407.35609
   174  H   1.0    0.09    1.07    1.44    96.68245   112.91062   412.95004
   175  H   1.0    0.06    1.05    1.44   103.64925   110.31991   411.09140
   176  H   1.0    0.15    1.07    1.44   103.07594   112.57995   414.55222
   177  N   5.0   -0.13    3.53    2.10    95.93559   102.74327   402.94042
   178  C   4.0    0.05    4.64    4.71    95.09433   101.54852   400.58878
   179  C   4.0    0.16    3.50    3.11    93.02325    99.66239   401.30801
   180  O   6.0   -0.24    1.19    1.80    93.47077    97.28366   401.96016
   181  C   4.0   -0.03    4.20    4.00    97.40332   100.17862   399.24606
   182  S   6.0   -0.01    2.64    3.10    96.97503   100.62077   396.24699
   183  H   1.0    0.12    1.11    1.45    97.23921   101.71938   403.80934
   184  H   1.0    0.06    1.17    1.46    94.48523   102.86455   399.40730
   185  H   1.0    0.05    1.19    1.46    99.03645   101.02781   399.80938
   186  H   1.0    0.08    1.16    1.45    97.40133    98.32936   399.76505
   187  H   1.0    0.05    0.99    1.43    98.37720    99.01722   395.05978
   188  N   5.0   -0.13    3.41    2.03    90.77675   100.68368   401.38880
   189  C   4.0    0.03    4.35    4.30    88.70536    99.04795   401.90736
   190  C   4.0    0.16    3.37    3.07    88.40392    97.13778   399.74133
   191  O   6.0   -0.25    1.17    1.80    88.79627    97.74492   397.38292
   192  H   1.0    0.11    1.10    1.44    90.37903   102.40529   401.22356
   193  H   1.0    0.07    1.07    1.44    88.88785    98.09006   403.56058
   194  H   1.0    0.06    1.06    1.44    87.02206   100.07582   402.00906
   195  N   5.0   -0.13    3.40    2.02    87.72748    94.78443   400.51833
   196  C   4.0    0.04    4.36    4.31    87.17067    92.73128   398.75373
   197  C   4.0    0.17    3.36    3.07    89.63321    91.81681   397.41734
   198  O   6.0   -0.24    1.18    1.80    91.54743    91.06953   398.69897
   199  C   4.0   -0.04    4.31    4.22    84.97859    93.52478   396.89987
   200  C   4.0   -0.04    4.24    4.09    82.37949    93.78756   398.25274
   201  C   4.0   -0.04    4.24    4.09    80.29191    94.58897   396.55528
   202  C   4.0   -0.02    4.21    4.03    77.71258    94.45891   397.88531
   203  N   5.0   -0.12    4.08    3.09    75.60312    95.34810   396.28430
   204  H   1.0    0.10    1.09    1.44    87.54248    94.31564   402.22680
   205  H   1.0    0.06    1.09    1.44    86.56606    91.17973   399.75217
   206  H   1.0    0.07    1.08    1.44    85.49895    95.21376   396.15716
   207  H   1.0    0.06    1.07    1.44    84.86921    92.17148   395.56853
   208  H   1.0    0.06    1.07    1.44    81.92835    92.09586   399.08990
   209  H   1.0    0.06    1.06    1.44    82.56506    95.11129   399.70016
   210  H   1.0    0.06    1.07    1.44    80.59314    96.40871   395.99127
   211  H   1.0    0.06    1.08    1.44    80.25056    93.42285   395.03210
   212  H   1.0    0.07    1.07    1.44    77.35224    92.63876   398.37686
   213  H   1.0    0.07    1.06    1.44    77.76007    95.57633   399.45717
   214  H   1.0    0.10    1.05    1.44    74.01665    95.28403   397.16743
   215  H   1.0    0.09    1.05    1.44    75.86484    97.07681   395.73692
   216  H   1.0    0.09    1.05    1.44    75.44412    94.32747   394.77317
   217  N   5.0   -0.12    3.48    2.07    89.57121    91.93778   394.86558
   218  C   4.0    0.05    4.46    4.48    91.73409    91.27793   393.32086
   219  C   4.0    0.15    3.41    3.08    94.10494    92.72326   394.09832
   220  O   6.0   -0.27    1.23    1.80    93.91151    95.04180   394.48811
   221  C   4.0    0.06    4.29    4.18    91.12898    91.79768   390.46609
   222  O   6.0   -0.24    2.18    1.85    88.55543    91.34731   390.04850
   223  C   4.0   -0.07    4.14    3.87    92.76972    90.41626   388.59202
   224  H   1.0    0.10    1.12    1.45    88.08500    92.36816   393.93282
   225  H   1.0    0.06    1.10    1.44    92.06540    89.38328   393.55331
   226  H   1.0    0.05    1.09    1.44    91.57014    93.69677   390.20742
   227  H   1.0    0.14    1.06    1.44    88.12863    91.92652   388.47533
   228  H   1.0    0.06    1.04    1.43    92.42815    90.94281   386.84156
   229  H   1.0    0.05    1.03    1.43    94.66101    90.69740   389.04090
   230  H   1.0    0.07    1.03    1.43    92.45665    88.49799   388.81959
   231  N   5.0   -0.14    3.48    2.07    96.29802    91.47384   394.22875
   232  C   4.0    0.04    4.41    4.40    98.70919    92.53413   395.06093
   233  C   4.0    0.14    3.53    3.13   100.63025    91.46055   393.20928
   234  O   6.0   -0.26    1.26    1.80   100.50241    89.15138   392.73204
   235  C   4.0    0.04    4.19    3.98    99.16051    91.96970   397.85494
   236  O   6.0   -0.25    2.03    1.83   101.36092    93.13786   398.89889
   237  H   1.0    0.11    1.11    1.45    96.41591    89.73283   393.79548
   238  H   1.0    0.05    1.10    1.44    98.72044    94.48214   394.95189
   239  H   1.0    0.07    1.05    1.44    97.64988    92.56877   398.88429
   240  H   1.0    0.06    1.05    1.44    99.27217    90.00965   398.00355
   241  H   1.0    0.13    1.05    1.44   102.16222    91.85670   399.83362
   242  N   5.0   -0.10    3.73    2.30   102.26669    93.01029   392.09512
   243  C   4.0    0.05    4.72    4.78   104.08780    92.12220   390.33509
   244  C   4.0    0.09    3.30    3.05   106.35647    90.74344   391.31597
   245  O   6.0   -0.28    1.14    1.80   107.06344    90.96533   393.52106
   246  C   4.0   -0.05    4.60    4.67   105.11423    94.40726   389.10267
   247  C   4.0   -0.05    4.49    4.53   104.57233    96.41202   390.65313
   248  C   4.0   -0.00    4.56    4.62   102.97944    95.44651   392.80918
   249  H   1.0    0.06    1.10    1.44   103.14853    90.88200   389.10095
   250  H   1.0    0.04    1.10    1.44   106.91735    94.26375   388.58889
   251  H   1.0    0.04    1.06    1.44   104.06920    94.66420   387.35154
   252  H   1.0    0.04    1.09    1.44   106.23024    97.16349   391.29499
   253  H   1.0    0.04    1.08    1.44   103.57436    97.82834   389.76242
   254  H   1.0    0.05    1.04    1.43   104.08197    95.53472   394.51347
   255  H   1.0    0.03    1.06    1.44   101.47084    96.63559   393.19607
   256  N   5.0   -0.21    3.29    1.98   114.00972    88.17014   391.92956
   257  C   4.0    0.03    4.30    4.20   116.36459    89.35476   391.81968
   258  C   4.0    0.09    3.24    3.04   117.54447    89.31376   389.26135
   259  O   6.0   -0.28    1.12    1.80   118.65793    91.18293   388.41168
   260  C   4.0   -0.04    4.34    4.27   118.00779    88.40752   393.88445
   261  C   4.0   -0.06    4.17    3.94   117.49814    89.27348   396.71776
   262  C   4.0   -0.05    4.18    3.96   116.86399    87.08663   398.48717
   263  C   4.0   -0.03    4.19    3.97   114.11013    85.95292   397.95965
   264  N   5.0   -0.13    4.10    3.14   113.58757    83.73037   399.37468
   265  H   1.0    0.10    1.08    1.44   113.83730    86.83009   393.03671
   266  H   1.0    0.04    1.12    1.45   116.21004    91.30021   392.21694
   267  H   1.0    0.06    1.07    1.44   117.96825    86.42905   393.87410
   268  H   1.0    0.06    1.05    1.44   119.92972    88.84028   393.53557
   269  H   1.0    0.05    1.07    1.44   118.97761    90.22936   397.37491
   270  H   1.0    0.04    1.07    1.44   115.93050    90.41495   396.57243
   271  H   1.0    0.06    1.06    1.44   118.09999    85.62348   398.11468
   272  H   1.0    0.05    1.07    1.44   116.99048    87.64802   400.26873
   273  H   1.0    0.05    1.06    1.44   112.87005    87.36130   398.51158
   274  H   1.0    0.05    1.08    1.44   113.91679    85.60104   396.11412
   275  H   1.0    0.08    1.06    1.44   111.90183    83.11667   399.16941
   276  H   1.0    0.08    1.06    1.44   114.74829    82.36006   398.99454
   277  H   1.0    0.07    1.05    1.44   113.80396    84.00354   401.22610
   278  N   5.0   -0.19    3.26    1.97   114.45510    94.56319   385.23801
   279  C   4.0    0.03    4.41    4.40   115.32616    96.99267   386.10800
   280  C   4.0    0.10    3.30    3.05   117.72795    97.65643   384.93451
   281  O   6.0   -0.24    1.12    1.80   118.12679    99.66593   383.82660
   282  C   4.0   -0.03    4.47    4.49   115.34583    97.25701   388.95373
   283  C   4.0   -0.06    4.33    4.26   112.58750    96.84864   389.93425
   284  C   4.0   -0.08    4.25    4.11   116.43942    99.62173   389.86299
   285  C   4.0   -0.08    4.17    3.94   112.43738    96.40109   392.56055
   286  H   1.0    0.10    1.05    1.44   114.28672    93.33067   386.59882
   287  H   1.0    0.05    1.10    1.44   113.94603    98.26272   385.39111
   288  H   1.0    0.05    1.11    1.45   116.42012    95.79995   389.64812
   289  H   1.0    0.04    1.09    1.44   111.61822    98.49692   389.62373
   290  H   1.0    0.04    1.09    1.44   111.75287    95.41386   388.98901
   291  H   1.0    0.04    1.05    1.44   116.36370    99.76665   391.72724
   292  H   1.0    0.05    1.05    1.44   118.25788    99.75367   389.19736
   293  H   1.0    0.05    1.04    1.43   115.43639   101.11028   389.02922
   294  H   1.0    0.04    1.04    1.43   110.60035    96.14090   393.15497
   295  H   1.0    0.04    1.03    1.43   113.35550    94.66523   392.99365
   296  H   1.0    0.04    1.05    1.44   113.27018    97.73758   393.63935
   297  N   5.0   -0.20    3.26    1.97   100.64835   101.13631   374.19454
   298  C   4.0    0.03    4.36    4.31    98.96474   100.02949   376.02884
   299  C   4.0    0.15    3.36    3.07   100.02846   100.21754   378.80957
   300  O   6.0   -0.29    1.17    1.80    98.63625   100.97935   380.63213
   301  C   4.0   -0.04    4.37    4.33    98.24721    97.49227   375.36251
   302  C   4.0   -0.04    4.22    4.04    96.21423    97.18378   373.35815
   303  C   4.0   -0.04    4.21    4.02    96.26182    94.55080   371.93801
   304  C   4.0   -0.02    4.24    4.08    93.70086    93.46021   371.46790
   305  N   5.0   -0.12    4.11    3.18    93.60361    91.51120   369.57380
   306  H   1.0    0.11    1.06    1.44   101.31455    99.98436   373.00335
   307  H   1.0    0.06    1.11    1.45    97.33599   101.13639   376.09170
   308  H   1.0    0.06    1.08    1.44    99.85605    96.53734   374.69086
   309  H   1.0    0.06    1.08    1.44    97.67217    96.48778   376.93813
   310  H   1.0    0.06    1.07    1.44    94.48629    97.37187   374.17872
   311  H   1.0    0.06    1.07    1.44    96.46694    98.53049   372.01409
   312  H   1.0    0.07    1.07    1.44    97.23054    94.69843   370.32510
   313  H   1.0    0.06    1.06    1.44    97.21563    93.28420   373.13840
   314  H   1.0    0.06    1.06    1.44    92.94288    92.75764   373.12176
   315  H   1.0    0.07    1.07    1.44    92.52963    94.94618   370.91476
   316  H   1.0    0.10    1.06    1.44    91.89620    90.96094   369.25617
   317  H   1.0    0.09    1.06    1.44    94.25776    92.16624   367.98160
   318  H   1.0    0.09    1.07    1.44    94.61075    90.09654   370.05107
   319  N   5.0   -0.14    3.44    2.04   102.45969    99.57916   379.02462
   320  C   4.0    0.04    4.38    4.35   104.05023    99.91050   381.18063
   321  C   4.0    0.08    3.22    3.04   103.96197   102.67033   382.15260
   322  O   6.0   -0.31    1.14    1.80   103.50328   103.28033   384.50934
   323  C   4.0    0.05    4.30    4.21   106.77966    99.03902   380.85962
   324  O   6.0   -0.25    2.15    1.85   107.09886    96.61840   379.68137
   325  C   4.0   -0.07    4.25    4.10   108.00517    98.83774   383.28896
   326  H   1.0    0.10    1.10    1.44   103.45283    98.84649   377.63413
   327  H   1.0    0.06    1.09    1.44   103.18143    98.76964   382.58433
   328  H   1.0    0.06    1.10    1.44   107.55938   100.42421   379.75907
   329  H   1.0    0.15    1.07    1.44   108.70032    96.26430   379.48415
   330  H   1.0    0.05    1.03    1.43   109.90200    98.32781   383.09902
   331  H   1.0    0.05    1.03    1.43   108.04146   100.53565   384.28160
   332  H   1.0    0.04    1.04    1.43   107.20277    97.53053   384.46305
   333  N   5.0   -0.19    3.15    1.95   100.03834   107.20117   381.23749
   334  C   4.0    0.03    4.17    3.94    97.62463   107.84625   382.10835
   335  C   4.0    0.16    3.27    3.05    97.04282   106.91888   384.91207
   336  O   6.0   -0.27    1.18    1.80    96.05987   108.44169   386.45700
   337  H   1.0    0.11    1.05    1.44   100.00673   106.11686   379.76960
   338  H   1.0    0.07    1.07    1.44    97.36709   109.73938   382.15299
   339  H   1.0    0.07    1.06    1.44    96.20293   107.03824   381.04410
   340  N   5.0   -0.14    3.42    2.03    97.65115   104.50549   385.46852
   341  C   4.0    0.04    4.45    4.47    97.81538   103.48626   388.03464
   342  C   4.0    0.14    3.42    3.08    99.51633   105.17003   389.74792
   343  O   6.0   -0.28    1.15    1.80    98.66737   106.05796   391.92812
   344  C   4.0   -0.05    4.59    4.66    98.65532   100.86756   388.25454
   345  C   4.0   -0.02    4.42    4.41    96.80928    99.02112   387.43999
   346  C   4.0   -0.07    4.39    4.36    98.15822    96.72195   386.91130
   347  C   4.0   -0.06    4.34    4.28    94.85990    98.31126   389.21615
   348  H   1.0    0.11    1.10    1.44    98.16360   103.29982   384.22039
   349  H   1.0    0.07    1.10    1.44    95.95683   103.73897   388.67498
   350  H   1.0    0.05    1.11    1.45   100.19368   100.65919   387.12817
   351  H   1.0    0.04    1.11    1.45    99.05266   100.49946   390.07343
   352  H   1.0    0.06    1.12    1.45    95.72209    99.67926   385.91310
   353  H   1.0    0.05    1.03    1.43    97.02938    95.25827   386.14134
   354  H   1.0    0.05    1.02    1.43    99.47458    97.03428   385.39144
   355  H   1.0    0.04    1.05    1.44    99.14559    96.01152   388.35023
   356  H   1.0    0.05    1.04    1.43    93.61211    96.96598   388.55586
   357  H   1.0    0.06    1.05    1.44    95.67844    97.56429   390.84035
   358  H   1.0    0.06    1.04    1.43    93.80666    99.84923   389.78574
   359  N   5.0   -0.16    3.49    2.07   101.97970   105.56085   388.87832
   360  C   4.0    0.04    4.64    4.71   103.76826   106.84543   390.46434
   361  C   4.0    0.10    3.39    3.08   102.94687   109.41208   391.14983
   362  O   6.0   -0.29    1.17    1.80   103.06844   110.07428   393.29453
   363  C   4.0   -0.02    4.49    4.53   106.27329   106.76797   389.36360
   364  C   4.0   -0.07    4.36    4.30   107.90303   108.59953   390.73002
   365  C   4.0   -0.08    4.33    4.25   107.25595   104.22414   389.54167
   366  H   1.0    0.12    1.14    1.45   102.48683   105.02453   387.26241
   367  H   1.0    0.06    1.13    1.45   103.76768   105.80040   392.14579
   368  H   1.0    0.06    1.12    1.45   106.33910   107.27366   387.49165
   369  H   1.0    0.05    1.03    1.43   109.78609   108.42420   390.12322
   370  H   1.0    0.07    1.06    1.44   107.34265   110.38026   390.42461
   371  H   1.0    0.05    1.04    1.43   107.90733   108.19171   392.62560
   372  H   1.0    0.04    1.03    1.43   109.01391   104.03818   388.62628
   373  H   1.0    0.04    1.04    1.44   107.49030   103.62362   391.34397
   374  H   1.0    0.05    1.04    1.43   106.07742   102.95308   388.61010
   375  N   5.0   -0.19    3.15    1.95    97.62028   111.91202   391.01626
   376  C   4.0    0.04    4.25    4.10    95.56099   111.88216   392.83363
   377  C   4.0    0.16    3.31    3.06    96.15344   112.03678   395.51378
   378  O   6.0   -0.22    1.18    1.80    94.92854   113.53706   396.92682
   379  H   1.0    0.13    1.07    1.44    97.48286   110.62863   389.80297
   380  H   1.0    0.08    1.04    1.43    94.24753   113.42290   392.40898
   381  H   1.0    0.07    1.04    1.43    94.31796   110.32449   392.45358
   382  N   5.0   -0.13    3.49    2.07    98.08097   110.47385   396.12852
   383  C   4.0    0.04    4.32    4.23    99.33051   110.36354   398.59624
   384  C   4.0    0.11    3.28    3.05   100.57319   112.83885   399.15596
   385  O   6.0   -0.23    1.13    1.80    99.91162   114.03038   400.99742
   386  C   4.0   -0.07    4.23    4.05   101.18444   108.31705   398.82210
   387  H   1.0    0.12    1.11    1.44    98.84211   109.32926   394.94090
   388  H   1.0    0.07    1.10    1.44    97.81610   110.06203   399.85584
   389  H   1.0    0.05    1.05    1.44   101.84210   108.20480   400.60450
   390  H   1.0    0.05    1.03    1.43   100.28023   106.58857   398.41387
   391  H   1.0    0.07    1.05    1.44   102.57878   108.55493   397.54548
   392  O   6.0   -0.29    1.96    1.82   108.06955    92.10909   398.81556
   393  H   1.0    0.14    0.99    1.43   109.60559    92.78113   398.16449
   394  H   1.0    0.14    0.99    1.43   106.95181    93.26208   398.09378
   395  N   5.0   -0.17    3.22    1.96    99.84107   101.12493   425.52495
   396  C   4.0    0.04    4.39    4.36   101.44654    99.83901   423.72730
   397  C   4.0    0.11    3.28    3.05   102.99009    97.76533   424.79375
   398  O   6.0   -0.23    1.16    1.80   103.01371    95.77979   423.70587
   399  C   4.0    0.05    4.32    4.23   103.06507   101.57907   422.13255
   400  O   6.0   -0.24    2.09    1.84   101.75180   103.83149   421.19467
   401  C   4.0   -0.05    4.23    4.06   104.32187   100.23343   420.13728
   402  H   1.0    0.12    1.06    1.44   100.61154   102.59202   426.20851
   403  H   1.0    0.08    1.11    1.44   100.16193    99.01206   422.42791
   404  H   1.0    0.06    1.09    1.44   104.46486   102.27733   423.35840
   405  H   1.0    0.15    1.05    1.44   101.21654   104.73636   422.57071
   406  H   1.0    0.07    1.03    1.43   105.58142   101.37885   419.14922
   407  H   1.0    0.07    1.05    1.44   105.25758    98.67133   420.68812
   408  H   1.0    0.07    1.04    1.43   103.00327    99.68160   418.76716
   409  N   5.0   -0.17    3.26    1.97   123.51024    97.80162   419.38217
   410  C   4.0    0.04    4.29    4.17   124.06898    99.62165   417.48127
   411  C   4.0    0.10    3.23    3.04   126.71522   100.71985   417.81063
   412  O   6.0   -0.20    1.11    1.80   128.06122   100.36245   419.76946
   413  C   4.0   -0.04    4.41    4.40   122.29048   101.78542   417.17430
   414  C   4.0   -0.02    4.33    4.26   119.52670   101.17667   417.15893
   415  C   4.0    0.15    3.26    3.05   118.67399   100.01264   414.75212
   416  O   6.0   -0.27    1.19    1.80   119.96461   100.53255   412.77670
   417  N   5.0   -0.20    3.16    1.95   116.48527    98.55612   414.93143
   418  H   1.0    0.13    1.05    1.44   123.86376    98.35264   421.08780
   419  H   1.0    0.06    1.10    1.44   123.97440    98.50044   415.83606
   420  H   1.0    0.06    1.08    1.44   122.52285   102.89664   418.80619
   421  H   1.0    0.07    1.10    1.44   122.64468   102.78362   415.65067
   422  H   1.0    0.05    1.07    1.44   119.03143    99.98140   418.63466
   423  H   1.0    0.06    1.07    1.44   118.45636   102.81226   417.40047
   424  H   1.0    0.11    1.05    1.44   115.69984    98.26786   416.46138
   425  H   1.0    0.11    1.05    1.44   115.99102    97.68991   413.44714
   426  N   5.0   -0.18    3.23    1.96   125.01105   111.66635   412.04525
   427  C   4.0    0.03    4.33    4.25   122.39271   112.05395   412.76173
   428  C   4.0    0.11    3.22    3.04   122.08976   114.91425   413.07681
   429  O   6.0   -0.23    1.11    1.80   120.24360   116.03167   412.15068
   430  C   4.0   -0.03    4.41    4.39   121.45512   110.40900   414.84643
   431  C   4.0   -0.02    4.34    4.28   118.85887   110.08093   415.05141
   432  C   4.0    0.15    3.22    3.04   117.57044   108.33780   413.25916
   433  O   6.0   -0.29    1.22    1.80   118.71003   106.48782   412.66678
   434  N   5.0   -0.20    3.08    1.94   114.96553   108.91380   412.25397
   435  H   1.0    0.11    1.05    1.44   125.85118   110.55894   413.30265
   436  H   1.0    0.06    1.11    1.45   121.28333   111.62272   411.18530
   437  H   1.0    0.06    1.10    1.44   122.27064   108.67644   414.63045
   438  H   1.0    0.07    1.09    1.44   122.17784   111.20949   416.49360
   439  H   1.0    0.06    1.08    1.44   118.31090   109.48874   416.86068
   440  H   1.0    0.06    1.07    1.44   117.89888   111.86807   414.88181
   441  H   1.0    0.11    1.04    1.44   114.28243   110.39108   412.94030
   442  H   1.0    0.12    1.04    1.43   114.28446   107.84484   411.14232
   443  H   1.0    0.10    1.07    1.44   123.51335   103.11798   394.84907
   444  H   1.0    0.06    1.05    1.44   107.33985    89.60697   390.17033
   445  H   1.0    0.10    1.09    1.44   112.82765    89.29910   392.39936
   446  H   1.0    0.08    1.05    1.44   117.44319    87.75419   388.19902
   447  H   1.0    0.10    1.08    1.44   112.92999    94.73591   384.50536
   448  H   1.0    0.08    1.05    1.44   119.17804    96.44649   385.00033
   449  H   1.0    0.12    1.08    1.44    99.82024   102.33151   373.31232
   450  H   1.0    0.07    1.04    1.43   104.26456   104.10294   380.95797
   451  H   1.0    0.12    1.08    1.44   100.88541   108.61386   380.81398
   452  H   1.0    0.07    1.05    1.44   102.29360   110.58246   389.81772
   453  H   1.0    0.12    1.07    1.44    97.63265   113.40225   390.19673
   454  H   1.0    0.08    1.05    1.44   101.93231   113.49261   398.01735
   455  H   1.0    0.13    1.08    1.44    98.39883   101.60066   424.75932
   456  H   1.0    0.09    1.05    1.44   103.97696    98.04221   426.38136
   457  H   1.0    0.11    1.09    1.44   121.85652    97.40875   419.32344
   458  H   1.0    0.07    1.04    1.43   127.47427   101.78189   416.44425
   459  H   1.0    0.11    1.07    1.44   125.07751   110.93153   410.51287
   460  H   1.0    0.09    1.04    1.43   123.38477   115.90164   414.03549

  Z AO/shell   Hii/eV     exponent
  1     Wed Apr 25 08:07:45 CEST 2018   EN: 2.200 GM2: 0.406  GM3: 0.0800  RAES: 1.40
     1s    -10.707211    1.230000
  6     Wed Apr 25 08:07:45 CEST 2018   EN: 2.550 GM2: 0.538  GM3: 0.1500  RAES: 3.00
     2s    -13.970922    2.096432
     2p    -10.063292    1.800000
  7     Wed Apr 25 08:07:45 CEST 2018   EN: 3.040 GM2: 0.461  GM3:-0.0640  RAES: 1.90
     2s    -16.686243    2.339881
     2p    -12.523956    2.014332
  8     Wed Apr 25 08:07:45 CEST 2018   EN: 3.440 GM2: 0.452  GM3:-0.0517  RAES: 1.80
     2s    -20.229985    2.439742
     2p    -15.503117    2.137023
 16     Tue Apr 24 11:44:34 CEST 2018   EN: 2.580 GM2: 0.340  GM3:-0.0502  RAES: 3.10
     3s    -20.029654    1.981333
     3p    -11.377694    2.025643
     3d     -0.420282    1.702555
 no old-style atom pair restraining (fixing) potential

molecular fragmentation (1/2 indicates fragments):
111111111111111111111111111111111111111111111111111111111111111111111111
111111111111111111111111111111111111111111111111111111111111111111111111
111111111111111111111111111111111111111111111111111111111111111111111111
111111111111111111111111111111111111111222222222222222222222222222222222
222222222222222222222222222222222222222222222222222222222222222222222222
222222222222222222222222222222222222222222222222222222222222222222222222
2222222222112222222222222222
# atoms in fragment 1/2:   257   203
 fragment masses (1/2) :     1773.15     1261.61
CMA distance (Bohr)    :   6.334
constraining FC (au)   :  0.0500
           ------------------------------------------------- 
          |        Self-Consistent Charge Iterations        |
           ------------------------------------------------- 

 Ncao       : 1099
 Nao        : 1097
 Nshell     : 671
 Nel        : 1202
 T(el)      :   500.0
 intcut     :    35.0
 scfconv/Eh :  0.100E-06
   qconv/e  :  0.100E-04
 intneglect :  0.100E-08
 broydamp   :      0.400
 iter      E             dE          RMSdq      gap      omega  full diag
   1   -689.1424225 -0.689142E+03  0.464E+00    2.60       0.0  T
   2   -690.7268890 -0.158447E+01  0.221E+00    1.02       1.0  T
   3   -690.8121186 -0.852296E-01  0.129E+00    1.62       1.0  T
   4   -690.9545898 -0.142471E+00  0.321E-01    0.75       1.0  T
   5   -690.9672543 -0.126646E-01  0.168E-01    1.20       1.0  T
   6   -690.9708293 -0.357499E-02  0.727E-02    1.06       1.0  T
   7   -690.9714608 -0.631468E-03  0.331E-02    1.11       1.0  T
   8   -690.9715219 -0.611461E-04  0.172E-02    1.10       1.0  T
   9   -690.9715482 -0.262969E-04  0.734E-03    1.11       1.0  T
  10   -690.9715531 -0.490717E-05  0.346E-03    1.10       1.3  T
  11   -690.9715541 -0.953642E-06  0.156E-03    1.10       3.0  T
  12   -690.9715543 -0.178318E-06  0.705E-04    1.10       6.6  T
  13   -690.9715543 -0.484229E-07  0.293E-04    1.10      15.9  T
  14   -690.9715543 -0.498221E-08  0.138E-04    1.10      33.7  T
  15   -690.9715543 -0.147475E-08  0.581E-05    1.10      80.3  T
  16   -690.9715543 -0.290584E-09  0.250E-05    1.10     186.7  T
speedup  1.59
cpu  time for SCC   30.38 s
wall time for SCC   19.05 s

   *** convergence criteria satisfied after 16 iterations ***

          eigenvalues
 #    :         589        590        591        592        593        594        595        596
 occ. :        2.000      2.000      2.000      2.000      2.000      2.000      2.000      2.000
 eps  :       -10.502    -10.459    -10.371    -10.349    -10.292    -10.206    -10.103    -10.097
 #    :         597        598        599        600        601        602        603        604
 occ. :        2.000      2.000      2.000      2.000      2.000      0.000      0.000      0.000
 eps  :       -10.047    -10.014     -9.919     -9.852     -9.841     -8.738     -8.015     -7.996
 #    :         605        606        607        608        609        610        611        612
 occ. :        0.000      0.000      0.000      0.000      0.000      0.000      0.000      0.000
 eps  :        -7.704     -7.683     -7.603     -7.575     -7.532     -7.106     -7.099     -6.960


   #   Z            q   n(s)   n(p)   n(d)      C6AA      α(0)
   1   7 N     -0.411  1.306  4.105  0.000    30.668     8.225
   2   6 C      0.016  1.052  2.932  0.000    20.308     6.415
   3   6 C      0.256  1.062  2.682  0.000    22.694     7.800
   4   8 O     -0.474  1.742  4.732  0.000    23.220     6.461
   5   6 C     -0.020  1.041  2.979  0.000    20.893     6.500
   6   6 C     -0.066  1.008  3.057  0.000    21.742     6.636
   7   6 C     -0.133  1.001  3.132  0.000    23.076     6.843
   8   6 C     -0.125  0.999  3.125  0.000    22.927     6.824
   9   1 H      0.167  0.833  0.000  0.000     1.291     1.780
  10   1 H      0.050  0.950  0.000  0.000     2.314     2.379
  11   1 H      0.037  0.963  0.000  0.000     2.493     2.469
  12   1 H      0.037  0.963  0.000  0.000     2.490     2.467
  13   1 H      0.038  0.962  0.000  0.000     2.475     2.460
  14   1 H      0.048  0.952  0.000  0.000     2.346     2.395
  15   1 H      0.063  0.937  0.000  0.000     2.168     2.302
  16   1 H      0.062  0.938  0.000  0.000     2.175     2.306
  17   1 H      0.035  0.965  0.000  0.000     2.517     2.481
  18   1 H      0.036  0.964  0.000  0.000     2.504     2.475
  19   1 H      0.053  0.947  0.000  0.000     2.279     2.360
  20   7 N     -0.192  1.238  3.954  0.000    25.161     7.450
  21   6 C      0.011  1.046  2.942  0.000    20.398     6.432
  22   6 C      0.257  1.062  2.681  0.000    22.682     7.799
  23   8 O     -0.473  1.753  4.720  0.000    23.194     6.457
  24   6 C     -0.092  1.016  3.076  0.000    22.242     6.712
  25   6 C     -0.103  1.043  3.060  0.000    22.480     6.753
  26   6 C     -0.110  1.039  3.070  0.000    22.608     6.772
  27   6 C     -0.057  1.090  2.967  0.000    21.987     6.744
  28   7 N     -0.191  1.210  3.982  0.000    25.140     7.447
  29   1 H      0.224  0.776  0.000  0.000     0.991     1.560
  30   1 H      0.110  0.890  0.000  0.000     1.696     2.036
  31   1 H      0.072  0.928  0.000  0.000     2.059     2.244
  32   1 H      0.070  0.930  0.000  0.000     2.089     2.260
  33   1 H      0.087  0.913  0.000  0.000     1.904     2.158
  34   1 H      0.072  0.928  0.000  0.000     2.066     2.248
  35   1 H      0.086  0.914  0.000  0.000     1.922     2.168
  36   1 H      0.116  0.884  0.000  0.000     1.646     2.006
  37   1 H      0.134  0.866  0.000  0.000     1.503     1.917
  38   1 H      0.141  0.859  0.000  0.000     1.450     1.883
  39   1 H      0.288  0.712  0.000  0.000     0.749     1.356
  40   1 H      0.289  0.711  0.000  0.000     0.746     1.353
  41   1 H      0.287  0.713  0.000  0.000     0.752     1.358
  42   7 N     -0.184  1.222  3.962  0.000    24.994     7.425
  43   6 C      0.033  1.026  2.942  0.000    19.995     6.361
  44   6 C      0.257  1.062  2.681  0.000    22.672     7.798
  45   8 O     -0.497  1.764  4.733  0.000    23.723     6.530
  46   6 C     -0.022  1.022  3.000  0.000    20.914     6.502
  47   6 C     -0.131  1.006  3.125  0.000    23.029     6.836
  48   6 C     -0.139  1.000  3.138  0.000    23.180     6.857
  49   1 H      0.212  0.788  0.000  0.000     1.046     1.602
  50   1 H      0.085  0.915  0.000  0.000     1.924     2.169
  51   1 H      0.054  0.946  0.000  0.000     2.276     2.359
  52   1 H      0.044  0.956  0.000  0.000     2.392     2.418
  53   1 H      0.052  0.948  0.000  0.000     2.290     2.366
  54   1 H      0.042  0.958  0.000  0.000     2.418     2.432
  55   1 H      0.049  0.951  0.000  0.000     2.326     2.385
  56   1 H      0.052  0.948  0.000  0.000     2.290     2.366
  57   1 H      0.074  0.926  0.000  0.000     2.037     2.232
  58   7 N     -0.174  1.222  3.953  0.000    24.774     7.392
  59   6 C      0.014  1.040  2.947  0.000    20.337     6.418
  60   6 C      0.261  1.050  2.689  0.000    22.608     7.786
  61   8 O     -0.510  1.748  4.762  0.000    23.998     6.568
  62   6 C     -0.044  1.051  2.992  0.000    21.301     6.562
  63   6 C     -0.089  1.019  3.070  0.000    22.187     6.703
  64   6 C     -0.151  1.013  3.138  0.000    23.478     6.908
  65   6 C     -0.137  1.009  3.128  0.000    23.168     6.857
  66   1 H      0.214  0.786  0.000  0.000     1.039     1.597
  67   1 H      0.067  0.933  0.000  0.000     2.114     2.274
  68   1 H      0.064  0.936  0.000  0.000     2.158     2.297
  69   1 H      0.059  0.941  0.000  0.000     2.209     2.324
  70   1 H      0.056  0.944  0.000  0.000     2.242     2.341
  71   1 H      0.087  0.913  0.000  0.000     1.910     2.161
  72   1 H      0.072  0.928  0.000  0.000     2.061     2.245
  73   1 H      0.049  0.951  0.000  0.000     2.335     2.389
  74   1 H      0.025  0.975  0.000  0.000     2.659     2.550
  75   1 H      0.052  0.948  0.000  0.000     2.290     2.366
  76   1 H      0.071  0.929  0.000  0.000     2.075     2.252
  77   7 N     -0.175  1.232  3.943  0.000    24.787     7.394
  78   6 C      0.002  1.051  2.947  0.000    20.551     6.454
  79   6 C      0.266  1.044  2.690  0.000    22.502     7.768
  80   8 O     -0.468  1.735  4.733  0.000    23.083     6.442
  81   6 C      0.060  1.005  2.935  0.000    19.722     6.351
  82   8 O     -0.448  1.678  4.770  0.000    21.794     6.302
  83   1 H      0.229  0.771  0.000  0.000     0.969     1.542
  84   1 H      0.113  0.887  0.000  0.000     1.668     2.019
  85   1 H      0.077  0.923  0.000  0.000     2.013     2.218
  86   1 H      0.047  0.953  0.000  0.000     2.356     2.400
  87   1 H      0.361  0.639  0.000  0.000     0.564     1.179
  88   7 N     -0.173  1.218  3.955  0.000    24.741     7.387
  89   6 C      0.016  1.041  2.943  0.000    20.296     6.413
  90   6 C      0.276  1.039  2.685  0.000    22.340     7.741
  91   8 O     -0.547  1.761  4.786  0.000    24.841     6.682
  92   6 C      0.067  1.012  2.921  0.000    19.633     6.342
  93   8 O     -0.479  1.722  4.757  0.000    22.447     6.396
  94   1 H      0.221  0.779  0.000  0.000     1.007     1.572
  95   1 H      0.089  0.911  0.000  0.000     1.885     2.147
  96   1 H      0.061  0.939  0.000  0.000     2.189     2.314
  97   1 H      0.058  0.942  0.000  0.000     2.217     2.328
  98   1 H      0.328  0.672  0.000  0.000     0.643     1.260
  99   7 N     -0.164  1.229  3.935  0.000    24.541     7.358
 100   6 C      0.030  1.029  2.941  0.000    20.046     6.371
 101   6 C      0.294  1.021  2.685  0.000    22.021     7.686
 102   8 O     -0.525  1.736  4.789  0.000    24.345     6.616
 103   6 C     -0.146  1.003  3.142  0.000    23.328     6.881
 104   1 H      0.239  0.761  0.000  0.000     0.927     1.508
 105   1 H      0.077  0.923  0.000  0.000     2.010     2.217
 106   1 H      0.073  0.927  0.000  0.000     2.055     2.242
 107   1 H      0.076  0.924  0.000  0.000     2.020     2.222
 108   1 H      0.079  0.921  0.000  0.000     1.987     2.204
 109   7 N     -0.186  1.223  3.963  0.000    25.026     7.430
 110   6 C      0.033  1.026  2.941  0.000    19.954     6.349
 111   6 C      0.274  1.025  2.700  0.000    22.366     7.746
 112   8 O     -0.525  1.760  4.765  0.000    24.333     6.614
 113   6 C     -0.012  1.019  2.993  0.000    20.763     6.483
 114  16 S     -0.295  1.893  4.356  0.045   153.807    20.873
 115   1 H      0.235  0.765  0.000  0.000     0.943     1.521
 116   1 H      0.057  0.943  0.000  0.000     2.231     2.336
 117   1 H      0.086  0.914  0.000  0.000     1.913     2.163
 118   1 H      0.089  0.911  0.000  0.000     1.890     2.149
 119   1 H      0.216  0.784  0.000  0.000     1.021     1.580
 120   7 N     -0.169  1.229  3.940  0.000    24.652     7.374
 121   6 C      0.010  1.064  2.926  0.000    20.404     6.431
 122   6 C      0.269  1.053  2.678  0.000    22.454     7.760
 123   8 O     -0.546  1.810  4.736  0.000    24.828     6.681
 124   6 C     -0.104  1.041  3.063  0.000    22.495     6.755
 125   6 C     -0.100  1.046  3.053  0.000    22.411     6.742
 126   6 C     -0.114  1.030  3.084  0.000    22.666     6.777
 127   6 C     -0.066  1.025  3.041  0.000    21.849     6.669
 128   7 N     -0.133  1.184  3.949  0.000    23.871     7.256
 129   1 H      0.238  0.762  0.000  0.000     0.930     1.511
 130   1 H      0.104  0.896  0.000  0.000     1.752     2.070
 131   1 H      0.099  0.901  0.000  0.000     1.797     2.096
 132   1 H      0.081  0.919  0.000  0.000     1.965     2.192
 133   1 H      0.070  0.930  0.000  0.000     2.083     2.257
 134   1 H      0.058  0.942  0.000  0.000     2.219     2.330
 135   1 H      0.106  0.894  0.000  0.000     1.728     2.056
 136   1 H      0.086  0.914  0.000  0.000     1.914     2.163
 137   1 H      0.120  0.880  0.000  0.000     1.613     1.986
 138   1 H      0.130  0.870  0.000  0.000     1.538     1.939
 139   1 H      0.300  0.700  0.000  0.000     0.714     1.324
 140   1 H      0.303  0.697  0.000  0.000     0.705     1.315
 141   1 H      0.297  0.703  0.000  0.000     0.721     1.330
 142   7 N     -0.174  1.223  3.950  0.000    24.762     7.391
 143   6 C      0.009  1.045  2.945  0.000    20.410     6.430
 144   6 C      0.282  1.036  2.682  0.000    22.226     7.720
 145   8 O     -0.476  1.737  4.739  0.000    23.251     6.465
 146   6 C      0.115  1.028  2.857  0.000    18.775     6.184
 147   8 O     -0.479  1.717  4.763  0.000    22.456     6.397
 148   6 C     -0.137  0.996  3.141  0.000    23.164     6.858
 149   1 H      0.219  0.781  0.000  0.000     1.012     1.576
 150   1 H      0.089  0.911  0.000  0.000     1.888     2.149
 151   1 H      0.035  0.965  0.000  0.000     2.522     2.483
 152   1 H      0.332  0.668  0.000  0.000     0.632     1.248
 153   1 H      0.078  0.922  0.000  0.000     2.002     2.213
 154   1 H      0.054  0.946  0.000  0.000     2.264     2.353
 155   1 H      0.068  0.932  0.000  0.000     2.110     2.271
 156   7 N     -0.204  1.226  3.978  0.000    25.446     7.492
 157   6 C      0.030  1.040  2.930  0.000    20.065     6.377
 158   6 C      0.267  1.045  2.688  0.000    22.494     7.767
 159   8 O     -0.530  1.765  4.766  0.000    24.464     6.632
 160   6 C     -0.077  1.015  3.062  0.000    21.943     6.663
 161   6 C      0.014  1.043  2.943  0.000    27.691     8.632
 162   6 C     -0.042  1.061  2.981  0.000    28.976     8.827
 163   6 C     -0.047  1.057  2.990  0.000    29.112     8.848
 164   6 C     -0.052  1.054  2.998  0.000    29.266     8.874
 165   6 C     -0.076  1.065  3.011  0.000    29.843     8.960
 166   6 C      0.141  1.033  2.826  0.000    24.918     8.182
 167   8 O     -0.472  1.729  4.744  0.000    22.302     6.375
 168   1 H      0.222  0.778  0.000  0.000     0.999     1.565
 169   1 H      0.082  0.918  0.000  0.000     1.959     2.189
 170   1 H      0.070  0.930  0.000  0.000     2.080     2.255
 171   1 H      0.073  0.927  0.000  0.000     2.054     2.241
 172   1 H      0.038  0.962  0.000  0.000     2.475     2.460
 173   1 H      0.058  0.942  0.000  0.000     2.216     2.328
 174   1 H      0.050  0.950  0.000  0.000     2.325     2.384
 175   1 H      0.048  0.952  0.000  0.000     2.348     2.396
 176   1 H      0.345  0.655  0.000  0.000     0.599     1.215
 177   7 N     -0.176  1.242  3.934  0.000    24.800     7.396
 178   6 C      0.041  1.046  2.913  0.000    19.806     6.323
 179   6 C      0.258  1.055  2.687  0.000    22.654     7.796
 180   8 O     -0.531  1.800  4.730  0.000    24.474     6.633
 181   6 C      0.021  1.009  2.970  0.000    20.223     6.402
 182  16 S     -0.322  1.902  4.340  0.080   155.051    20.958
 183   1 H      0.212  0.788  0.000  0.000     1.045     1.601
 184   1 H      0.075  0.925  0.000  0.000     2.032     2.229
 185   1 H      0.061  0.939  0.000  0.000     2.189     2.313
 186   1 H      0.077  0.923  0.000  0.000     2.009     2.216
 187   1 H      0.216  0.784  0.000  0.000     1.023     1.582
 188   7 N     -0.137  1.214  3.923  0.000    23.961     7.270
 189   6 C     -0.031  1.022  3.009  0.000    21.148     6.551
 190   6 C      0.264  1.057  2.678  0.000    22.543     7.775
 191   8 O     -0.502  1.790  4.712  0.000    23.827     6.544
 192   1 H      0.228  0.772  0.000  0.000     0.973     1.545
 193   1 H      0.091  0.909  0.000  0.000     1.870     2.138
 194   1 H      0.105  0.895  0.000  0.000     1.737     2.061
 195   7 N     -0.156  1.228  3.929  0.000    24.384     7.334
 196   6 C      0.005  1.061  2.935  0.000    20.518     6.452
 197   6 C      0.263  1.059  2.678  0.000    22.569     7.779
 198   8 O     -0.524  1.785  4.739  0.000    24.332     6.613
 199   6 C     -0.107  1.038  3.070  0.000    22.550     6.761
 200   6 C     -0.086  1.027  3.059  0.000    22.132     6.696
 201   6 C     -0.104  1.025  3.079  0.000    22.476     6.748
 202   6 C     -0.065  1.036  3.029  0.000    21.821     6.664
 203   7 N     -0.145  1.189  3.956  0.000    24.129     7.296
 204   1 H      0.223  0.777  0.000  0.000     0.997     1.564
 205   1 H      0.096  0.904  0.000  0.000     1.819     2.109
 206   1 H      0.082  0.918  0.000  0.000     1.953     2.185
 207   1 H      0.083  0.917  0.000  0.000     1.948     2.182
 208   1 H      0.072  0.928  0.000  0.000     2.063     2.246
 209   1 H      0.054  0.946  0.000  0.000     2.271     2.357
 210   1 H      0.084  0.916  0.000  0.000     1.939     2.178
 211   1 H      0.094  0.906  0.000  0.000     1.838     2.120
 212   1 H      0.127  0.873  0.000  0.000     1.554     1.949
 213   1 H      0.121  0.879  0.000  0.000     1.606     1.982
 214   1 H      0.297  0.703  0.000  0.000     0.722     1.331
 215   1 H      0.292  0.708  0.000  0.000     0.736     1.344
 216   1 H      0.297  0.703  0.000  0.000     0.723     1.332
 217   7 N     -0.155  1.229  3.927  0.000    24.363     7.331
 218   6 C      0.013  1.050  2.937  0.000    20.371     6.427
 219   6 C      0.272  1.044  2.684  0.000    22.409     7.751
 220   8 O     -0.488  1.769  4.720  0.000    23.527     6.503
 221   6 C      0.110  1.030  2.860  0.000    18.861     6.200
 222   8 O     -0.486  1.701  4.785  0.000    22.589     6.416
 223   6 C     -0.160  1.008  3.152  0.000    23.649     6.932
 224   1 H      0.239  0.761  0.000  0.000     0.926     1.507
 225   1 H      0.073  0.927  0.000  0.000     2.055     2.241
 226   1 H      0.039  0.961  0.000  0.000     2.464     2.455
 227   1 H      0.354  0.646  0.000  0.000     0.578     1.194
 228   1 H      0.089  0.911  0.000  0.000     1.886     2.148
 229   1 H      0.059  0.941  0.000  0.000     2.212     2.326
 230   1 H      0.070  0.930  0.000  0.000     2.087     2.259
 231   7 N     -0.182  1.230  3.952  0.000    24.939     7.417
 232   6 C      0.017  1.043  2.939  0.000    20.295     6.415
 233   6 C      0.250  1.042  2.707  0.000    22.797     7.820
 234   8 O     -0.506  1.757  4.748  0.000    23.917     6.557
 235   6 C      0.064  1.016  2.920  0.000    19.703     6.356
 236   8 O     -0.475  1.718  4.758  0.000    22.371     6.385
 237   1 H      0.223  0.777  0.000  0.000     0.995     1.562
 238   1 H      0.071  0.929  0.000  0.000     2.069     2.249
 239   1 H      0.040  0.960  0.000  0.000     2.443     2.444
 240   1 H      0.062  0.938  0.000  0.000     2.176     2.307
 241   1 H      0.346  0.654  0.000  0.000     0.596     1.213
 242   7 N     -0.040  1.206  3.834  0.000    22.012     6.968
 243   6 C      0.017  1.036  2.947  0.000    20.226     6.391
 244   6 C      0.185  1.086  2.729  0.000    24.032     8.030
 245   8 O     -0.336  1.735  4.601  0.000    20.452     6.063
 246   6 C     -0.074  1.009  3.065  0.000    21.851     6.645
 247   6 C     -0.095  1.007  3.087  0.000    22.242     6.704
 248   6 C     -0.022  1.023  2.999  0.000    20.924     6.505
 249   1 H      0.093  0.907  0.000  0.000     1.850     2.127
 250   1 H      0.094  0.906  0.000  0.000     1.839     2.120
 251   1 H      0.069  0.931  0.000  0.000     2.092     2.262
 252   1 H      0.097  0.903  0.000  0.000     1.814     2.106
 253   1 H      0.079  0.921  0.000  0.000     1.988     2.205
 254   1 H      0.081  0.919  0.000  0.000     1.970     2.195
 255   1 H      0.048  0.952  0.000  0.000     2.349     2.396
 256   7 N     -0.402  1.284  4.118  0.000    30.428     8.193
 257   6 C      0.040  1.022  2.938  0.000    19.908     6.354
 258   6 C      0.191  1.088  2.721  0.000    23.920     8.010
 259   8 O     -0.398  1.773  4.625  0.000    21.640     6.237
 260   6 C     -0.096  1.042  3.053  0.000    22.309     6.722
 261   6 C     -0.104  1.035  3.069  0.000    22.487     6.752
 262   6 C     -0.123  1.044  3.079  0.000    22.867     6.809
 263   6 C     -0.089  1.030  3.059  0.000    22.296     6.740
 264   7 N     -0.128  1.178  3.950  0.000    23.759     7.239
 265   1 H      0.194  0.806  0.000  0.000     1.136     1.670
 266   1 H      0.066  0.934  0.000  0.000     2.125     2.279
 267   1 H      0.068  0.932  0.000  0.000     2.111     2.272
 268   1 H      0.039  0.961  0.000  0.000     2.461     2.453
 269   1 H      0.081  0.919  0.000  0.000     1.972     2.196
 270   1 H      0.083  0.917  0.000  0.000     1.952     2.185
 271   1 H      0.087  0.913  0.000  0.000     1.906     2.159
 272   1 H      0.109  0.891  0.000  0.000     1.708     2.043
 273   1 H      0.134  0.866  0.000  0.000     1.507     1.920
 274   1 H      0.122  0.878  0.000  0.000     1.599     1.977
 275   1 H      0.295  0.705  0.000  0.000     0.729     1.337
 276   1 H      0.289  0.711  0.000  0.000     0.748     1.355
 277   1 H      0.297  0.703  0.000  0.000     0.723     1.332
 278   7 N     -0.401  1.319  4.082  0.000    30.401     8.189
 279   6 C      0.037  1.034  2.929  0.000    19.958     6.361
 280   6 C      0.210  1.078  2.713  0.000    23.552     7.949
 281   8 O     -0.417  1.772  4.645  0.000    22.029     6.293
 282   6 C     -0.034  1.047  2.987  0.000    21.130     6.537
 283   6 C     -0.086  1.016  3.070  0.000    22.121     6.694
 284   6 C     -0.129  0.995  3.134  0.000    23.007     6.835
 285   6 C     -0.131  0.998  3.133  0.000    23.044     6.841
 286   1 H      0.176  0.824  0.000  0.000     1.238     1.743
 287   1 H      0.051  0.949  0.000  0.000     2.303     2.373
 288   1 H      0.062  0.938  0.000  0.000     2.174     2.306
 289   1 H      0.057  0.943  0.000  0.000     2.239     2.340
 290   1 H      0.054  0.946  0.000  0.000     2.274     2.358
 291   1 H      0.078  0.922  0.000  0.000     1.995     2.208
 292   1 H      0.027  0.973  0.000  0.000     2.622     2.532
 293   1 H      0.043  0.957  0.000  0.000     2.413     2.429
 294   1 H      0.061  0.939  0.000  0.000     2.185     2.311
 295   1 H      0.043  0.957  0.000  0.000     2.408     2.427
 296   1 H      0.052  0.948  0.000  0.000     2.290     2.366
 297   7 N     -0.410  1.303  4.107  0.000    30.657     8.223
 298   6 C      0.031  1.037  2.932  0.000    20.061     6.379
 299   6 C      0.244  1.070  2.686  0.000    22.910     7.837
 300   8 O     -0.515  1.781  4.734  0.000    24.124     6.585
 301   6 C     -0.086  1.025  3.062  0.000    22.125     6.694
 302   6 C     -0.091  1.031  3.060  0.000    22.223     6.711
 303   6 C     -0.111  1.032  3.079  0.000    22.616     6.770
 304   6 C     -0.059  1.020  3.038  0.000    21.702     6.646
 305   7 N     -0.137  1.182  3.955  0.000    23.962     7.270
 306   1 H      0.183  0.817  0.000  0.000     1.196     1.713
 307   1 H      0.051  0.949  0.000  0.000     2.309     2.376
 308   1 H      0.063  0.937  0.000  0.000     2.165     2.301
 309   1 H      0.061  0.939  0.000  0.000     2.183     2.310
 310   1 H      0.063  0.937  0.000  0.000     2.168     2.302
 311   1 H      0.059  0.941  0.000  0.000     2.207     2.323
 312   1 H      0.086  0.914  0.000  0.000     1.913     2.163
 313   1 H      0.081  0.919  0.000  0.000     1.964     2.192
 314   1 H      0.121  0.879  0.000  0.000     1.603     1.980
 315   1 H      0.112  0.888  0.000  0.000     1.679     2.026
 316   1 H      0.297  0.703  0.000  0.000     0.723     1.332
 317   1 H      0.292  0.708  0.000  0.000     0.738     1.345
 318   1 H      0.297  0.703  0.000  0.000     0.721     1.330
 319   7 N     -0.146  1.223  3.923  0.000    24.160     7.300
 320   6 C      0.015  1.050  2.935  0.000    20.325     6.419
 321   6 C      0.177  1.114  2.709  0.000    24.183     8.053
 322   8 O     -0.363  1.782  4.582  0.000    20.963     6.139
 323   6 C      0.112  1.020  2.868  0.000    18.820     6.191
 324   8 O     -0.490  1.686  4.803  0.000    22.673     6.428
 325   6 C     -0.152  1.004  3.148  0.000    23.461     6.901
 326   1 H      0.237  0.763  0.000  0.000     0.936     1.516
 327   1 H      0.110  0.890  0.000  0.000     1.697     2.037
 328   1 H      0.050  0.950  0.000  0.000     2.320     2.382
 329   1 H      0.346  0.654  0.000  0.000     0.598     1.214
 330   1 H      0.065  0.935  0.000  0.000     2.135     2.285
 331   1 H      0.064  0.936  0.000  0.000     2.150     2.293
 332   1 H      0.090  0.910  0.000  0.000     1.876     2.142
 333   7 N     -0.375  1.286  4.089  0.000    29.690     8.092
 334   6 C     -0.012  1.016  2.996  0.000    20.871     6.520
 335   6 C      0.250  1.071  2.679  0.000    22.796     7.817
 336   8 O     -0.541  1.782  4.759  0.000    24.716     6.665
 337   1 H      0.169  0.831  0.000  0.000     1.279     1.772
 338   1 H      0.047  0.953  0.000  0.000     2.361     2.403
 339   1 H      0.049  0.951  0.000  0.000     2.328     2.386
 340   7 N     -0.176  1.238  3.938  0.000    24.804     7.397
 341   6 C      0.027  1.046  2.926  0.000    20.114     6.385
 342   6 C      0.238  1.085  2.677  0.000    23.027     7.858
 343   8 O     -0.527  1.810  4.716  0.000    24.386     6.621
 344   6 C     -0.102  1.016  3.085  0.000    22.385     6.727
 345   6 C     -0.011  1.010  3.001  0.000    20.719     6.472
 346   6 C     -0.132  1.012  3.120  0.000    22.979     6.817
 347   6 C     -0.126  1.003  3.123  0.000    22.894     6.808
 348   1 H      0.234  0.766  0.000  0.000     0.946     1.524
 349   1 H      0.070  0.930  0.000  0.000     2.088     2.260
 350   1 H      0.097  0.903  0.000  0.000     1.811     2.104
 351   1 H      0.088  0.912  0.000  0.000     1.893     2.152
 352   1 H      0.044  0.956  0.000  0.000     2.395     2.420
 353   1 H      0.047  0.953  0.000  0.000     2.361     2.403
 354   1 H      0.042  0.958  0.000  0.000     2.428     2.437
 355   1 H      0.066  0.934  0.000  0.000     2.127     2.281
 356   1 H      0.044  0.956  0.000  0.000     2.392     2.419
 357   1 H      0.045  0.955  0.000  0.000     2.380     2.412
 358   1 H      0.022  0.978  0.000  0.000     2.701     2.570
 359   7 N     -0.180  1.239  3.940  0.000    24.888     7.409
 360   6 C      0.015  1.037  2.947  0.000    20.282     6.405
 361   6 C      0.220  1.065  2.715  0.000    23.356     7.915
 362   8 O     -0.362  1.731  4.631  0.000    20.927     6.133
 363   6 C     -0.023  1.020  3.003  0.000    20.926     6.504
 364   6 C     -0.138  1.004  3.134  0.000    23.166     6.853
 365   6 C     -0.157  1.009  3.148  0.000    23.544     6.908
 366   1 H      0.249  0.751  0.000  0.000     0.885     1.474
 367   1 H      0.108  0.892  0.000  0.000     1.715     2.048
 368   1 H      0.066  0.934  0.000  0.000     2.135     2.285
 369   1 H      0.064  0.936  0.000  0.000     2.150     2.293
 370   1 H      0.036  0.964  0.000  0.000     2.500     2.472
 371   1 H      0.060  0.940  0.000  0.000     2.193     2.316
 372   1 H      0.066  0.934  0.000  0.000     2.128     2.281
 373   1 H      0.080  0.920  0.000  0.000     1.973     2.197
 374   1 H      0.072  0.928  0.000  0.000     2.068     2.248
 375   7 N     -0.388  1.291  4.097  0.000    30.032     8.139
 376   6 C     -0.001  1.026  2.976  0.000    20.651     6.479
 377   6 C      0.271  1.041  2.687  0.000    22.417     7.753
 378   8 O     -0.544  1.783  4.761  0.000    24.787     6.675
 379   1 H      0.177  0.823  0.000  0.000     1.229     1.736
 380   1 H      0.032  0.968  0.000  0.000     2.562     2.503
 381   1 H      0.059  0.941  0.000  0.000     2.205     2.322
 382   7 N     -0.175  1.241  3.934  0.000    24.790     7.395
 383   6 C      0.033  1.035  2.932  0.000    20.026     6.372
 384   6 C      0.208  1.079  2.713  0.000    23.591     7.955
 385   8 O     -0.368  1.754  4.613  0.000    21.044     6.151
 386   6 C     -0.142  1.000  3.142  0.000    23.257     6.870
 387   1 H      0.241  0.759  0.000  0.000     0.918     1.501
 388   1 H      0.068  0.932  0.000  0.000     2.112     2.272
 389   1 H      0.071  0.929  0.000  0.000     2.069     2.249
 390   1 H      0.070  0.930  0.000  0.000     2.087     2.259
 391   1 H      0.108  0.892  0.000  0.000     1.710     2.045
 392   8 O     -0.596  1.719  4.877  0.000    25.098     6.762
 393   1 H      0.315  0.685  0.000  0.000     0.678     1.293
 394   1 H      0.279  0.721  0.000  0.000     0.787     1.393
 395   7 N     -0.406  1.314  4.092  0.000    30.531     8.206
 396   6 C      0.017  1.043  2.940  0.000    20.287     6.413
 397   6 C      0.207  1.074  2.720  0.000    23.614     7.959
 398   8 O     -0.354  1.739  4.616  0.000    20.786     6.113
 399   6 C      0.116  1.029  2.855  0.000    18.765     6.183
 400   8 O     -0.499  1.730  4.769  0.000    22.862     6.455
 401   6 C     -0.143  0.998  3.145  0.000    23.290     6.876
 402   1 H      0.171  0.829  0.000  0.000     1.264     1.761
 403   1 H      0.069  0.931  0.000  0.000     2.093     2.262
 404   1 H      0.029  0.971  0.000  0.000     2.603     2.523
 405   1 H      0.321  0.679  0.000  0.000     0.661     1.277
 406   1 H      0.077  0.923  0.000  0.000     2.013     2.219
 407   1 H      0.068  0.932  0.000  0.000     2.107     2.270
 408   1 H      0.065  0.935  0.000  0.000     2.138     2.286
 409   7 N     -0.388  1.307  4.080  0.000    30.033     8.139
 410   6 C      0.039  1.036  2.924  0.000    19.923     6.357
 411   6 C      0.183  1.097  2.720  0.000    24.066     8.035
 412   8 O     -0.410  1.792  4.617  0.000    21.874     6.271
 413   6 C     -0.078  1.015  3.063  0.000    21.961     6.668
 414   6 C     -0.094  1.027  3.066  0.000    22.268     6.716
 415   6 C      0.265  1.054  2.681  0.000    22.533     7.773
 416   8 O     -0.486  1.775  4.711  0.000    23.471     6.495
 417   7 N     -0.305  1.238  4.067  0.000    27.857     7.839
 418   1 H      0.159  0.841  0.000  0.000     1.341     1.814
 419   1 H      0.102  0.898  0.000  0.000     1.764     2.077
 420   1 H      0.043  0.957  0.000  0.000     2.403     2.424
 421   1 H      0.092  0.908  0.000  0.000     1.856     2.130
 422   1 H      0.064  0.936  0.000  0.000     2.158     2.297
 423   1 H      0.081  0.919  0.000  0.000     1.970     2.195
 424   1 H      0.230  0.770  0.000  0.000     0.963     1.537
 425   1 H      0.228  0.772  0.000  0.000     0.972     1.544
 426   7 N     -0.399  1.331  4.067  0.000    30.333     8.180
 427   6 C      0.033  1.038  2.929  0.000    20.027     6.373
 428   6 C      0.194  1.098  2.709  0.000    23.867     8.001
 429   8 O     -0.395  1.772  4.623  0.000    21.585     6.229
 430   6 C     -0.068  1.006  3.062  0.000    21.784     6.642
 431   6 C     -0.087  1.018  3.069  0.000    22.145     6.697
 432   6 C      0.270  1.067  2.663  0.000    22.436     7.756
 433   8 O     -0.412  1.725  4.687  0.000    21.914     6.276
 434   7 N     -0.362  1.247  4.115  0.000    29.348     8.046
 435   1 H      0.180  0.820  0.000  0.000     1.214     1.726
 436   1 H      0.064  0.936  0.000  0.000     2.155     2.295
 437   1 H      0.090  0.910  0.000  0.000     1.882     2.145
 438   1 H      0.061  0.939  0.000  0.000     2.192     2.315
 439   1 H      0.090  0.910  0.000  0.000     1.882     2.145
 440   1 H      0.051  0.949  0.000  0.000     2.308     2.376
 441   1 H      0.206  0.794  0.000  0.000     1.074     1.623
 442   1 H      0.217  0.783  0.000  0.000     1.021     1.583
 443   1 H      0.170  0.830  0.000  0.000     1.270     1.765
 444   1 H      0.092  0.908  0.000  0.000     1.862     2.134
 445   1 H      0.189  0.811  0.000  0.000     1.163     1.689
 446   1 H      0.061  0.939  0.000  0.000     2.187     2.312
 447   1 H      0.186  0.814  0.000  0.000     1.179     1.701
 448   1 H      0.060  0.940  0.000  0.000     2.195     2.317
 449   1 H      0.175  0.825  0.000  0.000     1.245     1.748
 450   1 H      0.098  0.902  0.000  0.000     1.802     2.099
 451   1 H      0.189  0.811  0.000  0.000     1.164     1.690
 452   1 H      0.045  0.955  0.000  0.000     2.385     2.415
 453   1 H      0.182  0.818  0.000  0.000     1.201     1.717
 454   1 H      0.086  0.914  0.000  0.000     1.918     2.165
 455   1 H      0.191  0.809  0.000  0.000     1.152     1.682
 456   1 H      0.071  0.929  0.000  0.000     2.077     2.254
 457   1 H      0.189  0.811  0.000  0.000     1.164     1.690
 458   1 H      0.083  0.917  0.000  0.000     1.952     2.185
 459   1 H      0.193  0.807  0.000  0.000     1.142     1.674
 460   1 H      0.075  0.925  0.000  0.000     2.026     2.226

 Mol. C6AA /au·bohr⁶  :    1802563.892333
 Mol. C8AA /au·bohr⁸  :   40216823.197157
 Mol. α(0) /au        :       2003.617828

 
molecular dipole:
                 x           y           z       tot (Debye)
 q only:      544.509     444.267    1960.906
   full:      544.882     446.455    1960.266    5294.552
molecular quadrupole (traceless):
                xx          xy          yy          xz          yz          zz
 q only:  -343624.777   72852.555 -376116.597  321477.101  261121.610  719741.374
  q+dip:  -343500.531   73256.738 -375512.005  321621.679  262342.961  719012.536
   full:  -343499.999   73257.818 -375512.253  321621.271  262342.896  719012.252
speedup  1.56
cpu  time for grad   38.79 s
wall time for grad   24.86 s

SCC energy    :    -690.9925000
rep           :      10.8703704
ES            :       2.8389264
AES           :      -0.1166806
AXC           :       0.1752008
disp          :      -0.5478036
XB            :       0.0000000
fix           :       0.0000000
Gborn         :       0.0000000
Gsasa         :       0.0000000
Ghb           :       0.0000000
Gshift        :       0.0000000
Gsolv         :      -1.2952803     -812.80
Etot ala COSMO:    -690.9925000
grad norm     :       1.3883872
total E       :    -680.0732522
atomizationE  :     120.6865198    75731.93
(atE without considering molecular charge,
 total energy contains solvation terms)
H-L gap (eV)  :          1.1036

------------------------------------------------------------------------
 * finished run on 2019/05/12 at 13:12:08.707     
------------------------------------------------------------------------
 total:
 * wall-time:     0 d,  0 h,  0 min, 26.786 sec
 *  cpu-time:     0 d,  0 h,  0 min, 41.499 sec
 * ratio c/w:     1.549 speedup
 SCF:
 * wall-time:     0 d,  0 h,  0 min, 26.069 sec
 *  cpu-time:     0 d,  0 h,  0 min, 40.795 sec
 * ratio c/w:     1.565 speedup

