      -----------------------------------------------------------      
     |                   =====================                   |     
     |                           x T B                           |     
     |                   =====================                   |     
     |                         S. Grimme                         |     
     |          Mulliken Center for Theoretical Chemistry        |     
     |                    University of Bonn                     |     
     |                 Version 6.0.1 (SAW181210)                 |     
      -----------------------------------------------------------      

   This program is distributed in the hope that it will be useful,
   but WITHOUT ANY WARRANTY; without even the implied warranty of
   MERCHANTABILITY or FITNESS FOR A PARTICULAR PURPOSE.
   
   FOR NON-COMMERCIAL, ACADEMIA USE ONLY.
   
   Cite this work as:
   S. Grimme, C. Bannwarth, P. Shushkov, J. Comput. Theory Chem., 2017,
   13, 1989-2009.
   C. Bannwarth, S. Ehlert and S. Grimme., ChemRxiv, 2018, preprint.
   http://doi.org/10.26434/chemrxiv.7246238.v1
   
   for sTDA-xTB:
   S. Grimme and C. Bannwarth, J. Chem. Phys., 2016, 145, 054103.
   
   in the mass-spec context:
   V. Asgeirsson, C. Bauer and S. Grimme, Chem. Sci., 2017, 8, 4879.
   
   if GBSA is used:
   P. Shushkov, F. März and S. Grimme, unpublished.
   
   for ANC optimizer:
   S. Grimme, unpublished.
   Rational Function algorithm used in ANCopt:
   F. Eckert, P. Pulay, H.-J. Werner, J. Comput. Chem., 1997, 18, 1473.
   
   with help from (in alphabetical order)
   C. Bannwarth, F. Bohle, G. Brandenburg, E. Caldeweyher, M. Checinski,
   S. Dohm, S. Ehlert, S. Ehrlich, F. März, H. Neugebauer, J. Pisarek,
   P. Pracht, P. Shushkov, and S. Spicher.
   
 * started run on 2019/05/12 at 13:12:16.335     
========================================================================
 # omp threads = 2
========================================================================
number of atoms            : 123
number of electrons        : 318
charge                     : 0
spin                       : .0
first test random number   : .3537

########################################################################
# WARNING! Please study the warnings concerning your input carefully
#  - Process number higher than OMP_NUM_THREADS, I hope you know what you are doing.
########################################################################

           ------------------------------------------------- 
          |                 G F N 2 - x T B                 |
          | Geometry, Frequencies, Noncovalent interactions |
          |            JCTC 2018 parametrisation            |
           ------------------------------------------------- 
 
      method parameters     
 k(s)        :  1.8500
 k(p)        :  2.2300
 k(d)        :  2.2300
 k(f)        :  2.0000
 kEN (H0ij)  : -2.0000
 D4 a1       :  0.5200
 D4 a2       :  5.0000
 D4 s6       :  1.0000
 D4 s8       :  2.7000
 D4 s9       :  5.0000
 alphaj      :  2.0000

 Solvent             : h2o
 Using internal parameter file: .param_gbsa2_h2o
 Gsolv ref. state (COSMO-RS): gsolv [1 M gas/solution]
 temperature (mdtemp)       :    298.150000000000     
 dielectric constant        :    80.2000000000000     
 rho                        :    1.00000000000000     
 mass                       :    18.0000000000000     
 surface tension            :    15.5689454083859     
 probe radius               :   0.975313790000000     
 vdW radii scaling          :    1.00000000000000     
 Gshift (Eh)                :   1.857443126794793E-003
 c1                         :    1.55243817000000     
 soset                      :   0.130326360000000     
 HB correction              :  T

            Z     q(EN)     CN     RAES       Cart. coordinates
     1  N   5.0   -0.23    3.24    1.97   127.70942   104.76184   398.19257
     2  C   4.0    0.03    4.42    4.42   125.40965   105.92979   397.33088
     3  C   4.0    0.07    3.26    3.05   123.39219   103.92755   396.86004
     4  O   6.0   -0.29    1.11    1.80   121.14602   104.26869   397.53559
     5  C   4.0   -0.03    4.44    4.45   125.77286   107.67615   395.10576
     6  C   4.0   -0.07    4.35    4.30   123.39297   108.50093   394.12985
     7  C   4.0   -0.08    4.25    4.11   127.40630   109.93803   395.74427
     8  H   1.0    0.09    1.07    1.44   129.05674   105.07765   397.14337
     9  H   1.0    0.05    1.12    1.45   124.77672   107.00373   398.77992
    10  H   1.0    0.04    1.13    1.45   126.66429   106.66185   393.74417
    11  H   1.0    0.04    1.06    1.44   123.62635   109.70917   392.70668
    12  H   1.0    0.06    1.06    1.44   122.34655   107.06528   393.53723
    13  H   1.0    0.06    1.06    1.44   122.43480   109.40130   395.49877
    14  H   1.0    0.04    1.05    1.44   127.67684   110.98602   394.24183
    15  H   1.0    0.05    1.06    1.44   126.61320   110.90126   397.10056
    16  H   1.0    0.05    1.04    1.44   129.10895   109.31268   396.35392
    17  N   5.0   -0.21    3.31    1.99   120.66887   102.41860   403.32451
    18  C   4.0    0.03    4.46    4.48   119.18264   104.34164   404.44065
    19  C   4.0    0.08    3.30    3.05   116.55361   104.30168   403.32043
    20  O   6.0   -0.28    1.11    1.80   114.59409   104.35677   404.64068
    21  C   4.0   -0.02    4.46    4.48   120.40278   106.83999   404.23211
    22  C   4.0   -0.07    4.28    4.15   118.53220   108.88065   405.00087
    23  C   4.0   -0.08    4.28    4.16   122.82421   106.89518   405.58220
    24  H   1.0    0.10    1.08    1.44   122.05958   102.95746   402.44838
    25  H   1.0    0.05    1.13    1.45   118.97922   103.92642   406.27949
    26  H   1.0    0.06    1.13    1.45   120.86156   107.28613   402.42469
    27  H   1.0    0.05    1.04    1.44   119.36903   110.58512   404.96904
    28  H   1.0    0.06    1.06    1.44   117.07292   108.90301   403.87225
    29  H   1.0    0.05    1.05    1.44   117.97763   108.54935   406.76600
    30  H   1.0    0.06    1.05    1.44   123.70232   108.56152   405.37378
    31  H   1.0    0.04    1.05    1.44   122.49018   106.68056   407.44970
    32  H   1.0    0.04    1.06    1.44   123.93906   105.54151   405.01634
    33  N   5.0   -0.22    3.23    1.96   118.02453   120.20127   392.53525
    34  C   4.0    0.03    4.31    4.22   116.53727   121.00097   394.68322
    35  C   4.0    0.09    3.25    3.04   115.64386   123.66567   394.38450
    36  O   6.0   -0.27    1.14    1.80   113.61652   124.23023   395.26045
    37  C   4.0   -0.04    4.40    4.37   118.01878   120.81711   397.19470
    38  C   4.0   -0.02    3.57    3.15   119.22198   118.30840   397.87751
    39  C   4.0   -0.05    3.55    3.14   117.96339   116.02690   397.60941
    40  C   4.0   -0.04    3.58    3.15   121.56380   118.18617   398.88758
    41  C   4.0   -0.05    3.48    3.11   119.07051   113.71780   398.28808
    42  C   4.0   -0.05    3.54    3.13   122.72143   115.98490   399.57315
    43  C   4.0    0.07    3.53    3.13   121.49874   113.73279   399.27503
    44  O   6.0   -0.27    2.18    1.85   122.66472   111.59821   399.96504
    45  H   1.0    0.09    1.07    1.44   119.76145   120.23084   392.89505
    46  H   1.0    0.05    1.12    1.45   115.09484   119.83227   394.80035
    47  H   1.0    0.05    1.09    1.44   119.39353   122.08829   397.12269
    48  H   1.0    0.06    1.09    1.44   116.83676   121.25609   398.57339
    49  H   1.0    0.05    1.08    1.44   116.25956   116.02528   396.90354
    50  H   1.0    0.06    1.09    1.44   122.48960   119.77934   399.18593
    51  H   1.0    0.06    1.08    1.44   118.19444   112.15792   398.05425
    52  H   1.0    0.05    1.09    1.44   124.41600   116.00802   400.31346
    53  H   1.0    0.14    1.12    1.45   124.26787   111.91881   400.36082
    54  O   6.0   -0.33    2.01    1.83   126.40127   112.20848   403.60481
    55  H   1.0    0.15    1.01    1.43   127.72577   113.17455   403.21561
    56  H   1.0    0.15    1.02    1.43   125.49408   113.25572   404.59420
    57  N   5.0   -0.22    3.23    1.96   130.18296   112.13649   412.11560
    58  C   4.0    0.03    4.29    4.18   128.92164   111.95037   409.71721
    59  C   4.0    0.08    3.24    3.04   126.14889   112.53234   410.07085
    60  O   6.0   -0.32    1.15    1.80   124.97642   113.79586   408.53068
    61  C   4.0   -0.05    4.34    4.28   129.19724   109.37429   408.37070
    62  C   4.0   -0.04    4.25    4.10   131.88827   108.67553   407.59444
    63  C   4.0    0.23    3.14    3.03   133.02522   110.43247   405.63490
    64  O   6.0   -0.30    1.17    1.80   131.71553   111.15255   403.69088
    65  O   6.0   -0.29    1.17    1.80   135.20683   111.24576   406.09130
    66  H   1.0    0.09    1.06    1.44   130.85117   110.58816   412.68317
    67  H   1.0    0.05    1.12    1.45   129.74683   113.21976   408.58570
    68  H   1.0    0.04    1.08    1.44   128.58376   108.04460   409.55150
    69  H   1.0    0.06    1.09    1.44   128.15346   109.37914   406.83801
    70  H   1.0    0.05    1.09    1.44   132.98951   108.74606   409.12302
    71  H   1.0    0.05    1.08    1.44   131.89802   106.94793   406.90844
    72  N   5.0   -0.22    3.24    1.96   125.71955   119.70777   410.59334
    73  C   4.0    0.03    4.34    4.27   125.99604   120.72448   408.07568
    74  C   4.0    0.15    3.43    3.09   123.43405   120.62173   406.57056
    75  O   6.0   -0.28    1.22    1.80   122.81785   122.31780   405.04593
    76  C   4.0   -0.05    4.40    4.38   128.05367   119.42889   406.57474
    77  C   4.0   -0.05    4.28    4.15   128.73643   120.41545   404.05419
    78  C   4.0   -0.06    4.31    4.22   130.19788   118.44225   402.42322
    79  C   4.0   -0.03    4.31    4.21   132.68047   117.70335   403.58579
    80  N   5.0   -0.14    4.19    3.42   133.90394   115.94008   401.97630
    81  H   1.0    0.10    1.07    1.44   126.93149   118.50066   410.95235
    82  H   1.0    0.05    1.12    1.45   126.43891   122.55049   408.21498
    83  H   1.0    0.04    1.09    1.44   129.62043   119.40879   407.62803
    84  H   1.0    0.05    1.09    1.44   127.52404   117.60391   406.33688
    85  H   1.0    0.06    1.08    1.44   127.18119   120.90647   403.11244
    86  H   1.0    0.04    1.08    1.44   129.83448   121.92874   404.22510
    87  H   1.0    0.04    1.09    1.44   129.13016   116.92828   402.23868
    88  H   1.0    0.04    1.08    1.44   130.52712   119.18041   400.72325
    89  H   1.0    0.04    1.08    1.44   133.74841   119.22357   403.83409
    90  H   1.0    0.05    1.09    1.44   132.37634   116.88757   405.24650
    91  H   1.0    0.08    1.08    1.44   135.48065   115.45766   402.62413
    92  H   1.0    0.09    1.10    1.44   132.99265   114.53379   401.68463
    93  H   1.0    0.06    1.08    1.44   134.27311   116.68715   400.39119
    94  N   5.0   -0.15    3.53    2.10   121.98941   118.62983   406.92562
    95  C   4.0    0.04    4.49    4.52   119.63772   118.36870   405.67801
    96  C   4.0    0.10    3.33    3.06   117.80902   120.30831   406.61327
    97  O   6.0   -0.27    1.13    1.80   116.60171   121.62291   405.22475
    98  C   4.0   -0.04    4.52    4.57   118.62133   115.74453   405.92961
    99  C   4.0   -0.01    3.72    3.26   115.90473   115.42417   405.51413
   100  C   4.0   -0.03    3.70    3.24   114.89737   115.08859   403.34304
   101  C   4.0   -0.03    3.71    3.25   114.26887   115.49457   407.45211
   102  C   4.0   -0.03    3.61    3.17   112.28106   114.71377   403.02919
   103  C   4.0   -0.03    3.59    3.16   111.71567   115.13895   407.14499
   104  C   4.0   -0.04    3.49    3.11   110.70905   114.77851   404.84205
   105  H   1.0    0.10    1.13    1.45   122.42016   117.30406   407.97098
   106  H   1.0    0.06    1.13    1.45   119.88085   118.65885   403.80085
   107  H   1.0    0.05    1.10    1.44   119.53312   114.59765   404.80293
   108  H   1.0    0.05    1.10    1.44   118.98666   115.20827   407.74562
   109  H   1.0    0.05    1.10    1.44   115.97322   115.16412   401.77727
   110  H   1.0    0.05    1.08    1.44   114.91287   115.74073   409.21181
   111  H   1.0    0.05    1.08    1.44   111.61733   114.44478   401.24849
   112  H   1.0    0.06    1.08    1.44   110.58901   115.13807   408.66202
   113  H   1.0    0.06    1.10    1.44   108.91462   114.58585   404.63417
   114  H   1.0    0.10    1.08    1.44   128.10321   105.35490   399.73717
   115  H   1.0    0.06    1.04    1.43   123.85024   102.30884   395.99920
   116  H   1.0    0.10    1.08    1.44   121.24532   101.37205   404.53488
   117  H   1.0    0.07    1.05    1.44   116.32631   104.22822   401.44586
   118  H   1.0    0.10    1.08    1.44   117.59322   118.61318   392.10570
   119  H   1.0    0.06    1.05    1.44   116.71971   124.92685   393.47729
   120  H   1.0    0.10    1.08    1.44   131.47448   113.23637   411.99399
   121  H   1.0    0.05    1.05    1.44   125.23283   111.88041   411.58969
   122  H   1.0    0.10    1.08    1.44   125.86918   120.96235   411.73185
   123  H   1.0    0.06    1.05    1.44   117.55439   120.54905   408.47023

  Z AO/shell   Hii/eV     exponent
  1     Wed Apr 25 08:07:45 CEST 2018   EN: 2.200 GM2: 0.406  GM3: 0.0800  RAES: 1.40
     1s    -10.707211    1.230000
  6     Wed Apr 25 08:07:45 CEST 2018   EN: 2.550 GM2: 0.538  GM3: 0.1500  RAES: 3.00
     2s    -13.970922    2.096432
     2p    -10.063292    1.800000
  7     Wed Apr 25 08:07:45 CEST 2018   EN: 3.040 GM2: 0.461  GM3:-0.0640  RAES: 1.90
     2s    -16.686243    2.339881
     2p    -12.523956    2.014332
  8     Wed Apr 25 08:07:45 CEST 2018   EN: 3.440 GM2: 0.452  GM3:-0.0517  RAES: 1.80
     2s    -20.229985    2.439742
     2p    -15.503117    2.137023
 no old-style atom pair restraining (fixing) potential

molecular fragmentation (1/2 indicates fragments):
111111111111111122222222222222222222222222222222222222222222222222222222
222222222222222222222222222222222222222221122222222
# atoms in fragment 1/2:    18   105
 fragment masses (1/2) :      101.15      692.85
CMA distance (Bohr)    :  11.430
constraining FC (au)   :  0.0500
           ------------------------------------------------- 
          |        Self-Consistent Charge Iterations        |
           ------------------------------------------------- 

 Ncao       : 291
 Nao        : 291
 Nshell     : 179
 Nel        : 318
 T(el)      :   500.0
 intcut     :    35.0
 scfconv/Eh :  0.100E-06
   qconv/e  :  0.100E-04
 intneglect :  0.100E-08
 broydamp   :      0.400
 iter      E             dE          RMSdq      gap      omega  full diag
   1   -181.3045402 -0.181305E+03  0.463E+00    3.13       0.0  T
   2   -181.6851474 -0.380607E+00  0.226E+00    2.15       1.0  T
   3   -181.7069111 -0.217637E-01  0.129E+00    2.34       1.0  T
   4   -181.7426900 -0.357789E-01  0.247E-01    1.87       1.0  T
   5   -181.7443358 -0.164574E-02  0.112E-01    1.99       1.0  T
   6   -181.7446578 -0.321988E-03  0.473E-02    2.00       1.0  T
   7   -181.7447044 -0.466486E-04  0.192E-02    1.97       1.0  T
   8   -181.7447127 -0.830677E-05  0.741E-03    1.97       1.2  T
   9   -181.7447140 -0.125632E-05  0.342E-03    1.97       2.6  T
  10   -181.7447144 -0.383558E-06  0.124E-03    1.97       7.3  T
  11   -181.7447144 -0.241379E-07  0.513E-04    1.97      17.6  T
  12   -181.7447144 -0.463803E-08  0.186E-04    1.97      48.6  T
  13   -181.7447144 -0.128099E-08  0.916E-05    1.97      98.5  T
  14   -181.7447144 -0.161776E-09  0.412E-05    1.97     219.0  T
speedup  1.43
cpu  time for SCC    0.99 s
wall time for SCC    0.69 s

   *** convergence criteria satisfied after 14 iterations ***

          eigenvalues
 #    :         147        148        149        150        151        152        153        154
 occ. :        2.000      2.000      2.000      2.000      2.000      2.000      2.000      2.000
 eps  :       -11.094    -10.928    -10.823    -10.767    -10.685    -10.357    -10.282    -10.260
 #    :         155        156        157        158        159        160        161        162
 occ. :        2.000      2.000      2.000      2.000      2.000      0.000      0.000      0.000
 eps  :       -10.053     -9.993     -9.975     -9.961     -9.834     -7.867     -7.706     -7.626
 #    :         163        164        165        166        167        168        169        170
 occ. :        0.000      0.000      0.000      0.000      0.000      0.000      0.000      0.000
 eps  :        -7.537     -7.434     -6.083     -5.953     -5.905     -5.559     -5.252     -5.022


   #   Z            q   n(s)   n(p)   n(d)      C6AA      α(0)
   1   7 N     -0.411  1.299  4.112  0.000    30.685     8.227
   2   6 C      0.030  1.036  2.934  0.000    20.061     6.376
   3   6 C      0.189  1.098  2.713  0.000    23.958     8.016
   4   8 O     -0.388  1.775  4.613  0.000    21.449     6.209
   5   6 C     -0.015  1.027  2.988  0.000    20.794     6.485
   6   6 C     -0.136  0.979  3.157  0.000    23.113     6.846
   7   6 C     -0.147  0.988  3.159  0.000    23.356     6.884
   8   1 H      0.179  0.821  0.000  0.000     1.222     1.731
   9   1 H      0.072  0.928  0.000  0.000     2.061     2.245
  10   1 H      0.043  0.957  0.000  0.000     2.415     2.430
  11   1 H      0.060  0.940  0.000  0.000     2.204     2.321
  12   1 H      0.037  0.963  0.000  0.000     2.493     2.469
  13   1 H      0.059  0.941  0.000  0.000     2.207     2.323
  14   1 H      0.066  0.934  0.000  0.000     2.128     2.281
  15   1 H      0.065  0.935  0.000  0.000     2.143     2.289
  16   1 H      0.047  0.953  0.000  0.000     2.358     2.401
  17   7 N     -0.400  1.283  4.117  0.000    30.371     8.185
  18   6 C      0.042  1.024  2.934  0.000    19.861     6.343
  19   6 C      0.199  1.097  2.704  0.000    23.763     7.984
  20   8 O     -0.406  1.772  4.633  0.000    21.793     6.259
  21   6 C     -0.021  1.027  2.994  0.000    20.894     6.499
  22   6 C     -0.140  0.988  3.152  0.000    23.221     6.866
  23   6 C     -0.137  0.983  3.154  0.000    23.152     6.854
  24   1 H      0.171  0.829  0.000  0.000     1.268     1.764
  25   1 H      0.061  0.939  0.000  0.000     2.186     2.312
  26   1 H      0.060  0.940  0.000  0.000     2.195     2.317
  27   1 H      0.060  0.940  0.000  0.000     2.204     2.321
  28   1 H      0.043  0.957  0.000  0.000     2.409     2.427
  29   1 H      0.049  0.951  0.000  0.000     2.337     2.390
  30   1 H      0.065  0.935  0.000  0.000     2.137     2.286
  31   1 H      0.043  0.957  0.000  0.000     2.406     2.425
  32   1 H      0.053  0.947  0.000  0.000     2.282     2.362
  33   7 N     -0.411  1.310  4.100  0.000    30.672     8.225
  34   6 C      0.032  1.032  2.936  0.000    20.048     6.377
  35   6 C      0.206  1.081  2.713  0.000    23.628     7.961
  36   8 O     -0.384  1.752  4.632  0.000    21.363     6.197
  37   6 C     -0.088  1.019  3.069  0.000    22.157     6.698
  38   6 C     -0.003  1.073  2.930  0.000    28.094     8.694
  39   6 C     -0.054  1.065  2.988  0.000    29.330     8.883
  40   6 C     -0.050  1.057  2.993  0.000    29.251     8.871
  41   6 C     -0.079  1.056  3.023  0.000    29.973     8.978
  42   6 C     -0.092  1.053  3.039  0.000    30.316     9.030
  43   6 C      0.144  1.036  2.820  0.000    24.862     8.173
  44   8 O     -0.419  1.679  4.741  0.000    21.225     6.219
  45   1 H      0.181  0.819  0.000  0.000     1.209     1.722
  46   1 H      0.071  0.929  0.000  0.000     2.072     2.251
  47   1 H      0.061  0.939  0.000  0.000     2.190     2.314
  48   1 H      0.065  0.935  0.000  0.000     2.139     2.287
  49   1 H      0.050  0.950  0.000  0.000     2.320     2.382
  50   1 H      0.050  0.950  0.000  0.000     2.314     2.379
  51   1 H      0.063  0.937  0.000  0.000     2.164     2.300
  52   1 H      0.064  0.936  0.000  0.000     2.152     2.294
  53   1 H      0.336  0.664  0.000  0.000     0.622     1.239
  54   8 O     -0.618  1.716  4.902  0.000    25.616     6.831
  55   1 H      0.310  0.690  0.000  0.000     0.691     1.306
  56   1 H      0.311  0.689  0.000  0.000     0.687     1.302
  57   7 N     -0.405  1.301  4.103  0.000    30.508     8.203
  58   6 C      0.037  1.031  2.931  0.000    19.962     6.363
  59   6 C      0.195  1.094  2.711  0.000    23.840     7.997
  60   8 O     -0.371  1.739  4.632  0.000    21.104     6.159
  61   6 C     -0.077  1.018  3.059  0.000    21.953     6.669
  62   6 C     -0.102  1.018  3.084  0.000    22.429     6.741
  63   6 C      0.347  1.038  2.615  0.000    21.099     7.517
  64   8 O     -0.654  1.777  4.877  0.000    27.488     7.029
  65   8 O     -0.645  1.779  4.865  0.000    27.239     6.997
  66   1 H      0.171  0.829  0.000  0.000     1.264     1.761
  67   1 H      0.063  0.937  0.000  0.000     2.161     2.299
  68   1 H      0.046  0.954  0.000  0.000     2.371     2.408
  69   1 H      0.077  0.923  0.000  0.000     2.008     2.216
  70   1 H      0.035  0.965  0.000  0.000     2.512     2.478
  71   1 H      0.044  0.956  0.000  0.000     2.396     2.420
  72   7 N     -0.409  1.302  4.107  0.000    30.634     8.220
  73   6 C      0.022  1.038  2.939  0.000    20.218     6.405
  74   6 C      0.256  1.058  2.686  0.000    22.689     7.800
  75   8 O     -0.527  1.771  4.756  0.000    24.385     6.621
  76   6 C     -0.090  1.015  3.076  0.000    22.208     6.707
  77   6 C     -0.089  1.012  3.077  0.000    22.194     6.706
  78   6 C     -0.112  1.021  3.091  0.000    22.618     6.768
  79   6 C     -0.054  1.004  3.050  0.000    21.603     6.630
  80   7 N     -0.123  1.155  3.968  0.000    23.667     7.225
  81   1 H      0.174  0.826  0.000  0.000     1.251     1.752
  82   1 H      0.054  0.946  0.000  0.000     2.267     2.355
  83   1 H      0.061  0.939  0.000  0.000     2.186     2.312
  84   1 H      0.060  0.940  0.000  0.000     2.200     2.320
  85   1 H      0.066  0.934  0.000  0.000     2.126     2.280
  86   1 H      0.069  0.931  0.000  0.000     2.093     2.262
  87   1 H      0.072  0.928  0.000  0.000     2.066     2.248
  88   1 H      0.092  0.908  0.000  0.000     1.855     2.130
  89   1 H      0.123  0.877  0.000  0.000     1.585     1.969
  90   1 H      0.105  0.895  0.000  0.000     1.744     2.065
  91   1 H      0.282  0.718  0.000  0.000     0.768     1.372
  92   1 H      0.284  0.716  0.000  0.000     0.764     1.369
  93   1 H      0.293  0.707  0.000  0.000     0.735     1.343
  94   7 N     -0.157  1.211  3.946  0.000    24.399     7.336
  95   6 C      0.029  1.024  2.947  0.000    20.080     6.378
  96   6 C      0.217  1.071  2.713  0.000    23.424     7.927
  97   8 O     -0.364  1.746  4.617  0.000    20.969     6.140
  98   6 C     -0.095  1.013  3.082  0.000    22.276     6.714
  99   6 C      0.016  1.045  2.939  0.000    27.637     8.624
 100   6 C     -0.051  1.054  2.997  0.000    29.193     8.860
 101   6 C     -0.058  1.060  2.998  0.000    29.385     8.890
 102   6 C     -0.037  1.055  2.982  0.000    28.867     8.812
 103   6 C     -0.046  1.060  2.985  0.000    29.089     8.846
 104   6 C     -0.039  1.036  3.003  0.000    28.974     8.828
 105   1 H      0.230  0.770  0.000  0.000     0.967     1.540
 106   1 H      0.094  0.906  0.000  0.000     1.842     2.122
 107   1 H      0.084  0.916  0.000  0.000     1.935     2.175
 108   1 H      0.076  0.924  0.000  0.000     2.015     2.220
 109   1 H      0.047  0.953  0.000  0.000     2.352     2.398
 110   1 H      0.044  0.956  0.000  0.000     2.395     2.420
 111   1 H      0.036  0.964  0.000  0.000     2.497     2.471
 112   1 H      0.042  0.958  0.000  0.000     2.416     2.430
 113   1 H      0.053  0.947  0.000  0.000     2.284     2.363
 114   1 H      0.181  0.819  0.000  0.000     1.209     1.722
 115   1 H      0.070  0.930  0.000  0.000     2.086     2.259
 116   1 H      0.185  0.815  0.000  0.000     1.185     1.705
 117   1 H      0.070  0.930  0.000  0.000     2.085     2.258
 118   1 H      0.185  0.815  0.000  0.000     1.188     1.707
 119   1 H      0.071  0.929  0.000  0.000     2.077     2.254
 120   1 H      0.182  0.818  0.000  0.000     1.202     1.717
 121   1 H      0.076  0.924  0.000  0.000     2.020     2.222
 122   1 H      0.184  0.816  0.000  0.000     1.193     1.711
 123   1 H      0.064  0.936  0.000  0.000     2.150     2.293

 Mol. C6AA /au·bohr⁶  :     134392.139347
 Mol. C8AA /au·bohr⁸  :    2997533.060942
 Mol. α(0) /au        :        555.496550

 
molecular dipole:
                 x           y           z       tot (Debye)
 q only:        6.922       2.534      -1.141
   full:        8.510       2.218      -0.403      22.376
molecular quadrupole (traceless):
                xx          xy          yy          xz          yz          zz
 q only:     1871.695    1723.403     132.269    3924.814    1346.667   -2003.964
  q+dip:     2007.859    1934.926    -440.979    5023.579    1283.979   -1566.880
   full:     2005.843    1933.159    -439.353    5023.387    1285.238   -1566.490
speedup  1.52
cpu  time for grad    1.26 s
wall time for grad    0.83 s

SCC energy    :    -181.7514389
rep           :       3.6649813
ES            :       0.5099042
AES           :      -0.0045766
AXC           :       0.0543008
disp          :      -0.1330298
XB            :       0.0000000
fix           :       0.0000000
Gborn         :       0.0000000
Gsasa         :       0.0000000
Ghb           :       0.0000000
Gshift        :       0.0000000
Gsolv         :      -0.1095718      -68.76
Etot ala COSMO:    -181.7514389
grad norm     :       0.9413847
total E       :    -178.0777979
atomizationE  :      33.0494906    20738.87
(atE without considering molecular charge,
 total energy contains solvation terms)
H-L gap (eV)  :          1.9670

------------------------------------------------------------------------
 * finished run on 2019/05/12 at 13:12:17.519     
------------------------------------------------------------------------
 total:
 * wall-time:     0 d,  0 h,  0 min,  1.183 sec
 *  cpu-time:     0 d,  0 h,  0 min,  1.468 sec
 * ratio c/w:     1.241 speedup
 SCF:
 * wall-time:     0 d,  0 h,  0 min,  0.935 sec
 *  cpu-time:     0 d,  0 h,  0 min,  1.371 sec
 * ratio c/w:     1.466 speedup

