      -----------------------------------------------------------      
     |                   =====================                   |     
     |                           x T B                           |     
     |                   =====================                   |     
     |                         S. Grimme                         |     
     |          Mulliken Center for Theoretical Chemistry        |     
     |                    University of Bonn                     |     
     |                 Version 6.0.1 (SAW181210)                 |     
      -----------------------------------------------------------      

   This program is distributed in the hope that it will be useful,
   but WITHOUT ANY WARRANTY; without even the implied warranty of
   MERCHANTABILITY or FITNESS FOR A PARTICULAR PURPOSE.
   
   FOR NON-COMMERCIAL, ACADEMIA USE ONLY.
   
   Cite this work as:
   S. Grimme, C. Bannwarth, P. Shushkov, J. Comput. Theory Chem., 2017,
   13, 1989-2009.
   C. Bannwarth, S. Ehlert and S. Grimme., ChemRxiv, 2018, preprint.
   http://doi.org/10.26434/chemrxiv.7246238.v1
   
   for sTDA-xTB:
   S. Grimme and C. Bannwarth, J. Chem. Phys., 2016, 145, 054103.
   
   in the mass-spec context:
   V. Asgeirsson, C. Bauer and S. Grimme, Chem. Sci., 2017, 8, 4879.
   
   if GBSA is used:
   P. Shushkov, F. März and S. Grimme, unpublished.
   
   for ANC optimizer:
   S. Grimme, unpublished.
   Rational Function algorithm used in ANCopt:
   F. Eckert, P. Pulay, H.-J. Werner, J. Comput. Chem., 1997, 18, 1473.
   
   with help from (in alphabetical order)
   C. Bannwarth, F. Bohle, G. Brandenburg, E. Caldeweyher, M. Checinski,
   S. Dohm, S. Ehlert, S. Ehrlich, F. März, H. Neugebauer, J. Pisarek,
   P. Pracht, P. Shushkov, and S. Spicher.
   
 * started run on 2019/05/10 at 00:41:37.750     
========================================================================
 # omp threads = 2
========================================================================
number of atoms            : 376
number of electrons        : 1006
charge                     : 0
spin                       : .0
first test random number   : .7159

########################################################################
# WARNING! Please study the warnings concerning your input carefully
#  - Process number higher than OMP_NUM_THREADS, I hope you know what you are doing.
########################################################################

           ------------------------------------------------- 
          |                 G F N 2 - x T B                 |
          | Geometry, Frequencies, Noncovalent interactions |
          |            JCTC 2018 parametrisation            |
           ------------------------------------------------- 
 
      method parameters     
 k(s)        :  1.8500
 k(p)        :  2.2300
 k(d)        :  2.2300
 k(f)        :  2.0000
 kEN (H0ij)  : -2.0000
 D4 a1       :  0.5200
 D4 a2       :  5.0000
 D4 s6       :  1.0000
 D4 s8       :  2.7000
 D4 s9       :  5.0000
 alphaj      :  2.0000

 Solvent             : h2o
 Using internal parameter file: .param_gbsa2_h2o
 Gsolv ref. state (COSMO-RS): gsolv [1 M gas/solution]
 temperature (mdtemp)       :    298.150000000000     
 dielectric constant        :    80.2000000000000     
 rho                        :    1.00000000000000     
 mass                       :    18.0000000000000     
 surface tension            :    15.5689454083859     
 probe radius               :   0.975313790000000     
 vdW radii scaling          :    1.00000000000000     
 Gshift (Eh)                :   1.857443126794793E-003
 c1                         :    1.55243817000000     
 soset                      :   0.130326360000000     
 HB correction              :  T

            Z     q(EN)     CN     RAES       Cart. coordinates
     1  N   5.0   -0.22    3.29    1.98   -59.29415   127.38397    34.27264
     2  C   4.0    0.03    4.39    4.36   -61.77411   127.66971    33.18697
     3  C   4.0    0.15    3.47    3.10   -62.53667   125.31483    31.74742
     4  O   6.0   -0.32    1.33    1.80   -64.70520   124.61586    31.67890
     5  C   4.0   -0.05    4.35    4.30   -61.86077   130.03187    31.57452
     6  C   4.0   -0.03    4.18    3.95   -62.18851   132.40942    33.19947
     7  C   4.0   -0.08    4.13    3.86   -60.85617   132.34742    35.78277
     8  C   4.0   -0.08    4.10    3.81   -61.34035   134.70323    31.65745
     9  H   1.0    0.08    1.03    1.43   -57.97913   128.74761    33.94814
    10  H   1.0    0.04    1.06    1.44   -63.19791   127.82161    34.71005
    11  H   1.0    0.04    1.04    1.43   -60.13420   130.13636    30.48259
    12  H   1.0    0.04    1.03    1.43   -63.45215   129.91047    30.27134
    13  H   1.0    0.03    1.05    1.44   -64.22530   132.66012    33.60167
    14  H   1.0    0.04    1.00    1.43   -61.32281   134.09998    36.78286
    15  H   1.0    0.04    1.00    1.43   -61.50315   130.80506    36.95589
    16  H   1.0    0.04    1.00    1.43   -58.82375   132.27213    35.58913
    17  H   1.0    0.04    0.99    1.43   -61.98456   136.44121    32.58192
    18  H   1.0    0.04    1.00    1.43   -59.30225   134.77680    31.53997
    19  H   1.0    0.04    1.00    1.43   -62.15250   134.64952    29.78650
    20  N   5.0   -0.14    3.49    2.07   -60.73390   124.03743    30.64502
    21  C   4.0    0.04    4.48    4.51   -61.24837   121.49645    29.80816
    22  C   4.0    0.15    3.52    3.12   -61.94838   119.77680    32.02213
    23  O   6.0   -0.30    1.33    1.80   -64.04822   118.83458    32.09539
    24  C   4.0   -0.05    4.26    4.13   -59.02874   120.36586    28.34277
    25  C   4.0   -0.03    4.22    4.04   -59.67970   117.69337    27.42098
    26  C   4.0    0.16    3.22    3.04   -61.79731   117.77800    25.43270
    27  O   6.0   -0.29    1.22    1.80   -63.99304   118.22481    25.93785
    28  N   5.0   -0.19    3.11    1.94   -61.13037   117.52493    23.00511
    29  H   1.0    0.07    1.05    1.44   -58.94686   124.79636    30.43687
    30  H   1.0    0.08    1.07    1.44   -62.92999   121.53765    28.60189
    31  H   1.0    0.04    1.01    1.43   -58.62340   121.59663    26.69963
    32  H   1.0    0.04    1.03    1.43   -57.35680   120.30850    29.53008
    33  H   1.0    0.04    1.02    1.43   -58.00162   116.81940    26.58392
    34  H   1.0    0.06    1.04    1.43   -60.32735   116.55054    28.96296
    35  H   1.0    0.08    0.93    1.42   -59.11717   116.79644    22.67089
    36  H   1.0    0.11    1.05    1.44   -62.19426   117.33986    21.68199
    37  N   5.0   -0.15    3.45    2.04   -60.17464   119.29724    33.78205
    38  C   4.0    0.03    4.34    4.27   -60.60332   117.33693    35.69076
    39  C   4.0    0.16    3.39    3.08   -63.15406   117.73040    37.09767
    40  O   6.0   -0.29    1.20    1.80   -64.31388   115.95351    38.04195
    41  C   4.0   -0.04    4.15    3.91   -58.24492   116.74629    37.37090
    42  C   4.0   -0.03    4.13    3.86   -57.78400   118.23596    39.83918
    43  C   4.0    0.15    3.17    3.03   -55.91844   116.98784    41.72810
    44  O   6.0   -0.28    1.19    1.80   -55.67657   114.71182    42.04224
    45  N   5.0   -0.18    3.17    1.95   -54.47419   118.62255    43.06798
    46  H   1.0    0.07    1.06    1.44   -58.42864   120.06548    33.61448
    47  H   1.0    0.06    1.06    1.44   -60.95151   115.56704    34.63969
    48  H   1.0    0.06    1.03    1.43   -58.43070   114.76254    37.92495
    49  H   1.0    0.05    1.03    1.43   -56.60165   116.90524    36.14940
    50  H   1.0    0.04    1.02    1.43   -57.17025   120.15597    39.43681
    51  H   1.0    0.05    1.03    1.43   -59.58760   118.37099    40.85834
    52  H   1.0    0.08    1.02    1.43   -54.96705   120.47660    43.19985
    53  H   1.0    0.10    1.04    1.43   -53.47573   117.92178    44.48075
    54  N   5.0   -0.13    3.57    2.13   -63.96141   120.12063    37.06906
    55  C   4.0    0.04    4.43    4.42   -66.23953   120.99262    38.25474
    56  C   4.0    0.15    3.50    3.12   -68.47687   120.67814    36.49811
    57  O   6.0   -0.33    1.49    1.80   -70.25254   119.40218    37.27692
    58  C   4.0   -0.04    4.29    4.19   -65.81354   123.65332    39.25119
    59  C   4.0   -0.02    3.49    3.11   -64.10005   123.56750    41.58645
    60  C   4.0   -0.04    3.44    3.09   -65.13493   123.47812    44.01521
    61  C   4.0   -0.05    3.43    3.09   -61.44661   123.56865    41.42203
    62  C   4.0   -0.03    3.41    3.08   -63.63076   123.50190    46.21791
    63  C   4.0   -0.05    3.40    3.08   -59.91341   123.63567    43.60768
    64  C   4.0    0.07    3.40    3.08   -61.01732   123.66017    46.01837
    65  O   6.0   -0.23    2.08    1.84   -59.62078   123.84827    48.18768
    66  H   1.0    0.08    1.10    1.44   -62.82003   121.46348    36.34631
    67  H   1.0    0.06    1.07    1.44   -66.65557   119.72510    39.85633
    68  H   1.0    0.04    1.03    1.43   -64.93673   124.78597    37.77074
    69  H   1.0    0.04    1.03    1.43   -67.60758   124.51264    39.77185
    70  H   1.0    0.05    1.03    1.43   -67.14699   123.42925    44.22870
    71  H   1.0    0.05    1.04    1.43   -60.56497   123.53976    39.62989
    72  H   1.0    0.06    1.04    1.43   -64.50406   123.44449    48.01366
    73  H   1.0    0.05    1.03    1.43   -57.90306   123.69622    43.47601
    74  H   1.0    0.12    1.01    1.43   -57.79319   124.00900    47.76598
    75  N   5.0   -0.14    3.54    2.11   -68.56294   121.55537    34.19552
    76  C   4.0    0.04    4.49    4.52   -70.66951   120.73691    32.59811
    77  C   4.0    0.16    3.53    3.13   -71.10693   117.88477    32.92855
    78  O   6.0   -0.32    1.24    1.80   -73.24167   117.05874    33.37369
    79  C   4.0   -0.05    4.26    4.13   -70.13792   121.41642    29.83933
    80  C   4.0   -0.05    4.16    3.92   -72.46791   121.11770    28.14686
    81  C   4.0   -0.01    4.16    3.93   -71.68632   121.18122    25.32323
    82  N   5.0   -0.14    3.36    2.00   -73.94602   121.11280    23.67702
    83  C   4.0    0.09    3.31    3.06   -74.01448   121.07286    21.15624
    84  N   5.0   -0.19    3.22    1.96   -71.77082   121.04215    19.82420
    85  N   5.0   -0.19    3.22    1.96   -76.22492   121.14166    19.97390
    86  H   1.0    0.11    1.09    1.44   -67.15557   122.58708    33.34570
    87  H   1.0    0.05    1.07    1.44   -72.42032   121.61909    33.21558
    88  H   1.0    0.05    1.03    1.43   -69.48203   123.37350    29.79499
    89  H   1.0    0.06    1.03    1.43   -68.60167   120.23064    29.13541
    90  H   1.0    0.05    1.03    1.43   -73.38842   119.32751    28.55038
    91  H   1.0    0.04    1.02    1.43   -73.80517   122.64355    28.52434
    92  H   1.0    0.05    1.02    1.43   -70.64625   122.93072    24.95435
    93  H   1.0    0.05    1.02    1.43   -70.49341   119.56583    24.92339
    94  H   1.0    0.07    1.07    1.44   -75.62977   121.17021    24.59997
    95  H   1.0    0.09    1.04    1.43   -70.17064   120.90016    20.72376
    96  H   1.0    0.09    1.03    1.43   -71.86092   120.94218    17.94067
    97  H   1.0    0.08    1.04    1.43   -77.83674   121.17623    20.91974
    98  H   1.0    0.09    1.03    1.43   -76.27918   121.04765    18.05405
    99  N   5.0   -0.14    3.49    2.07   -69.01440   116.46419    32.59349
   100  C   4.0    0.04    4.37    4.33   -68.96269   113.72176    32.54706
   101  C   4.0    0.16    3.46    3.10   -69.50443   112.50753    35.10537
   102  O   6.0   -0.30    1.27    1.80   -69.57264   110.20205    35.34661
   103  C   4.0   -0.03    4.25    4.11   -66.46314   112.59575    31.59495
   104  C   4.0   -0.03    4.11    3.83   -66.23944   112.24623    28.72249
   105  C   4.0    0.25    3.07    3.02   -64.73259   109.76678    28.00045
   106  O   6.0   -0.27    1.16    1.80   -62.71426   110.05614    26.83524
   107  O   6.0   -0.27    1.16    1.80   -65.70847   107.70099    28.60244
   108  H   1.0    0.11    1.10    1.44   -67.35322   117.34254    32.27037
   109  H   1.0    0.05    1.05    1.44   -70.51866   113.06075    31.30776
   110  H   1.0    0.06    1.03    1.43   -64.91904   113.75298    32.29435
   111  H   1.0    0.08    1.06    1.44   -66.32760   110.72574    32.43260
   112  H   1.0    0.05    1.02    1.43   -68.13190   111.99558    27.89990
   113  H   1.0    0.07    1.02    1.43   -65.34855   113.87239    27.82147
   114  N   5.0   -0.13    3.56    2.12   -70.02619   114.09589    36.97047
   115  C   4.0    0.04    4.55    4.61   -70.86112   113.15071    39.35079
   116  C   4.0    0.15    3.57    3.15   -73.48889   114.12522    39.97878
   117  O   6.0   -0.30    1.44    1.80   -75.03358   112.73066    40.97524
   118  C   4.0   -0.03    4.30    4.19   -68.91080   113.59319    41.41826
   119  C   4.0   -0.03    4.07    3.74   -69.87287   112.56110    43.91847
   120  S   6.0   -0.01    2.59    3.10   -71.38368   109.36481    43.68128
   121  C   4.0   -0.05    3.88    3.43   -70.99868   108.48622    47.02972
   122  H   1.0    0.12    1.13    1.45   -69.76964   116.00071    36.80494
   123  H   1.0    0.06    1.13    1.45   -71.04969   111.10387    39.13160
   124  H   1.0    0.06    1.03    1.43   -67.16086   112.67977    40.85825
   125  H   1.0    0.05    1.03    1.43   -68.54671   115.61635    41.63135
   126  H   1.0    0.04    1.05    1.44   -68.31130   112.38173    45.27018
   127  H   1.0    0.06    1.08    1.44   -71.30723   113.81288    44.71415
   128  H   1.0    0.06    1.05    1.44   -71.87839   106.67529    47.20766
   129  H   1.0    0.05    1.03    1.43   -68.99357   108.40478    47.49460
   130  H   1.0    0.05    1.03    1.43   -71.97577   109.87141    48.20034
   131  N   5.0   -0.14    3.55    2.11   -74.15936   116.46711    39.29269
   132  C   4.0    0.04    4.60    4.66   -76.79118   117.04409    39.57207
   133  C   4.0    0.17    3.69    3.23   -78.24793   114.92522    38.35846
   134  O   6.0   -0.31    1.37    1.80   -79.87339   113.59893    39.40485
   135  C   4.0   -0.05    4.44    4.44   -77.59619   119.40833    38.18668
   136  C   4.0   -0.02    4.19    3.98   -77.68763   121.76590    39.83243
   137  C   4.0   -0.08    4.15    3.90   -80.07087   123.24367    39.23995
   138  C   4.0   -0.08    4.16    3.93   -77.46879   121.28701    42.63702
   139  H   1.0    0.11    1.11    1.44   -72.93729   117.69504    38.51363
   140  H   1.0    0.05    1.08    1.44   -77.26361   117.03740    41.57952
   141  H   1.0    0.05    1.03    1.43   -76.33631   119.68340    36.57858
   142  H   1.0    0.05    1.06    1.44   -79.49612   119.08583    37.43537
   143  H   1.0    0.04    1.05    1.44   -76.05681   122.98077    39.34025
   144  H   1.0    0.04    1.00    1.43   -80.32150   124.76212    40.60995
   145  H   1.0    0.04    1.00    1.43   -79.92129   124.06510    37.36790
   146  H   1.0    0.05    1.01    1.43   -81.70765   122.02500    39.28835
   147  H   1.0    0.04    1.00    1.43   -77.62311   123.07842    43.66925
   148  H   1.0    0.04    1.01    1.43   -78.94350   120.05170    43.32271
   149  H   1.0    0.04    1.00    1.43   -75.64675   120.47097    43.11604
   150  N   5.0   -0.15    3.63    2.19   -77.69900   114.75751    35.92647
   151  C   4.0    0.04    4.52    4.56   -79.05748   112.98283    34.35927
   152  C   4.0    0.16    3.46    3.10   -78.93780   110.29790    35.46307
   153  O   6.0   -0.31    1.29    1.80   -80.84695   108.96983    35.60836
   154  C   4.0   -0.02    4.33    4.25   -78.02599   113.27404    31.65204
   155  C   4.0   -0.04    4.20    3.99   -78.96584   115.82906    30.63709
   156  C   4.0   -0.07    4.12    3.84   -78.79820   111.05181    29.97129
   157  C   4.0   -0.08    4.01    3.64   -78.19802   116.33314    27.88335
   158  H   1.0    0.10    1.11    1.44   -76.21117   115.66974    35.15626
   159  H   1.0    0.06    1.06    1.44   -81.08256   113.45645    34.38446
   160  H   1.0    0.05    1.06    1.44   -75.96544   113.30398    31.76537
   161  H   1.0    0.04    1.02    1.43   -81.02966   115.87419    30.77859
   162  H   1.0    0.05    1.03    1.43   -78.21621   117.31323    31.83641
   163  H   1.0    0.04    1.00    1.43   -77.93839   111.20085    28.12689
   164  H   1.0    0.05    1.00    1.43   -78.19826   109.27940    30.81903
   165  H   1.0    0.05    1.00    1.43   -80.85081   110.98838    29.76867
   166  H   1.0    0.04    1.00    1.43   -78.70825   118.26078    27.41895
   167  H   1.0    0.04    1.00    1.43   -76.17146   116.07595    27.67840
   168  H   1.0    0.04    1.00    1.43   -79.17020   115.06082    26.61903
   169  N   5.0   -0.14    3.46    2.05   -76.64051   109.50178    36.23793
   170  C   4.0    0.04    4.31    4.22   -76.15546   106.92552    37.08925
   171  C   4.0    0.16    3.42    3.09   -77.46757   106.28766    39.60492
   172  O   6.0   -0.28    1.23    1.80   -77.80209   104.07112    40.22228
   173  C   4.0   -0.05    4.11    3.81   -73.32211   106.36648    37.34774
   174  H   1.0    0.09    1.07    1.44   -75.13521   110.65282    36.10818
   175  H   1.0    0.06    1.05    1.44   -76.99758   105.63973    35.68877
   176  H   1.0    0.06    1.01    1.43   -73.11007   104.37707    37.74550
   177  H   1.0    0.07    1.01    1.43   -72.32701   106.85120    35.63078
   178  H   1.0    0.06    1.02    1.43   -72.56428   107.44267    38.91077
   179  N   5.0   -0.14    3.57    2.13   -78.26485   108.25505    40.96802
   180  C   4.0    0.05    4.48    4.51   -79.80548   107.88310    43.14442
   181  C   4.0    0.15    3.41    3.08   -82.52071   108.66769    42.63813
   182  O   6.0   -0.29    1.24    1.80   -84.05698   108.88877    44.34030
   183  C   4.0   -0.02    4.27    4.14   -78.66223   108.98913    45.49563
   184  C   4.0    0.25    3.11    3.03   -77.82620   106.90704    47.40092
   185  O   6.0   -0.27    1.18    1.80   -78.55479   104.69283    47.17540
   186  O   6.0   -0.33    1.34    1.80   -76.49608   107.74974    49.18026
   187  H   1.0    0.12    1.10    1.44   -77.68778   110.03311    40.55000
   188  H   1.0    0.09    1.10    1.44   -79.91369   105.80953    43.43394
   189  H   1.0    0.06    1.03    1.43   -77.03468   110.16005    45.03819
   190  H   1.0    0.05    1.04    1.43   -80.07018   110.12392    46.48559
   191  N   5.0   -0.13    3.47    2.06   -83.12960   108.89880    40.19842
   192  C   4.0    0.03    4.24    4.07   -85.68614   109.31024    39.29494
   193  C   4.0    0.16    3.34    3.06   -86.63281   111.94429    40.02443
   194  O   6.0   -0.29    1.21    1.80   -88.85782   112.30588    40.63867
   195  H   1.0    0.12    1.14    1.45   -81.79321   108.65308    38.83951
   196  H   1.0    0.06    1.03    1.43   -85.67107   109.12901    37.24825
   197  H   1.0    0.07    1.03    1.43   -86.97138   107.94985    40.12773
   198  N   5.0   -0.13    3.51    2.09   -84.86564   113.78657    39.97536
   199  C   4.0    0.04    4.60    4.66   -85.39165   116.19751    41.13394
   200  C   4.0    0.15    3.49    3.11   -85.83695   118.28039    39.23124
   201  O   6.0   -0.31    1.22    1.80   -84.38656   118.69735    37.47933
   202  C   4.0   -0.02    4.42    4.41   -83.23272   117.02820    42.82165
   203  C   4.0   -0.04    4.22    4.05   -82.93684   115.24088    45.03547
   204  C   4.0   -0.08    4.24    4.07   -83.81253   119.68851    43.70041
   205  C   4.0   -0.07    4.03    3.67   -80.34367   115.22356    46.14025
   206  H   1.0    0.12    1.15    1.45   -83.07471   113.37236    39.53742
   207  H   1.0    0.05    1.08    1.44   -87.13365   115.91745    42.24341
   208  H   1.0    0.06    1.07    1.44   -81.53046   117.00289    41.66643
   209  H   1.0    0.04    1.03    1.43   -84.31537   115.79405    46.50336
   210  H   1.0    0.07    1.04    1.43   -83.43020   113.32209    44.45722
   211  H   1.0    0.03    1.01    1.43   -82.29115   120.37776    44.90592
   212  H   1.0    0.05    1.02    1.43   -83.97294   121.03085    42.15475
   213  H   1.0    0.04    1.01    1.43   -85.55141   119.71944    44.76351
   214  H   1.0    0.04    1.00    1.43   -80.25888   114.04170    47.82702
   215  H   1.0    0.06    1.00    1.43   -78.96584   114.52248    44.79445
   216  H   1.0    0.04    0.99    1.43   -79.75575   117.13314    46.72468
   217  N   5.0   -0.15    3.49    2.07   -87.89477   119.65470    39.77999
   218  C   4.0    0.04    4.39    4.36   -88.65575   121.94950    38.51414
   219  C   4.0    0.15    3.58    3.15   -87.16811   124.25627    39.46704
   220  O   6.0   -0.31    1.34    1.80   -87.49958   125.08086    41.60570
   221  C   4.0   -0.02    4.28    4.16   -91.45343   122.35443    39.03581
   222  C   4.0    0.25    3.10    3.02   -92.51974   124.87786    37.88452
   223  O   6.0   -0.28    1.20    1.80   -90.98556   126.35121    36.80801
   224  O   6.0   -0.27    1.15    1.80   -94.84392   125.22671    38.16696
   225  H   1.0    0.07    1.09    1.44   -88.81154   119.34331    41.40493
   226  H   1.0    0.06    1.05    1.44   -88.34769   121.71742    36.46303
   227  H   1.0    0.05    1.02    1.43   -92.59995   120.80558    38.26908
   228  H   1.0    0.06    1.03    1.43   -91.79534   122.50127    41.05592
   229  N   5.0   -0.10    3.66    2.22   -85.43144   125.34814    37.99178
   230  C   4.0    0.04    4.56    4.62   -84.35236   127.67091    38.88914
   231  C   4.0    0.10    3.24    3.04   -86.26160   129.69402    39.73817
   232  O   6.0   -0.31    1.23    1.80   -85.88405   130.65936    41.78860
   233  C   4.0   -0.05    4.33    4.26   -82.69562   128.63475    36.73331
   234  C   4.0   -0.04    4.26    4.12   -83.67309   127.26872    34.40911
   235  C   4.0   -0.01    4.34    4.27   -84.75338   124.79798    35.39388
   236  H   1.0    0.05    1.06    1.44   -83.25831   127.29928    40.60651
   237  H   1.0    0.04    1.03    1.43   -82.85638   130.67873    36.50823
   238  H   1.0    0.04    1.02    1.43   -80.71655   128.18669    37.08196
   239  H   1.0    0.05    1.02    1.43   -85.18323   128.36896    33.52305
   240  H   1.0    0.04    1.02    1.43   -82.20467   126.97371    32.98773
   241  H   1.0    0.05    1.01    1.43   -86.44244   124.24532    34.28968
   242  H   1.0    0.05    1.02    1.43   -83.42376   123.22173    35.31347
   243  N   5.0   -0.19    3.28    1.98   -87.90045   129.68612    46.36703
   244  C   4.0    0.03    4.32    4.24   -86.06848   128.89786    48.22404
   245  C   4.0    0.15    3.42    3.09   -84.20126   131.04587    48.78798
   246  O   6.0   -0.28    1.27    1.80   -83.34945   131.45030    50.91820
   247  C   4.0   -0.04    4.30    4.20   -84.88165   126.37123    47.46851
   248  C   4.0   -0.02    4.17    3.94   -86.39840   124.12342    48.55883
   249  C   4.0   -0.07    4.10    3.81   -88.37025   123.08576    46.73699
   250  C   4.0   -0.08    4.10    3.80   -84.61989   122.04738    49.49606
   251  H   1.0    0.11    1.03    1.43   -88.22120   128.53717    44.87179
   252  H   1.0    0.05    1.06    1.44   -87.08080   128.65484    50.03618
   253  H   1.0    0.06    1.04    1.43   -84.77654   126.25790    45.43458
   254  H   1.0    0.04    1.03    1.43   -82.95127   126.31760    48.23911
   255  H   1.0    0.04    1.06    1.44   -87.41518   124.81585    50.24847
   256  H   1.0    0.04    1.01    1.43   -88.83469   121.15273    47.25076
   257  H   1.0    0.05    1.00    1.43   -90.12203   124.17508    46.87287
   258  H   1.0    0.07    1.04    1.43   -87.74307   123.18304    44.82005
   259  H   1.0    0.04    1.00    1.43   -85.69452   120.44778    50.17706
   260  H   1.0    0.04    1.02    1.43   -83.34297   121.45427    48.03707
   261  H   1.0    0.04    1.00    1.43   -83.48078   122.77184    51.06595
   262  N   5.0   -0.14    3.52    2.09   -83.60666   132.44823    46.80877
   263  C   4.0    0.04    4.29    4.18   -82.06589   134.70366    47.03978
   264  C   4.0    0.10    3.25    3.04   -82.57842   136.07434    49.57963
   265  O   6.0   -0.26    1.11    1.80   -80.94977   136.45381    51.14958
   266  C   4.0   -0.05    4.27    4.14   -82.51257   136.38713    44.69180
   267  C   4.0   -0.02    4.19    3.98   -82.55460   134.95301    42.11432
   268  C   4.0   -0.08    4.09    3.78   -82.28968   136.78801    39.86963
   269  C   4.0   -0.07    4.11    3.82   -80.55087   132.88143    41.85752
   270  H   1.0    0.10    1.11    1.45   -84.44049   132.10155    45.11531
   271  H   1.0    0.06    1.05    1.44   -80.06484   134.12046    47.10009
   272  H   1.0    0.05    1.03    1.43   -84.32058   137.33369    44.86143
   273  H   1.0    0.04    1.02    1.43   -81.03006   137.81716    44.65697
   274  H   1.0    0.07    1.09    1.44   -84.40255   134.09844    41.93747
   275  H   1.0    0.04    1.00    1.43   -82.56736   135.74920    38.13209
   276  H   1.0    0.04    1.00    1.43   -83.70827   138.24869    40.00777
   277  H   1.0    0.04    1.00    1.43   -80.41665   137.63299    39.84075
   278  H   1.0    0.04    1.01    1.43   -80.64622   132.05421    40.00137
   279  H   1.0    0.04    0.99    1.43   -78.65806   133.68165    42.10050
   280  H   1.0    0.05    1.00    1.43   -80.79062   131.38648    43.24909
   281  N   5.0   -0.21    3.22    1.96   -87.91921   110.30273    59.75444
   282  C   4.0    0.03    4.23    4.06   -87.65762   112.53628    58.25719
   283  C   4.0    0.08    3.23    3.04   -86.26080   114.59307    59.73626
   284  O   6.0   -0.31    1.17    1.80   -84.13361   115.29916    59.11682
   285  C   4.0   -0.05    4.27    4.14   -90.24465   113.40328    57.38919
   286  C   4.0   -0.05    4.20    3.99   -90.17064   115.99009    56.12390
   287  C   4.0   -0.01    4.16    3.91   -92.05018   116.30904    53.94531
   288  N   5.0   -0.14    3.36    2.00   -91.07698   115.16333    51.60227
   289  C   4.0    0.09    3.30    3.05   -91.33845   115.97680    49.18755
   290  N   5.0   -0.19    3.25    1.97   -92.26805   118.26351    48.68872
   291  N   5.0   -0.18    3.23    1.96   -90.55633   114.54134    47.28772
   292  H   1.0    0.08    1.03    1.43   -89.70250   109.58663    59.93965
   293  H   1.0    0.04    1.04    1.43   -86.44377   112.08511    56.58576
   294  H   1.0    0.04    1.02    1.43   -90.97146   111.93896    56.06500
   295  H   1.0    0.04    1.04    1.43   -91.50976   113.42822    58.98265
   296  H   1.0    0.04    1.04    1.43   -90.53831   117.43994    57.47987
   297  H   1.0    0.05    1.03    1.43   -88.26885   116.32022    55.33406
   298  H   1.0    0.04    1.02    1.43   -93.84651   115.39500    54.41047
   299  H   1.0    0.04    1.03    1.43   -92.36915   118.29495    53.58855
   300  H   1.0    0.08    1.07    1.44   -90.36738   113.39332    51.80706
   301  H   1.0    0.08    1.03    1.43   -92.93154   119.44214    50.03212
   302  H   1.0    0.08    1.03    1.43   -92.60028   118.83692    46.91196
   303  H   1.0    0.09    1.02    1.43   -89.82521   112.78918    47.58771
   304  H   1.0    0.09    1.03    1.43   -90.81387   115.05341    45.48764
   305  N   5.0   -0.19    3.23    1.96   -79.32405   114.22711    60.40859
   306  C   4.0    0.03    4.23    4.05   -77.77739   114.97719    58.28776
   307  C   4.0    0.08    3.21    3.04   -77.07591   117.78024    58.57507
   308  O   6.0   -0.31    1.14    1.80   -74.88369   118.50233    58.41147
   309  C   4.0   -0.05    4.25    4.09   -79.09870   114.49271    55.77186
   310  C   4.0   -0.05    4.18    3.96   -78.21281   112.05566    54.52561
   311  C   4.0   -0.05    4.14    3.89   -79.06696   109.63582    55.85282
   312  C   4.0   -0.04    4.10    3.80   -76.90717   107.75321    56.20128
   313  N   5.0   -0.12    4.01    2.89   -75.29676   107.24692    53.91042
   314  H   1.0    0.11    1.06    1.44   -81.07013   113.54726    60.04814
   315  H   1.0    0.05    1.06    1.44   -75.97722   113.96296    58.35822
   316  H   1.0    0.06    1.04    1.43   -81.13549   114.45697    56.04718
   317  H   1.0    0.04    1.03    1.43   -78.68103   116.06837    54.47313
   318  H   1.0    0.04    1.02    1.43   -78.86782   112.02764    52.55643
   319  H   1.0    0.04    1.03    1.43   -76.14575   112.14174    54.44616
   320  H   1.0    0.04    1.04    1.43   -79.82299   110.06199    57.70562
   321  H   1.0    0.05    1.03    1.43   -80.58238   108.74520    54.78188
   322  H   1.0    0.04    1.02    1.43   -75.62745   108.46338    57.66221
   323  H   1.0    0.05    1.03    1.43   -77.76599   105.97935    56.75033
   324  H   1.0    0.06    1.03    1.43   -74.44226   105.54636    54.05678
   325  H   1.0    0.11    1.10    1.44   -76.26111   107.26463    52.08821
   326  H   1.0    0.06    1.02    1.43   -73.94101   108.62366    53.71349
   327  N   5.0   -0.20    3.21    1.96   -69.90784   121.60209    58.09215
   328  C   4.0    0.03    4.18    3.96   -69.35895   123.17517    55.88473
   329  C   4.0    0.09    3.20    3.04   -68.75136   125.82569    56.91285
   330  O   6.0   -0.27    1.12    1.80   -66.78409   126.84027    56.33107
   331  C   4.0   -0.03    4.25    4.09   -71.64680   123.15734    54.07066
   332  C   4.0   -0.01    3.43    3.09   -72.13756   120.88665    52.32888
   333  C   4.0   -0.05    3.44    3.09   -72.35613   121.33647    49.72383
   334  C   4.0   -0.04    3.40    3.08   -72.67683   118.40626    53.17147
   335  C   4.0   -0.04    3.40    3.08   -73.07151   119.43020    48.00026
   336  C   4.0   -0.05    3.38    3.07   -73.37372   116.48552    51.45526
   337  C   4.0    0.06    3.38    3.07   -73.57949   116.98173    48.84485
   338  O   6.0   -0.25    2.11    1.84   -74.20962   115.17752    47.06153
   339  H   1.0    0.10    1.02    1.43   -71.73043   121.65639    58.73594
   340  H   1.0    0.06    1.06    1.44   -67.67545   122.45854    54.98217
   341  H   1.0    0.05    1.02    1.43   -73.36439   123.39199    55.24124
   342  H   1.0    0.05    1.04    1.44   -71.51079   124.79243    52.86042
   343  H   1.0    0.05    1.04    1.43   -72.00716   123.16603    48.99844
   344  H   1.0    0.07    1.05    1.44   -72.56296   117.95627    55.11511
   345  H   1.0    0.05    1.04    1.43   -73.18551   119.83584    46.04000
   346  H   1.0    0.05    1.03    1.43   -73.76229   114.62923    52.14116
   347  H   1.0    0.12    1.03    1.43   -74.80512   113.66828    47.89843
   348  N   5.0   -0.22    3.21    1.96   -71.97325   136.13065    32.38983
   349  C   4.0    0.03    4.23    4.07   -73.07135   133.81279    31.54668
   350  C   4.0    0.08    3.19    3.03   -75.96282   133.90379    31.16745
   351  O   6.0   -0.30    1.15    1.80   -77.18830   131.95987    31.28169
   352  C   4.0   -0.04    4.40    4.38   -72.40278   131.67061    33.34160
   353  C   4.0   -0.04    4.05    3.70   -70.26108   130.03411    32.38197
   354  S   6.0   -0.04    2.59    3.10   -69.95485   127.15487    34.22332
   355  C   4.0   -0.07    3.91    3.48   -73.22621   126.13195    34.50239
   356  H   1.0    0.08    1.03    1.43   -72.22687   136.59187    34.20674
   357  H   1.0    0.04    1.05    1.44   -72.30553   133.44145    29.62481
   358  H   1.0    0.04    1.04    1.43   -71.94457   132.45548    35.18227
   359  H   1.0    0.06    1.08    1.44   -74.10827   130.53707    33.49990
   360  H   1.0    0.04    1.06    1.44   -70.57210   129.50293    30.40447
   361  H   1.0    0.04    1.07    1.44   -68.44672   131.00491    32.52452
   362  H   1.0    0.04    1.05    1.44   -73.14684   124.33559    35.48214
   363  H   1.0    0.04    1.04    1.43   -74.26550   127.45143    35.67228
   364  H   1.0    0.04    1.04    1.43   -74.06396   125.96938    32.64568
   365  H   1.0    0.09    1.08    1.44   -59.42169   127.30516    35.96677
   366  H   1.0    0.07    1.04    1.43   -87.71586   130.14902    38.62050
   367  H   1.0    0.10    1.07    1.44   -89.41850   129.87291    47.11079
   368  H   1.0    0.06    1.05    1.44   -84.31755   136.69200    49.98582
   369  H   1.0    0.09    1.08    1.44   -86.98823   109.05181    59.07542
   370  H   1.0    0.06    1.04    1.44   -87.07622   115.39339    61.24147
   371  H   1.0    0.09    1.07    1.44   -78.53952   112.99122    61.27441
   372  H   1.0    0.06    1.05    1.44   -78.42429   119.06279    58.90371
   373  H   1.0    0.10    1.07    1.44   -69.58475   119.97357    57.72324
   374  H   1.0    0.06    1.04    1.44   -69.97744   126.70037    58.05422
   375  H   1.0    0.09    1.08    1.44   -70.28839   136.07570    32.16448
   376  H   1.0    0.05    1.04    1.43   -76.82005   135.55373    30.82991

  Z AO/shell   Hii/eV     exponent
  1     Wed Apr 25 08:07:45 CEST 2018   EN: 2.200 GM2: 0.406  GM3: 0.0800  RAES: 1.40
     1s    -10.707211    1.230000
  6     Wed Apr 25 08:07:45 CEST 2018   EN: 2.550 GM2: 0.538  GM3: 0.1500  RAES: 3.00
     2s    -13.970922    2.096432
     2p    -10.063292    1.800000
  7     Wed Apr 25 08:07:45 CEST 2018   EN: 3.040 GM2: 0.461  GM3:-0.0640  RAES: 1.90
     2s    -16.686243    2.339881
     2p    -12.523956    2.014332
  8     Wed Apr 25 08:07:45 CEST 2018   EN: 3.440 GM2: 0.452  GM3:-0.0517  RAES: 1.80
     2s    -20.229985    2.439742
     2p    -15.503117    2.137023
 16     Tue Apr 24 11:44:34 CEST 2018   EN: 2.580 GM2: 0.340  GM3:-0.0502  RAES: 3.10
     3s    -20.029654    1.981333
     3p    -11.377694    2.025643
     3d     -0.420282    1.702555
 no old-style atom pair restraining (fixing) potential

molecular fragmentation (1/2 indicates fragments):
111111111111111111111111111111111111111111111111111111111111111111111111
111111111111111111111111111111111111111111111111111111111111111111111111
111111111111111111111111111111111111111111111111111111111111111111111111
111111111111111111111111112222222222222222222222222222222222222222222222
222222222222222222222222222222222222222222222222222222222222222222222222
2222112222222222
# atoms in fragment 1/2:   244   132
 fragment masses (1/2) :     1743.99      817.14
CMA distance (Bohr)    :  14.687
constraining FC (au)   :  0.0500
           ------------------------------------------------- 
          |        Self-Consistent Charge Iterations        |
           ------------------------------------------------- 

 Ncao       : 922
 Nao        : 920
 Nshell     : 556
 Nel        : 1006
 T(el)      :   500.0
 intcut     :    35.0
 scfconv/Eh :  0.100E-06
   qconv/e  :  0.100E-04
 intneglect :  0.100E-08
 broydamp   :      0.400
 iter      E             dE          RMSdq      gap      omega  full diag
   1   -573.2163951 -0.573216E+03  0.461E+00    3.03       0.0  T
   2   -574.5159791 -0.129958E+01  0.218E+00    1.87       1.0  T
   3   -574.5894021 -0.734230E-01  0.122E+00    2.09       1.0  T
   4   -574.6857406 -0.963385E-01  0.247E-01    1.57       1.0  T
   5   -574.6906438 -0.490326E-02  0.125E-01    1.72       1.0  T
   6   -574.6916224 -0.978536E-03  0.567E-02    1.73       1.0  T
   7   -574.6919705 -0.348102E-03  0.220E-02    1.74       1.0  T
   8   -574.6920069 -0.364824E-04  0.113E-02    1.76       1.0  T
   9   -574.6920156 -0.860771E-05  0.537E-03    1.76       1.0  T
  10   -574.6920174 -0.181353E-05  0.259E-03    1.76       2.0  T
  11   -574.6920178 -0.439102E-06  0.135E-03    1.76       3.8  T
  12   -574.6920179 -0.123196E-06  0.677E-04    1.76       7.6  T
  13   -574.6920180 -0.385199E-07  0.313E-04    1.76      16.5  T
  14   -574.6920180 -0.419016E-08  0.152E-04    1.76      34.0  T
  15   -574.6920180 -0.149373E-08  0.650E-05    1.76      79.3  T
  16   -574.6920180 -0.289788E-09  0.319E-05    1.76     161.8  T
speedup  1.98
cpu  time for SCC   13.23 s
wall time for SCC    6.69 s

   *** convergence criteria satisfied after 16 iterations ***

          eigenvalues
 #    :         491        492        493        494        495        496        497        498
 occ. :        2.000      2.000      2.000      2.000      2.000      2.000      2.000      2.000
 eps  :       -10.369    -10.215    -10.112    -10.085    -10.035     -9.997     -9.941     -9.768
 #    :         499        500        501        502        503        504        505        506
 occ. :        2.000      2.000      2.000      2.000      2.000      0.000      0.000      0.000
 eps  :        -9.701     -9.640     -9.635     -9.595     -9.501     -7.739     -7.661     -7.589
 #    :         507        508        509        510        511        512        513        514
 occ. :        0.000      0.000      0.000      0.000      0.000      0.000      0.000      0.000
 eps  :        -7.521     -7.469     -7.444     -6.812     -6.717     -6.684     -6.531     -6.473


   #   Z            q   n(s)   n(p)   n(d)      C6AA      α(0)
   1   7 N     -0.392  1.305  4.087  0.000    30.144     8.154
   2   6 C      0.028  1.054  2.918  0.000    20.120     6.388
   3   6 C      0.266  1.039  2.695  0.000    22.505     7.770
   4   8 O     -0.486  1.729  4.757  0.000    23.482     6.497
   5   6 C     -0.072  1.056  3.017  0.000    21.872     6.657
   6   6 C     -0.009  1.061  2.948  0.000    20.699     6.471
   7   6 C     -0.112  1.040  3.072  0.000    22.706     6.795
   8   6 C     -0.117  1.042  3.075  0.000    22.792     6.807
   9   1 H      0.171  0.829  0.000  0.000     1.270     1.765
  10   1 H      0.037  0.963  0.000  0.000     2.484     2.465
  11   1 H      0.056  0.944  0.000  0.000     2.248     2.345
  12   1 H      0.042  0.958  0.000  0.000     2.421     2.433
  13   1 H      0.026  0.974  0.000  0.000     2.651     2.546
  14   1 H      0.035  0.965  0.000  0.000     2.511     2.478
  15   1 H      0.040  0.960  0.000  0.000     2.452     2.449
  16   1 H      0.043  0.957  0.000  0.000     2.407     2.426
  17   1 H      0.036  0.964  0.000  0.000     2.507     2.476
  18   1 H      0.043  0.957  0.000  0.000     2.415     2.430
  19   1 H      0.044  0.956  0.000  0.000     2.400     2.423
  20   7 N     -0.171  1.241  3.931  0.000    24.710     7.383
  21   6 C      0.014  1.059  2.927  0.000    20.324     6.417
  22   6 C      0.277  1.044  2.679  0.000    22.321     7.737
  23   8 O     -0.479  1.744  4.735  0.000    23.324     6.475
  24   6 C     -0.080  1.060  3.020  0.000    22.030     6.682
  25   6 C     -0.095  1.055  3.040  0.000    22.308     6.724
  26   6 C      0.288  1.043  2.669  0.000    22.116     7.700
  27   8 O     -0.488  1.742  4.746  0.000    23.517     6.502
  28   7 N     -0.285  1.277  4.008  0.000    27.371     7.770
  29   1 H      0.226  0.774  0.000  0.000     0.983     1.553
  30   1 H      0.104  0.896  0.000  0.000     1.745     2.066
  31   1 H      0.084  0.916  0.000  0.000     1.934     2.175
  32   1 H      0.075  0.925  0.000  0.000     2.035     2.231
  33   1 H      0.065  0.935  0.000  0.000     2.143     2.289
  34   1 H      0.047  0.953  0.000  0.000     2.361     2.403
  35   1 H      0.211  0.789  0.000  0.000     1.059     1.615
  36   1 H      0.241  0.759  0.000  0.000     0.920     1.503
  37   7 N     -0.195  1.252  3.943  0.000    25.241     7.462
  38   6 C      0.018  1.072  2.910  0.000    20.283     6.415
  39   6 C      0.281  1.039  2.680  0.000    22.240     7.722
  40   8 O     -0.499  1.764  4.735  0.000    23.771     6.537
  41   6 C     -0.068  1.054  3.014  0.000    21.817     6.651
  42   6 C     -0.102  1.063  3.039  0.000    22.448     6.746
  43   6 C      0.290  1.045  2.666  0.000    22.086     7.694
  44   8 O     -0.498  1.763  4.734  0.000    23.736     6.532
  45   7 N     -0.289  1.279  4.011  0.000    27.461     7.783
  46   1 H      0.229  0.771  0.000  0.000     0.969     1.542
  47   1 H      0.054  0.946  0.000  0.000     2.270     2.356
  48   1 H      0.063  0.937  0.000  0.000     2.161     2.299
  49   1 H      0.078  0.922  0.000  0.000     1.995     2.209
  50   1 H      0.085  0.915  0.000  0.000     1.929     2.172
  51   1 H      0.066  0.934  0.000  0.000     2.129     2.282
  52   1 H      0.222  0.778  0.000  0.000     1.003     1.568
  53   1 H      0.233  0.767  0.000  0.000     0.953     1.529
  54   7 N     -0.168  1.236  3.932  0.000    24.645     7.373
  55   6 C      0.029  1.056  2.915  0.000    20.083     6.381
  56   6 C      0.272  1.039  2.689  0.000    22.411     7.753
  57   8 O     -0.519  1.734  4.785  0.000    24.202     6.596
  58   6 C     -0.080  1.057  3.023  0.000    22.019     6.680
  59   6 C     -0.005  1.085  2.920  0.000    28.154     8.703
  60   6 C     -0.043  1.090  2.953  0.000    29.063     8.841
  61   6 C     -0.051  1.085  2.966  0.000    29.276     8.873
  62   6 C     -0.060  1.077  2.983  0.000    29.489     8.905
  63   6 C     -0.082  1.083  2.999  0.000    30.047     8.988
  64   6 C      0.145  1.049  2.806  0.000    24.836     8.167
  65   8 O     -0.438  1.739  4.699  0.000    21.593     6.273
  66   1 H      0.207  0.793  0.000  0.000     1.072     1.622
  67   1 H      0.072  0.928  0.000  0.000     2.060     2.245
  68   1 H      0.067  0.933  0.000  0.000     2.113     2.273
  69   1 H      0.078  0.922  0.000  0.000     1.998     2.211
  70   1 H      0.046  0.954  0.000  0.000     2.372     2.408
  71   1 H      0.052  0.948  0.000  0.000     2.292     2.367
  72   1 H      0.055  0.945  0.000  0.000     2.254     2.348
  73   1 H      0.054  0.946  0.000  0.000     2.274     2.358
  74   1 H      0.351  0.649  0.000  0.000     0.586     1.203
  75   7 N     -0.149  1.251  3.899  0.000    24.235     7.311
  76   6 C      0.015  1.066  2.919  0.000    20.317     6.416
  77   6 C      0.280  1.046  2.674  0.000    22.258     7.725
  78   8 O     -0.497  1.738  4.759  0.000    23.713     6.529
  79   6 C     -0.086  1.057  3.029  0.000    22.137     6.698
  80   6 C     -0.082  1.055  3.027  0.000    22.059     6.687
  81   6 C     -0.029  1.061  2.968  0.000    21.182     6.569
  82   7 N     -0.136  1.214  3.922  0.000    23.940     7.267
  83   6 C      0.225  1.028  2.747  0.000    23.270     7.898
  84   7 N     -0.264  1.230  4.034  0.000    26.843     7.695
  85   7 N     -0.246  1.230  4.016  0.000    26.421     7.634
  86   1 H      0.249  0.751  0.000  0.000     0.889     1.477
  87   1 H      0.095  0.905  0.000  0.000     1.831     2.116
  88   1 H      0.095  0.905  0.000  0.000     1.830     2.115
  89   1 H      0.065  0.935  0.000  0.000     2.141     2.288
  90   1 H      0.058  0.942  0.000  0.000     2.220     2.330
  91   1 H      0.080  0.920  0.000  0.000     1.982     2.202
  92   1 H      0.098  0.902  0.000  0.000     1.806     2.101
  93   1 H      0.082  0.918  0.000  0.000     1.957     2.188
  94   1 H      0.225  0.775  0.000  0.000     0.986     1.556
  95   1 H      0.242  0.758  0.000  0.000     0.917     1.500
  96   1 H      0.250  0.750  0.000  0.000     0.882     1.471
  97   1 H      0.255  0.745  0.000  0.000     0.864     1.456
  98   1 H      0.261  0.739  0.000  0.000     0.842     1.438
  99   7 N     -0.198  1.251  3.947  0.000    25.303     7.471
 100   6 C      0.034  1.061  2.905  0.000    20.013     6.371
 101   6 C      0.276  1.039  2.685  0.000    22.338     7.741
 102   8 O     -0.518  1.758  4.761  0.000    24.197     6.595
 103   6 C     -0.043  1.046  2.997  0.000    21.331     6.575
 104   6 C     -0.096  1.075  3.021  0.000    22.333     6.730
 105   6 C      0.369  1.028  2.602  0.000    20.738     7.452
 106   8 O     -0.637  1.765  4.872  0.000    27.052     6.973
 107   8 O     -0.655  1.782  4.873  0.000    27.516     7.033
 108   1 H      0.231  0.769  0.000  0.000     0.962     1.537
 109   1 H      0.057  0.943  0.000  0.000     2.239     2.340
 110   1 H      0.032  0.968  0.000  0.000     2.562     2.503
 111   1 H      0.037  0.963  0.000  0.000     2.492     2.469
 112   1 H      0.021  0.979  0.000  0.000     2.725     2.582
 113   1 H      0.033  0.967  0.000  0.000     2.539     2.492
 114   7 N     -0.193  1.249  3.944  0.000    25.186     7.454
 115   6 C      0.037  1.048  2.915  0.000    19.943     6.356
 116   6 C      0.270  1.043  2.687  0.000    22.442     7.759
 117   8 O     -0.484  1.742  4.741  0.000    23.423     6.489
 118   6 C     -0.059  1.049  3.010  0.000    21.628     6.619
 119   6 C     -0.021  1.075  2.946  0.000    20.959     6.520
 120  16 S     -0.266  1.944  4.260  0.062   152.500    20.785
 121   6 C     -0.062  1.058  3.004  0.000    21.771     6.657
 122   1 H      0.225  0.775  0.000  0.000     0.986     1.556
 123   1 H      0.072  0.928  0.000  0.000     2.062     2.245
 124   1 H      0.056  0.944  0.000  0.000     2.249     2.345
 125   1 H      0.056  0.944  0.000  0.000     2.252     2.347
 126   1 H      0.061  0.939  0.000  0.000     2.187     2.313
 127   1 H      0.072  0.928  0.000  0.000     2.064     2.247
 128   1 H      0.066  0.934  0.000  0.000     2.134     2.284
 129   1 H      0.067  0.933  0.000  0.000     2.116     2.275
 130   1 H      0.072  0.928  0.000  0.000     2.062     2.246
 131   7 N     -0.195  1.251  3.944  0.000    25.228     7.460
 132   6 C      0.032  1.049  2.919  0.000    20.010     6.364
 133   6 C      0.288  1.039  2.672  0.000    22.117     7.704
 134   8 O     -0.503  1.746  4.757  0.000    23.843     6.547
 135   6 C     -0.084  1.058  3.026  0.000    22.080     6.686
 136   6 C     -0.010  1.052  2.958  0.000    20.728     6.476
 137   6 C     -0.122  1.045  3.077  0.000    22.889     6.820
 138   6 C     -0.121  1.041  3.080  0.000    22.868     6.818
 139   1 H      0.237  0.763  0.000  0.000     0.936     1.515
 140   1 H      0.087  0.913  0.000  0.000     1.909     2.161
 141   1 H      0.061  0.939  0.000  0.000     2.192     2.315
 142   1 H      0.064  0.936  0.000  0.000     2.150     2.293
 143   1 H      0.042  0.958  0.000  0.000     2.419     2.432
 144   1 H      0.047  0.953  0.000  0.000     2.360     2.402
 145   1 H      0.054  0.946  0.000  0.000     2.276     2.359
 146   1 H      0.037  0.963  0.000  0.000     2.495     2.470
 147   1 H      0.051  0.949  0.000  0.000     2.302     2.373
 148   1 H      0.046  0.954  0.000  0.000     2.372     2.409
 149   1 H      0.036  0.964  0.000  0.000     2.500     2.472
 150   7 N     -0.197  1.252  3.944  0.000    25.266     7.465
 151   6 C      0.022  1.065  2.913  0.000    20.204     6.399
 152   6 C      0.278  1.049  2.673  0.000    22.296     7.732
 153   8 O     -0.488  1.747  4.741  0.000    23.531     6.504
 154   6 C     -0.023  1.067  2.956  0.000    20.950     6.510
 155   6 C     -0.071  1.055  3.017  0.000    21.864     6.657
 156   6 C     -0.115  1.037  3.078  0.000    22.769     6.804
 157   6 C     -0.123  1.040  3.083  0.000    22.924     6.828
 158   1 H      0.232  0.768  0.000  0.000     0.957     1.532
 159   1 H      0.073  0.927  0.000  0.000     2.058     2.244
 160   1 H      0.038  0.962  0.000  0.000     2.470     2.458
 161   1 H      0.044  0.956  0.000  0.000     2.401     2.423
 162   1 H      0.054  0.946  0.000  0.000     2.268     2.355
 163   1 H      0.070  0.930  0.000  0.000     2.083     2.257
 164   1 H      0.018  0.982  0.000  0.000     2.769     2.602
 165   1 H      0.052  0.948  0.000  0.000     2.290     2.366
 166   1 H      0.066  0.934  0.000  0.000     2.133     2.284
 167   1 H      0.046  0.954  0.000  0.000     2.374     2.409
 168   1 H      0.056  0.944  0.000  0.000     2.242     2.342
 169   7 N     -0.181  1.245  3.937  0.000    24.927     7.415
 170   6 C      0.030  1.061  2.908  0.000    20.074     6.381
 171   6 C      0.277  1.042  2.681  0.000    22.309     7.735
 172   8 O     -0.512  1.755  4.756  0.000    24.043     6.574
 173   6 C     -0.117  1.038  3.079  0.000    22.798     6.808
 174   1 H      0.185  0.815  0.000  0.000     1.185     1.705
 175   1 H      0.065  0.935  0.000  0.000     2.146     2.291
 176   1 H      0.067  0.933  0.000  0.000     2.118     2.276
 177   1 H      0.075  0.925  0.000  0.000     2.031     2.228
 178   1 H      0.053  0.947  0.000  0.000     2.280     2.361
 179   7 N     -0.180  1.245  3.935  0.000    24.893     7.410
 180   6 C      0.035  1.047  2.918  0.000    19.982     6.363
 181   6 C      0.274  1.043  2.683  0.000    22.362     7.744
 182   8 O     -0.493  1.731  4.762  0.000    23.621     6.516
 183   6 C     -0.102  1.062  3.040  0.000    22.445     6.745
 184   6 C      0.368  1.026  2.606  0.000    20.762     7.457
 185   8 O     -0.613  1.781  4.832  0.000    26.446     6.895
 186   8 O     -0.587  1.726  4.861  0.000    25.808     6.811
 187   1 H      0.221  0.779  0.000  0.000     1.004     1.570
 188   1 H      0.081  0.919  0.000  0.000     1.968     2.194
 189   1 H      0.057  0.943  0.000  0.000     2.238     2.339
 190   1 H      0.064  0.936  0.000  0.000     2.157     2.297
 191   7 N     -0.196  1.248  3.948  0.000    25.248     7.463
 192   6 C     -0.026  1.050  2.976  0.000    21.116     6.556
 193   6 C      0.273  1.046  2.681  0.000    22.389     7.748
 194   8 O     -0.497  1.741  4.755  0.000    23.714     6.529
 195   1 H      0.209  0.791  0.000  0.000     1.062     1.614
 196   1 H      0.084  0.916  0.000  0.000     1.937     2.176
 197   1 H      0.086  0.914  0.000  0.000     1.918     2.166
 198   7 N     -0.192  1.254  3.938  0.000    25.169     7.451
 199   6 C      0.024  1.061  2.915  0.000    20.151     6.388
 200   6 C      0.278  1.040  2.682  0.000    22.298     7.733
 201   8 O     -0.484  1.741  4.743  0.000    23.429     6.490
 202   6 C     -0.020  1.056  2.964  0.000    20.881     6.498
 203   6 C     -0.063  1.046  3.017  0.000    21.709     6.632
 204   6 C     -0.124  1.043  3.081  0.000    22.917     6.823
 205   6 C     -0.100  1.034  3.066  0.000    22.468     6.759
 206   1 H      0.231  0.769  0.000  0.000     0.962     1.536
 207   1 H      0.058  0.942  0.000  0.000     2.228     2.334
 208   1 H      0.051  0.949  0.000  0.000     2.304     2.374
 209   1 H      0.052  0.948  0.000  0.000     2.300     2.372
 210   1 H      0.031  0.969  0.000  0.000     2.566     2.505
 211   1 H      0.064  0.936  0.000  0.000     2.156     2.296
 212   1 H      0.029  0.971  0.000  0.000     2.600     2.522
 213   1 H      0.064  0.936  0.000  0.000     2.151     2.293
 214   1 H      0.038  0.962  0.000  0.000     2.472     2.459
 215   1 H      0.034  0.966  0.000  0.000     2.524     2.484
 216   1 H      0.042  0.958  0.000  0.000     2.422     2.434
 217   7 N     -0.189  1.256  3.933  0.000    25.099     7.441
 218   6 C      0.044  1.054  2.902  0.000    19.852     6.346
 219   6 C      0.270  1.048  2.682  0.000    22.447     7.760
 220   8 O     -0.498  1.737  4.761  0.000    23.740     6.533
 221   6 C     -0.097  1.069  3.027  0.000    22.342     6.729
 222   6 C      0.367  1.028  2.605  0.000    20.785     7.461
 223   8 O     -0.637  1.774  4.863  0.000    27.052     6.973
 224   8 O     -0.641  1.778  4.864  0.000    27.156     6.987
 225   1 H      0.205  0.795  0.000  0.000     1.079     1.628
 226   1 H      0.044  0.956  0.000  0.000     2.399     2.422
 227   1 H      0.033  0.967  0.000  0.000     2.541     2.493
 228   1 H      0.046  0.954  0.000  0.000     2.368     2.406
 229   7 N     -0.072  1.230  3.842  0.000    22.643     7.067
 230   6 C      0.029  1.061  2.910  0.000    20.056     6.371
 231   6 C      0.208  1.078  2.714  0.000    23.597     7.955
 232   8 O     -0.334  1.733  4.601  0.000    20.401     6.056
 233   6 C     -0.069  1.054  3.015  0.000    21.801     6.644
 234   6 C     -0.071  1.050  3.020  0.000    21.826     6.647
 235   6 C     -0.007  1.051  2.956  0.000    20.744     6.492
 236   1 H      0.078  0.922  0.000  0.000     1.997     2.210
 237   1 H      0.063  0.937  0.000  0.000     2.169     2.303
 238   1 H      0.082  0.918  0.000  0.000     1.961     2.190
 239   1 H      0.056  0.944  0.000  0.000     2.242     2.342
 240   1 H      0.083  0.917  0.000  0.000     1.948     2.183
 241   1 H      0.046  0.954  0.000  0.000     2.375     2.410
 242   1 H      0.078  0.922  0.000  0.000     1.999     2.211
 243   7 N     -0.386  1.305  4.081  0.000    29.998     8.134
 244   6 C      0.035  1.062  2.903  0.000    19.994     6.369
 245   6 C      0.266  1.049  2.686  0.000    22.515     7.770
 246   8 O     -0.522  1.762  4.760  0.000    24.266     6.605
 247   6 C     -0.071  1.060  3.011  0.000    21.858     6.656
 248   6 C     -0.011  1.064  2.947  0.000    20.740     6.478
 249   6 C     -0.128  1.042  3.086  0.000    23.018     6.841
 250   6 C     -0.128  1.045  3.083  0.000    23.016     6.841
 251   1 H      0.162  0.838  0.000  0.000     1.322     1.801
 252   1 H      0.030  0.970  0.000  0.000     2.590     2.517
 253   1 H      0.057  0.943  0.000  0.000     2.233     2.337
 254   1 H      0.033  0.967  0.000  0.000     2.538     2.491
 255   1 H      0.029  0.971  0.000  0.000     2.607     2.525
 256   1 H      0.043  0.957  0.000  0.000     2.408     2.427
 257   1 H      0.023  0.977  0.000  0.000     2.690     2.565
 258   1 H      0.063  0.937  0.000  0.000     2.169     2.303
 259   1 H      0.054  0.946  0.000  0.000     2.270     2.356
 260   1 H      0.051  0.949  0.000  0.000     2.313     2.378
 261   1 H      0.034  0.966  0.000  0.000     2.527     2.486
 262   7 N     -0.169  1.249  3.920  0.000    24.649     7.374
 263   6 C      0.025  1.066  2.909  0.000    20.161     6.395
 264   6 C      0.218  1.080  2.702  0.000    23.404     7.922
 265   8 O     -0.373  1.751  4.622  0.000    21.157     6.167
 266   6 C     -0.081  1.062  3.019  0.000    22.045     6.685
 267   6 C     -0.025  1.063  2.961  0.000    20.980     6.515
 268   6 C     -0.119  1.042  3.077  0.000    22.837     6.814
 269   6 C     -0.125  1.041  3.083  0.000    22.949     6.831
 270   1 H      0.246  0.754  0.000  0.000     0.901     1.487
 271   1 H      0.076  0.924  0.000  0.000     2.023     2.224
 272   1 H      0.054  0.946  0.000  0.000     2.267     2.354
 273   1 H      0.065  0.935  0.000  0.000     2.145     2.291
 274   1 H      0.057  0.943  0.000  0.000     2.239     2.340
 275   1 H      0.043  0.957  0.000  0.000     2.404     2.424
 276   1 H      0.042  0.958  0.000  0.000     2.416     2.431
 277   1 H      0.052  0.948  0.000  0.000     2.300     2.371
 278   1 H      0.048  0.952  0.000  0.000     2.343     2.394
 279   1 H      0.048  0.952  0.000  0.000     2.341     2.393
 280   1 H      0.040  0.960  0.000  0.000     2.455     2.450
 281   7 N     -0.387  1.311  4.076  0.000    30.015     8.137
 282   6 C      0.042  1.053  2.904  0.000    19.884     6.352
 283   6 C      0.193  1.094  2.713  0.000    23.884     8.004
 284   8 O     -0.361  1.758  4.603  0.000    20.915     6.131
 285   6 C     -0.083  1.059  3.024  0.000    22.083     6.690
 286   6 C     -0.086  1.051  3.035  0.000    22.134     6.698
 287   6 C     -0.025  1.059  2.966  0.000    21.118     6.559
 288   7 N     -0.146  1.216  3.930  0.000    24.154     7.299
 289   6 C      0.231  1.022  2.747  0.000    23.144     7.876
 290   7 N     -0.236  1.218  4.018  0.000    26.171     7.598
 291   7 N     -0.234  1.223  4.012  0.000    26.135     7.593
 292   1 H      0.170  0.830  0.000  0.000     1.274     1.768
 293   1 H      0.041  0.959  0.000  0.000     2.439     2.442
 294   1 H      0.060  0.940  0.000  0.000     2.205     2.322
 295   1 H      0.068  0.932  0.000  0.000     2.104     2.268
 296   1 H      0.075  0.925  0.000  0.000     2.031     2.228
 297   1 H      0.065  0.935  0.000  0.000     2.141     2.288
 298   1 H      0.092  0.908  0.000  0.000     1.862     2.134
 299   1 H      0.088  0.912  0.000  0.000     1.902     2.157
 300   1 H      0.227  0.773  0.000  0.000     0.979     1.550
 301   1 H      0.249  0.751  0.000  0.000     0.887     1.475
 302   1 H      0.229  0.771  0.000  0.000     0.971     1.543
 303   1 H      0.244  0.756  0.000  0.000     0.907     1.492
 304   1 H      0.228  0.772  0.000  0.000     0.976     1.547
 305   7 N     -0.388  1.314  4.074  0.000    30.048     8.141
 306   6 C      0.038  1.056  2.905  0.000    19.947     6.362
 307   6 C      0.197  1.096  2.706  0.000    23.792     7.988
 308   8 O     -0.378  1.751  4.627  0.000    21.252     6.181
 309   6 C     -0.074  1.056  3.019  0.000    21.917     6.665
 310   6 C     -0.068  1.052  3.016  0.000    21.805     6.648
 311   6 C     -0.082  1.049  3.034  0.000    22.072     6.689
 312   6 C     -0.037  1.058  2.979  0.000    21.330     6.593
 313   7 N     -0.176  1.246  3.930  0.000    24.797     7.396
 314   1 H      0.177  0.823  0.000  0.000     1.231     1.738
 315   1 H      0.055  0.945  0.000  0.000     2.253     2.347
 316   1 H      0.080  0.920  0.000  0.000     1.981     2.201
 317   1 H      0.038  0.962  0.000  0.000     2.482     2.464
 318   1 H      0.041  0.959  0.000  0.000     2.437     2.441
 319   1 H      0.047  0.953  0.000  0.000     2.353     2.399
 320   1 H      0.085  0.915  0.000  0.000     1.931     2.173
 321   1 H      0.059  0.941  0.000  0.000     2.209     2.324
 322   1 H      0.106  0.894  0.000  0.000     1.736     2.060
 323   1 H      0.106  0.894  0.000  0.000     1.732     2.058
 324   1 H      0.274  0.726  0.000  0.000     0.796     1.397
 325   1 H      0.300  0.700  0.000  0.000     0.713     1.323
 326   1 H      0.261  0.739  0.000  0.000     0.843     1.438
 327   7 N     -0.390  1.325  4.065  0.000    30.097     8.148
 328   6 C      0.036  1.061  2.904  0.000    19.997     6.371
 329   6 C      0.207  1.088  2.705  0.000    23.612     7.958
 330   8 O     -0.371  1.752  4.620  0.000    21.112     6.160
 331   6 C     -0.075  1.060  3.014  0.000    21.927     6.667
 332   6 C      0.002  1.092  2.906  0.000    27.973     8.675
 333   6 C     -0.047  1.090  2.957  0.000    29.159     8.855
 334   6 C     -0.047  1.090  2.956  0.000    29.158     8.855
 335   6 C     -0.062  1.077  2.985  0.000    29.547     8.913
 336   6 C     -0.076  1.084  2.992  0.000    29.905     8.967
 337   6 C      0.136  1.052  2.812  0.000    25.021     8.197
 338   8 O     -0.425  1.726  4.699  0.000    21.334     6.235
 339   1 H      0.171  0.829  0.000  0.000     1.269     1.765
 340   1 H      0.062  0.938  0.000  0.000     2.172     2.305
 341   1 H      0.056  0.944  0.000  0.000     2.251     2.346
 342   1 H      0.044  0.956  0.000  0.000     2.390     2.418
 343   1 H      0.046  0.954  0.000  0.000     2.374     2.410
 344   1 H      0.072  0.928  0.000  0.000     2.060     2.244
 345   1 H      0.043  0.957  0.000  0.000     2.406     2.425
 346   1 H      0.050  0.950  0.000  0.000     2.315     2.380
 347   1 H      0.313  0.687  0.000  0.000     0.683     1.298
 348   7 N     -0.390  1.306  4.084  0.000    30.099     8.148
 349   6 C      0.034  1.058  2.908  0.000    20.020     6.374
 350   6 C      0.195  1.092  2.713  0.000    23.842     7.996
 351   8 O     -0.366  1.751  4.615  0.000    21.006     6.145
 352   6 C     -0.078  1.050  3.028  0.000    21.955     6.665
 353   6 C     -0.008  1.065  2.943  0.000    20.727     6.483
 354  16 S     -0.229  1.919  4.255  0.054   150.826    20.670
 355   6 C     -0.065  1.054  3.011  0.000    21.813     6.662
 356   1 H      0.164  0.836  0.000  0.000     1.311     1.794
 357   1 H      0.081  0.919  0.000  0.000     1.970     2.195
 358   1 H      0.049  0.951  0.000  0.000     2.327     2.385
 359   1 H      0.070  0.930  0.000  0.000     2.085     2.258
 360   1 H      0.051  0.949  0.000  0.000     2.308     2.376
 361   1 H      0.054  0.946  0.000  0.000     2.272     2.357
 362   1 H      0.050  0.950  0.000  0.000     2.316     2.380
 363   1 H      0.059  0.941  0.000  0.000     2.208     2.324
 364   1 H      0.067  0.933  0.000  0.000     2.124     2.279
 365   1 H      0.171  0.829  0.000  0.000     1.267     1.763
 366   1 H      0.056  0.944  0.000  0.000     2.248     2.345
 367   1 H      0.172  0.828  0.000  0.000     1.260     1.758
 368   1 H      0.061  0.939  0.000  0.000     2.187     2.312
 369   1 H      0.186  0.814  0.000  0.000     1.179     1.701
 370   1 H      0.076  0.924  0.000  0.000     2.018     2.221
 371   1 H      0.182  0.818  0.000  0.000     1.203     1.718
 372   1 H      0.067  0.933  0.000  0.000     2.121     2.277
 373   1 H      0.187  0.813  0.000  0.000     1.176     1.699
 374   1 H      0.072  0.928  0.000  0.000     2.062     2.246
 375   1 H      0.189  0.811  0.000  0.000     1.164     1.690
 376   1 H      0.076  0.924  0.000  0.000     2.025     2.225

 Mol. C6AA /au·bohr⁶  :    1307562.276274
 Mol. C8AA /au·bohr⁸  :   29525643.164990
 Mol. α(0) /au        :       1716.308683

 
molecular dipole:
                 x           y           z       tot (Debye)
 q only:        5.086      15.564       0.496
   full:        5.462      14.725      -1.240      40.044
molecular quadrupole (traceless):
                xx          xy          yy          xz          yz          zz
 q only:    -2731.540    -402.344    3580.328     -31.924     479.831    -848.788
  q+dip:    -2564.374    -237.172    3468.419     171.393     122.016    -904.044
   full:    -2568.348    -238.507    3470.840     174.495     120.116    -902.491
speedup  1.98
cpu  time for grad   15.04 s
wall time for grad    7.59 s

SCC energy    :    -574.7108961
rep           :       6.9982154
ES            :       1.8043568
AES           :      -0.0595874
AXC           :       0.2023791
disp          :      -0.4865514
XB            :       0.0000000
fix           :       0.0000000
Gborn         :       0.0000000
Gsasa         :       0.0000000
Ghb           :       0.0000000
Gshift        :       0.0000000
Gsolv         :      -0.5034854     -315.94
Etot ala COSMO:    -574.7108961
grad norm     :       0.6235648
total E       :    -567.6698757
atomizationE  :     104.1799951    65373.93
(atE without considering molecular charge,
 total energy contains solvation terms)
H-L gap (eV)  :          1.7620

------------------------------------------------------------------------
 * finished run on 2019/05/10 at 00:41:45.943     
------------------------------------------------------------------------
 total:
 * wall-time:     0 d,  0 h,  0 min,  8.192 sec
 *  cpu-time:     0 d,  0 h,  0 min, 15.989 sec
 * ratio c/w:     1.952 speedup
 SCF:
 * wall-time:     0 d,  0 h,  0 min,  7.972 sec
 *  cpu-time:     0 d,  0 h,  0 min, 15.782 sec
 * ratio c/w:     1.980 speedup

