      -----------------------------------------------------------      
     |                   =====================                   |     
     |                           x T B                           |     
     |                   =====================                   |     
     |                         S. Grimme                         |     
     |          Mulliken Center for Theoretical Chemistry        |     
     |                    University of Bonn                     |     
     |                 Version 6.0.1 (SAW181210)                 |     
      -----------------------------------------------------------      

   This program is distributed in the hope that it will be useful,
   but WITHOUT ANY WARRANTY; without even the implied warranty of
   MERCHANTABILITY or FITNESS FOR A PARTICULAR PURPOSE.
   
   FOR NON-COMMERCIAL, ACADEMIA USE ONLY.
   
   Cite this work as:
   S. Grimme, C. Bannwarth, P. Shushkov, J. Comput. Theory Chem., 2017,
   13, 1989-2009.
   C. Bannwarth, S. Ehlert and S. Grimme., ChemRxiv, 2018, preprint.
   http://doi.org/10.26434/chemrxiv.7246238.v1
   
   for sTDA-xTB:
   S. Grimme and C. Bannwarth, J. Chem. Phys., 2016, 145, 054103.
   
   in the mass-spec context:
   V. Asgeirsson, C. Bauer and S. Grimme, Chem. Sci., 2017, 8, 4879.
   
   if GBSA is used:
   P. Shushkov, F. März and S. Grimme, unpublished.
   
   for ANC optimizer:
   S. Grimme, unpublished.
   Rational Function algorithm used in ANCopt:
   F. Eckert, P. Pulay, H.-J. Werner, J. Comput. Chem., 1997, 18, 1473.
   
   with help from (in alphabetical order)
   C. Bannwarth, F. Bohle, G. Brandenburg, E. Caldeweyher, M. Checinski,
   S. Dohm, S. Ehlert, S. Ehrlich, F. März, H. Neugebauer, J. Pisarek,
   P. Pracht, P. Shushkov, and S. Spicher.
   
 * started run on 2019/02/12 at 03:00:11.274     
========================================================================
 # omp threads = 12
========================================================================
number of atoms            : 309
number of electrons        : 866
charge                     : -3
spin                       : .0
first test random number   : .7805

########################################################################
# WARNING! Please study the warnings concerning your input carefully
#  - Process number higher than OMP_NUM_THREADS, I hope you know what you are doing.
########################################################################

           ------------------------------------------------- 
          |                 G F N 2 - x T B                 |
          | Geometry, Frequencies, Noncovalent interactions |
          |            JCTC 2018 parametrisation            |
           ------------------------------------------------- 
 
      method parameters     
 k(s)        :  1.8500
 k(p)        :  2.2300
 k(d)        :  2.2300
 k(f)        :  2.0000
 kEN (H0ij)  : -2.0000
 D4 a1       :  0.5200
 D4 a2       :  5.0000
 D4 s6       :  1.0000
 D4 s8       :  2.7000
 D4 s9       :  5.0000
 alphaj      :  2.0000

 Solvent             : h2o
 Using internal parameter file: .param_gbsa2_h2o
 Gsolv ref. state (COSMO-RS): gsolv [1 M gas/solution]
 temperature (mdtemp)       :    298.150000000000     
 dielectric constant        :    80.2000000000000     
 rho                        :    1.00000000000000     
 mass                       :    18.0000000000000     
 surface tension            :    15.5689454083859     
 probe radius               :   0.975313790000000     
 vdW radii scaling          :    1.00000000000000     
 Gshift (Eh)                :   1.857443126794793E-003
 c1                         :    1.55243817000000     
 soset                      :   0.130326360000000     
 HB correction              :  T

            Z     q(EN)     CN     RAES       Cart. coordinates
     1  N   5.0   -0.11    4.01    2.88    28.31285    38.67433   -16.08463
     2  C   4.0   -0.02    4.15    3.90    29.80477    40.52039   -17.59333
     3  C   4.0    0.15    3.30    3.05    32.63220    39.81015   -17.55234
     4  O   6.0   -0.30    1.23    1.80    33.83323    39.88346   -15.57979
     5  H   1.0    0.07    1.02    1.43    29.10273    38.52595   -14.30064
     6  H   1.0    0.05    1.02    1.43    26.46707    39.29427   -15.90259
     7  H   1.0    0.06    1.02    1.43    28.36144    36.91316   -16.92153
     8  H   1.0    0.04    1.02    1.43    29.11816    40.59127   -19.53375
     9  H   1.0    0.05    1.02    1.43    29.61110    42.37435   -16.70071
    10  N   5.0   -0.13    3.36    2.00    33.57969    39.13632   -19.78641
    11  C   4.0    0.02    4.26    4.12    36.22409    38.58097   -20.11884
    12  C   4.0    0.16    3.30    3.05    36.87550    35.79339   -19.66394
    13  O   6.0   -0.30    1.26    1.80    35.40423    34.30880   -18.68231
    14  H   1.0    0.11    1.10    1.44    32.50225    39.09096   -21.38402
    15  H   1.0    0.04    1.03    1.43    36.78662    39.11786   -22.02735
    16  H   1.0    0.06    1.03    1.43    37.31778    39.66760   -18.73157
    17  N   5.0   -0.14    3.53    2.10    39.18045    35.18361   -20.51262
    18  C   4.0    0.03    4.40    4.37    40.42386    32.79718   -20.04058
    19  C   4.0    0.15    3.41    3.08    41.85915    33.03379   -17.51671
    20  O   6.0   -0.29    1.25    1.80    42.12189    35.10160   -16.52071
    21  C   4.0   -0.04    4.29    4.17    42.32536    32.22442   -22.15613
    22  C   4.0   -0.02    3.67    3.22    41.31511    32.46890   -24.79382
    23  C   4.0   -0.01    3.63    3.19    38.94359    33.05931   -25.62849
    24  C   4.0    0.00    3.89    3.45    42.83268    32.16076   -27.01325
    25  N   5.0   -0.12    3.49    2.07    38.86097    33.08814   -28.21266
    26  C   4.0    0.04    3.90    3.46    41.22042    32.58049   -29.10896
    27  C   4.0   -0.05    3.40    3.08    45.37682    31.60705   -27.43357
    28  C   4.0   -0.05    3.40    3.08    42.10657    32.42930   -31.57608
    29  C   4.0   -0.05    3.37    3.07    46.23926    31.46769   -29.88436
    30  C   4.0   -0.05    3.37    3.07    44.62316    31.86853   -31.93636
    31  H   1.0    0.08    1.08    1.44    40.34067    36.58010   -21.09194
    32  H   1.0    0.06    1.05    1.44    38.97030    31.33348   -19.89402
    33  H   1.0    0.05    1.03    1.43    43.93413    33.51628   -21.95597
    34  H   1.0    0.04    1.03    1.43    43.07098    30.31612   -21.88873
    35  H   1.0    0.05    1.02    1.43    37.27067    33.45780   -24.55599
    36  H   1.0    0.10    1.08    1.44    37.41266    33.77666   -29.27265
    37  H   1.0    0.05    1.03    1.43    46.64543    31.29507   -25.86636
    38  H   1.0    0.05    1.03    1.43    40.84755    32.76163   -33.14401
    39  H   1.0    0.04    1.03    1.43    48.20628    31.03475   -30.23017
    40  H   1.0    0.04    1.03    1.43    45.36326    31.73163   -33.83261
    41  N   5.0   -0.14    3.48    2.06    42.79636    30.88189   -16.56906
    42  C   4.0    0.04    4.51    4.55    44.30746    30.80389   -14.28900
    43  C   4.0    0.14    3.43    3.09    46.88051    29.65441   -14.92657
    44  O   6.0   -0.31    1.23    1.80    47.03746    27.74029   -16.22377
    45  C   4.0   -0.02    4.26    4.13    43.01169    29.20806   -12.22280
    46  C   4.0   -0.08    4.12    3.83    44.49972    29.38929    -9.75980
    47  C   4.0   -0.06    4.13    3.85    40.29965    30.10320   -11.84269
    48  H   1.0    0.09    1.06    1.44    42.54265    29.21961   -17.46826
    49  H   1.0    0.07    1.07    1.44    44.53671    32.75085   -13.63194
    50  H   1.0    0.05    1.05    1.44    42.99871    27.24009   -12.87031
    51  H   1.0    0.04    1.00    1.43    43.58544    28.29313    -8.28363
    52  H   1.0    0.05    1.00    1.43    46.42171    28.70623   -10.00891
    53  H   1.0    0.05    1.00    1.43    44.60161    31.34535    -9.12880
    54  H   1.0    0.04    1.00    1.43    39.41911    29.03424   -10.33023
    55  H   1.0    0.05    1.00    1.43    40.29266    32.09488   -11.33220
    56  H   1.0    0.07    1.00    1.43    39.18861    29.85150   -13.55349
    57  N   5.0   -0.14    3.47    2.06    48.85670    30.89139   -13.96500
    58  C   4.0    0.04    4.28    4.16    51.42956    30.15554   -14.45214
    59  C   4.0    0.09    3.24    3.04    52.42741    28.27869   -12.49638
    60  O   6.0   -0.32    1.16    1.80    52.01626    28.46840   -10.21950
    61  C   4.0    0.03    4.17    3.95    53.09736    32.53163   -14.30082
    62  O   6.0   -0.27    2.06    1.83    55.68121    31.86795   -14.07599
    63  H   1.0    0.11    1.12    1.45    48.56424    32.46304   -12.85133
    64  H   1.0    0.05    1.05    1.44    51.52565    29.28858   -16.33127
    65  H   1.0    0.04    1.01    1.43    52.76649    33.64626   -16.00730
    66  H   1.0    0.05    1.01    1.43    52.49177    33.64648   -12.66107
    67  H   1.0    0.10    1.02    1.43    56.65006    33.37713   -14.44679
    68  N   5.0   -0.21    3.25    1.97    55.36140    31.65038    -6.62974
    69  C   4.0    0.02    4.31    4.21    53.74453    32.58739    -4.63525
    70  C   4.0    0.14    3.41    3.08    52.48578    30.42758    -3.18528
    71  O   6.0   -0.31    1.23    1.80    52.06851    30.61403    -0.91768
    72  C   4.0   -0.04    4.26    4.12    51.86341    34.53140    -5.66128
    73  C   4.0   -0.03    4.18    3.96    49.76243    33.39914    -7.27188
    74  C   4.0    0.24    3.10    3.02    48.42692    35.54210    -8.79834
    75  O   6.0   -0.31    1.17    1.80    47.62119    37.38575    -7.60037
    76  O   6.0   -0.32    1.24    1.80    48.30729    35.24577   -11.14902
    77  H   1.0    0.10    1.03    1.43    54.71240    31.74743    -8.41941
    78  H   1.0    0.03    1.06    1.44    54.97468    33.52999    -3.25116
    79  H   1.0    0.04    1.03    1.43    51.00812    35.54931    -4.08684
    80  H   1.0    0.04    1.03    1.43    52.92289    35.91344    -6.77522
    81  H   1.0    0.06    1.03    1.43    50.46704    31.99981    -8.60695
    82  H   1.0    0.05    1.03    1.43    48.34572    32.49911    -6.07183
    83  N   5.0   -0.15    3.47    2.06    51.98661    28.34138    -4.51161
    84  C   4.0    0.04    4.34    4.28    50.91716    26.11783    -3.32775
    85  C   4.0    0.08    3.25    3.04    52.82686    24.92755    -1.51995
    86  O   6.0   -0.31    1.11    1.80    52.21171    24.31014     0.63359
    87  C   4.0   -0.04    4.33    4.26    50.09134    24.22901    -5.35160
    88  C   4.0   -0.02    3.57    3.15    48.91494    21.91527    -4.20363
    89  C   4.0   -0.05    3.47    3.10    46.44314    21.98911    -3.32067
    90  C   4.0   -0.05    3.47    3.10    50.28434    19.69008    -3.97265
    91  C   4.0   -0.05    3.37    3.07    45.36625    19.87737    -2.21882
    92  C   4.0   -0.06    3.37    3.07    49.19088    17.55685    -2.93126
    93  C   4.0   -0.06    3.37    3.07    46.73004    17.65138    -2.04356
    94  H   1.0    0.10    1.09    1.44    52.15653    28.33615    -6.41786
    95  H   1.0    0.06    1.05    1.44    49.29069    26.68024    -2.16916
    96  H   1.0    0.04    1.03    1.43    48.73825    25.18687    -6.58048
    97  H   1.0    0.04    1.03    1.43    51.73695    23.70449    -6.47997
    98  H   1.0    0.04    1.03    1.43    45.36746    23.71494    -3.50827
    99  H   1.0    0.04    1.03    1.43    52.20333    19.60384    -4.66637
   100  H   1.0    0.03    1.03    1.43    43.46306    19.96386    -1.49115
   101  H   1.0    0.03    1.03    1.43    50.26076    15.82329    -2.83766
   102  H   1.0    0.03    1.03    1.43    45.87718    15.99037    -1.22054
   103  O   6.0   -0.32    1.92    1.82    26.62433    44.12803   -12.31187
   104  H   1.0    0.13    0.97    1.43    28.28073    44.00214   -11.56974
   105  H   1.0    0.15    1.01    1.43    25.54716    43.18315   -11.16567
   106  O   6.0   -0.33    1.93    1.82    35.29849    33.75205   -38.63955
   107  H   1.0    0.12    0.97    1.43    35.74319    32.51635   -37.39006
   108  H   1.0    0.15    1.03    1.43    35.49495    35.35611   -37.76499
   109  O   6.0   -0.33    1.99    1.83    36.34828    37.82363   -35.73079
   110  H   1.0    0.16    1.03    1.43    35.94069    37.19745   -34.02786
   111  H   1.0    0.12    0.97    1.43    37.80173    38.89213   -35.54355
   112  N   5.0   -0.19    3.29    1.98    52.95159    21.34762   -20.51262
   113  C   4.0    0.03    4.32    4.23    50.26317    21.46401   -20.04058
   114  C   4.0    0.14    3.40    3.08    49.75044    20.10271   -17.51671
   115  O   6.0   -0.31    1.25    1.80    51.40985    18.84127   -16.52071
   116  C   4.0   -0.04    4.29    4.17    48.81640    20.10364   -22.15613
   117  C   4.0   -0.03    3.67    3.22    49.53325    20.85630   -24.79382
   118  C   4.0   -0.02    3.65    3.20    51.23032    22.61490   -25.62849
   119  C   4.0   -0.00    3.89    3.45    48.50760    19.69612   -27.01325
   120  N   5.0   -0.13    3.49    2.07    51.29659    22.67203   -28.21266
   121  C   4.0    0.03    3.90    3.46    49.67724    20.88251   -29.10896
   122  C   4.0   -0.06    3.40    3.08    46.75601    17.76969   -27.43357
   123  C   4.0   -0.06    3.40    3.08    49.10323    20.19068   -31.57608
   124  C   4.0   -0.06    3.37    3.07    46.20410    17.09247   -29.88436
   125  C   4.0   -0.06    3.37    3.07    47.35929    18.29164   -31.93636
   126  H   1.0    0.08    1.03    1.43    53.58088    19.64460   -21.09194
   127  H   1.0    0.04    1.05    1.44    49.72235    23.45468   -19.89402
   128  H   1.0    0.04    1.03    1.43    49.13080    18.06448   -21.95597
   129  H   1.0    0.04    1.03    1.43    46.79095    20.41207   -21.88873
   130  H   1.0    0.04    1.03    1.43    52.41188    23.86444   -24.55599
   131  H   1.0    0.10    1.08    1.44    52.61703    23.58205   -29.27265
   132  H   1.0    0.04    1.03    1.43    45.85152    16.82703   -25.86636
   133  H   1.0    0.05    1.03    1.43    50.02054    21.11487   -33.14401
   134  H   1.0    0.03    1.03    1.43    44.84565    15.60545   -30.23017
   135  H   1.0    0.03    1.03    1.43    46.87068    17.71914   -33.83261
   136  N   5.0   -0.14    3.48    2.06    47.41824    20.36701   -16.56906
   137  C   4.0    0.03    4.40    4.39    46.59514    19.09736   -14.28900
   138  C   4.0    0.06    3.23    3.04    44.31313    17.44377   -14.92657
   139  O   6.0   -0.31    1.13    1.80    42.57698    18.26491   -16.22377
   140  C   4.0   -0.02    4.26    4.12    45.86100    21.01745   -12.22280
   141  C   4.0   -0.09    4.11    3.83    45.27393    19.63816    -9.75980
   142  C   4.0   -0.07    4.13    3.85    47.99223    22.91857   -11.84269
   143  H   1.0    0.09    1.06    1.44    46.10552    21.41787   -17.46826
   144  H   1.0    0.04    1.06    1.44    48.16663    17.92535   -13.63194
   145  H   1.0    0.05    1.05    1.44    44.16317    22.01267   -12.87031
   146  H   1.0    0.04    1.00    1.43    44.78176    20.97803    -8.28363
   147  H   1.0    0.03    1.00    1.43    43.72138    18.31520   -10.00891
   148  H   1.0    0.03    1.00    1.43    46.91698    18.57189    -9.12880
   149  H   1.0    0.04    1.00    1.43    47.50674    24.21562   -10.33023
   150  H   1.0    0.04    1.00    1.43    49.72057    21.92878   -11.33220
   151  H   1.0    0.06    1.00    1.43    48.32977    24.00661   -13.55349
   152  N   5.0   -0.21    3.25    1.97    36.00114    21.62179   -16.56906
   153  C   4.0    0.02    4.41    4.41    35.31315    22.96944   -14.28900
   154  C   4.0    0.14    3.43    3.09    35.02210    25.77251   -14.92657
   155  O   6.0   -0.31    1.23    1.80    36.60130    26.86549   -16.22377
   156  C   4.0   -0.02    4.27    4.13    37.34306    22.64518   -12.22280
   157  C   4.0   -0.09    4.12    3.83    36.44209    23.84324    -9.75980
   158  C   4.0   -0.08    4.13    3.86    37.92387    19.84892   -11.84269
   159  H   1.0    0.10    1.03    1.43    37.56758    22.23321   -17.46826
   160  H   1.0    0.02    1.05    1.44    33.51241    22.19450   -13.63194
   161  H   1.0    0.05    1.05    1.44    39.05386    23.61793   -12.87031
   162  H   1.0    0.03    1.00    1.43    37.84854    23.59953    -8.28363
   163  H   1.0    0.05    1.00    1.43    36.07265    25.84926   -10.00891
   164  H   1.0    0.03    1.00    1.43    34.69715    22.95345    -9.12880
   165  H   1.0    0.03    1.00    1.43    39.28988    19.62084   -10.33023
   166  H   1.0    0.02    1.00    1.43    36.20251    18.84703   -11.33220
   167  H   1.0    0.05    1.00    1.43    38.69736    19.01258   -13.55349
   168  N   5.0   -0.15    3.45    2.05    32.96275    26.86545   -13.96500
   169  C   4.0    0.04    4.39    4.36    32.31358    29.46154   -14.45214
   170  C   4.0    0.16    3.49    3.11    33.44006    31.26412   -12.49638
   171  O   6.0   -0.32    1.29    1.80    33.48134    30.81320   -10.21950
   172  C   4.0    0.02    4.18    3.95    29.42193    29.71785   -14.30082
   173  O   6.0   -0.27    2.10    1.84    28.70477    32.28737   -14.07599
   174  H   1.0    0.06    1.06    1.44    31.74789    25.82635   -12.85133
   175  H   1.0    0.06    1.06    1.44    33.01635    29.97823   -16.33127
   176  H   1.0    0.03    1.01    1.43    28.62207    28.87399   -16.00730
   177  H   1.0    0.03    1.01    1.43    28.75924    28.63596   -12.66107
   178  H   1.0    0.10    1.02    1.43    26.91336    32.37183   -14.44679
   179  N   5.0   -0.14    3.41    2.03    34.09490    33.51390   -13.43424
   180  C   4.0    0.03    4.27    4.13    34.96528    35.49837   -11.76912
   181  C   4.0    0.17    3.39    3.08    33.12760    35.94101    -9.60102
   182  O   6.0   -0.29    1.24    1.80    33.85414    36.52676    -7.48969
   183  H   1.0    0.11    1.09    1.44    34.29485    33.74265   -15.32778
   184  H   1.0    0.06    1.02    1.43    36.82038    35.06104   -10.96401
   185  H   1.0    0.07    1.04    1.43    35.09689    37.25549   -12.85168
   186  N   5.0   -0.14    3.46    2.05    30.65784    35.86657   -10.23083
   187  C   4.0    0.04    4.33    4.25    28.73688    36.36095    -8.32360
   188  C   4.0    0.09    3.27    3.05    28.99893    34.58901    -6.06775
   189  O   6.0   -0.29    1.11    1.80    29.04077    35.35563    -3.88330
   190  C   4.0   -0.05    4.27    4.14    26.08596    36.09681    -9.45998
   191  C   4.0   -0.04    4.19    3.97    24.01785    36.64662    -7.52595
   192  C   4.0    0.25    3.09    3.02    23.78255    39.53945    -6.95304
   193  O   6.0   -0.33    1.24    1.80    24.38636    40.99679    -8.70762
   194  O   6.0   -0.31    1.16    1.80    22.98825    40.14209    -4.82422
   195  H   1.0    0.10    1.10    1.44    30.12801    34.83419   -11.76578
   196  H   1.0    0.07    1.05    1.44    29.00407    38.28263    -7.59735
   197  H   1.0    0.05    1.04    1.43    25.84986    37.48256   -10.96648
   198  H   1.0    0.03    1.03    1.43    25.86536    34.18638   -10.20105
   199  H   1.0    0.03    1.02    1.43    22.18272    36.05081    -8.26174
   200  H   1.0    0.05    1.03    1.43    24.32441    35.65549    -5.74382
   201  N   5.0   -0.20    3.21    1.96    33.60617    30.85103    -4.51161
   202  C   4.0    0.03    4.24    4.08    36.06655    31.03664    -3.32775
   203  C   4.0    0.09    3.23    3.04    36.14250    33.28563    -1.51995
   204  O   6.0   -0.31    1.11    1.80    36.98477    33.06160     0.63359
   205  C   4.0   -0.03    4.33    4.26    38.11521    31.26587    -5.35160
   206  C   4.0   -0.01    3.57    3.15    40.70718    31.40395    -4.20363
   207  C   4.0   -0.05    3.47    3.10    41.87913    29.22638    -3.32067
   208  C   4.0   -0.03    3.47    3.10    41.94955    33.70248    -3.97265
   209  C   4.0   -0.04    3.37    3.07    44.24639    29.34964    -2.21882
   210  C   4.0   -0.04    3.37    3.07    44.34371    33.82213    -2.93126
   211  C   4.0   -0.04    3.38    3.07    45.49226    31.64371    -2.04356
   212  H   1.0    0.11    1.05    1.44    33.52574    31.00081    -6.41786
   213  H   1.0    0.04    1.05    1.44    36.39272    29.34687    -2.16916
   214  H   1.0    0.04    1.03    1.43    37.96223    29.61513    -6.58048
   215  H   1.0    0.06    1.03    1.43    37.74666    32.95327    -6.47997
   216  H   1.0    0.04    1.03    1.43    40.92236    27.43190    -3.50827
   217  H   1.0    0.06    1.03    1.43    41.06474    35.40749    -4.66637
   218  H   1.0    0.05    1.03    1.43    45.12308    27.65818    -1.49115
   219  H   1.0    0.05    1.03    1.43    45.31008    35.61545    -2.83766
   220  H   1.0    0.06    1.03    1.43    47.35718    31.73562    -1.22054
   221  N   5.0   -0.24    3.20    1.95    58.35689    34.91356   -37.83899
   222  C   4.0    0.02    4.22    4.05    57.46133    33.51236   -35.66609
   223  C   4.0    0.07    3.21    3.04    59.54142    31.76724   -34.65319
   224  O   6.0   -0.32    1.14    1.80    59.99211    31.65262   -32.37246
   225  C   4.0   -0.05    4.35    4.29    55.12099    31.94875   -36.28125
   226  C   4.0   -0.03    4.17    3.94    52.73169    33.51062   -36.78833
   227  C   4.0   -0.09    4.11    3.82    50.54252    31.69039   -37.27170
   228  C   4.0   -0.09    4.11    3.81    52.08145    35.25736   -34.58317
   229  H   1.0    0.06    1.02    1.43    57.46652    34.67341   -39.52210
   230  H   1.0    0.04    1.06    1.44    57.05221    34.84109   -34.12703
   231  H   1.0    0.03    1.03    1.43    55.54903    30.76534   -37.91692
   232  H   1.0    0.04    1.03    1.43    54.77275    30.67478   -34.69176
   233  H   1.0    0.02    1.05    1.44    53.05629    34.64247   -38.48834
   234  H   1.0    0.03    1.00    1.43    48.86436    32.70900   -37.87260
   235  H   1.0    0.02    1.00    1.43    51.04221    30.31985   -38.71923
   236  H   1.0    0.04    1.00    1.43    50.09835    30.65721   -35.54883
   237  H   1.0    0.03    1.00    1.43    50.19539    36.02699   -34.83331
   238  H   1.0    0.04    1.00    1.43    52.11692    34.21146   -32.81167
   239  H   1.0    0.03    1.00    1.43    53.40803    36.81712   -34.45796
   240  N   5.0   -0.20    3.26    1.97    59.05293    28.96603   -27.57398
   241  C   4.0    0.03    4.28    4.16    56.79691    27.53414   -28.11244
   242  C   4.0    0.25    3.17    3.03    57.40233    25.47863   -30.15599
   243  O   6.0   -0.30    1.19    1.80    59.64783    25.02908   -30.62696
   244  C   4.0   -0.03    4.29    4.18    54.67493    29.27444   -29.03145
   245  C   4.0   -0.03    3.69    3.23    54.11218    31.39115   -27.25718
   246  C   4.0   -0.02    3.62    3.18    55.10637    33.76714   -27.41113
   247  C   4.0   -0.00    3.88    3.43    52.46620    31.38783   -25.11640
   248  N   5.0   -0.13    3.49    2.07    54.17027    35.26336   -25.52814
   249  C   4.0    0.03    3.90    3.46    52.56849    33.85799   -24.07851
   250  C   4.0   -0.05    3.40    3.08    50.91177    29.58151   -23.98556
   251  C   4.0   -0.06    3.40    3.08    51.16675    34.52432   -21.96017
   252  C   4.0   -0.04    3.37    3.07    49.53926    30.25043   -21.87583
   253  C   4.0   -0.04    3.38    3.07    49.66442    32.69380   -20.87726
   254  O   6.0   -0.33    1.22    1.80    55.51720    24.44296   -31.16291
   255  H   1.0    0.11    1.05    1.44    59.61728    30.13382   -28.98481
   256  H   1.0    0.04    1.05    1.44    56.24726    26.54154   -26.37794
   257  H   1.0    0.05    1.03    1.43    55.27754    30.05176   -30.84957
   258  H   1.0    0.04    1.03    1.43    52.99767    28.11528   -29.35111
   259  H   1.0    0.04    1.02    1.43    56.43926    34.46819   -28.76534
   260  H   1.0    0.06    1.05    1.44    54.67295    37.06537   -25.19233
   261  H   1.0    0.05    1.03    1.43    50.75708    27.70440   -24.76998
   262  H   1.0    0.04    1.03    1.43    51.24385    36.41266   -21.19640
   263  H   1.0    0.06    1.03    1.43    48.33879    28.87444   -20.95951
   264  H   1.0    0.06    1.03    1.43    48.53245    33.14571   -19.23725
   265  N   5.0   -0.24    3.14    1.94    24.99639    39.25193   -27.60312
   266  C   4.0    0.00    4.16    3.92    26.94378    40.08860   -25.90804
   267  C   4.0    0.15    3.33    3.06    29.40949    38.59349   -25.98252
   268  O   6.0   -0.32    1.29    1.80    31.09391    39.14447   -24.47206
   269  H   1.0    0.07    1.02    1.43    25.04271    39.94813   -29.38443
   270  H   1.0    0.04    1.03    1.43    27.42294    42.04998   -26.33893
   271  H   1.0    0.04    1.03    1.43    26.20026    39.97281   -23.97961
   272  N   5.0   -0.14    3.51    2.08    29.53205    36.65833   -27.57398
   273  C   4.0    0.04    4.39    4.36    31.90011    35.42050   -28.11244
   274  C   4.0    0.24    3.19    3.03    33.37753    36.97256   -30.15599
   275  O   6.0   -0.30    1.19    1.80    32.64409    39.14200   -30.62696
   276  C   4.0   -0.04    4.29    4.18    31.45395    32.71266   -29.03145
   277  C   4.0   -0.02    3.69    3.23    29.90220    31.16695   -27.25718
   278  C   4.0   -0.03    3.62    3.18    27.34745    30.83995   -27.41113
   279  C   4.0    0.00    3.88    3.43    30.72807    29.74315   -25.11640
   280  N   5.0   -0.14    3.49    2.07    26.51972    29.28115   -25.52814
   281  C   4.0    0.03    3.90    3.46    28.53770    28.59665   -24.07851
   282  C   4.0   -0.05    3.40    3.08    33.06960    29.30013   -23.98556
   283  C   4.0   -0.06    3.40    3.08    28.66151    27.04955   -21.96017
   284  C   4.0   -0.03    3.37    3.07    33.17655    27.77704   -21.87583
   285  C   4.0   -0.05    3.38    3.07    30.99796    26.66375   -20.87726
   286  O   6.0   -0.34    1.30    1.80    35.21700    35.85782   -31.16291
   287  H   1.0    0.07    1.08    1.44    28.23853    36.56316   -28.98481
   288  H   1.0    0.06    1.05    1.44    33.03455    35.44078   -26.37794
   289  H   1.0    0.04    1.03    1.43    30.47948    32.84587   -30.84957
   290  H   1.0    0.05    1.03    1.43    33.29644    31.83969   -29.35111
   291  H   1.0    0.03    1.02    1.43    26.07387    31.64374   -28.76534
   292  H   1.0    0.05    1.05    1.44    24.70780    28.81548   -25.19233
   293  H   1.0    0.05    1.03    1.43    34.77257    30.10472   -24.76998
   294  H   1.0    0.03    1.03    1.43    26.98762    26.17215   -21.19640
   295  H   1.0    0.06    1.03    1.43    34.96843    27.42540   -20.95951
   296  H   1.0    0.05    1.03    1.43    31.17258    25.45748   -19.23725
   297  H   1.0    0.05    1.05    1.44    53.47294    26.80469   -13.04888
   298  H   1.0    0.08    1.07    1.44    56.81917    32.52641    -6.63752
   299  H   1.0    0.04    1.04    1.44    54.60793    24.63990    -2.08217
   300  H   1.0    0.07    1.07    1.44    58.24220    36.58127   -37.52574
   301  H   1.0    0.04    1.04    1.43    60.54947    30.70598   -35.84846
   302  H   1.0    0.09    1.08    1.44    58.79337    29.94078   -26.20465
   303  H   1.0    0.08    1.09    1.44    25.07637    37.56123   -27.76948
   304  H   1.0    0.08    1.09    1.44    53.36369    22.46489   -21.72689
   305  H   1.0    0.03    1.04    1.43    44.22328    15.66897   -14.28386
   306  H   1.0    0.08    1.08    1.44    36.28192    19.98577   -16.19872
   307  H   1.0    0.05    1.05    1.44    29.14455    32.72502    -6.34231
   308  H   1.0    0.08    1.07    1.44    32.91584    29.33880    -4.15222
   309  H   1.0    0.07    1.04    1.44    35.50109    34.97191    -2.08217

  Z AO/shell   Hii/eV     exponent
  1     Wed Apr 25 08:07:45 CEST 2018   EN: 2.200 GM2: 0.406  GM3: 0.0800  RAES: 1.40
     1s    -10.707211    1.230000
  6     Wed Apr 25 08:07:45 CEST 2018   EN: 2.550 GM2: 0.538  GM3: 0.1500  RAES: 3.00
     2s    -13.970922    2.096432
     2p    -10.063292    1.800000
  7     Wed Apr 25 08:07:45 CEST 2018   EN: 3.040 GM2: 0.461  GM3:-0.0640  RAES: 1.90
     2s    -16.686243    2.339881
     2p    -12.523956    2.014332
  8     Wed Apr 25 08:07:45 CEST 2018   EN: 3.440 GM2: 0.452  GM3:-0.0517  RAES: 1.80
     2s    -20.229985    2.439742
     2p    -15.503117    2.137023
 no old-style atom pair restraining (fixing) potential

molecular fragmentation (1/2 indicates fragments):
111111111111111111111111111111111111111111111111111111111111111111122222
222222222222222222222222222222222222222222222222222222222222222222222222
222222222222222222222222222222222222222222222222222222222222222222222222
222222222222222222222222222222222222222222222222222222222222222222222222
222222221222222222222
# atoms in fragment 1/2:    68   241
 fragment masses (1/2) :      489.55     1719.95
CMA distance (Bohr)    :   3.962
constraining FC (au)   :  0.0500
           ------------------------------------------------- 
          |        Self-Consistent Charge Iterations        |
           ------------------------------------------------- 

 Ncao       : 783
 Nao        : 783
 Nshell     : 467
 Nel        : 866
 T(el)      :   500.0
 intcut     :    35.0
 scfconv/Eh :  0.100E-06
   qconv/e  :  0.100E-04
 intneglect :  0.100E-08
 broydamp   :      0.400
 iter      E             dE          RMSdq      gap      omega  full diag
   1   -494.5963745 -0.494596E+03  0.477E+00    2.75       0.0  T
   2   -495.6890310 -0.109266E+01  0.232E+00    1.37       1.0  T
   3   -495.7421146 -0.530836E-01  0.128E+00    1.58       1.0  T
   4   -495.8319299 -0.898152E-01  0.295E-01    0.80       1.0  T
   5   -495.8403355 -0.840561E-02  0.150E-01    0.93       1.0  T
   6   -495.8425082 -0.217275E-02  0.670E-02    0.97       1.0  T
   7   -495.8429332 -0.424998E-03  0.261E-02    0.96       1.0  T
   8   -495.8429687 -0.354949E-04  0.125E-02    0.97       1.0  T
   9   -495.8429779 -0.921117E-05  0.520E-03    0.97       1.1  T
  10   -495.8429799 -0.194887E-05  0.263E-03    0.97       2.2  T
  11   -495.8429803 -0.429985E-06  0.117E-03    0.97       4.9  T
  12   -495.8429804 -0.129229E-06  0.544E-04    0.97      10.5  T
  13   -495.8429805 -0.197476E-07  0.271E-04    0.97      21.0  T
  14   -495.8429805 -0.598305E-08  0.148E-04    0.97      38.4  T
  15   -495.8429805 -0.189993E-08  0.540E-05    0.97     105.3  T
  16   -495.8429805 -0.240220E-09  0.265E-05    0.97     214.9  T
speedup  8.26
cpu  time for SCC   21.66 s
wall time for SCC    2.62 s

   *** convergence criteria satisfied after 16 iterations ***

          eigenvalues
 #    :         421        422        423        424        425        426        427        428
 occ. :        2.000      2.000      2.000      2.000      2.000      2.000      2.000      2.000
 eps  :       -10.135    -10.076    -10.003     -9.944     -9.894     -9.833     -9.830     -9.817
 #    :         429        430        431        432        433        434        435        436
 occ. :        2.000      2.000      2.000      2.000      2.000      0.000      0.000      0.000
 eps  :        -9.808     -9.784     -9.725     -9.592     -9.251     -8.285     -8.073     -7.848
 #    :         437        438        439        440        441        442        443        444
 occ. :        0.000      0.000      0.000      0.000      0.000      0.000      0.000      0.000
 eps  :        -7.813     -7.625     -7.579     -6.523     -6.428     -6.380     -6.337     -6.302


   #   Z            q   n(s)   n(p)   n(d)      C6AA      α(0)
   1   7 N     -0.122  1.218  3.904  0.000    23.633     7.220
   2   6 C     -0.087  1.067  3.020  0.000    22.262     6.735
   3   6 C      0.270  1.029  2.700  0.000    22.433     7.756
   4   8 O     -0.479  1.753  4.727  0.000    23.335     6.477
   5   1 H      0.278  0.722  0.000  0.000     0.784     1.387
   6   1 H      0.319  0.681  0.000  0.000     0.659     1.272
   7   1 H      0.300  0.700  0.000  0.000     0.714     1.324
   8   1 H      0.136  0.864  0.000  0.000     1.487     1.907
   9   1 H      0.155  0.845  0.000  0.000     1.358     1.822
  10   7 N     -0.151  1.239  3.912  0.000    24.264     7.316
  11   6 C     -0.037  1.050  2.987  0.000    21.291     6.581
  12   6 C      0.276  1.041  2.683  0.000    22.327     7.737
  13   8 O     -0.467  1.727  4.740  0.000    23.062     6.439
  14   1 H      0.250  0.750  0.000  0.000     0.882     1.471
  15   1 H      0.082  0.918  0.000  0.000     1.955     2.187
  16   1 H      0.094  0.906  0.000  0.000     1.845     2.124
  17   7 N     -0.164  1.240  3.924  0.000    24.544     7.358
  18   6 C      0.022  1.061  2.917  0.000    20.206     6.402
  19   6 C      0.275  1.043  2.682  0.000    22.357     7.743
  20   8 O     -0.492  1.751  4.741  0.000    23.615     6.515
  21   6 C     -0.061  1.049  3.012  0.000    21.659     6.625
  22   6 C     -0.036  1.063  2.973  0.000    28.847     8.809
  23   6 C     -0.003  1.061  2.942  0.000    28.068     8.689
  24   6 C     -0.024  1.074  2.950  0.000    28.431     8.733
  25   7 N     -0.122  1.238  3.883  0.000    23.640     7.221
  26   6 C      0.049  1.061  2.890  0.000    26.792     8.484
  27   6 C     -0.042  1.077  2.965  0.000    29.043     8.837
  28   6 C     -0.056  1.072  2.984  0.000    29.381     8.888
  29   6 C     -0.041  1.074  2.967  0.000    29.018     8.834
  30   6 C     -0.041  1.077  2.964  0.000    29.013     8.833
  31   1 H      0.203  0.797  0.000  0.000     1.089     1.634
  32   1 H      0.080  0.920  0.000  0.000     1.978     2.200
  33   1 H      0.044  0.956  0.000  0.000     2.401     2.423
  34   1 H      0.052  0.948  0.000  0.000     2.298     2.371
  35   1 H      0.030  0.970  0.000  0.000     2.584     2.514
  36   1 H      0.198  0.802  0.000  0.000     1.114     1.653
  37   1 H      0.014  0.986  0.000  0.000     2.823     2.628
  38   1 H      0.033  0.967  0.000  0.000     2.546     2.495
  39   1 H      0.010  0.990  0.000  0.000     2.893     2.660
  40   1 H      0.032  0.968  0.000  0.000     2.558     2.501
  41   7 N     -0.171  1.239  3.931  0.000    24.698     7.381
  42   6 C      0.025  1.062  2.913  0.000    20.152     6.392
  43   6 C      0.273  1.042  2.685  0.000    22.390     7.749
  44   8 O     -0.490  1.738  4.752  0.000    23.566     6.509
  45   6 C     -0.007  1.060  2.947  0.000    20.674     6.467
  46   6 C     -0.102  1.036  3.066  0.000    22.509     6.765
  47   6 C     -0.099  1.035  3.064  0.000    22.440     6.754
  48   1 H      0.205  0.795  0.000  0.000     1.082     1.629
  49   1 H      0.061  0.939  0.000  0.000     2.182     2.310
  50   1 H      0.046  0.954  0.000  0.000     2.365     2.405
  51   1 H      0.059  0.941  0.000  0.000     2.215     2.327
  52   1 H      0.034  0.966  0.000  0.000     2.532     2.488
  53   1 H      0.022  0.978  0.000  0.000     2.708     2.573
  54   1 H      0.052  0.948  0.000  0.000     2.295     2.369
  55   1 H      0.024  0.976  0.000  0.000     2.675     2.558
  56   1 H      0.045  0.955  0.000  0.000     2.389     2.417
  57   7 N     -0.196  1.262  3.934  0.000    25.249     7.463
  58   6 C      0.037  1.052  2.911  0.000    19.956     6.362
  59   6 C      0.209  1.090  2.701  0.000    23.566     7.950
  60   8 O     -0.347  1.739  4.609  0.000    20.659     6.094
  61   6 C      0.084  1.038  2.879  0.000    19.388     6.305
  62   8 O     -0.482  1.727  4.755  0.000    22.514     6.405
  63   1 H      0.231  0.769  0.000  0.000     0.963     1.537
  64   1 H      0.078  0.922  0.000  0.000     1.996     2.209
  65   1 H      0.044  0.956  0.000  0.000     2.393     2.419
  66   1 H      0.045  0.955  0.000  0.000     2.385     2.415
  67   1 H      0.362  0.638  0.000  0.000     0.562     1.177
  68   7 N     -0.389  1.308  4.081  0.000    30.067     8.144
  69   6 C      0.031  1.060  2.908  0.000    20.060     6.379
  70   6 C      0.274  1.046  2.680  0.000    22.361     7.744
  71   8 O     -0.511  1.750  4.761  0.000    24.022     6.571
  72   6 C     -0.040  1.048  2.991  0.000    21.279     6.567
  73   6 C     -0.096  1.063  3.034  0.000    22.341     6.730
  74   6 C      0.371  1.026  2.603  0.000    20.713     7.448
  75   8 O     -0.628  1.773  4.855  0.000    26.822     6.944
  76   8 O     -0.635  1.765  4.870  0.000    26.992     6.966
  77   1 H      0.150  0.850  0.000  0.000     1.402     1.855
  78   1 H      0.044  0.956  0.000  0.000     2.397     2.421
  79   1 H      0.024  0.976  0.000  0.000     2.670     2.556
  80   1 H      0.020  0.980  0.000  0.000     2.730     2.584
  81   1 H      0.038  0.962  0.000  0.000     2.476     2.461
  82   1 H      0.012  0.988  0.000  0.000     2.859     2.644
  83   7 N     -0.176  1.246  3.930  0.000    24.805     7.397
  84   6 C      0.037  1.057  2.906  0.000    19.957     6.361
  85   6 C      0.208  1.085  2.706  0.000    23.581     7.953
  86   8 O     -0.361  1.756  4.605  0.000    20.916     6.132
  87   6 C     -0.073  1.055  3.018  0.000    21.891     6.659
  88   6 C      0.011  1.079  2.910  0.000    27.763     8.643
  89   6 C     -0.038  1.079  2.959  0.000    28.940     8.822
  90   6 C     -0.040  1.082  2.959  0.000    29.006     8.832
  91   6 C     -0.032  1.080  2.952  0.000    28.797     8.800
  92   6 C     -0.032  1.081  2.952  0.000    28.810     8.802
  93   6 C     -0.035  1.081  2.953  0.000    28.861     8.810
  94   1 H      0.229  0.771  0.000  0.000     0.969     1.542
  95   1 H      0.074  0.926  0.000  0.000     2.038     2.232
  96   1 H      0.060  0.940  0.000  0.000     2.197     2.318
  97   1 H      0.066  0.934  0.000  0.000     2.132     2.283
  98   1 H      0.029  0.971  0.000  0.000     2.601     2.522
  99   1 H      0.036  0.964  0.000  0.000     2.502     2.473
 100   1 H      0.044  0.956  0.000  0.000     2.397     2.421
 101   1 H      0.048  0.952  0.000  0.000     2.346     2.395
 102   1 H      0.049  0.951  0.000  0.000     2.335     2.389
 103   8 O     -0.642  1.755  4.887  0.000    26.213     6.910
 104   1 H      0.306  0.694  0.000  0.000     0.703     1.317
 105   1 H      0.319  0.681  0.000  0.000     0.666     1.282
 106   8 O     -0.664  1.770  4.895  0.000    26.779     6.984
 107   1 H      0.310  0.690  0.000  0.000     0.692     1.307
 108   1 H      0.324  0.676  0.000  0.000     0.652     1.269
 109   8 O     -0.655  1.764  4.891  0.000    26.542     6.953
 110   1 H      0.311  0.689  0.000  0.000     0.689     1.304
 111   1 H      0.325  0.675  0.000  0.000     0.651     1.268
 112   7 N     -0.382  1.315  4.068  0.000    29.889     8.120
 113   6 C      0.036  1.057  2.907  0.000    19.982     6.367
 114   6 C      0.270  1.048  2.682  0.000    22.444     7.758
 115   8 O     -0.472  1.742  4.730  0.000    23.175     6.454
 116   6 C     -0.063  1.052  3.011  0.000    21.704     6.632
 117   6 C     -0.035  1.066  2.969  0.000    28.832     8.807
 118   6 C      0.003  1.059  2.939  0.000    27.925     8.667
 119   6 C     -0.026  1.076  2.950  0.000    28.476     8.740
 120   7 N     -0.133  1.244  3.889  0.000    23.875     7.257
 121   6 C      0.051  1.062  2.887  0.000    26.756     8.478
 122   6 C     -0.044  1.078  2.966  0.000    29.097     8.845
 123   6 C     -0.053  1.071  2.981  0.000    29.308     8.877
 124   6 C     -0.049  1.077  2.972  0.000    29.206     8.862
 125   6 C     -0.043  1.077  2.966  0.000    29.067     8.841
 126   1 H      0.161  0.839  0.000  0.000     1.329     1.806
 127   1 H      0.031  0.969  0.000  0.000     2.570     2.507
 128   1 H      0.042  0.958  0.000  0.000     2.428     2.437
 129   1 H      0.037  0.963  0.000  0.000     2.484     2.465
 130   1 H      0.010  0.990  0.000  0.000     2.896     2.661
 131   1 H      0.183  0.817  0.000  0.000     1.199     1.715
 132   1 H      0.029  0.971  0.000  0.000     2.594     2.519
 133   1 H      0.015  0.985  0.000  0.000     2.805     2.619
 134   1 H      0.037  0.963  0.000  0.000     2.491     2.468
 135   1 H      0.034  0.966  0.000  0.000     2.528     2.486
 136   7 N     -0.166  1.234  3.933  0.000    24.600     7.366
 137   6 C      0.020  1.063  2.917  0.000    20.246     6.407
 138   6 C      0.199  1.088  2.713  0.000    23.766     7.984
 139   8 O     -0.361  1.753  4.607  0.000    20.916     6.132
 140   6 C     -0.007  1.062  2.946  0.000    20.671     6.466
 141   6 C     -0.121  1.041  3.080  0.000    22.882     6.820
 142   6 C     -0.109  1.038  3.072  0.000    22.645     6.785
 143   1 H      0.193  0.807  0.000  0.000     1.141     1.673
 144   1 H      0.093  0.907  0.000  0.000     1.852     2.128
 145   1 H      0.042  0.958  0.000  0.000     2.425     2.435
 146   1 H      0.058  0.942  0.000  0.000     2.227     2.334
 147   1 H      0.050  0.950  0.000  0.000     2.324     2.384
 148   1 H      0.057  0.943  0.000  0.000     2.234     2.338
 149   1 H      0.044  0.956  0.000  0.000     2.400     2.423
 150   1 H      0.051  0.949  0.000  0.000     2.306     2.375
 151   1 H      0.032  0.968  0.000  0.000     2.558     2.501
 152   7 N     -0.382  1.313  4.069  0.000    29.879     8.118
 153   6 C      0.026  1.065  2.910  0.000    20.154     6.393
 154   6 C      0.277  1.043  2.680  0.000    22.317     7.736
 155   8 O     -0.496  1.754  4.742  0.000    23.695     6.526
 156   6 C     -0.015  1.061  2.954  0.000    20.812     6.489
 157   6 C     -0.116  1.040  3.076  0.000    22.774     6.804
 158   6 C     -0.115  1.039  3.075  0.000    22.746     6.800
 159   1 H      0.148  0.852  0.000  0.000     1.415     1.864
 160   1 H      0.046  0.954  0.000  0.000     2.376     2.410
 161   1 H      0.018  0.982  0.000  0.000     2.758     2.597
 162   1 H      0.046  0.954  0.000  0.000     2.373     2.409
 163   1 H      0.024  0.976  0.000  0.000     2.681     2.560
 164   1 H      0.051  0.949  0.000  0.000     2.312     2.378
 165   1 H      0.047  0.953  0.000  0.000     2.359     2.402
 166   1 H      0.051  0.949  0.000  0.000     2.309     2.376
 167   1 H      0.043  0.957  0.000  0.000     2.414     2.430
 168   7 N     -0.176  1.246  3.930  0.000    24.815     7.399
 169   6 C      0.014  1.059  2.927  0.000    20.340     6.422
 170   6 C      0.275  1.043  2.682  0.000    22.345     7.741
 171   8 O     -0.488  1.744  4.744  0.000    23.524     6.503
 172   6 C      0.061  1.044  2.895  0.000    19.752     6.364
 173   8 O     -0.479  1.721  4.758  0.000    22.439     6.395
 174   1 H      0.212  0.788  0.000  0.000     1.048     1.604
 175   1 H      0.084  0.916  0.000  0.000     1.940     2.178
 176   1 H      0.071  0.929  0.000  0.000     2.078     2.254
 177   1 H      0.057  0.943  0.000  0.000     2.230     2.336
 178   1 H      0.365  0.635  0.000  0.000     0.553     1.168
 179   7 N     -0.175  1.248  3.927  0.000    24.786     7.394
 180   6 C     -0.027  1.049  2.978  0.000    21.126     6.555
 181   6 C      0.290  1.037  2.673  0.000    22.085     7.695
 182   8 O     -0.494  1.759  4.735  0.000    23.641     6.519
 183   1 H      0.229  0.771  0.000  0.000     0.969     1.542
 184   1 H      0.054  0.946  0.000  0.000     2.269     2.356
 185   1 H      0.114  0.886  0.000  0.000     1.664     2.017
 186   7 N     -0.198  1.259  3.939  0.000    25.301     7.471
 187   6 C      0.034  1.056  2.910  0.000    20.012     6.370
 188   6 C      0.213  1.082  2.705  0.000    23.489     7.937
 189   8 O     -0.381  1.766  4.615  0.000    21.305     6.188
 190   6 C     -0.079  1.060  3.019  0.000    21.994     6.676
 191   6 C     -0.097  1.065  3.032  0.000    22.354     6.732
 192   6 C      0.370  1.025  2.605  0.000    20.731     7.451
 193   8 O     -0.627  1.752  4.875  0.000    26.782     6.938
 194   8 O     -0.654  1.783  4.871  0.000    27.487     7.029
 195   1 H      0.231  0.769  0.000  0.000     0.959     1.534
 196   1 H      0.069  0.931  0.000  0.000     2.101     2.267
 197   1 H      0.089  0.911  0.000  0.000     1.892     2.151
 198   1 H      0.071  0.929  0.000  0.000     2.072     2.251
 199   1 H      0.045  0.955  0.000  0.000     2.384     2.414
 200   1 H      0.010  0.990  0.000  0.000     2.892     2.659
 201   7 N     -0.395  1.315  4.079  0.000    30.220     8.164
 202   6 C      0.050  1.054  2.896  0.000    19.756     6.331
 203   6 C      0.208  1.092  2.700  0.000    23.585     7.953
 204   8 O     -0.382  1.755  4.627  0.000    21.328     6.192
 205   6 C     -0.060  1.054  3.006  0.000    21.647     6.622
 206   6 C      0.009  1.084  2.907  0.000    27.813     8.651
 207   6 C     -0.042  1.079  2.963  0.000    29.055     8.840
 208   6 C     -0.035  1.079  2.956  0.000    28.877     8.813
 209   6 C     -0.033  1.079  2.954  0.000    28.821     8.804
 210   6 C     -0.023  1.079  2.945  0.000    28.591     8.768
 211   6 C     -0.032  1.078  2.954  0.000    28.804     8.801
 212   1 H      0.175  0.825  0.000  0.000     1.242     1.746
 213   1 H      0.053  0.947  0.000  0.000     2.279     2.361
 214   1 H      0.059  0.941  0.000  0.000     2.210     2.325
 215   1 H      0.040  0.960  0.000  0.000     2.449     2.447
 216   1 H      0.049  0.951  0.000  0.000     2.326     2.385
 217   1 H      0.010  0.990  0.000  0.000     2.896     2.661
 218   1 H      0.046  0.954  0.000  0.000     2.374     2.409
 219   1 H      0.016  0.984  0.000  0.000     2.789     2.612
 220   1 H      0.029  0.971  0.000  0.000     2.601     2.522
 221   7 N     -0.390  1.313  4.077  0.000    30.096     8.148
 222   6 C      0.045  1.053  2.901  0.000    19.830     6.343
 223   6 C      0.201  1.094  2.705  0.000    23.726     7.977
 224   8 O     -0.391  1.764  4.627  0.000    21.506     6.218
 225   6 C     -0.057  1.055  3.001  0.000    21.582     6.613
 226   6 C     -0.007  1.058  2.949  0.000    20.666     6.466
 227   6 C     -0.109  1.041  3.068  0.000    22.632     6.782
 228   6 C     -0.110  1.038  3.072  0.000    22.649     6.786
 229   1 H      0.174  0.826  0.000  0.000     1.248     1.750
 230   1 H      0.049  0.951  0.000  0.000     2.333     2.389
 231   1 H      0.043  0.957  0.000  0.000     2.408     2.427
 232   1 H      0.017  0.983  0.000  0.000     2.778     2.606
 233   1 H      0.045  0.955  0.000  0.000     2.384     2.415
 234   1 H      0.049  0.951  0.000  0.000     2.338     2.391
 235   1 H      0.039  0.961  0.000  0.000     2.463     2.454
 236   1 H      0.028  0.972  0.000  0.000     2.608     2.525
 237   1 H      0.050  0.950  0.000  0.000     2.323     2.384
 238   1 H      0.028  0.972  0.000  0.000     2.615     2.529
 239   1 H      0.041  0.959  0.000  0.000     2.436     2.441
 240   7 N     -0.408  1.332  4.076  0.000    30.602     8.216
 241   6 C      0.041  1.065  2.894  0.000    19.906     6.356
 242   6 C      0.362  1.031  2.607  0.000    20.857     7.474
 243   8 O     -0.616  1.769  4.847  0.000    26.512     6.903
 244   6 C     -0.038  1.043  2.995  0.000    21.255     6.563
 245   6 C     -0.031  1.071  2.960  0.000    28.718     8.788
 246   6 C     -0.006  1.065  2.941  0.000    28.138     8.700
 247   6 C     -0.018  1.075  2.944  0.000    28.311     8.716
 248   7 N     -0.117  1.227  3.890  0.000    23.540     7.206
 249   6 C      0.046  1.060  2.894  0.000    26.858     8.494
 250   6 C     -0.035  1.076  2.959  0.000    28.876     8.812
 251   6 C     -0.059  1.070  2.988  0.000    29.455     8.899
 252   6 C     -0.043  1.073  2.969  0.000    29.059     8.840
 253   6 C     -0.039  1.072  2.967  0.000    28.971     8.827
 254   8 O     -0.651  1.767  4.884  0.000    27.400     7.018
 255   1 H      0.164  0.836  0.000  0.000     1.313     1.795
 256   1 H     -0.015  1.015  0.000  0.000     3.338     2.857
 257   1 H      0.005  0.995  0.000  0.000     2.966     2.693
 258   1 H      0.012  0.988  0.000  0.000     2.853     2.641
 259   1 H      0.039  0.961  0.000  0.000     2.462     2.454
 260   1 H      0.204  0.796  0.000  0.000     1.087     1.633
 261   1 H      0.014  0.986  0.000  0.000     2.834     2.632
 262   1 H      0.032  0.968  0.000  0.000     2.560     2.502
 263   1 H      0.015  0.985  0.000  0.000     2.816     2.624
 264   1 H      0.002  0.998  0.000  0.000     3.016     2.716
 265   7 N     -0.378  1.312  4.066  0.000    29.759     8.102
 266   6 C     -0.024  1.049  2.974  0.000    21.083     6.553
 267   6 C      0.267  1.048  2.685  0.000    22.487     7.765
 268   8 O     -0.524  1.739  4.785  0.000    24.333     6.614
 269   1 H      0.158  0.842  0.000  0.000     1.349     1.819
 270   1 H      0.069  0.931  0.000  0.000     2.100     2.266
 271   1 H      0.089  0.911  0.000  0.000     1.888     2.149
 272   7 N     -0.171  1.254  3.917  0.000    24.694     7.380
 273   6 C      0.023  1.068  2.909  0.000    20.193     6.399
 274   6 C      0.364  1.026  2.610  0.000    20.828     7.469
 275   8 O     -0.605  1.770  4.834  0.000    26.234     6.867
 276   6 C     -0.055  1.045  3.011  0.000    21.562     6.610
 277   6 C     -0.036  1.067  2.969  0.000    28.837     8.807
 278   6 C     -0.013  1.066  2.947  0.000    28.286     8.723
 279   6 C     -0.020  1.073  2.947  0.000    28.349     8.722
 280   7 N     -0.109  1.225  3.884  0.000    23.373     7.180
 281   6 C      0.044  1.060  2.896  0.000    26.904     8.501
 282   6 C     -0.038  1.077  2.962  0.000    28.951     8.823
 283   6 C     -0.061  1.071  2.990  0.000    29.512     8.908
 284   6 C     -0.041  1.076  2.965  0.000    29.015     8.833
 285   6 C     -0.041  1.076  2.965  0.000    29.017     8.834
 286   8 O     -0.614  1.766  4.847  0.000    26.456     6.896
 287   1 H      0.193  0.807  0.000  0.000     1.144     1.676
 288   1 H      0.038  0.962  0.000  0.000     2.480     2.463
 289   1 H      0.028  0.972  0.000  0.000     2.622     2.532
 290   1 H      0.041  0.959  0.000  0.000     2.432     2.439
 291   1 H      0.042  0.958  0.000  0.000     2.426     2.435
 292   1 H      0.210  0.790  0.000  0.000     1.056     1.610
 293   1 H      0.008  0.992  0.000  0.000     2.926     2.675
 294   1 H      0.049  0.951  0.000  0.000     2.337     2.390
 295   1 H      0.010  0.990  0.000  0.000     2.888     2.658
 296   1 H      0.026  0.974  0.000  0.000     2.647     2.544
 297   1 H      0.094  0.906  0.000  0.000     1.840     2.121
 298   1 H      0.190  0.810  0.000  0.000     1.159     1.686
 299   1 H      0.080  0.920  0.000  0.000     1.975     2.197
 300   1 H      0.190  0.810  0.000  0.000     1.157     1.685
 301   1 H      0.069  0.931  0.000  0.000     2.098     2.265
 302   1 H      0.172  0.828  0.000  0.000     1.259     1.757
 303   1 H      0.179  0.821  0.000  0.000     1.217     1.728
 304   1 H      0.168  0.832  0.000  0.000     1.282     1.774
 305   1 H      0.089  0.911  0.000  0.000     1.889     2.149
 306   1 H      0.191  0.809  0.000  0.000     1.153     1.682
 307   1 H      0.078  0.922  0.000  0.000     1.995     2.209
 308   1 H      0.192  0.808  0.000  0.000     1.150     1.679
 309   1 H      0.062  0.938  0.000  0.000     2.180     2.309

 Mol. C6AA /au·bohr⁶  :     984614.763979
 Mol. C8AA /au·bohr⁸  :   22395339.641616
 Mol. α(0) /au        :       1512.668392

 
 Wiberg/Mayer (AO) data. WBOs > 0.1 written file <wbo>
 largest (>0.05) Wiberg bond orders for each atom
           total WBO             WBO to atom ...
     1  N   3.675    C    2 0.967    H    5 0.901    H    7 0.896    H    6 0.885
     2  C   3.913    N    1 0.967    H    8 0.960    H    9 0.947    C    3 0.945    O    4 0.059
     3  C   3.955    O    4 1.629    N   10 1.327    C    2 0.945
     4  O   1.977    C    3 1.629    N   10 0.214    C    2 0.059
     5  H   0.923    N    1 0.901
     6  H   0.898    N    1 0.885
     7  H   0.910    N    1 0.896
     8  H   0.981    C    2 0.960
     9  H   0.976    C    2 0.947
    10  N   3.504    C    3 1.327    C   11 1.014    H   14 0.870    O    4 0.214
    11  C   3.976    N   10 1.014    H   15 0.958    C   12 0.944    H   16 0.944    O   13 0.059
    12  C   3.946    O   13 1.628    N   17 1.294    C   11 0.944
    13  O   1.975    C   12 1.628    N   17 0.187    C   11 0.059
    14  H   0.937    N   10 0.870
    15  H   0.993    C   11 0.958
    16  H   0.991    C   11 0.944
    17  N   3.472    C   12 1.294    C   18 0.990    H   31 0.927    O   13 0.187
    18  C   3.968    N   17 0.990    C   21 0.975    H   32 0.950    C   19 0.927    O   20 0.055
    19  C   3.943    O   20 1.642    N   41 1.292    C   18 0.927
    20  O   1.957    C   19 1.642    N   41 0.196    C   18 0.055
    21  C   3.988    C   22 1.008    C   18 0.975    H   33 0.963    H   34 0.961
    22  C   3.970    C   23 1.577    C   24 1.203    C   21 1.008    N   25 0.086
    23  C   3.954    C   22 1.577    N   25 1.207    H   35 0.963    C   26 0.055
    24  C   3.983    C   27 1.332    C   26 1.246    C   22 1.203    C   30 0.076
    25  N   3.548    C   23 1.207    C   26 1.191    H   36 0.895    C   22 0.086
    26  C   3.963    C   28 1.334    C   24 1.246    N   25 1.191    C   29 0.072    C   23 0.055
    27  C   3.992    C   29 1.504    C   24 1.332    H   37 0.965    C   28 0.113
    28  C   3.989    C   30 1.496    C   26 1.334    H   38 0.968    C   27 0.113
    29  C   3.991    C   27 1.504    C   30 1.370    H   39 0.972    C   26 0.072
    30  C   3.990    C   28 1.496    C   29 1.370    H   40 0.971    C   24 0.076
    31  H   0.958    N   17 0.927
    32  H   0.993    C   18 0.950
    33  H   0.998    C   21 0.963
    34  H   0.997    C   21 0.961
    35  H   0.998    C   23 0.963
    36  H   0.960    N   25 0.895
    37  H   0.999    C   27 0.965
    38  H   0.998    C   28 0.968
    39  H   1.000    C   29 0.972
    40  H   0.999    C   30 0.971
    41  N   3.471    C   19 1.292    C   42 0.982    H   48 0.926    O   20 0.196
    42  C   3.962    N   41 0.982    H   49 0.955    C   45 0.954    C   43 0.936    O   44 0.051
    43  C   3.951    O   44 1.620    N   57 1.315    C   42 0.936
    44  O   1.940    C   43 1.620    N   57 0.200    C   42 0.051
    45  C   3.991    C   46 1.009    C   47 1.008    H   50 0.966    C   42 0.954
    46  C   3.994    C   45 1.009    H   53 0.985    H   52 0.982    H   51 0.981
    47  C   3.994    C   45 1.008    H   55 0.985    H   56 0.982    H   54 0.976
    48  H   0.958    N   41 0.926
    49  H   0.996    C   42 0.955
    50  H   0.998    C   45 0.966
    51  H   0.996    C   46 0.981
    52  H   0.999    C   46 0.982
    53  H   0.999    C   46 0.985
    54  H   0.997    C   47 0.976
    55  H   0.999    C   47 0.985
    56  H   0.998    C   47 0.982
    57  N   3.473    C   43 1.315    C   58 0.990    H   63 0.846    O   44 0.200
    58  C   3.971    N   57 0.990    C   59 0.972    C   61 0.954    H   64 0.954    O   60 0.054
    59  C   3.894    O   60 1.891    C   58 0.972    H  297 0.952
    60  O   2.066    C   59 1.891    C   58 0.054
    61  C   3.960    O   62 1.006    H   65 0.970    H   66 0.962    C   58 0.954
    62  O   1.919    C   61 1.006    H   67 0.857
    63  H   0.947    N   57 0.846    O   76 0.067
    64  H   0.994    C   58 0.954
    65  H   0.998    C   61 0.970
    66  H   0.998    C   61 0.962
    67  H   0.869    O   62 0.857
    68  N   2.996    C   69 1.019    H   77 0.953    H  298 0.953
    69  C   3.986    N   68 1.019    C   72 0.970    H   78 0.960    C   70 0.940
    70  C   3.946    O   71 1.623    N   83 1.308    C   69 0.940
    71  O   1.933    C   70 1.623    N   83 0.195
    72  C   3.996    C   73 1.005    H   79 0.978    H   80 0.974    C   69 0.970
    73  C   3.992    C   72 1.005    H   81 0.965    H   82 0.965    C   74 0.918    O   75 0.054
    74  C   3.929    O   75 1.535    O   76 1.447    C   73 0.918
    75  O   1.822    C   74 1.535    O   76 0.207    C   73 0.054
    76  O   1.833    C   74 1.447    O   75 0.207    H   63 0.067
    77  H   0.978    N   68 0.953
    78  H   0.997    C   69 0.960
    79  H   0.999    C   72 0.978
    80  H   0.999    C   72 0.974
    81  H   0.999    C   73 0.965
    82  H   1.000    C   73 0.965
    83  N   3.470    C   70 1.308    C   84 0.975    H   94 0.898    O   71 0.195
    84  C   3.965    N   83 0.975    C   85 0.974    C   87 0.954    H   95 0.947    O   86 0.053
    85  C   3.900    O   86 1.904    C   84 0.974    H  299 0.953
    86  O   2.040    C   85 1.904    C   84 0.053
    87  C   3.984    C   88 1.006    H   97 0.970    H   96 0.957    C   84 0.954
    88  C   3.986    C   90 1.416    C   89 1.412    C   87 1.006    C   93 0.110
    89  C   3.992    C   91 1.446    C   88 1.412    H   98 0.966    C   92 0.112
    90  C   3.991    C   92 1.444    C   88 1.416    H   99 0.968    C   91 0.110
    91  C   3.991    C   89 1.446    C   93 1.438    H  100 0.970    C   90 0.110
    92  C   3.991    C   90 1.444    C   93 1.439    H  101 0.970    C   89 0.112
    93  C   3.991    C   92 1.439    C   91 1.438    H  102 0.970    C   88 0.110
    94  H   0.947    N   83 0.898
    95  H   0.994    C   84 0.947
    96  H   0.996    C   87 0.957
    97  H   0.995    C   87 0.970
    98  H   0.999    C   89 0.966
    99  H   0.999    C   90 0.968
   100  H   0.998    C   91 0.970
   101  H   0.997    C   92 0.970
   102  H   0.997    C   93 0.970
   103  O   1.794    H  104 0.905    H  105 0.871
   104  H   0.906    O  103 0.905
   105  H   0.898    O  103 0.871
   106  O   1.778    H  107 0.903    H  108 0.851
   107  H   0.904    O  106 0.903
   108  H   0.895    O  106 0.851
   109  O   1.817    H  111 0.888    H  110 0.835
   110  H   0.903    O  109 0.835    O  286 0.063
   111  H   0.895    O  109 0.888
   112  N   3.000    C  113 1.025    H  126 0.958    H  304 0.944
   113  C   3.986    N  112 1.025    C  116 0.969    H  127 0.959    C  114 0.935    O  115 0.052
   114  C   3.947    O  115 1.657    N  136 1.281    C  113 0.935
   115  O   1.967    C  114 1.657    N  136 0.194    C  113 0.052
   116  C   3.996    C  117 1.012    C  113 0.969    H  128 0.964    H  129 0.963
   117  C   3.972    C  118 1.576    C  119 1.201    C  116 1.012    N  120 0.086
   118  C   3.950    C  117 1.576    N  120 1.202    H  130 0.952    C  121 0.054
   119  C   3.980    C  122 1.332    C  121 1.244    C  117 1.201    C  125 0.075
   120  N   3.546    C  118 1.202    C  121 1.188    H  131 0.900    C  117 0.086
   121  C   3.957    C  123 1.334    C  119 1.244    N  120 1.188    C  124 0.072    C  118 0.054
   122  C   3.991    C  124 1.504    C  119 1.332    H  132 0.969    C  123 0.112
   123  C   3.989    C  125 1.497    C  121 1.334    H  133 0.969    C  122 0.112
   124  C   3.990    C  122 1.504    C  125 1.368    H  134 0.971    C  121 0.072
   125  C   3.989    C  123 1.497    C  124 1.368    H  135 0.971    C  119 0.075
   126  H   0.974    N  112 0.958
   127  H   0.999    C  113 0.959
   128  H   0.998    C  116 0.964
   129  H   0.998    C  116 0.963
   130  H   0.999    C  118 0.952
   131  H   0.966    N  120 0.900
   132  H   0.999    C  122 0.969
   133  H   0.999    C  123 0.969
   134  H   0.998    C  124 0.971
   135  H   0.998    C  125 0.971
   136  N   3.463    C  114 1.281    C  137 0.977    H  143 0.931    O  115 0.194
   137  C   3.960    C  138 0.979    N  136 0.977    H  144 0.952    C  140 0.938    O  139 0.057
   138  C   3.899    O  139 1.898    C  137 0.979    H  305 0.951
   139  O   2.044    C  138 1.898    C  137 0.057
   140  C   3.988    C  142 1.008    C  141 1.007    H  145 0.966    C  137 0.938
   141  C   3.991    C  140 1.007    H  148 0.984    H  146 0.982    H  147 0.981
   142  C   3.994    C  140 1.008    H  150 0.985    H  151 0.982    H  149 0.974
   143  H   0.963    N  136 0.931
   144  H   0.991    C  137 0.952
   145  H   0.998    C  140 0.966
   146  H   0.996    C  141 0.982
   147  H   0.997    C  141 0.981
   148  H   0.997    C  141 0.984
   149  H   0.998    C  142 0.974
   150  H   0.997    C  142 0.985
   151  H   0.999    C  142 0.982
   152  N   2.997    C  153 1.020    H  159 0.960    H  306 0.942
   153  C   3.985    N  152 1.020    H  160 0.958    C  156 0.951    C  154 0.946    O  155 0.051
   154  C   3.940    O  155 1.641    N  168 1.283    C  153 0.946
   155  O   1.953    C  154 1.641    N  168 0.190    C  153 0.051
   156  C   3.994    C  157 1.009    C  158 1.008    H  161 0.968    C  153 0.951
   157  C   3.995    C  156 1.009    H  162 0.985    H  164 0.985    H  163 0.983
   158  C   3.994    C  156 1.008    H  166 0.985    H  165 0.981    H  167 0.977
   159  H   0.978    N  152 0.960
   160  H   0.998    C  153 0.958
   161  H   1.000    C  156 0.968
   162  H   0.998    C  157 0.985
   163  H   0.999    C  157 0.983
   164  H   0.997    C  157 0.985
   165  H   0.997    C  158 0.981
   166  H   0.997    C  158 0.985
   167  H   0.998    C  158 0.977
   168  N   3.458    C  154 1.283    C  169 0.991    H  174 0.916    O  155 0.190
   169  C   3.967    N  168 0.991    C  172 0.968    H  175 0.951    C  170 0.934    O  171 0.051
   170  C   3.947    O  171 1.621    N  179 1.307    C  169 0.934
   171  O   1.962    C  170 1.621    N  179 0.198    C  169 0.051
   172  C   3.953    O  173 0.998    H  176 0.968    C  169 0.968    H  177 0.964
   173  O   1.945    C  172 0.998    H  178 0.852
   174  H   0.955    N  168 0.916
   175  H   0.993    C  169 0.951
   176  H   0.995    C  172 0.968
   177  H   0.997    C  172 0.964
   178  H   0.866    O  173 0.852
   179  N   3.473    C  170 1.307    C  180 0.997    H  183 0.888    O  171 0.198
   180  C   3.967    N  179 0.997    H  184 0.958    C  181 0.957    H  185 0.932    O  182 0.051
   181  C   3.947    O  182 1.656    N  186 1.263    C  180 0.957
   182  O   1.966    C  181 1.656    N  186 0.185    C  180 0.051
   183  H   0.947    N  179 0.888
   184  H   0.997    C  180 0.958
   185  H   0.987    C  180 0.932
   186  N   3.414    C  181 1.263    C  187 0.976    H  195 0.883    O  182 0.185
   187  C   3.966    N  186 0.976    C  188 0.971    C  190 0.968    H  196 0.955    O  189 0.053
   188  C   3.892    O  189 1.895    C  187 0.971    H  307 0.951
   189  O   2.035    C  188 1.895    C  187 0.053
   190  C   3.983    C  191 1.010    H  198 0.970    C  187 0.968    H  197 0.961
   191  C   3.988    C  190 1.010    H  200 0.976    H  199 0.964    C  192 0.911    O  193 0.054    O  194 0.053
   192  C   3.932    O  194 1.514    O  193 1.480    C  191 0.911
   193  O   1.807    C  192 1.480    O  194 0.214    C  191 0.054
   194  O   1.803    C  192 1.514    O  193 0.214    C  191 0.053
   195  H   0.946    N  186 0.883
   196  H   0.995    C  187 0.955
   197  H   0.992    C  190 0.961
   198  H   0.995    C  190 0.970
   199  H   0.998    C  191 0.964
   200  H   1.000    C  191 0.976
   201  N   3.001    C  202 1.014    H  308 0.953    H  212 0.936
   202  C   3.987    N  201 1.014    C  203 0.975    H  213 0.960    C  205 0.949    O  204 0.054
   203  C   3.888    O  204 1.890    C  202 0.975    H  309 0.957
   204  O   2.023    C  203 1.890    C  202 0.054
   205  C   3.993    C  206 1.011    H  215 0.972    H  214 0.957    C  202 0.949
   206  C   3.988    C  208 1.414    C  207 1.409    C  205 1.011    C  211 0.110
   207  C   3.990    C  209 1.446    C  206 1.409    H  216 0.967    C  210 0.111
   208  C   3.992    C  210 1.444    C  206 1.414    H  217 0.970    C  209 0.110
   209  C   3.990    C  207 1.446    C  211 1.435    H  218 0.963    C  208 0.110
   210  C   3.992    C  208 1.444    C  211 1.436    H  219 0.971    C  207 0.111
   211  C   3.991    C  210 1.436    C  209 1.435    H  220 0.969    C  206 0.110
   212  H   0.969    N  201 0.936
   213  H   0.997    C  202 0.960
   214  H   0.996    C  205 0.957
   215  H   0.998    C  205 0.972
   216  H   0.998    C  207 0.967
   217  H   1.000    C  208 0.970
   218  H   0.998    C  209 0.963
   219  H   0.999    C  210 0.971
   220  H   0.999    C  211 0.969
   221  N   2.998    C  222 1.017    H  300 0.953    H  229 0.950
   222  C   3.986    N  221 1.017    C  223 0.972    C  225 0.963    H  230 0.955    O  224 0.055
   223  C   3.882    O  224 1.872    C  222 0.972    H  301 0.955
   224  O   2.031    C  223 1.872    C  222 0.055
   225  C   3.990    C  226 0.988    H  231 0.973    H  232 0.965    C  222 0.963
   226  C   3.994    C  228 1.010    C  227 1.006    C  225 0.988    H  233 0.967
   227  C   3.994    C  226 1.006    H  236 0.986    H  235 0.986    H  234 0.985
   228  C   3.996    C  226 1.010    H  238 0.986    H  237 0.984    H  239 0.984
   229  H   0.970    N  221 0.950
   230  H   0.998    C  222 0.955
   231  H   0.998    C  225 0.973
   232  H   1.000    C  225 0.965
   233  H   0.998    C  226 0.967
   234  H   0.996    C  227 0.985
   235  H   0.998    C  227 0.986
   236  H   0.999    C  227 0.986
   237  H   0.997    C  228 0.984
   238  H   0.999    C  228 0.986
   239  H   0.998    C  228 0.984
   240  N   2.998    C  241 1.024    H  302 0.957    H  255 0.940
   241  C   3.974    N  240 1.024    C  244 0.961    H  256 0.957    C  242 0.896    O  243 0.054
   242  C   3.931    O  243 1.542    O  254 1.452    C  241 0.896
   243  O   1.833    C  242 1.542    O  254 0.212    C  241 0.054
   244  C   3.996    C  245 1.018    H  258 0.968    H  257 0.965    C  241 0.961
   245  C   3.979    C  246 1.577    C  247 1.208    C  244 1.018    N  248 0.079
   246  C   3.951    C  245 1.577    N  248 1.197    H  259 0.968    C  249 0.059
   247  C   3.985    C  250 1.332    C  249 1.240    C  245 1.208    C  253 0.076
   248  N   3.541    C  246 1.197    C  249 1.187    H  260 0.931    C  245 0.079
   249  C   3.963    C  251 1.338    C  247 1.240    N  248 1.187    C  252 0.072    C  246 0.059
   250  C   3.992    C  252 1.499    C  247 1.332    H  261 0.965    C  251 0.111
   251  C   3.988    C  253 1.491    C  249 1.338    H  262 0.968    C  250 0.111
   252  C   3.990    C  250 1.499    C  253 1.369    H  263 0.970    C  249 0.072
   253  C   3.991    C  251 1.491    C  252 1.369    H  264 0.972    C  247 0.076
   254  O   1.792    C  242 1.452    O  243 0.212
   255  H   0.973    N  240 0.940
   256  H   0.999    C  241 0.957
   257  H   0.999    C  244 0.965
   258  H   1.000    C  244 0.968
   259  H   0.998    C  246 0.968
   260  H   0.958    N  248 0.931
   261  H   0.999    C  250 0.965
   262  H   0.998    C  251 0.968
   263  H   0.999    C  252 0.970
   264  H   1.000    C  253 0.972
   265  N   3.007    C  266 1.038    H  269 0.960    H  303 0.947
   266  C   3.984    N  265 1.038    H  270 0.958    C  267 0.955    H  271 0.947    O  268 0.053
   267  C   3.936    O  268 1.573    N  272 1.311    C  266 0.955
   268  O   1.924    C  267 1.573    N  272 0.175    C  266 0.053
   269  H   0.975    N  265 0.960
   270  H   0.995    C  266 0.958
   271  H   0.991    C  266 0.947
   272  N   3.466    C  267 1.311    C  273 0.985    H  287 0.915    O  268 0.175
   273  C   3.960    N  272 0.985    C  276 0.973    H  288 0.951    C  274 0.885    O  275 0.054
   274  C   3.931    O  275 1.552    O  286 1.440    C  273 0.885
   275  O   1.850    C  274 1.552    O  286 0.210    C  273 0.054
   276  C   3.992    C  277 1.013    C  273 0.973    H  289 0.973    H  290 0.966
   277  C   3.976    C  278 1.577    C  279 1.210    C  276 1.013    N  280 0.084
   278  C   3.954    C  277 1.577    N  280 1.207    H  291 0.969    C  281 0.060
   279  C   3.986    C  282 1.331    C  281 1.244    C  277 1.210    C  285 0.076
   280  N   3.547    C  278 1.207    C  281 1.186    H  292 0.928    C  277 0.084
   281  C   3.963    C  283 1.336    C  279 1.244    N  280 1.186    C  284 0.072    C  278 0.060
   282  C   3.992    C  284 1.505    C  279 1.331    H  293 0.965    C  283 0.113
   283  C   3.987    C  285 1.494    C  281 1.336    H  294 0.967    C  282 0.113
   284  C   3.991    C  282 1.505    C  285 1.370    H  295 0.971    C  281 0.072
   285  C   3.991    C  283 1.494    C  284 1.370    H  296 0.971    C  279 0.076
   286  O   1.868    C  274 1.440    O  275 0.210    H  110 0.063
   287  H   0.963    N  272 0.915
   288  H   0.999    C  273 0.951
   289  H   0.999    C  276 0.973
   290  H   0.998    C  276 0.966
   291  H   0.997    C  278 0.969
   292  H   0.955    N  280 0.928
   293  H   0.999    C  282 0.965
   294  H   0.997    C  283 0.967
   295  H   1.000    C  284 0.971
   296  H   0.999    C  285 0.971
   297  H   0.991    C   59 0.952
   298  H   0.964    N   68 0.953
   299  H   0.993    C   85 0.953
   300  H   0.964    N  221 0.953
   301  H   0.995    C  223 0.955
   302  H   0.970    N  240 0.957
   303  H   0.968    N  265 0.947
   304  H   0.971    N  112 0.944
   305  H   0.992    C  138 0.951
   306  H   0.963    N  152 0.942
   307  H   0.994    C  188 0.951
   308  H   0.963    N  201 0.953
   309  H   0.996    C  203 0.957
 
molecular dipole:
                 x           y           z       tot (Debye)
 q only:     -139.474     -99.714      49.492
   full:     -138.714     -98.718      48.141     449.722
molecular quadrupole (traceless):
                xx          xy          yy          xz          yz          zz
 q only:    -4327.625   -6521.017     703.603    3829.775    2144.417    3624.021
  q+dip:    -4319.980   -6373.581     724.569    3721.032    2054.101    3595.412
   full:    -4318.415   -6372.206     723.855    3722.296    2057.155    3594.560
speedup  8.19
cpu  time for grad   23.54 s
wall time for grad    2.88 s

SCC energy    :    -495.8574330
rep           :       6.4407249
ES            :       1.8364995
AES           :      -0.0513252
AXC           :       0.1674313
disp          :      -0.4017844
XB            :       0.0000000
fix           :       0.0000000
Gborn         :       0.0000000
Gsasa         :       0.0000000
Ghb           :       0.0000000
Gshift        :       0.0000000
Gsolv         :      -0.6100404     -382.81
Etot ala COSMO:    -495.8574330
grad norm     :       0.5786926
total E       :    -489.3897919
atomizationE  :      91.4429193    57381.30
(atE without considering molecular charge,
 total energy contains solvation terms)
H-L gap (eV)  :          0.9666

------------------------------------------------------------------------
 * finished run on 2019/02/12 at 03:00:14.397     
------------------------------------------------------------------------
 total:
 * wall-time:     0 d,  0 h,  0 min,  3.122 sec
 *  cpu-time:     0 d,  0 h,  0 min, 26.088 sec
 * ratio c/w:     8.357 speedup
 SCF:
 * wall-time:     0 d,  0 h,  0 min,  2.992 sec
 *  cpu-time:     0 d,  0 h,  0 min, 24.943 sec
 * ratio c/w:     8.335 speedup

