      -----------------------------------------------------------      
     |                   =====================                   |     
     |                           x T B                           |     
     |                   =====================                   |     
     |                         S. Grimme                         |     
     |          Mulliken Center for Theoretical Chemistry        |     
     |                    University of Bonn                     |     
     |                 Version 6.0.1 (SAW181210)                 |     
      -----------------------------------------------------------      

   This program is distributed in the hope that it will be useful,
   but WITHOUT ANY WARRANTY; without even the implied warranty of
   MERCHANTABILITY or FITNESS FOR A PARTICULAR PURPOSE.
   
   FOR NON-COMMERCIAL, ACADEMIA USE ONLY.
   
   Cite this work as:
   S. Grimme, C. Bannwarth, P. Shushkov, J. Comput. Theory Chem., 2017,
   13, 1989-2009.
   C. Bannwarth, S. Ehlert and S. Grimme., ChemRxiv, 2018, preprint.
   http://doi.org/10.26434/chemrxiv.7246238.v1
   
   for sTDA-xTB:
   S. Grimme and C. Bannwarth, J. Chem. Phys., 2016, 145, 054103.
   
   in the mass-spec context:
   V. Asgeirsson, C. Bauer and S. Grimme, Chem. Sci., 2017, 8, 4879.
   
   if GBSA is used:
   P. Shushkov, F. März and S. Grimme, unpublished.
   
   for ANC optimizer:
   S. Grimme, unpublished.
   Rational Function algorithm used in ANCopt:
   F. Eckert, P. Pulay, H.-J. Werner, J. Comput. Chem., 1997, 18, 1473.
   
   with help from (in alphabetical order)
   C. Bannwarth, F. Bohle, G. Brandenburg, E. Caldeweyher, M. Checinski,
   S. Dohm, S. Ehlert, S. Ehrlich, F. März, H. Neugebauer, J. Pisarek,
   P. Pracht, P. Shushkov, and S. Spicher.
   
 * started run on 2019/05/11 at 23:18:21.697     
========================================================================
 # omp threads = 2
========================================================================
number of atoms            : 634
number of electrons        : 1664
charge                     : 3
spin                       : .0
first test random number   : .0432

########################################################################
# WARNING! Please study the warnings concerning your input carefully
#  - Process number higher than OMP_NUM_THREADS, I hope you know what you are doing.
########################################################################

           ------------------------------------------------- 
          |                 G F N 2 - x T B                 |
          | Geometry, Frequencies, Noncovalent interactions |
          |            JCTC 2018 parametrisation            |
           ------------------------------------------------- 
 
      method parameters     
 k(s)        :  1.8500
 k(p)        :  2.2300
 k(d)        :  2.2300
 k(f)        :  2.0000
 kEN (H0ij)  : -2.0000
 D4 a1       :  0.5200
 D4 a2       :  5.0000
 D4 s6       :  1.0000
 D4 s8       :  2.7000
 D4 s9       :  5.0000
 alphaj      :  2.0000

 Solvent             : h2o
 Using internal parameter file: .param_gbsa2_h2o
 Gsolv ref. state (COSMO-RS): gsolv [1 M gas/solution]
 temperature (mdtemp)       :    298.150000000000     
 dielectric constant        :    80.2000000000000     
 rho                        :    1.00000000000000     
 mass                       :    18.0000000000000     
 surface tension            :    15.5689454083859     
 probe radius               :   0.975313790000000     
 vdW radii scaling          :    1.00000000000000     
 Gshift (Eh)                :   1.857443126794793E-003
 c1                         :    1.55243817000000     
 soset                      :   0.130326360000000     
 HB correction              :  T

            Z     q(EN)     CN     RAES       Cart. coordinates
     1  N   5.0   -0.21    3.17    1.95     5.38413   181.07299    -2.40953
     2  C   4.0    0.02    4.21    4.01     3.63971   178.99887    -1.73491
     3  C   4.0    0.14    3.46    3.10     4.88463   176.71780    -0.41012
     4  O   6.0   -0.32    1.29    1.80     4.24008   175.82402     1.62411
     5  C   4.0   -0.08    4.13    3.85     2.42991   177.97478    -4.18575
     6  H   1.0    0.09    1.03    1.43     6.00523   180.97729    -4.22675
     7  H   1.0    0.05    1.04    1.44     2.22118   179.76083    -0.43376
     8  H   1.0    0.04    1.00    1.43     1.33222   176.29342    -3.76387
     9  H   1.0    0.04    1.00    1.43     1.18967   179.39405    -4.99985
    10  H   1.0    0.04    1.00    1.43     3.87946   177.51855    -5.56571
    11  N   5.0   -0.15    3.58    2.14     6.74655   175.67987    -1.74555
    12  C   4.0    0.03    4.44    4.44     8.02012   173.47455    -0.77960
    13  C   4.0    0.17    3.48    3.11     8.93556   174.15062     1.89908
    14  O   6.0   -0.30    1.31    1.80     8.76028   172.60753     3.60496
    15  C   4.0   -0.05    4.29    4.18     9.96775   172.62469    -2.74050
    16  C   4.0   -0.02    4.14    3.88     8.96145   170.71314    -4.73999
    17  C   4.0   -0.07    4.10    3.80     6.31109   171.25867    -5.75659
    18  C   4.0   -0.06    4.10    3.80    10.81173   170.64359    -6.97567
    19  H   1.0    0.07    1.07    1.44     7.14606   176.26814    -3.51495
    20  H   1.0    0.05    1.06    1.44     6.66955   171.92607    -0.47520
    21  H   1.0    0.05    1.03    1.43    10.70600   174.29157    -3.70413
    22  H   1.0    0.05    1.03    1.43    11.53985   171.71838    -1.76245
    23  H   1.0    0.04    1.05    1.44     8.91853   168.85359    -3.83404
    24  H   1.0    0.05    1.00    1.43     5.78525   169.74862    -7.04754
    25  H   1.0    0.04    1.00    1.43     4.90076   171.32470    -4.26807
    26  H   1.0    0.04    1.00    1.43     6.27569   173.01798    -6.82119
    27  H   1.0    0.05    1.00    1.43    10.33301   169.12713    -8.27316
    28  H   1.0    0.05    1.00    1.43    10.73183   172.41595    -8.01522
    29  H   1.0    0.06    1.00    1.43    12.73398   170.35153    -6.31577
    30  N   5.0   -0.13    3.47    2.06     9.80020   176.50346     2.23614
    31  C   4.0    0.03    4.31    4.22     9.86935   177.94930     4.61284
    32  C   4.0    0.17    3.39    3.08     9.18984   176.28394     6.94178
    33  O   6.0   -0.29    1.19    1.80    10.71979   175.64883     8.55722
    34  C   4.0   -0.05    4.26    4.13     8.03470   180.23346     4.28593
    35  C   4.0   -0.05    4.14    3.88     8.62063   182.68932     5.71599
    36  C   4.0   -0.05    4.18    3.95    10.35630   184.37906     4.13012
    37  C   4.0   -0.03    4.11    3.82    10.92926   186.89372     5.41186
    38  N   5.0   -0.11    4.01    2.89    12.88801   188.30430     3.94076
    39  H   1.0    0.08    1.08    1.44     9.95473   177.61261     0.68500
    40  H   1.0    0.06    1.05    1.44    11.81343   178.60023     4.89672
    41  H   1.0    0.05    1.04    1.43     7.98206   180.69582     2.27805
    42  H   1.0    0.05    1.04    1.43     6.12737   179.64379     4.77000
    43  H   1.0    0.04    1.03    1.43     6.83788   183.67013     6.02730
    44  H   1.0    0.05    1.02    1.43     9.45803   182.26876     7.54918
    45  H   1.0    0.05    1.03    1.43    12.11318   183.36401     3.77622
    46  H   1.0    0.05    1.03    1.43     9.41865   184.72444     2.33030
    47  H   1.0    0.05    1.02    1.43     9.22590   188.04481     5.54135
    48  H   1.0    0.05    1.02    1.43    11.65080   186.57514     7.31649
    49  H   1.0    0.07    1.02    1.43    13.33316   189.97744     4.83512
    50  H   1.0    0.07    1.02    1.43    14.50882   187.23226     3.78744
    51  H   1.0    0.07    1.02    1.43    12.23700   188.71039     2.15253
    52  N   5.0   -0.14    3.56    2.12     6.70416   175.78462     7.03861
    53  C   4.0    0.04    4.47    4.49     5.35533   174.52513     9.03489
    54  C   4.0    0.14    3.66    3.21     4.55506   171.83457     8.44573
    55  O   6.0   -0.31    1.43    1.80     4.19599   170.44536    10.27840
    56  C   4.0   -0.02    4.33    4.26     2.87640   175.96104     9.66810
    57  C   4.0   -0.04    4.20    4.01     0.81251   175.43722     7.65334
    58  C   4.0   -0.07    4.12    3.84     3.45628   178.79602     9.89465
    59  C   4.0   -0.07    4.02    3.65    -0.90038   173.14609     8.13557
    60  H   1.0    0.10    1.09    1.44     5.65736   176.12928     5.47241
    61  H   1.0    0.06    1.06    1.44     6.58830   174.49569    10.69198
    62  H   1.0    0.06    1.07    1.44     2.23589   175.24571    11.48845
    63  H   1.0    0.04    1.03    1.43    -0.40724   177.09808     7.54656
    64  H   1.0    0.05    1.03    1.43     1.69081   175.23480     5.79842
    65  H   1.0    0.04    1.00    1.43     1.87174   179.74232    10.79363
    66  H   1.0    0.05    1.00    1.43     5.14039   179.10413    11.01909
    67  H   1.0    0.04    1.00    1.43     3.71736   179.62549     8.03720
    68  H   1.0    0.04    1.00    1.43    -1.89404   172.64047     6.41340
    69  H   1.0    0.06    1.02    1.43     0.14563   171.51226     8.78639
    70  H   1.0    0.04    1.00    1.43    -2.29005   173.58731     9.58697
    71  N   5.0   -0.15    3.46    2.06     4.11080   171.09424     6.03286
    72  C   4.0    0.04    4.43    4.44     3.87392   168.38728     5.66409
    73  C   4.0    0.16    3.42    3.08     6.11940   166.94345     6.90378
    74  O   6.0   -0.31    1.22    1.80     5.95655   164.68416     7.31754
    75  C   4.0   -0.05    4.29    4.18     3.43084   167.48327     2.94565
    76  C   4.0   -0.02    4.20    4.00     2.11168   164.86960     2.97695
    77  C   4.0   -0.08    4.12    3.84    -0.72845   165.18713     3.30157
    78  C   4.0   -0.07    4.11    3.82     2.57472   163.36928     0.58507
    79  H   1.0    0.11    1.08    1.44     4.87216   172.11842     4.60477
    80  H   1.0    0.05    1.07    1.44     2.23019   167.80793     6.78879
    81  H   1.0    0.04    1.02    1.43     2.26482   168.84870     1.93429
    82  H   1.0    0.05    1.02    1.43     5.24790   167.30981     1.97420
    83  H   1.0    0.06    1.07    1.44     2.87607   163.80096     4.57000
    84  H   1.0    0.03    1.00    1.43    -1.63928   163.35559     3.46790
    85  H   1.0    0.03    1.00    1.43    -1.18562   166.26005     4.99412
    86  H   1.0    0.03    1.00    1.43    -1.52428   166.16751     1.68172
    87  H   1.0    0.04    1.00    1.43     1.45478   161.64981     0.59260
    88  H   1.0    0.04    1.00    1.43     2.09409   164.46801    -1.07708
    89  H   1.0    0.05    1.00    1.43     4.56071   162.83971     0.44167
    90  N   5.0   -0.13    3.49    2.07     8.14977   168.36395     7.59382
    91  C   4.0    0.05    4.39    4.36    10.06087   167.57435     9.36233
    92  C   4.0    0.16    3.65    3.20     9.50208   168.08232    12.15336
    93  O   6.0   -0.32    1.48    1.80    10.54651   166.68860    13.70249
    94  C   4.0   -0.02    4.32    4.24    12.60247   168.94338     9.01276
    95  C   4.0    0.17    3.35    3.07    14.33610   168.24223    11.25131
    96  O   6.0   -0.27    1.21    1.80    15.16544   166.11542    11.57322
    97  N   5.0   -0.17    3.18    1.95    14.77215   170.13456    12.94671
    98  H   1.0    0.11    1.10    1.44     8.37650   170.09909     6.82049
    99  H   1.0    0.07    1.06    1.44    10.34240   165.52682     9.19727
   100  H   1.0    0.06    1.02    1.43    13.52254   168.32371     7.27726
   101  H   1.0    0.06    1.03    1.43    12.27323   170.97938     8.95320
   102  H   1.0    0.10    1.03    1.43    16.19617   169.79925    14.17605
   103  H   1.0    0.09    1.03    1.43    14.52350   171.94328    12.39894
   104  N   5.0   -0.14    3.45    2.05     8.31201   170.18067    12.95201
   105  C   4.0    0.04    4.67    4.73     8.16295   170.19675    15.66401
   106  C   4.0    0.16    3.43    3.09     5.74120   168.95989    16.65263
   107  O   6.0   -0.32    1.44    1.80     3.64006   169.40385    15.78696
   108  C   4.0   -0.03    4.29    4.19     8.69111   172.72564    16.90864
   109  C   4.0    0.15    3.33    3.06     9.23104   171.94512    19.63317
   110  O   6.0   -0.30    1.20    1.80     7.72862   172.34023    21.33327
   111  N   5.0   -0.19    3.21    1.96    11.31961   170.45709    19.90831
   112  H   1.0    0.12    1.17    1.46     6.74275   170.78626    11.99430
   113  H   1.0    0.06    1.17    1.46     9.71666   168.97087    16.25568
   114  H   1.0    0.05    1.03    1.43    10.32300   173.61325    16.02931
   115  H   1.0    0.06    1.04    1.43     7.06924   173.98020    16.78596
   116  H   1.0    0.10    1.03    1.43    11.84430   170.05141    21.70370
   117  H   1.0    0.09    1.03    1.43    12.75816   170.69542    18.67878
   118  N   5.0   -0.14    3.46    2.05     6.12865   167.38312    18.60116
   119  C   4.0    0.03    4.45    4.46     4.13029   165.92624    19.85636
   120  C   4.0    0.15    3.52    3.12     1.99410   167.55396    20.91095
   121  O   6.0   -0.31    1.48    1.80     0.04898   167.65555    19.67591
   122  C   4.0   -0.03    4.33    4.25     5.11300   164.17732    21.97724
   123  C   4.0   -0.05    4.18    3.96     7.56666   165.19493    23.21929
   124  C   4.0   -0.08    4.09    3.78     5.37729   161.47801    20.98709
   125  C   4.0   -0.07    4.00    3.62     7.71332   164.57687    26.05002
   126  H   1.0    0.07    1.08    1.44     7.90370   166.91022    19.10709
   127  H   1.0    0.05    1.07    1.44     3.20310   164.78732    18.38872
   128  H   1.0    0.04    1.07    1.44     3.65449   164.10299    23.43904
   129  H   1.0    0.04    1.03    1.43     9.19353   164.32095    22.30819
   130  H   1.0    0.05    1.03    1.43     7.67368   167.24544    23.02747
   131  H   1.0    0.04    1.00    1.43     6.22545   160.27169    22.42210
   132  H   1.0    0.04    1.00    1.43     3.54653   160.67848    20.50932
   133  H   1.0    0.04    1.00    1.43     6.55363   161.40204    19.30730
   134  H   1.0    0.05    1.00    1.43     9.42972   165.35844    26.86054
   135  H   1.0    0.04    1.00    1.43     6.10328   165.33852    27.07113
   136  H   1.0    0.05    1.00    1.43     7.75598   162.54381    26.36008
   137  N   5.0   -0.15    3.49    2.07     2.26730   168.67279    23.17066
   138  C   4.0    0.03    4.40    4.38     0.14159   169.96802    24.35163
   139  C   4.0    0.17    3.58    3.15    -1.28041   171.36285    22.23631
   140  O   6.0   -0.30    1.23    1.80    -3.58489   171.49660    22.21783
   141  C   4.0   -0.05    4.25    4.09     0.91864   171.98819    26.30399
   142  C   4.0   -0.05    4.11    3.82     1.27290   171.19517    29.09447
   143  C   4.0   -0.01    4.17    3.93     1.85375   173.57610    30.71234
   144  N   5.0   -0.13    3.37    2.01     2.20718   172.97325    33.38769
   145  C   4.0    0.11    3.32    3.06     3.10877   174.47548    35.19388
   146  N   5.0   -0.17    3.24    1.97     3.86846   176.82080    34.70292
   147  N   5.0   -0.17    3.24    1.97     3.27292   173.59197    37.55148
   148  H   1.0    0.08    1.06    1.44     3.86131   168.45435    24.19790
   149  H   1.0    0.05    1.05    1.44    -1.15287   168.58989    25.19587
   150  H   1.0    0.05    1.03    1.43     2.65571   172.88649    25.64501
   151  H   1.0    0.05    1.04    1.43    -0.56963   173.41915    26.27356
   152  H   1.0    0.05    1.02    1.43    -0.44396   170.29007    29.78201
   153  H   1.0    0.05    1.02    1.43     2.83283   169.85913    29.26178
   154  H   1.0    0.05    1.02    1.43     3.57048   174.45334    29.97278
   155  H   1.0    0.05    1.02    1.43     0.27342   174.89564    30.50568
   156  H   1.0    0.08    1.07    1.44     1.60749   171.23735    33.91088
   157  H   1.0    0.09    1.03    1.43     3.56286   177.61706    33.00261
   158  H   1.0    0.10    1.03    1.43     4.43597   177.95644    36.12061
   159  H   1.0    0.10    1.03    1.43     2.85571   171.77971    37.95547
   160  H   1.0    0.10    1.03    1.43     4.00720   174.64581    38.95369
   161  N   5.0   -0.13    3.61    2.17     0.35944   172.49504    20.63805
   162  C   4.0    0.03    4.37    4.33    -0.43115   174.03893    18.50756
   163  C   4.0    0.17    3.52    3.12    -2.33402   172.36335    17.07109
   164  O   6.0   -0.30    1.34    1.80    -4.61994   172.81413    17.03617
   165  C   4.0    0.05    4.12    3.85     1.75801   175.43871    17.06154
   166  O   6.0   -0.26    2.13    1.84     3.10444   174.19066    15.14435
   167  C   4.0   -0.06    4.07    3.74     3.61934   176.66980    18.94282
   168  H   1.0    0.09    1.09    1.44     2.23074   172.36213    20.98378
   169  H   1.0    0.05    1.06    1.44    -1.57985   175.59333    19.28230
   170  H   1.0    0.04    1.04    1.43     0.77081   176.98444    16.07772
   171  H   1.0    0.16    1.13    1.45     3.05054   172.36088    15.29934
   172  H   1.0    0.05    1.00    1.43     4.85785   177.92513    17.89354
   173  H   1.0    0.05    1.00    1.43     2.60010   177.78066    20.33560
   174  H   1.0    0.06    1.00    1.43     4.76742   175.27670    19.92137
   175  N   5.0   -0.13    3.58    2.14    -1.37152   170.31461    16.02244
   176  C   4.0    0.04    4.42    4.42    -3.09788   168.62168    14.76871
   177  C   4.0    0.16    3.49    3.11    -5.45098   168.17214    16.46488
   178  O   6.0   -0.31    1.42    1.80    -7.56253   168.72466    15.68727
   179  C   4.0   -0.04    4.27    4.13    -1.53153   166.33466    13.84737
   180  C   4.0   -0.03    4.12    3.84    -2.67044   164.63990    11.70979
   181  C   4.0   -0.08    4.08    3.77    -4.52074   165.94249     9.88271
   182  C   4.0   -0.07    4.10    3.80    -0.56095   163.42451    10.15058
   183  H   1.0    0.13    1.15    1.45     0.43082   169.72609    16.26302
   184  H   1.0    0.05    1.06    1.44    -3.87871   169.61605    13.11971
   185  H   1.0    0.06    1.04    1.43     0.22725   167.14034    13.13147
   186  H   1.0    0.05    1.02    1.43    -1.08740   165.13672    15.46150
   187  H   1.0    0.03    1.05    1.44    -3.72492   163.11261    12.63218
   188  H   1.0    0.03    1.00    1.43    -5.18991   164.58538     8.49940
   189  H   1.0    0.05    1.00    1.43    -6.15053   166.68257    10.89648
   190  H   1.0    0.04    1.00    1.43    -3.59798   167.49361     8.89941
   191  H   1.0    0.03    1.00    1.43    -1.37314   162.20292     8.71532
   192  H   1.0    0.05    1.00    1.43     0.61276   164.83211     9.22859
   193  H   1.0    0.05    1.00    1.43     0.65674   162.27695    11.34790
   194  N   5.0   -0.14    3.49    2.07    -5.07266   167.11108    18.74261
   195  C   4.0    0.03    4.44    4.45    -7.07611   165.87772    20.17866
   196  C   4.0    0.16    3.51    3.12    -9.44031   167.48455    20.13971
   197  O   6.0   -0.33    1.31    1.80   -11.51813   166.45464    19.91837
   198  C   4.0   -0.04    4.36    4.30    -6.43140   165.51322    22.95546
   199  C   4.0   -0.05    4.19    3.98    -4.48429   163.45966    23.42526
   200  C   4.0   -0.00    4.25    4.11    -4.19723   163.35136    26.27832
   201  N   5.0   -0.13    3.39    2.02    -2.10200   161.75457    27.03637
   202  C   4.0    0.11    3.34    3.06    -2.02602   160.33786    29.12014
   203  N   5.0   -0.16    3.23    1.96    -3.90858   160.34784    30.83871
   204  N   5.0   -0.17    3.24    1.96     0.18831   159.26908    29.70487
   205  H   1.0    0.11    1.11    1.45    -3.26581   166.75522    19.26469
   206  H   1.0    0.04    1.05    1.44    -7.52777   164.04041    19.32791
   207  H   1.0    0.06    1.03    1.43    -5.74896   167.32011    23.68261
   208  H   1.0    0.05    1.04    1.43    -8.17710   165.01641    23.93023
   209  H   1.0    0.06    1.03    1.43    -5.10594   161.62373    22.73338
   210  H   1.0    0.05    1.02    1.43    -2.69032   163.94536    22.53295
   211  H   1.0    0.04    1.03    1.43    -3.88006   165.24033    27.06281
   212  H   1.0    0.05    1.03    1.43    -5.94962   162.60157    27.06342
   213  H   1.0    0.08    1.07    1.44    -0.72058   161.49825    25.74469
   214  H   1.0    0.10    1.04    1.43    -5.67764   160.65356    30.19140
   215  H   1.0    0.11    1.04    1.43    -3.80132   159.04324    32.22177
   216  H   1.0    0.09    1.03    1.43     1.58671   159.15681    28.41733
   217  H   1.0    0.11    1.03    1.43     0.34098   157.99018    31.11082
   218  N   5.0   -0.13    3.54    2.11    -8.97358   169.92990    20.58605
   219  C   4.0    0.03    4.28    4.15   -10.75951   172.03690    20.51664
   220  C   4.0    0.15    3.47    3.10   -11.97647   172.29364    17.83518
   221  O   6.0   -0.30    1.27    1.80   -14.24536   172.17440    17.29054
   222  C   4.0   -0.06    4.13    3.86    -9.24767   174.38847    21.24762
   223  H   1.0    0.11    1.11    1.45    -7.13027   170.44648    20.72524
   224  H   1.0    0.05    1.04    1.43   -12.28583   171.67113    21.87037
   225  H   1.0    0.06    1.00    1.43   -10.41162   176.06756    21.06425
   226  H   1.0    0.06    1.00    1.43    -8.61936   174.20910    23.19221
   227  H   1.0    0.07    1.01    1.43    -7.60112   174.55598    20.03417
   228  N   5.0   -0.13    3.64    2.20   -10.21094   172.68460    16.10015
   229  C   4.0    0.05    4.50    4.53   -10.91843   172.86850    13.50046
   230  C   4.0    0.15    3.45    3.09   -11.93954   170.37755    12.45849
   231  O   6.0   -0.33    1.29    1.80   -12.39352   170.13409    10.20954
   232  C   4.0   -0.04    4.26    4.13    -8.69012   173.89136    11.95975
   233  C   4.0   -0.04    4.21    4.02    -9.65505   175.67607     9.89630
   234  C   4.0    0.16    3.21    3.04   -10.90552   178.07596    10.91788
   235  O   6.0   -0.26    1.19    1.80   -13.18490   178.44699    10.79520
   236  N   5.0   -0.18    3.17    1.95    -9.31114   179.80733    11.90231
   237  H   1.0    0.12    1.11    1.45    -8.34622   172.51417    16.50780
   238  H   1.0    0.07    1.07    1.44   -12.51374   174.20136    13.37129
   239  H   1.0    0.05    1.03    1.43    -7.41445   174.87261    13.24612
   240  H   1.0    0.05    1.03    1.43    -7.68375   172.32046    11.09084
   241  H   1.0    0.04    1.03    1.43    -8.09584   176.22280     8.66345
   242  H   1.0    0.07    1.03    1.43   -11.06929   174.67360     8.78116
   243  H   1.0    0.08    1.03    1.43    -7.45212   179.46401    12.08043
   244  H   1.0    0.11    1.03    1.43   -10.02789   181.41740    12.61969
   245  N   5.0   -0.12    3.67    2.23   -12.32600   168.59385    14.20361
   246  C   4.0    0.03    4.37    4.33   -13.05972   166.05229    13.57645
   247  C   4.0    0.15    3.59    3.16   -15.64584   165.58124    14.74572
   248  O   6.0   -0.30    1.33    1.80   -17.37593   164.54369    13.56932
   249  C   4.0   -0.07    4.13    3.87   -11.14076   164.17909    14.61031
   250  H   1.0    0.12    1.17    1.46   -11.26581   168.72884    15.78021
   251  H   1.0    0.06    1.06    1.44   -13.21243   165.90997    11.51586
   252  H   1.0    0.04    1.00    1.43   -11.57068   162.28529    13.93756
   253  H   1.0    0.05    1.00    1.43    -9.25386   164.69105    13.98086
   254  H   1.0    0.07    1.02    1.43   -11.18637   164.15694    16.65761
   255  N   5.0   -0.14    3.60    2.16   -15.77231   166.44738    17.12389
   256  C   4.0    0.04    4.38    4.35   -18.18050   167.04031    18.28845
   257  C   4.0    0.17    3.56    3.14   -19.79569   167.93163    16.01641
   258  O   6.0   -0.25    1.25    1.80   -21.90152   167.06880    15.62080
   259  C   4.0   -0.04    4.18    3.96   -17.97416   168.86277    20.56192
   260  C   4.0   -0.04    4.10    3.80   -17.06075   167.62604    23.04973
   261  C   4.0   -0.00    4.14    3.89   -18.71610   165.34429    23.89514
   262  N   5.0   -0.13    3.35    2.00   -19.62037   165.40744    26.51670
   263  C   4.0    0.11    3.31    3.06   -19.26692   163.74206    28.39144
   264  N   5.0   -0.16    3.23    1.96   -17.30895   162.13643    28.35980
   265  N   5.0   -0.16    3.23    1.96   -20.72111   163.88513    30.46013
   266  H   1.0    0.12    1.13    1.45   -14.17883   166.92798    18.07847
   267  H   1.0    0.06    1.05    1.44   -19.11317   165.29380    18.91624
   268  H   1.0    0.07    1.04    1.43   -16.69478   170.39251    20.04934
   269  H   1.0    0.06    1.03    1.43   -19.84588   169.67520    20.85714
   270  H   1.0    0.06    1.03    1.43   -15.11704   167.00475    22.78352
   271  H   1.0    0.05    1.03    1.43   -17.08781   169.07119    24.51336
   272  H   1.0    0.05    1.03    1.43   -20.41537   165.30009    22.72138
   273  H   1.0    0.05    1.02    1.43   -17.68918   163.59031    23.57493
   274  H   1.0    0.09    1.07    1.44   -20.98136   166.71951    26.80649
   275  H   1.0    0.09    1.04    1.43   -16.30114   161.98262    26.74901
   276  H   1.0    0.12    1.03    1.43   -17.36070   160.51118    29.35853
   277  H   1.0    0.10    1.03    1.43   -22.25752   165.00738    30.51854
   278  H   1.0    0.11    1.03    1.43   -20.52680   162.57540    31.82520
   279  N   5.0   -0.13    3.54    2.11   -18.57536   169.45552    14.38994
   280  C   4.0    0.05    4.33    4.25   -19.76192   170.24479    12.04304
   281  C   4.0    0.18    3.48    3.11   -21.42571   168.22570    10.70366
   282  O   6.0   -0.26    1.30    1.80   -23.60647   168.87153    10.21128
   283  C   4.0   -0.03    4.20    3.99   -17.86083   171.62147    10.27262
   284  C   4.0   -0.02    4.18    3.97   -17.09933   170.32339     7.79822
   285  C   4.0    0.25    3.09    3.02   -17.87307   171.74835     5.35028
   286  O   6.0   -0.29    1.22    1.80   -17.04275   173.95648     5.10912
   287  O   6.0   -0.29    1.15    1.80   -19.12166   170.59678     3.69996
   288  H   1.0    0.10    1.08    1.44   -16.95199   170.31723    14.92065
   289  H   1.0    0.07    1.06    1.44   -21.21672   171.65190    12.55708
   290  H   1.0    0.07    1.03    1.43   -18.66804   173.46317     9.79622
   291  H   1.0    0.07    1.05    1.44   -16.17692   172.00521    11.38642
   292  H   1.0    0.07    1.07    1.44   -15.05118   170.25411     7.69516
   293  H   1.0    0.05    1.05    1.44   -17.81169   168.40249     7.67661
   294  N   5.0   -0.13    3.46    2.05   -20.50441   166.05596     9.70120
   295  C   4.0    0.05    4.41    4.39   -22.23295   164.83931     7.95815
   296  C   4.0    0.10    3.26    3.05   -23.36511   162.51880     9.11140
   297  O   6.0   -0.29    1.32    1.80   -22.42625   161.65971    11.03047
   298  C   4.0    0.03    4.15    3.89   -21.18283   164.16269     5.34792
   299  O   6.0   -0.24    2.07    1.83   -23.25795   163.60273     3.79109
   300  H   1.0    0.12    1.09    1.44   -19.17379   165.05058    10.64939
   301  H   1.0    0.08    1.11    1.45   -23.74751   166.22419     7.64463
   302  H   1.0    0.05    1.01    1.43   -20.06682   165.73951     4.60018
   303  H   1.0    0.05    1.02    1.43   -20.03527   162.45500     5.42880
   304  H   1.0    0.13    1.02    1.43   -24.11837   165.17472     3.40674
   305  N   5.0   -0.20    3.24    1.97   -17.60265   155.65846     2.03052
   306  C   4.0    0.03    4.29    4.18   -15.06407   155.23655     2.89189
   307  C   4.0    0.08    3.23    3.04   -14.05540   152.61201     2.35386
   308  O   6.0   -0.29    1.14    1.80   -12.10923   152.38066     1.13112
   309  C   4.0   -0.05    4.42    4.41   -14.89279   155.62013     5.73143
   310  C   4.0   -0.02    4.20    3.99   -16.08132   158.05951     6.68606
   311  C   4.0   -0.07    4.10    3.80   -15.05417   158.55494     9.35624
   312  C   4.0   -0.08    4.15    3.90   -15.46179   160.21059     4.85075
   313  H   1.0    0.09    1.03    1.43   -18.96807   155.17944     3.28942
   314  H   1.0    0.04    1.06    1.44   -13.84387   156.54141     1.85255
   315  H   1.0    0.05    1.03    1.43   -15.77845   154.01551     6.67345
   316  H   1.0    0.04    1.04    1.43   -12.88629   155.60153     6.22245
   317  H   1.0    0.05    1.05    1.44   -18.12972   157.83372     6.80524
   318  H   1.0    0.05    1.00    1.43   -15.97504   160.18873    10.19109
   319  H   1.0    0.05    1.00    1.43   -15.38823   156.92133    10.55318
   320  H   1.0    0.04    1.00    1.43   -13.02963   158.89555     9.26443
   321  H   1.0    0.04    1.00    1.43   -15.91756   162.02240     5.70057
   322  H   1.0    0.03    1.00    1.43   -13.44560   160.18541     4.45315
   323  H   1.0    0.04    1.01    1.43   -16.49598   160.01306     3.09606
   324  N   5.0   -0.18    3.23    1.96   -13.37035   152.51853    -4.38272
   325  C   4.0    0.05    4.26    4.12   -11.30890   153.90734    -5.40457
   326  C   4.0    0.10    3.26    3.04    -8.69924   153.06999    -4.40266
   327  O   6.0   -0.25    1.12    1.80    -6.85313   153.15931    -5.82099
   328  C   4.0   -0.04    4.33    4.25   -11.79001   156.70480    -5.03813
   329  C   4.0   -0.04    4.11    3.82   -10.95635   157.52427    -2.40053
   330  S   6.0   -0.02    2.47    3.10    -7.69833   158.79427    -2.30108
   331  C   4.0   -0.07    3.91    3.48    -8.66276   162.00154    -3.19142
   332  H   1.0    0.10    1.03    1.43   -14.53117   153.32529    -3.09170
   333  H   1.0    0.07    1.06    1.44   -11.21984   153.42697    -7.41500
   334  H   1.0    0.06    1.04    1.43   -10.72735   157.77687    -6.44408
   335  H   1.0    0.04    1.04    1.43   -13.80863   157.01018    -5.27204
   336  H   1.0    0.04    1.07    1.44   -12.16608   159.04532    -1.72188
   337  H   1.0    0.06    1.08    1.44   -11.02909   155.96308    -1.07049
   338  H   1.0    0.04    1.05    1.44    -7.00131   163.15667    -2.92434
   339  H   1.0    0.06    1.04    1.43    -9.28465   162.02505    -5.13779
   340  H   1.0    0.04    1.04    1.43   -10.14757   162.62284    -1.91861
   341  N   5.0   -0.11    4.13    3.24   -20.19058   177.45731    -3.24548
   342  C   4.0    0.01    4.18    3.95   -18.04659   177.95112    -1.49425
   343  C   4.0    0.09    3.19    3.04   -16.29258   179.86143    -2.89124
   344  O   6.0   -0.28    1.18    1.80   -16.36850   179.82084    -5.20808
   345  C   4.0    0.04    4.13    3.85   -16.65288   175.38635    -1.05268
   346  O   6.0   -0.25    2.04    1.83   -14.71268   175.62784     0.71218
   347  H   1.0    0.06    1.02    1.43   -20.82172   175.61932    -3.12509
   348  H   1.0    0.08    1.02    1.43   -21.69175   178.65500    -2.88844
   349  H   1.0    0.09    1.06    1.44   -19.46380   177.87534    -5.05327
   350  H   1.0    0.06    1.04    1.43   -18.67281   178.67386     0.33274
   351  H   1.0    0.06    1.01    1.43   -18.02507   173.96675    -0.41953
   352  H   1.0    0.05    1.02    1.43   -15.77944   174.79770    -2.82661
   353  H   1.0    0.16    1.06    1.44   -15.41671   175.26793     2.39984
   354  N   5.0   -0.19    3.22    1.96   -10.22504   178.91356    -2.14948
   355  C   4.0    0.03    4.22    4.05    -8.21050   177.06383    -2.36990
   356  C   4.0    0.15    3.44    3.09    -9.20753   174.48890    -3.25148
   357  O   6.0   -0.33    1.45    1.80    -9.19240   173.93525    -5.49996
   358  C   4.0   -0.08    4.13    3.86    -6.86978   177.01778     0.17530
   359  H   1.0    0.09    1.04    1.43   -10.67753   179.35734    -0.34879
   360  H   1.0    0.04    1.05    1.44    -6.93846   177.69222    -3.88351
   361  H   1.0    0.04    1.00    1.43    -5.38889   175.59501     0.19279
   362  H   1.0    0.04    1.00    1.43    -6.01673   178.84979     0.55279
   363  H   1.0    0.05    1.00    1.43    -8.20468   176.61240     1.68693
   364  N   5.0   -0.15    3.43    2.04   -10.08959   172.84263    -1.56929
   365  C   4.0    0.03    4.41    4.40   -10.47623   170.26362    -2.36645
   366  C   4.0    0.16    3.58    3.15   -11.75492   170.01629    -4.93296
   367  O   6.0   -0.32    1.34    1.80   -11.30348   168.13911    -6.21406
   368  C   4.0   -0.05    4.32    4.23   -11.98995   168.57050    -0.53602
   369  C   4.0   -0.02    4.14    3.88   -10.99354   168.12842     2.18882
   370  C   4.0   -0.08    4.13    3.87   -12.55053   165.97487     3.30609
   371  C   4.0   -0.08    4.09    3.78    -8.21072   167.45971     2.50847
   372  H   1.0    0.08    1.06    1.44   -10.43413   173.30622     0.24770
   373  H   1.0    0.04    1.06    1.44    -8.62088   169.36468    -2.59263
   374  H   1.0    0.05    1.03    1.43   -13.89939   169.32645    -0.33570
   375  H   1.0    0.04    1.04    1.43   -12.12545   166.73742    -1.47323
   376  H   1.0    0.05    1.05    1.44   -11.37639   169.83776     3.29332
   377  H   1.0    0.04    1.00    1.43   -12.08911   165.71592     5.28942
   378  H   1.0    0.04    1.00    1.43   -14.55966   166.38833     3.17374
   379  H   1.0    0.03    1.00    1.43   -12.15719   164.22466     2.30624
   380  H   1.0    0.04    1.00    1.43    -7.81505   167.18582     4.50340
   381  H   1.0    0.03    1.00    1.43    -7.75820   165.71581     1.51813
   382  H   1.0    0.03    1.00    1.43    -6.98034   168.95305     1.81480
   383  N   5.0   -0.14    3.53    2.10   -13.61902   171.60007    -5.64993
   384  C   4.0    0.03    4.42    4.42   -15.20586   170.81707    -7.76289
   385  C   4.0    0.16    3.35    3.07   -13.79390   170.69013   -10.32467
   386  O   6.0   -0.28    1.20    1.80   -14.69062   169.66005   -12.18431
   387  C   4.0   -0.04    4.20    4.01   -17.65019   172.40777    -7.76076
   388  C   4.0   -0.04    4.13    3.86   -20.06619   170.94131    -8.51821
   389  C   4.0   -0.05    4.12    3.85   -21.43815   169.63417    -6.29999
   390  C   4.0   -0.03    4.10    3.81   -23.33106   167.61667    -7.16150
   391  N   5.0   -0.11    4.00    2.87   -25.55840   168.68517    -8.52779
   392  H   1.0    0.09    1.07    1.44   -13.52187   173.45381    -5.22508
   393  H   1.0    0.06    1.07    1.44   -15.68691   168.83552    -7.37639
   394  H   1.0    0.04    1.04    1.43   -17.87943   173.12979    -5.84939
   395  H   1.0    0.06    1.02    1.43   -17.39178   173.99752    -9.04553
   396  H   1.0    0.05    1.03    1.43   -21.32690   172.31152    -9.39834
   397  H   1.0    0.06    1.03    1.43   -19.53105   169.55783    -9.94767
   398  H   1.0    0.04    1.03    1.43   -20.03936   168.67565    -5.12924
   399  H   1.0    0.05    1.02    1.43   -22.37836   171.02698    -5.11431
   400  H   1.0    0.05    1.02    1.43   -22.36199   166.30392    -8.42342
   401  H   1.0    0.05    1.02    1.43   -24.00641   166.57768    -5.51620
   402  H   1.0    0.08    1.02    1.43   -26.74050   167.26062    -9.11413
   403  H   1.0    0.07    1.02    1.43   -26.54799   169.89709    -7.36760
   404  H   1.0    0.07    1.02    1.43   -24.96023   169.66917   -10.10011
   405  N   5.0   -0.14    3.61    2.17   -11.49714   171.70437   -10.22089
   406  C   4.0    0.04    4.39    4.37    -9.61415   171.77574   -12.20134
   407  C   4.0    0.15    3.39    3.08    -8.20476   169.19465   -12.49630
   408  O   6.0   -0.27    1.20    1.80    -7.53410   168.23133   -14.49904
   409  C   4.0   -0.02    4.26    4.12    -7.79837   174.05919   -11.53324
   410  C   4.0   -0.04    4.19    3.98    -5.70021   173.31718    -9.61924
   411  C   4.0   -0.06    4.13    3.85    -9.39444   176.34838   -10.65291
   412  C   4.0   -0.07    3.99    3.60    -3.75999   175.33478    -8.91683
   413  H   1.0    0.10    1.15    1.45   -10.90972   172.53467    -8.60326
   414  H   1.0    0.07    1.05    1.44   -10.53230   172.15559   -14.01876
   415  H   1.0    0.05    1.05    1.44    -6.85396   174.57415   -13.30490
   416  H   1.0    0.06    1.07    1.44    -6.64363   172.76393    -7.89890
   417  H   1.0    0.05    1.04    1.43    -4.67815   171.69856   -10.38409
   418  H   1.0    0.05    1.00    1.43    -8.31029   178.06965   -10.92698
   419  H   1.0    0.06    1.00    1.43   -11.09958   176.47605   -11.78823
   420  H   1.0    0.07    1.02    1.43    -9.86642   176.21071    -8.67082
   421  H   1.0    0.04    1.00    1.43    -2.36310   174.50854    -7.66278
   422  H   1.0    0.05    1.00    1.43    -2.79061   176.04477   -10.58496
   423  H   1.0    0.05    1.00    1.43    -4.66003   176.91111    -7.96090
   424  N   5.0   -0.15    3.57    2.13    -7.76861   168.09159   -10.26799
   425  C   4.0    0.04    4.36    4.32    -6.54902   165.69813    -9.90516
   426  C   4.0    0.16    3.46    3.10    -8.38698   163.49685   -10.40860
   427  O   6.0   -0.30    1.29    1.80    -8.13817   161.39192    -9.50683
   428  C   4.0   -0.04    4.39    4.36    -5.74384   165.44939    -7.12853
   429  C   4.0   -0.02    4.13    3.87    -3.47275   166.97021    -6.12891
   430  C   4.0   -0.08    4.10    3.80    -4.20911   169.50171    -4.93115
   431  C   4.0   -0.08    4.11    3.82    -2.09380   165.40085    -4.09004
   432  H   1.0    0.11    1.13    1.45    -8.78806   168.66317    -8.74522
   433  H   1.0    0.06    1.05    1.44    -4.94733   165.52830   -11.20789
   434  H   1.0    0.05    1.04    1.43    -7.41181   165.91774    -6.01548
   435  H   1.0    0.06    1.05    1.44    -5.33976   163.44631    -6.85628
   436  H   1.0    0.04    1.05    1.44    -2.16332   167.29662    -7.69401
   437  H   1.0    0.04    1.00    1.43    -2.67882   170.85241    -5.11923
   438  H   1.0    0.05    1.01    1.43    -5.88744   170.25872    -5.80281
   439  H   1.0    0.04    1.01    1.43    -4.57017   169.23074    -2.92517
   440  H   1.0    0.04    1.00    1.43    -0.48103   166.46366    -3.39694
   441  H   1.0    0.03    1.00    1.43    -3.34736   164.98784    -2.51928
   442  H   1.0    0.05    1.00    1.43    -1.42042   163.61702    -4.85520
   443  N   5.0   -0.13    3.50    2.07   -10.43991   164.03494   -11.80226
   444  C   4.0    0.05    4.39    4.36   -12.02249   161.95407   -12.54526
   445  C   4.0    0.11    3.22    3.04   -11.17921   161.01384   -15.12773
   446  O   6.0   -0.22    1.12    1.80   -12.09468   159.11208   -16.07418
   447  C   4.0   -0.02    4.27    4.13   -14.89259   162.50040   -12.38819
   448  C   4.0    0.17    3.23    3.04   -16.21827   160.08428   -11.52047
   449  O   6.0   -0.23    1.18    1.80   -17.36299   158.67007   -12.93369
   450  N   5.0   -0.18    3.20    1.96   -15.92769   159.66876    -9.02724
   451  H   1.0    0.11    1.09    1.44   -10.72320   165.72385   -12.63391
   452  H   1.0    0.08    1.10    1.44   -11.56079   160.41395   -11.22925
   453  H   1.0    0.06    1.03    1.43   -15.21471   164.01228   -11.02982
   454  H   1.0    0.08    1.03    1.43   -15.62086   163.05686   -14.22900
   455  H   1.0    0.10    1.03    1.43   -16.73853   158.14104    -8.22726
   456  H   1.0    0.08    1.03    1.43   -14.86980   160.83414    -7.96185
   457  N   5.0   -0.20    3.25    1.97     7.65776   154.24220    12.17367
   458  C   4.0    0.02    4.21    4.01     6.46928   156.23902    13.62748
   459  C   4.0    0.15    3.39    3.08     3.50546   155.87320    13.25462
   460  O   6.0   -0.32    1.29    1.80     1.87462   155.42447    14.84506
   461  C   4.0   -0.05    4.15    3.91     7.78050   158.78569    12.67758
   462  C   4.0   -0.04    4.08    3.76    10.54212   159.29395    13.60307
   463  C   4.0   -0.04    4.11    3.82    10.75026   161.26571    15.75684
   464  C   4.0   -0.02    4.07    3.75    13.46408   162.25390    16.34718
   465  N   5.0   -0.11    3.99    2.84    13.32964   164.70804    17.83506
   466  H   1.0    0.09    1.04    1.43     9.18120   154.83223    11.19224
   467  H   1.0    0.04    1.04    1.43     6.88178   155.97737    15.64545
   468  H   1.0    0.05    1.03    1.43     7.73156   158.73646    10.63483
   469  H   1.0    0.05    1.02    1.43     6.57760   160.36797    13.23601
   470  H   1.0    0.05    1.02    1.43    11.43467   157.52057    14.13897
   471  H   1.0    0.06    1.03    1.43    11.62596   160.04757    12.02562
   472  H   1.0    0.06    1.04    1.43     9.64543   162.90191    15.15976
   473  H   1.0    0.04    1.02    1.43     9.95475   160.45625    17.47438
   474  H   1.0    0.06    1.01    1.43    14.53686   160.85466    17.41003
   475  H   1.0    0.07    1.02    1.43    14.45482   162.64915    14.58309
   476  H   1.0    0.07    1.02    1.43    15.13399   165.33043    18.18264
   477  H   1.0    0.09    1.06    1.44    12.36159   165.92066    16.62365
   478  H   1.0    0.06    1.02    1.43    12.38692   164.40028    19.51041
   479  N   5.0   -0.15    3.50    2.08     2.94486   156.13546    10.84068
   480  C   4.0    0.04    4.43    4.43     0.36044   155.74402    10.17318
   481  C   4.0    0.09    3.47    3.10    -0.69302   153.25270    11.11129
   482  O   6.0   -0.30    1.22    1.80    -2.65824   153.18238    12.34392
   483  C   4.0   -0.05    4.40    4.38     0.04291   155.71635     7.31731
   484  C   4.0   -0.02    4.23    4.06    -2.70727   155.18763     6.60782
   485  C   4.0   -0.08    4.10    3.81    -3.19724   156.42340     4.00292
   486  C   4.0   -0.06    4.15    3.90    -3.29554   152.38833     6.51439
   487  H   1.0    0.08    1.06    1.44     4.21455   156.51584     9.45474
   488  H   1.0    0.05    1.06    1.44    -0.82075   157.23695    11.00966
   489  H   1.0    0.04    1.03    1.43     0.61666   157.56687     6.60560
   490  H   1.0    0.05    1.03    1.43     1.30419   154.30712     6.50356
   491  H   1.0    0.04    1.06    1.44    -3.93973   156.07336     8.00759
   492  H   1.0    0.04    1.00    1.43    -5.12838   156.08983     3.39179
   493  H   1.0    0.03    1.00    1.43    -2.87692   158.44404     4.10713
   494  H   1.0    0.05    1.00    1.43    -1.93227   155.60785     2.60658
   495  H   1.0    0.05    1.01    1.43    -5.05942   152.15937     5.48681
   496  H   1.0    0.05    1.00    1.43    -1.82337   151.34839     5.52026
   497  H   1.0    0.06    1.03    1.43    -3.59029   151.55061     8.33712
   498  N   5.0   -0.18    3.37    2.01     0.29309   150.11104    14.99968
   499  C   4.0    0.04    4.45    4.46    -0.41112   149.56226    17.57332
   500  C   4.0    0.15    3.56    3.14    -2.94639   150.71445    18.21864
   501  O   6.0   -0.31    1.30    1.80    -4.42346   149.67688    19.69231
   502  C   4.0   -0.01    4.31    4.22     1.45362   150.47219    19.55135
   503  C   4.0   -0.07    4.14    3.88     4.21160   150.28003    18.73670
   504  C   4.0   -0.06    4.25    4.11     0.92744   153.17603    20.29418
   505  H   1.0    0.09    1.03    1.43     2.12425   150.53192    14.59486
   506  H   1.0    0.06    1.05    1.44    -0.63233   147.49568    17.75477
   507  H   1.0    0.05    1.06    1.44     1.13838   149.25627    21.20183
   508  H   1.0    0.05    1.00    1.43     5.39775   150.48629    20.40048
   509  H   1.0    0.05    1.00    1.43     4.60997   148.45079    17.88233
   510  H   1.0    0.05    1.01    1.43     4.66643   151.75313    17.39597
   511  H   1.0    0.05    1.01    1.43     2.37163   153.74063    21.65386
   512  H   1.0    0.07    1.02    1.43     1.05322   154.41862    18.67134
   513  H   1.0    0.05    1.02    1.43    -0.88847   153.40715    21.22194
   514  N   5.0   -0.14    3.63    2.19    -3.23087   152.98915    17.24996
   515  C   4.0    0.04    4.41    4.40    -5.38550   154.59108    17.72084
   516  C   4.0    0.09    3.39    3.08    -7.67996   153.10771    17.08717
   517  O   6.0   -0.31    1.18    1.80    -9.63727   153.09998    18.32331
   518  C   4.0   -0.02    4.28    4.15    -5.29701   157.00324    16.09179
   519  C   4.0   -0.07    4.13    3.86    -7.30621   157.17852    14.01826
   520  C   4.0   -0.07    4.12    3.85    -5.44914   159.26035    17.88487
   521  H   1.0    0.12    1.13    1.45    -1.91640   153.59290    15.99548
   522  H   1.0    0.07    1.08    1.44    -5.44686   155.12074    19.72730
   523  H   1.0    0.06    1.06    1.44    -3.44542   157.01827    15.16747
   524  H   1.0    0.03    1.00    1.43    -7.32877   159.09993    13.28116
   525  H   1.0    0.05    1.00    1.43    -6.89769   155.90482    12.47358
   526  H   1.0    0.05    1.01    1.43    -9.18042   156.76763    14.75098
   527  H   1.0    0.04    1.00    1.43    -5.26799   161.01038    16.82279
   528  H   1.0    0.05    1.00    1.43    -7.26228   159.22324    18.84797
   529  H   1.0    0.05    1.00    1.43    -3.97540   159.12929    19.29891
   530  N   5.0   -0.19    3.27    1.97    -9.33592   148.55062    21.45555
   531  C   4.0    0.04    4.35    4.29   -10.46604   149.87875    23.55684
   532  C   4.0    0.16    3.43    3.09   -13.31443   149.81004    23.43520
   533  O   6.0   -0.29    1.24    1.80   -14.55450   149.37218    25.34096
   534  C   4.0   -0.03    4.33    4.24    -9.47530   152.59845    23.70158
   535  C   4.0   -0.02    4.20    4.01    -6.61099   152.66581    24.16941
   536  C   4.0    0.25    3.15    3.03    -6.08994   155.39443    25.01002
   537  O   6.0   -0.31    1.20    1.80    -5.92657   156.96180    23.26999
   538  O   6.0   -0.28    1.16    1.80    -5.99114   155.85081    27.32465
   539  H   1.0    0.13    1.07    1.44    -7.71575   149.26224    20.71176
   540  H   1.0    0.06    1.05    1.44    -9.96010   148.90305    25.33369
   541  H   1.0    0.08    1.06    1.44    -9.93722   153.61183    21.98422
   542  H   1.0    0.07    1.03    1.43   -10.43518   153.49670    25.29828
   543  H   1.0    0.06    1.02    1.43    -6.12895   151.33630    25.68471
   544  H   1.0    0.07    1.04    1.43    -5.55497   152.16258    22.49239
   545  N   5.0   -0.14    3.49    2.07   -14.26374   150.38734    21.17679
   546  C   4.0    0.04    4.39    4.36   -16.89797   150.32771    20.64331
   547  C   4.0    0.09    3.26    3.04   -17.86223   147.97003    19.40642
   548  O   6.0   -0.27    1.16    1.80   -20.13261   147.85938    18.99156
   549  C   4.0   -0.04    4.28    4.17   -17.75039   152.51730    19.04533
   550  C   4.0   -0.04    4.12    3.84   -17.79974   155.01913    20.61031
   551  C   4.0   -0.00    4.12    3.84   -20.38456   156.44535    20.65601
   552  N   5.0   -0.13    3.34    2.00   -20.70223   158.24624    18.55950
   553  C   4.0    0.10    3.32    3.06   -22.00801   157.88283    16.39302
   554  N   5.0   -0.16    3.23    1.96   -24.20594   156.69189    16.34978
   555  N   5.0   -0.16    3.33    1.99   -21.12946   158.87803    14.27187
   556  H   1.0    0.10    1.08    1.44   -13.04991   150.66673    19.72566
   557  H   1.0    0.06    1.08    1.44   -17.87368   150.37577    22.48142
   558  H   1.0    0.05    1.03    1.43   -16.46571   152.65775    17.43768
   559  H   1.0    0.06    1.04    1.44   -19.63854   152.08900    18.34213
   560  H   1.0    0.06    1.03    1.43   -17.31862   154.58960    22.56488
   561  H   1.0    0.05    1.02    1.43   -16.34011   156.28353    19.89127
   562  H   1.0    0.05    1.02    1.43   -21.91816   155.07043    20.64219
   563  H   1.0    0.06    1.02    1.43   -20.51758   157.49624    22.42573
   564  H   1.0    0.08    1.08    1.44   -19.14477   159.33894    18.33196
   565  H   1.0    0.10    1.02    1.43   -24.89058   155.54864    17.74776
   566  H   1.0    0.10    1.04    1.43   -25.02855   156.31908    14.68070
   567  H   1.0    0.11    1.04    1.43   -19.80691   160.25368    14.29398
   568  H   1.0    0.13    1.11    1.45   -22.23725   158.96472    12.71998
   569  N   5.0   -0.19    3.19    1.95   -20.03861   147.10138    26.54885
   570  C   4.0    0.04    4.21    4.03   -22.18850   148.75791    27.08837
   571  C   4.0    0.10    3.19    3.03   -24.57600   147.66403    25.89584
   572  O   6.0   -0.23    1.12    1.80   -26.48372   147.44640    27.18927
   573  C   4.0   -0.03    4.17    3.93   -21.70404   151.55786    26.38233
   574  C   4.0   -0.02    4.17    3.93   -19.35148   152.47877    27.84277
   575  C   4.0    0.25    3.05    3.02   -18.47301   155.31992    27.68605
   576  O   6.0   -0.29    1.17    1.80   -20.14887   156.87395    27.14753
   577  O   6.0   -0.27    1.15    1.80   -16.18582   155.74829    28.16169
   578  H   1.0    0.11    1.03    1.43   -18.28521   147.86385    26.67193
   579  H   1.0    0.07    1.06    1.44   -22.53225   148.70291    29.14196
   580  H   1.0    0.05    1.02    1.43   -21.45934   151.73282    24.34420
   581  H   1.0    0.07    1.02    1.43   -23.35995   152.66377    26.89866
   582  H   1.0    0.06    1.03    1.43   -19.68349   152.11311    29.85472
   583  H   1.0    0.07    1.04    1.43   -17.68447   151.38985    27.31003
   584  N   5.0   -0.19    3.19    1.95    14.21644   152.69570    33.22188
   585  C   4.0    0.03    4.23    4.05    13.95782   152.91522    30.49058
   586  C   4.0    0.09    3.24    3.04    13.87724   150.30140    29.32891
   587  O   6.0   -0.28    1.12    1.80    12.47910   149.72375    27.56594
   588  C   4.0   -0.03    4.27    4.13    16.14460   154.39570    29.32166
   589  C   4.0   -0.02    4.18    3.95    15.53089   155.12612    26.60284
   590  C   4.0    0.27    3.08    3.02    17.93040   155.33335    24.86781
   591  O   6.0   -0.24    1.18    1.80    19.87936   154.24992    25.60902
   592  O   6.0   -0.26    1.16    1.80    17.63833   156.52598    22.85850
   593  H   1.0    0.10    1.03    1.43    15.31293   154.02872    34.05815
   594  H   1.0    0.07    1.05    1.44    12.15653   153.86597    30.04995
   595  H   1.0    0.06    1.02    1.43    16.46508   156.10063    30.45069
   596  H   1.0    0.08    1.03    1.43    17.87034   153.25988    29.37162
   597  H   1.0    0.07    1.03    1.43    14.30303   153.69854    25.75370
   598  H   1.0    0.06    1.02    1.43    14.50431   156.91566    26.55160
   599  N   5.0   -0.18    3.29    1.98     8.05618   145.65869    30.68796
   600  C   4.0    0.04    4.30    4.19     5.98531   146.15610    29.00870
   601  C   4.0    0.10    3.18    3.03     5.93877   144.32117    26.78175
   602  O   6.0   -0.25    1.12    1.80     3.94745   143.30268    26.16221
   603  C   4.0   -0.03    4.31    4.21     6.25973   148.92855    28.33868
   604  C   4.0   -0.02    4.32    4.23     5.49774   150.25695    30.75849
   605  C   4.0    0.25    3.12    3.03     5.78080   153.12066    30.73279
   606  O   6.0   -0.29    1.17    1.80     7.53566   154.02404    29.41825
   607  O   6.0   -0.27    1.17    1.80     4.19740   154.24065    32.09800
   608  H   1.0    0.10    1.04    1.43     9.06525   147.13527    31.35215
   609  H   1.0    0.06    1.06    1.44     4.18123   145.85117    30.00675
   610  H   1.0    0.08    1.03    1.43     8.19621   149.40235    27.82175
   611  H   1.0    0.05    1.02    1.43     5.00696   149.48687    26.79774
   612  H   1.0    0.06    1.03    1.43     3.52573   149.86579    31.23518
   613  H   1.0    0.06    1.05    1.44     6.66932   149.67424    32.34785
   614  H   1.0    0.10    1.07    1.44     4.59322   182.56600    -2.21470
   615  H   1.0    0.07    1.05    1.44   -24.86657   161.70028     8.30723
   616  H   1.0    0.09    1.08    1.44   -17.81630   157.30894     1.68002
   617  H   1.0    0.07    1.04    1.44   -14.97976   151.09435     2.99678
   618  H   1.0    0.11    1.08    1.44   -14.41935   152.05337    -5.63803
   619  H   1.0    0.07    1.04    1.43    -8.52093   152.46396    -2.62165
   620  H   1.0    0.06    1.04    1.43   -15.18860   181.03065    -1.89866
   621  H   1.0    0.10    1.07    1.44    -9.75780   180.35631    -2.91937
   622  H   1.0    0.08    1.05    1.44    -9.85103   161.95429   -16.08823
   623  H   1.0    0.10    1.07    1.44     8.17058   153.00493    13.22188
   624  H   1.0    0.06    1.05    1.44     0.21363   151.63943    10.72865
   625  H   1.0    0.10    1.08    1.44    -0.05778   148.76838    14.01647
   626  H   1.0    0.07    1.06    1.44    -7.70042   152.00981    15.54922
   627  H   1.0    0.11    1.07    1.44    -8.94697   146.96427    21.92962
   628  H   1.0    0.07    1.04    1.44   -16.66345   146.57905    18.96015
   629  H   1.0    0.12    1.07    1.44   -20.03977   145.79632    27.63944
   630  H   1.0    0.08    1.04    1.43   -24.56920   147.13593    24.08142
   631  H   1.0    0.11    1.07    1.44    12.68317   152.81236    33.94853
   632  H   1.0    0.08    1.05    1.44    15.00152   148.93633    29.99497
   633  H   1.0    0.11    1.08    1.44     7.48159   144.86601    32.07867
   634  H   1.0    0.07    1.04    1.43     7.52849   143.95013    25.82981

  Z AO/shell   Hii/eV     exponent
  1     Wed Apr 25 08:07:45 CEST 2018   EN: 2.200 GM2: 0.406  GM3: 0.0800  RAES: 1.40
     1s    -10.707211    1.230000
  6     Wed Apr 25 08:07:45 CEST 2018   EN: 2.550 GM2: 0.538  GM3: 0.1500  RAES: 3.00
     2s    -13.970922    2.096432
     2p    -10.063292    1.800000
  7     Wed Apr 25 08:07:45 CEST 2018   EN: 3.040 GM2: 0.461  GM3:-0.0640  RAES: 1.90
     2s    -16.686243    2.339881
     2p    -12.523956    2.014332
  8     Wed Apr 25 08:07:45 CEST 2018   EN: 3.440 GM2: 0.452  GM3:-0.0517  RAES: 1.80
     2s    -20.229985    2.439742
     2p    -15.503117    2.137023
 16     Tue Apr 24 11:44:34 CEST 2018   EN: 2.580 GM2: 0.340  GM3:-0.0502  RAES: 3.10
     3s    -20.029654    1.981333
     3p    -11.377694    2.025643
     3d     -0.420282    1.702555
 no old-style atom pair restraining (fixing) potential

molecular fragmentation (1/2 indicates fragments):
111111111111111111111111111111111111111111111111111111111111111111111111
111111111111111111111111111111111111111111111111111111111111111111111111
111111111111111111111111111111111111111111111111111111111111111111111111
111111111111111111111111111111111111111111111111111111111111111111111111
111111111111111122222222222222222222222222222222222222222222222222222222
222222222222222222222222222222222222222222222222222222222222222222222222
222222222222222222222222222222222222222222222222222222222222222222222222
222222222222222222222222222222222222222222222222222222222222222222222222
2222222222222222222222222222222222222112222222222222222222
# atoms in fragment 1/2:   306   328
 fragment masses (1/2) :     2054.44     2116.66
CMA distance (Bohr)    :  13.003
constraining FC (au)   :  0.0500
           ------------------------------------------------- 
          |        Self-Consistent Charge Iterations        |
           ------------------------------------------------- 

 Ncao       : 1510
 Nao        : 1509
 Nshell     : 925
 Nel        : 1664
 T(el)      :   500.0
 intcut     :    35.0
 scfconv/Eh :  0.100E-06
   qconv/e  :  0.100E-04
 intneglect :  0.100E-08
 broydamp   :      0.400
 iter      E             dE          RMSdq      gap      omega  full diag
   1   -950.6317097 -0.950632E+03  0.450E+00    2.63       0.0  T
   2   -952.8463731 -0.221466E+01  0.210E+00    1.28       1.0  T
   3   -952.9944627 -0.148090E+00  0.121E+00    1.35       1.0  T
   4   -953.1527512 -0.158288E+00  0.251E-01    0.78       1.0  T
   5   -953.1603219 -0.757073E-02  0.122E-01    0.96       1.0  T
   6   -953.1616354 -0.131350E-02  0.474E-02    0.94       1.0  T
   7   -953.1619097 -0.274354E-03  0.198E-02    0.96       1.0  T
   8   -953.1619435 -0.337759E-04  0.842E-03    0.96       1.0  T
   9   -953.1619525 -0.902501E-05  0.377E-03    0.96       1.1  T
  10   -953.1619538 -0.127438E-05  0.152E-03    0.96       2.6  T
  11   -953.1619542 -0.351317E-06  0.702E-04    0.96       5.7  T
  12   -953.1619542 -0.573673E-07  0.277E-04    0.96      14.3  T
  13   -953.1619542 -0.881141E-08  0.153E-04    0.96      25.9  T
  14   -953.1619542 -0.318471E-08  0.626E-05    0.96      63.5  T
  15   -953.1619542 -0.524551E-09  0.306E-05    0.96     129.7  T
speedup  1.57
cpu  time for SCC    1 m  0.6 s
wall time for SCC    0 m 38.7 s

   *** convergence criteria satisfied after 15 iterations ***

          eigenvalues
 #    :         820        821        822        823        824        825        826        827
 occ. :        2.000      2.000      2.000      2.000      2.000      2.000      2.000      2.000
 eps  :       -10.072    -10.032    -10.002     -9.970     -9.847     -9.845     -9.829     -9.753
 #    :         828        829        830        831        832        833        834        835
 occ. :        2.000      2.000      2.000      2.000      2.000      0.000      0.000      0.000
 eps  :        -9.656     -9.640     -9.528     -9.491     -9.369     -8.407     -8.010     -7.961
 #    :         836        837        838        839        840        841        842        843
 occ. :        0.000      0.000      0.000      0.000      0.000      0.000      0.000      0.000
 eps  :        -7.777     -7.776     -7.753     -7.686     -7.547     -7.517     -7.515     -7.469


   #   Z            q   n(s)   n(p)   n(d)      C6AA      α(0)
   1   7 N     -0.389  1.323  4.067  0.000    30.073     8.145
   2   6 C      0.016  1.066  2.918  0.000    20.326     6.422
   3   6 C      0.267  1.050  2.683  0.000    22.501     7.768
   4   8 O     -0.494  1.743  4.751  0.000    23.652     6.521
   5   6 C     -0.125  1.047  3.079  0.000    22.959     6.832
   6   1 H      0.160  0.840  0.000  0.000     1.336     1.810
   7   1 H      0.063  0.937  0.000  0.000     2.162     2.300
   8   1 H      0.044  0.956  0.000  0.000     2.400     2.422
   9   1 H      0.061  0.939  0.000  0.000     2.187     2.313
  10   1 H      0.047  0.953  0.000  0.000     2.353     2.399
  11   7 N     -0.174  1.245  3.929  0.000    24.765     7.391
  12   6 C      0.018  1.063  2.919  0.000    20.275     6.411
  13   6 C      0.278  1.044  2.678  0.000    22.296     7.732
  14   8 O     -0.498  1.742  4.756  0.000    23.748     6.534
  15   6 C     -0.082  1.063  3.019  0.000    22.067     6.688
  16   6 C     -0.014  1.062  2.952  0.000    20.797     6.487
  17   6 C     -0.117  1.040  3.077  0.000    22.793     6.808
  18   6 C     -0.117  1.043  3.075  0.000    22.803     6.808
  19   1 H      0.213  0.787  0.000  0.000     1.040     1.598
  20   1 H      0.073  0.927  0.000  0.000     2.058     2.243
  21   1 H      0.066  0.934  0.000  0.000     2.130     2.282
  22   1 H      0.053  0.947  0.000  0.000     2.280     2.361
  23   1 H      0.034  0.966  0.000  0.000     2.532     2.488
  24   1 H      0.042  0.958  0.000  0.000     2.423     2.434
  25   1 H      0.043  0.957  0.000  0.000     2.410     2.428
  26   1 H      0.045  0.955  0.000  0.000     2.389     2.417
  27   1 H      0.037  0.963  0.000  0.000     2.488     2.467
  28   1 H      0.046  0.954  0.000  0.000     2.368     2.407
  29   1 H      0.038  0.962  0.000  0.000     2.479     2.462
  30   7 N     -0.187  1.256  3.931  0.000    25.045     7.433
  31   6 C      0.001  1.081  2.918  0.000    20.581     6.462
  32   6 C      0.282  1.041  2.677  0.000    22.222     7.719
  33   8 O     -0.482  1.747  4.736  0.000    23.397     6.485
  34   6 C     -0.093  1.064  3.030  0.000    22.280     6.720
  35   6 C     -0.078  1.052  3.026  0.000    21.998     6.678
  36   6 C     -0.100  1.057  3.043  0.000    22.402     6.738
  37   6 C     -0.052  1.060  2.991  0.000    21.596     6.634
  38   7 N     -0.149  1.231  3.919  0.000    24.223     7.310
  39   1 H      0.220  0.780  0.000  0.000     1.011     1.575
  40   1 H      0.092  0.908  0.000  0.000     1.861     2.134
  41   1 H      0.077  0.923  0.000  0.000     2.012     2.218
  42   1 H      0.059  0.941  0.000  0.000     2.206     2.323
  43   1 H      0.073  0.927  0.000  0.000     2.058     2.243
  44   1 H      0.063  0.937  0.000  0.000     2.169     2.303
  45   1 H      0.077  0.923  0.000  0.000     2.006     2.215
  46   1 H      0.083  0.917  0.000  0.000     1.943     2.180
  47   1 H      0.121  0.879  0.000  0.000     1.609     1.983
  48   1 H      0.118  0.882  0.000  0.000     1.632     1.998
  49   1 H      0.298  0.702  0.000  0.000     0.720     1.329
  50   1 H      0.295  0.705  0.000  0.000     0.727     1.336
  51   1 H      0.297  0.703  0.000  0.000     0.721     1.330
  52   7 N     -0.171  1.236  3.935  0.000    24.704     7.382
  53   6 C      0.009  1.065  2.927  0.000    20.439     6.438
  54   6 C      0.268  1.052  2.680  0.000    22.471     7.764
  55   8 O     -0.476  1.746  4.730  0.000    23.255     6.466
  56   6 C     -0.040  1.075  2.966  0.000    21.254     6.557
  57   6 C     -0.082  1.057  3.025  0.000    22.060     6.688
  58   6 C     -0.129  1.045  3.084  0.000    23.034     6.844
  59   6 C     -0.116  1.038  3.079  0.000    22.793     6.809
  60   1 H      0.210  0.790  0.000  0.000     1.055     1.609
  61   1 H      0.091  0.909  0.000  0.000     1.870     2.138
  62   1 H      0.087  0.913  0.000  0.000     1.904     2.158
  63   1 H      0.059  0.941  0.000  0.000     2.212     2.326
  64   1 H      0.046  0.954  0.000  0.000     2.374     2.409
  65   1 H      0.059  0.941  0.000  0.000     2.205     2.322
  66   1 H      0.058  0.942  0.000  0.000     2.220     2.330
  67   1 H      0.053  0.947  0.000  0.000     2.281     2.362
  68   1 H      0.043  0.957  0.000  0.000     2.403     2.424
  69   1 H      0.036  0.964  0.000  0.000     2.509     2.477
  70   1 H      0.034  0.966  0.000  0.000     2.531     2.488
  71   7 N     -0.177  1.265  3.912  0.000    24.842     7.402
  72   6 C      0.020  1.065  2.914  0.000    20.230     6.403
  73   6 C      0.275  1.051  2.674  0.000    22.350     7.741
  74   8 O     -0.465  1.748  4.717  0.000    23.019     6.433
  75   6 C     -0.072  1.059  3.013  0.000    21.872     6.658
  76   6 C     -0.018  1.057  2.961  0.000    20.862     6.497
  77   6 C     -0.121  1.043  3.079  0.000    22.875     6.818
  78   6 C     -0.117  1.040  3.077  0.000    22.792     6.806
  79   1 H      0.214  0.786  0.000  0.000     1.037     1.595
  80   1 H      0.085  0.915  0.000  0.000     1.925     2.170
  81   1 H      0.066  0.934  0.000  0.000     2.133     2.284
  82   1 H      0.039  0.961  0.000  0.000     2.466     2.456
  83   1 H      0.050  0.950  0.000  0.000     2.316     2.380
  84   1 H      0.041  0.959  0.000  0.000     2.435     2.440
  85   1 H      0.045  0.955  0.000  0.000     2.382     2.413
  86   1 H      0.050  0.950  0.000  0.000     2.325     2.384
  87   1 H      0.044  0.956  0.000  0.000     2.395     2.420
  88   1 H      0.046  0.954  0.000  0.000     2.365     2.405
  89   1 H      0.026  0.974  0.000  0.000     2.647     2.544
  90   7 N     -0.198  1.238  3.960  0.000    25.305     7.471
  91   6 C      0.034  1.053  2.913  0.000    20.011     6.371
  92   6 C      0.263  1.059  2.678  0.000    22.581     7.787
  93   8 O     -0.480  1.724  4.757  0.000    23.353     6.479
  94   6 C     -0.109  1.066  3.042  0.000    22.554     6.758
  95   6 C      0.288  1.045  2.667  0.000    22.125     7.702
  96   8 O     -0.462  1.748  4.715  0.000    22.965     6.425
  97   7 N     -0.299  1.289  4.010  0.000    27.699     7.816
  98   1 H      0.209  0.791  0.000  0.000     1.060     1.613
  99   1 H      0.088  0.912  0.000  0.000     1.894     2.152
 100   1 H      0.082  0.918  0.000  0.000     1.954     2.186
 101   1 H      0.082  0.918  0.000  0.000     1.961     2.190
 102   1 H      0.232  0.768  0.000  0.000     0.954     1.530
 103   1 H      0.227  0.773  0.000  0.000     0.979     1.550
 104   7 N     -0.192  1.289  3.904  0.000    25.174     7.452
 105   6 C      0.004  1.056  2.940  0.000    20.460     6.431
 106   6 C      0.265  1.046  2.690  0.000    22.536     7.773
 107   8 O     -0.446  1.732  4.714  0.000    22.629     6.378
 108   6 C     -0.128  1.065  3.063  0.000    22.938     6.818
 109   6 C      0.276  1.047  2.677  0.000    22.340     7.741
 110   8 O     -0.453  1.740  4.713  0.000    22.763     6.397
 111   7 N     -0.308  1.293  4.015  0.000    27.937     7.850
 112   1 H      0.248  0.752  0.000  0.000     0.890     1.477
 113   1 H      0.085  0.915  0.000  0.000     1.929     2.172
 114   1 H      0.102  0.898  0.000  0.000     1.769     2.080
 115   1 H      0.112  0.888  0.000  0.000     1.678     2.026
 116   1 H      0.234  0.766  0.000  0.000     0.946     1.524
 117   1 H      0.226  0.774  0.000  0.000     0.983     1.553
 118   7 N     -0.168  1.246  3.922  0.000    24.641     7.372
 119   6 C     -0.001  1.072  2.929  0.000    20.606     6.465
 120   6 C      0.262  1.043  2.695  0.000    22.588     7.783
 121   8 O     -0.465  1.741  4.725  0.000    23.029     6.434
 122   6 C     -0.047  1.074  2.973  0.000    21.371     6.575
 123   6 C     -0.086  1.059  3.027  0.000    22.140     6.700
 124   6 C     -0.123  1.039  3.084  0.000    22.918     6.826
 125   6 C     -0.122  1.039  3.083  0.000    22.895     6.824
 126   1 H      0.217  0.783  0.000  0.000     1.024     1.585
 127   1 H      0.092  0.908  0.000  0.000     1.859     2.132
 128   1 H      0.064  0.936  0.000  0.000     2.151     2.294
 129   1 H      0.052  0.948  0.000  0.000     2.292     2.368
 130   1 H      0.075  0.925  0.000  0.000     2.035     2.231
 131   1 H      0.043  0.957  0.000  0.000     2.407     2.426
 132   1 H      0.040  0.960  0.000  0.000     2.451     2.448
 133   1 H      0.055  0.945  0.000  0.000     2.260     2.351
 134   1 H      0.056  0.944  0.000  0.000     2.247     2.344
 135   1 H      0.057  0.943  0.000  0.000     2.238     2.339
 136   1 H      0.025  0.975  0.000  0.000     2.653     2.547
 137   7 N     -0.174  1.243  3.931  0.000    24.768     7.391
 138   6 C     -0.001  1.071  2.930  0.000    20.598     6.462
 139   6 C      0.282  1.039  2.679  0.000    22.231     7.721
 140   8 O     -0.468  1.742  4.726  0.000    23.099     6.444
 141   6 C     -0.091  1.059  3.032  0.000    22.241     6.714
 142   6 C     -0.090  1.059  3.031  0.000    22.227     6.713
 143   6 C     -0.034  1.059  2.975  0.000    21.275     6.583
 144   7 N     -0.138  1.206  3.932  0.000    23.995     7.275
 145   6 C      0.233  1.018  2.749  0.000    23.117     7.872
 146   7 N     -0.247  1.228  4.019  0.000    26.442     7.637
 147   7 N     -0.261  1.233  4.028  0.000    26.779     7.686
 148   1 H      0.232  0.768  0.000  0.000     0.956     1.531
 149   1 H      0.088  0.912  0.000  0.000     1.901     2.156
 150   1 H      0.085  0.915  0.000  0.000     1.931     2.173
 151   1 H      0.079  0.921  0.000  0.000     1.987     2.204
 152   1 H      0.076  0.924  0.000  0.000     2.020     2.223
 153   1 H      0.077  0.923  0.000  0.000     2.013     2.219
 154   1 H      0.096  0.904  0.000  0.000     1.825     2.113
 155   1 H      0.089  0.911  0.000  0.000     1.887     2.148
 156   1 H      0.231  0.769  0.000  0.000     0.962     1.536
 157   1 H      0.253  0.747  0.000  0.000     0.871     1.462
 158   1 H      0.248  0.752  0.000  0.000     0.893     1.480
 159   1 H      0.243  0.757  0.000  0.000     0.913     1.496
 160   1 H      0.246  0.754  0.000  0.000     0.897     1.484
 161   7 N     -0.186  1.239  3.947  0.000    25.030     7.430
 162   6 C     -0.009  1.079  2.930  0.000    20.746     6.488
 163   6 C      0.276  1.039  2.685  0.000    22.333     7.740
 164   8 O     -0.502  1.744  4.758  0.000    23.826     6.544
 165   6 C      0.105  1.051  2.844  0.000    18.973     6.223
 166   8 O     -0.486  1.709  4.777  0.000    22.597     6.417
 167   6 C     -0.148  1.048  3.100  0.000    23.424     6.903
 168   1 H      0.211  0.789  0.000  0.000     1.054     1.608
 169   1 H      0.074  0.926  0.000  0.000     2.039     2.233
 170   1 H      0.050  0.950  0.000  0.000     2.325     2.384
 171   1 H      0.332  0.668  0.000  0.000     0.633     1.249
 172   1 H      0.074  0.926  0.000  0.000     2.047     2.237
 173   1 H      0.059  0.941  0.000  0.000     2.214     2.327
 174   1 H      0.070  0.930  0.000  0.000     2.088     2.260
 175   7 N     -0.175  1.256  3.919  0.000    24.782     7.393
 176   6 C      0.021  1.066  2.913  0.000    20.215     6.401
 177   6 C      0.279  1.050  2.672  0.000    22.284     7.730
 178   8 O     -0.491  1.744  4.747  0.000    23.594     6.512
 179   6 C     -0.087  1.066  3.020  0.000    22.151     6.701
 180   6 C     -0.015  1.062  2.953  0.000    20.821     6.491
 181   6 C     -0.116  1.041  3.075  0.000    22.775     6.805
 182   6 C     -0.116  1.042  3.074  0.000    22.770     6.804
 183   1 H      0.253  0.747  0.000  0.000     0.870     1.461
 184   1 H      0.073  0.927  0.000  0.000     2.056     2.243
 185   1 H      0.078  0.922  0.000  0.000     1.995     2.209
 186   1 H      0.051  0.949  0.000  0.000     2.312     2.378
 187   1 H      0.025  0.975  0.000  0.000     2.661     2.551
 188   1 H      0.053  0.947  0.000  0.000     2.279     2.361
 189   1 H      0.029  0.971  0.000  0.000     2.604     2.523
 190   1 H      0.046  0.954  0.000  0.000     2.367     2.406
 191   1 H      0.050  0.950  0.000  0.000     2.320     2.382
 192   1 H      0.046  0.954  0.000  0.000     2.369     2.407
 193   1 H      0.032  0.968  0.000  0.000     2.560     2.502
 194   7 N     -0.194  1.251  3.943  0.000    25.202     7.456
 195   6 C      0.017  1.059  2.924  0.000    20.298     6.415
 196   6 C      0.275  1.039  2.686  0.000    22.358     7.743
 197   8 O     -0.497  1.740  4.756  0.000    23.711     6.529
 198   6 C     -0.087  1.058  3.029  0.000    22.135     6.694
 199   6 C     -0.083  1.051  3.033  0.000    22.086     6.690
 200   6 C     -0.026  1.057  2.969  0.000    21.096     6.550
 201   7 N     -0.124  1.206  3.918  0.000    23.694     7.229
 202   6 C      0.241  1.027  2.732  0.000    22.970     7.847
 203   7 N     -0.240  1.252  3.988  0.000    26.282     7.614
 204   7 N     -0.242  1.234  4.008  0.000    26.329     7.621
 205   1 H      0.232  0.768  0.000  0.000     0.957     1.532
 206   1 H      0.068  0.932  0.000  0.000     2.106     2.269
 207   1 H      0.089  0.911  0.000  0.000     1.885     2.147
 208   1 H      0.070  0.930  0.000  0.000     2.084     2.257
 209   1 H      0.075  0.925  0.000  0.000     2.035     2.231
 210   1 H      0.064  0.936  0.000  0.000     2.153     2.294
 211   1 H      0.106  0.894  0.000  0.000     1.735     2.060
 212   1 H      0.079  0.921  0.000  0.000     1.993     2.208
 213   1 H      0.222  0.778  0.000  0.000     0.999     1.566
 214   1 H      0.242  0.758  0.000  0.000     0.915     1.498
 215   1 H      0.230  0.770  0.000  0.000     0.963     1.537
 216   1 H      0.232  0.768  0.000  0.000     0.956     1.532
 217   1 H      0.222  0.778  0.000  0.000     1.000     1.566
 218   7 N     -0.176  1.250  3.925  0.000    24.803     7.397
 219   6 C      0.010  1.070  2.920  0.000    20.426     6.437
 220   6 C      0.263  1.047  2.690  0.000    22.570     7.780
 221   8 O     -0.509  1.756  4.753  0.000    23.982     6.566
 222   6 C     -0.148  1.048  3.100  0.000    23.402     6.897
 223   1 H      0.240  0.760  0.000  0.000     0.921     1.503
 224   1 H      0.078  0.922  0.000  0.000     1.996     2.210
 225   1 H      0.070  0.930  0.000  0.000     2.088     2.260
 226   1 H      0.090  0.910  0.000  0.000     1.874     2.141
 227   1 H      0.084  0.916  0.000  0.000     1.939     2.177
 228   7 N     -0.174  1.253  3.922  0.000    24.774     7.392
 229   6 C      0.030  1.054  2.917  0.000    20.066     6.376
 230   6 C      0.279  1.038  2.683  0.000    22.277     7.729
 231   8 O     -0.477  1.741  4.736  0.000    23.279     6.469
 232   6 C     -0.067  1.054  3.013  0.000    21.775     6.643
 233   6 C     -0.105  1.060  3.045  0.000    22.495     6.752
 234   6 C      0.289  1.041  2.670  0.000    22.107     7.698
 235   8 O     -0.510  1.765  4.745  0.000    24.007     6.569
 236   7 N     -0.293  1.266  4.027  0.000    27.558     7.797
 237   1 H      0.249  0.751  0.000  0.000     0.887     1.476
 238   1 H      0.065  0.935  0.000  0.000     2.144     2.290
 239   1 H      0.073  0.927  0.000  0.000     2.055     2.242
 240   1 H      0.066  0.934  0.000  0.000     2.125     2.280
 241   1 H      0.083  0.917  0.000  0.000     1.945     2.181
 242   1 H      0.072  0.928  0.000  0.000     2.061     2.245
 243   1 H      0.236  0.764  0.000  0.000     0.940     1.519
 244   1 H      0.229  0.771  0.000  0.000     0.968     1.542
 245   7 N     -0.199  1.260  3.939  0.000    25.326     7.474
 246   6 C      0.027  1.054  2.920  0.000    20.125     6.387
 247   6 C      0.268  1.048  2.684  0.000    22.481     7.765
 248   8 O     -0.495  1.742  4.752  0.000    23.670     6.523
 249   6 C     -0.134  1.042  3.092  0.000    23.123     6.856
 250   1 H      0.225  0.775  0.000  0.000     0.989     1.558
 251   1 H      0.074  0.926  0.000  0.000     2.040     2.234
 252   1 H      0.063  0.937  0.000  0.000     2.169     2.303
 253   1 H      0.062  0.938  0.000  0.000     2.180     2.309
 254   1 H      0.069  0.931  0.000  0.000     2.101     2.267
 255   7 N     -0.198  1.254  3.944  0.000    25.303     7.471
 256   6 C      0.011  1.070  2.919  0.000    20.404     6.433
 257   6 C      0.287  1.043  2.670  0.000    22.144     7.706
 258   8 O     -0.485  1.750  4.735  0.000    23.460     6.494
 259   6 C     -0.088  1.060  3.028  0.000    22.188     6.707
 260   6 C     -0.089  1.059  3.030  0.000    22.207     6.711
 261   6 C     -0.028  1.058  2.970  0.000    21.171     6.568
 262   7 N     -0.141  1.213  3.928  0.000    24.057     7.285
 263   6 C      0.238  1.024  2.738  0.000    23.029     7.857
 264   7 N     -0.232  1.242  3.990  0.000    26.084     7.585
 265   7 N     -0.255  1.237  4.018  0.000    26.619     7.663
 266   1 H      0.242  0.758  0.000  0.000     0.916     1.499
 267   1 H      0.073  0.927  0.000  0.000     2.057     2.243
 268   1 H      0.083  0.917  0.000  0.000     1.948     2.182
 269   1 H      0.064  0.936  0.000  0.000     2.148     2.292
 270   1 H      0.077  0.923  0.000  0.000     2.010     2.217
 271   1 H      0.090  0.910  0.000  0.000     1.879     2.144
 272   1 H      0.089  0.911  0.000  0.000     1.891     2.151
 273   1 H      0.073  0.927  0.000  0.000     2.054     2.241
 274   1 H      0.242  0.758  0.000  0.000     0.915     1.498
 275   1 H      0.233  0.767  0.000  0.000     0.954     1.530
 276   1 H      0.220  0.780  0.000  0.000     1.009     1.573
 277   1 H      0.259  0.741  0.000  0.000     0.849     1.443
 278   1 H      0.242  0.758  0.000  0.000     0.916     1.499
 279   7 N     -0.196  1.255  3.941  0.000    25.256     7.464
 280   6 C      0.033  1.068  2.899  0.000    20.038     6.376
 281   6 C      0.293  1.052  2.655  0.000    22.032     7.687
 282   8 O     -0.500  1.750  4.750  0.000    23.786     6.539
 283   6 C     -0.049  1.053  2.996  0.000    21.448     6.594
 284   6 C     -0.114  1.062  3.052  0.000    22.687     6.782
 285   6 C      0.360  1.033  2.607  0.000    20.886     7.479
 286   8 O     -0.633  1.762  4.870  0.000    26.935     6.958
 287   8 O     -0.625  1.761  4.865  0.000    26.748     6.934
 288   1 H      0.210  0.790  0.000  0.000     1.056     1.610
 289   1 H      0.043  0.957  0.000  0.000     2.408     2.427
 290   1 H      0.032  0.968  0.000  0.000     2.554     2.499
 291   1 H      0.039  0.961  0.000  0.000     2.457     2.451
 292   1 H      0.073  0.927  0.000  0.000     2.050     2.239
 293   1 H      0.025  0.975  0.000  0.000     2.661     2.551
 294   7 N     -0.186  1.256  3.930  0.000    25.034     7.431
 295   6 C      0.015  1.056  2.929  0.000    20.306     6.413
 296   6 C      0.195  1.084  2.722  0.000    23.844     7.997
 297   8 O     -0.356  1.739  4.617  0.000    20.816     6.117
 298   6 C      0.066  1.041  2.893  0.000    19.680     6.353
 299   8 O     -0.464  1.715  4.749  0.000    22.140     6.352
 300   1 H      0.233  0.767  0.000  0.000     0.950     1.527
 301   1 H      0.112  0.888  0.000  0.000     1.676     2.024
 302   1 H      0.065  0.935  0.000  0.000     2.147     2.291
 303   1 H      0.074  0.926  0.000  0.000     2.042     2.235
 304   1 H      0.348  0.652  0.000  0.000     0.594     1.211
 305   7 N     -0.391  1.319  4.072  0.000    30.127     8.152
 306   6 C      0.034  1.050  2.915  0.000    20.009     6.371
 307   6 C      0.197  1.088  2.715  0.000    23.802     7.990
 308   8 O     -0.373  1.758  4.616  0.000    21.159     6.167
 309   6 C     -0.074  1.058  3.016  0.000    21.891     6.658
 310   6 C     -0.011  1.057  2.954  0.000    20.741     6.478
 311   6 C     -0.124  1.044  3.080  0.000    22.929     6.827
 312   6 C     -0.125  1.041  3.084  0.000    22.954     6.831
 313   1 H      0.163  0.837  0.000  0.000     1.314     1.796
 314   1 H      0.065  0.935  0.000  0.000     2.147     2.291
 315   1 H      0.036  0.964  0.000  0.000     2.507     2.476
 316   1 H      0.041  0.959  0.000  0.000     2.435     2.440
 317   1 H      0.036  0.964  0.000  0.000     2.506     2.475
 318   1 H      0.047  0.953  0.000  0.000     2.360     2.403
 319   1 H      0.042  0.958  0.000  0.000     2.425     2.435
 320   1 H      0.044  0.956  0.000  0.000     2.395     2.420
 321   1 H      0.046  0.954  0.000  0.000     2.371     2.408
 322   1 H      0.051  0.949  0.000  0.000     2.309     2.376
 323   1 H      0.047  0.953  0.000  0.000     2.355     2.400
 324   7 N     -0.392  1.304  4.088  0.000    30.148     8.155
 325   6 C      0.047  1.047  2.905  0.000    19.793     6.337
 326   6 C      0.207  1.092  2.701  0.000    23.609     7.957
 327   8 O     -0.391  1.766  4.624  0.000    21.501     6.217
 328   6 C     -0.070  1.057  3.012  0.000    21.814     6.646
 329   6 C     -0.027  1.072  2.955  0.000    21.068     6.536
 330  16 S     -0.237  1.936  4.249  0.052   151.224    20.697
 331   6 C     -0.070  1.062  3.008  0.000    21.917     6.679
 332   1 H      0.164  0.836  0.000  0.000     1.307     1.791
 333   1 H      0.045  0.955  0.000  0.000     2.382     2.413
 334   1 H      0.057  0.943  0.000  0.000     2.234     2.337
 335   1 H      0.064  0.936  0.000  0.000     2.158     2.297
 336   1 H      0.065  0.935  0.000  0.000     2.143     2.289
 337   1 H      0.065  0.935  0.000  0.000     2.136     2.286
 338   1 H      0.078  0.922  0.000  0.000     2.004     2.214
 339   1 H      0.061  0.939  0.000  0.000     2.184     2.311
 340   1 H      0.067  0.933  0.000  0.000     2.113     2.273
 341   7 N     -0.157  1.232  3.924  0.000    24.382     7.334
 342   6 C     -0.027  1.084  2.943  0.000    21.086     6.543
 343   6 C      0.197  1.089  2.714  0.000    23.808     7.991
 344   8 O     -0.318  1.749  4.569  0.000    20.115     6.013
 345   6 C      0.064  1.043  2.893  0.000    19.729     6.365
 346   8 O     -0.458  1.707  4.751  0.000    22.011     6.333
 347   1 H      0.296  0.704  0.000  0.000     0.727     1.335
 348   1 H      0.313  0.687  0.000  0.000     0.675     1.287
 349   1 H      0.315  0.685  0.000  0.000     0.671     1.283
 350   1 H      0.138  0.862  0.000  0.000     1.478     1.901
 351   1 H      0.080  0.920  0.000  0.000     1.983     2.202
 352   1 H      0.076  0.924  0.000  0.000     2.017     2.221
 353   1 H      0.333  0.667  0.000  0.000     0.631     1.248
 354   7 N     -0.387  1.313  4.073  0.000    30.003     8.135
 355   6 C      0.030  1.056  2.914  0.000    20.090     6.385
 356   6 C      0.263  1.053  2.685  0.000    22.570     7.780
 357   8 O     -0.491  1.736  4.754  0.000    23.574     6.510
 358   6 C     -0.133  1.046  3.088  0.000    23.112     6.854
 359   1 H      0.166  0.834  0.000  0.000     1.300     1.786
 360   1 H      0.053  0.947  0.000  0.000     2.283     2.363
 361   1 H      0.048  0.952  0.000  0.000     2.343     2.394
 362   1 H      0.062  0.938  0.000  0.000     2.172     2.305
 363   1 H      0.052  0.948  0.000  0.000     2.292     2.368
 364   7 N     -0.156  1.234  3.922  0.000    24.372     7.332
 365   6 C      0.016  1.059  2.925  0.000    20.313     6.417
 366   6 C      0.278  1.048  2.674  0.000    22.296     7.733
 367   8 O     -0.497  1.748  4.749  0.000    23.712     6.529
 368   6 C     -0.079  1.063  3.016  0.000    22.004     6.677
 369   6 C     -0.010  1.057  2.953  0.000    20.728     6.476
 370   6 C     -0.115  1.043  3.073  0.000    22.754     6.799
 371   6 C     -0.122  1.040  3.082  0.000    22.883     6.820
 372   1 H      0.218  0.782  0.000  0.000     1.020     1.582
 373   1 H      0.083  0.917  0.000  0.000     1.944     2.180
 374   1 H      0.059  0.941  0.000  0.000     2.206     2.323
 375   1 H      0.064  0.936  0.000  0.000     2.150     2.293
 376   1 H      0.032  0.968  0.000  0.000     2.565     2.505
 377   1 H      0.041  0.959  0.000  0.000     2.438     2.442
 378   1 H      0.034  0.966  0.000  0.000     2.533     2.489
 379   1 H      0.046  0.954  0.000  0.000     2.370     2.407
 380   1 H      0.049  0.951  0.000  0.000     2.335     2.389
 381   1 H      0.049  0.951  0.000  0.000     2.329     2.386
 382   1 H      0.042  0.958  0.000  0.000     2.429     2.437
 383   7 N     -0.190  1.252  3.939  0.000    25.127     7.445
 384   6 C      0.001  1.074  2.925  0.000    20.560     6.456
 385   6 C      0.273  1.041  2.686  0.000    22.386     7.747
 386   8 O     -0.500  1.754  4.746  0.000    23.784     6.539
 387   6 C     -0.092  1.061  3.031  0.000    22.254     6.717
 388   6 C     -0.094  1.057  3.036  0.000    22.292     6.723
 389   6 C     -0.103  1.057  3.046  0.000    22.468     6.749
 390   6 C     -0.056  1.060  2.996  0.000    21.680     6.647
 391   7 N     -0.146  1.228  3.919  0.000    24.152     7.299
 392   1 H      0.207  0.793  0.000  0.000     1.071     1.621
 393   1 H      0.095  0.905  0.000  0.000     1.834     2.118
 394   1 H      0.078  0.922  0.000  0.000     2.004     2.214
 395   1 H      0.070  0.930  0.000  0.000     2.083     2.257
 396   1 H      0.080  0.920  0.000  0.000     1.979     2.200
 397   1 H      0.066  0.934  0.000  0.000     2.133     2.284
 398   1 H      0.087  0.913  0.000  0.000     1.908     2.160
 399   1 H      0.089  0.911  0.000  0.000     1.886     2.147
 400   1 H      0.112  0.888  0.000  0.000     1.681     2.028
 401   1 H      0.122  0.878  0.000  0.000     1.599     1.978
 402   1 H      0.295  0.705  0.000  0.000     0.730     1.338
 403   1 H      0.303  0.697  0.000  0.000     0.703     1.314
 404   1 H      0.293  0.707  0.000  0.000     0.734     1.342
 405   7 N     -0.188  1.243  3.945  0.000    25.071     7.437
 406   6 C      0.008  1.076  2.915  0.000    20.456     6.443
 407   6 C      0.268  1.050  2.682  0.000    22.467     7.761
 408   8 O     -0.515  1.765  4.751  0.000    24.127     6.586
 409   6 C     -0.025  1.078  2.947  0.000    20.982     6.516
 410   6 C     -0.079  1.054  3.025  0.000    22.011     6.680
 411   6 C     -0.132  1.044  3.089  0.000    23.105     6.855
 412   6 C     -0.107  1.037  3.070  0.000    22.611     6.782
 413   1 H      0.232  0.768  0.000  0.000     0.957     1.532
 414   1 H      0.059  0.941  0.000  0.000     2.211     2.326
 415   1 H      0.032  0.968  0.000  0.000     2.552     2.498
 416   1 H      0.079  0.921  0.000  0.000     1.992     2.207
 417   1 H      0.020  0.980  0.000  0.000     2.740     2.589
 418   1 H      0.055  0.945  0.000  0.000     2.261     2.352
 419   1 H      0.044  0.956  0.000  0.000     2.401     2.423
 420   1 H      0.082  0.918  0.000  0.000     1.955     2.187
 421   1 H      0.044  0.956  0.000  0.000     2.394     2.420
 422   1 H      0.031  0.969  0.000  0.000     2.566     2.505
 423   1 H      0.050  0.950  0.000  0.000     2.320     2.382
 424   7 N     -0.185  1.253  3.932  0.000    25.003     7.426
 425   6 C      0.024  1.059  2.917  0.000    20.174     6.397
 426   6 C      0.271  1.050  2.679  0.000    22.416     7.754
 427   8 O     -0.474  1.746  4.728  0.000    23.219     6.461
 428   6 C     -0.092  1.063  3.029  0.000    22.242     6.713
 429   6 C     -0.015  1.060  2.954  0.000    20.804     6.488
 430   6 C     -0.124  1.044  3.080  0.000    22.939     6.829
 431   6 C     -0.116  1.047  3.069  0.000    22.769     6.803
 432   1 H      0.231  0.769  0.000  0.000     0.960     1.535
 433   1 H      0.067  0.933  0.000  0.000     2.121     2.278
 434   1 H      0.075  0.925  0.000  0.000     2.036     2.231
 435   1 H      0.073  0.927  0.000  0.000     2.054     2.241
 436   1 H      0.030  0.970  0.000  0.000     2.580     2.512
 437   1 H      0.046  0.954  0.000  0.000     2.372     2.408
 438   1 H      0.052  0.948  0.000  0.000     2.299     2.371
 439   1 H      0.049  0.951  0.000  0.000     2.336     2.390
 440   1 H      0.050  0.950  0.000  0.000     2.314     2.379
 441   1 H      0.048  0.952  0.000  0.000     2.349     2.397
 442   1 H      0.031  0.969  0.000  0.000     2.566     2.505
 443   7 N     -0.174  1.235  3.939  0.000    24.769     7.392
 444   6 C      0.028  1.056  2.916  0.000    20.103     6.383
 445   6 C      0.201  1.084  2.715  0.000    23.728     7.978
 446   8 O     -0.368  1.762  4.606  0.000    21.053     6.152
 447   6 C     -0.105  1.064  3.040  0.000    22.497     6.752
 448   6 C      0.295  1.032  2.674  0.000    21.998     7.680
 449   8 O     -0.482  1.759  4.723  0.000    23.394     6.485
 450   7 N     -0.280  1.259  4.021  0.000    27.230     7.750
 451   1 H      0.198  0.802  0.000  0.000     1.118     1.657
 452   1 H      0.115  0.885  0.000  0.000     1.654     2.011
 453   1 H      0.104  0.896  0.000  0.000     1.746     2.067
 454   1 H      0.081  0.919  0.000  0.000     1.964     2.191
 455   1 H      0.227  0.773  0.000  0.000     0.979     1.550
 456   1 H      0.230  0.770  0.000  0.000     0.965     1.539
 457   7 N     -0.397  1.320  4.076  0.000    30.280     8.173
 458   6 C      0.015  1.078  2.907  0.000    20.355     6.429
 459   6 C      0.262  1.051  2.686  0.000    22.580     7.783
 460   8 O     -0.483  1.755  4.728  0.000    23.420     6.488
 461   6 C     -0.080  1.069  3.011  0.000    22.039     6.686
 462   6 C     -0.067  1.052  3.015  0.000    21.800     6.649
 463   6 C     -0.092  1.061  3.032  0.000    22.270     6.720
 464   6 C     -0.052  1.068  2.984  0.000    21.614     6.639
 465   7 N     -0.146  1.234  3.912  0.000    24.148     7.298
 466   1 H      0.177  0.823  0.000  0.000     1.233     1.739
 467   1 H      0.023  0.977  0.000  0.000     2.690     2.565
 468   1 H      0.062  0.938  0.000  0.000     2.178     2.308
 469   1 H      0.058  0.942  0.000  0.000     2.224     2.332
 470   1 H      0.039  0.961  0.000  0.000     2.467     2.456
 471   1 H      0.062  0.938  0.000  0.000     2.175     2.306
 472   1 H      0.093  0.907  0.000  0.000     1.850     2.127
 473   1 H      0.060  0.940  0.000  0.000     2.194     2.316
 474   1 H      0.097  0.903  0.000  0.000     1.812     2.105
 475   1 H      0.126  0.874  0.000  0.000     1.567     1.958
 476   1 H      0.296  0.704  0.000  0.000     0.725     1.334
 477   1 H      0.299  0.701  0.000  0.000     0.715     1.325
 478   1 H      0.273  0.727  0.000  0.000     0.798     1.400
 479   7 N     -0.151  1.239  3.913  0.000    24.277     7.318
 480   6 C      0.025  1.052  2.923  0.000    20.138     6.386
 481   6 C      0.210  1.081  2.709  0.000    23.560     7.950
 482   8 O     -0.373  1.753  4.619  0.000    21.140     6.164
 483   6 C     -0.087  1.063  3.024  0.000    22.143     6.696
 484   6 C     -0.015  1.057  2.958  0.000    20.808     6.488
 485   6 C     -0.120  1.046  3.074  0.000    22.848     6.815
 486   6 C     -0.120  1.037  3.083  0.000    22.857     6.816
 487   1 H      0.228  0.772  0.000  0.000     0.975     1.547
 488   1 H      0.087  0.913  0.000  0.000     1.913     2.163
 489   1 H      0.082  0.918  0.000  0.000     1.963     2.191
 490   1 H      0.060  0.940  0.000  0.000     2.194     2.316
 491   1 H      0.045  0.955  0.000  0.000     2.380     2.413
 492   1 H      0.045  0.955  0.000  0.000     2.381     2.413
 493   1 H      0.054  0.946  0.000  0.000     2.275     2.359
 494   1 H      0.043  0.957  0.000  0.000     2.405     2.425
 495   1 H      0.046  0.954  0.000  0.000     2.369     2.407
 496   1 H      0.036  0.964  0.000  0.000     2.507     2.476
 497   1 H      0.035  0.965  0.000  0.000     2.521     2.483
 498   7 N     -0.381  1.301  4.079  0.000    29.837     8.113
 499   6 C      0.043  1.050  2.906  0.000    19.848     6.343
 500   6 C      0.277  1.040  2.683  0.000    22.312     7.736
 501   8 O     -0.542  1.759  4.783  0.000    24.741     6.669
 502   6 C     -0.002  1.051  2.951  0.000    20.571     6.450
 503   6 C     -0.108  1.038  3.070  0.000    22.620     6.780
 504   6 C     -0.121  1.040  3.082  0.000    22.871     6.817
 505   1 H      0.165  0.835  0.000  0.000     1.306     1.790
 506   1 H     -0.001  1.001  0.000  0.000     3.082     2.745
 507   1 H      0.001  0.999  0.000  0.000     3.040     2.727
 508   1 H      0.035  0.965  0.000  0.000     2.520     2.482
 509   1 H      0.035  0.965  0.000  0.000     2.522     2.483
 510   1 H      0.061  0.939  0.000  0.000     2.183     2.311
 511   1 H      0.034  0.966  0.000  0.000     2.526     2.486
 512   1 H      0.091  0.909  0.000  0.000     1.870     2.138
 513   1 H      0.016  0.984  0.000  0.000     2.798     2.616
 514   7 N     -0.164  1.249  3.915  0.000    24.544     7.358
 515   6 C      0.021  1.056  2.922  0.000    20.217     6.402
 516   6 C      0.216  1.077  2.707  0.000    23.439     7.930
 517   8 O     -0.385  1.747  4.638  0.000    21.381     6.199
 518   6 C     -0.017  1.065  2.952  0.000    20.840     6.493
 519   6 C     -0.126  1.040  3.086  0.000    22.969     6.834
 520   6 C     -0.122  1.045  3.077  0.000    22.889     6.821
 521   1 H      0.251  0.749  0.000  0.000     0.879     1.469
 522   1 H      0.100  0.900  0.000  0.000     1.788     2.091
 523   1 H      0.069  0.931  0.000  0.000     2.095     2.264
 524   1 H      0.071  0.929  0.000  0.000     2.072     2.251
 525   1 H      0.059  0.941  0.000  0.000     2.212     2.326
 526   1 H      0.039  0.961  0.000  0.000     2.469     2.457
 527   1 H      0.061  0.939  0.000  0.000     2.192     2.315
 528   1 H      0.051  0.949  0.000  0.000     2.308     2.376
 529   1 H      0.055  0.945  0.000  0.000     2.264     2.353
 530   7 N     -0.411  1.309  4.102  0.000    30.689     8.228
 531   6 C      0.052  1.053  2.895  0.000    19.717     6.324
 532   6 C      0.272  1.045  2.683  0.000    22.411     7.753
 533   8 O     -0.524  1.751  4.773  0.000    24.318     6.612
 534   6 C     -0.043  1.051  2.992  0.000    21.336     6.574
 535   6 C     -0.080  1.059  3.020  0.000    22.018     6.681
 536   6 C      0.363  1.026  2.610  0.000    20.837     7.471
 537   8 O     -0.603  1.742  4.861  0.000    26.197     6.862
 538   8 O     -0.653  1.768  4.885  0.000    27.465     7.026
 539   1 H      0.181  0.819  0.000  0.000     1.206     1.720
 540   1 H     -0.017  1.017  0.000  0.000     3.366     2.869
 541   1 H      0.075  0.925  0.000  0.000     2.032     2.229
 542   1 H      0.001  0.999  0.000  0.000     3.040     2.727
 543   1 H     -0.030  1.030  0.000  0.000     3.629     2.979
 544   1 H      0.027  0.973  0.000  0.000     2.622     2.532
 545   7 N     -0.168  1.235  3.933  0.000    24.626     7.370
 546   6 C      0.027  1.045  2.928  0.000    20.122     6.386
 547   6 C      0.199  1.082  2.719  0.000    23.764     7.984
 548   8 O     -0.355  1.742  4.613  0.000    20.798     6.114
 549   6 C     -0.084  1.060  3.025  0.000    22.096     6.690
 550   6 C     -0.078  1.061  3.018  0.000    21.999     6.679
 551   6 C     -0.021  1.060  2.961  0.000    21.044     6.549
 552   7 N     -0.159  1.240  3.919  0.000    24.438     7.342
 553   6 C      0.236  1.021  2.743  0.000    23.058     7.862
 554   7 N     -0.241  1.237  4.004  0.000    26.303     7.617
 555   7 N     -0.246  1.257  3.989  0.000    26.402     7.631
 556   1 H      0.226  0.774  0.000  0.000     0.985     1.554
 557   1 H      0.105  0.895  0.000  0.000     1.744     2.065
 558   1 H      0.076  0.924  0.000  0.000     2.019     2.222
 559   1 H      0.093  0.907  0.000  0.000     1.849     2.126
 560   1 H      0.042  0.958  0.000  0.000     2.420     2.432
 561   1 H      0.070  0.930  0.000  0.000     2.088     2.260
 562   1 H      0.077  0.923  0.000  0.000     2.013     2.219
 563   1 H      0.090  0.910  0.000  0.000     1.875     2.141
 564   1 H      0.213  0.787  0.000  0.000     1.043     1.600
 565   1 H      0.241  0.759  0.000  0.000     0.917     1.500
 566   1 H      0.256  0.744  0.000  0.000     0.861     1.454
 567   1 H      0.233  0.767  0.000  0.000     0.954     1.530
 568   1 H      0.272  0.728  0.000  0.000     0.802     1.403
 569   7 N     -0.395  1.311  4.084  0.000    30.230     8.166
 570   6 C      0.044  1.061  2.894  0.000    19.854     6.347
 571   6 C      0.200  1.090  2.710  0.000    23.735     7.979
 572   8 O     -0.380  1.756  4.624  0.000    21.285     6.186
 573   6 C     -0.051  1.056  2.995  0.000    21.491     6.601
 574   6 C     -0.093  1.070  3.023  0.000    22.277     6.721
 575   6 C      0.365  1.028  2.607  0.000    20.815     7.466
 576   8 O     -0.602  1.748  4.854  0.000    26.175     6.859
 577   8 O     -0.653  1.786  4.867  0.000    27.460     7.026
 578   1 H      0.163  0.837  0.000  0.000     1.316     1.797
 579   1 H      0.022  0.978  0.000  0.000     2.699     2.569
 580   1 H      0.048  0.952  0.000  0.000     2.351     2.398
 581   1 H      0.051  0.949  0.000  0.000     2.307     2.375
 582   1 H      0.003  0.997  0.000  0.000     2.999     2.708
 583   1 H      0.026  0.974  0.000  0.000     2.647     2.544
 584   7 N     -0.398  1.322  4.076  0.000    30.306     8.176
 585   6 C      0.047  1.053  2.899  0.000    19.799     6.338
 586   6 C      0.204  1.090  2.705  0.000    23.657     7.966
 587   8 O     -0.398  1.760  4.638  0.000    21.635     6.236
 588   6 C     -0.049  1.054  2.995  0.000    21.448     6.593
 589   6 C     -0.095  1.068  3.027  0.000    22.313     6.726
 590   6 C      0.370  1.025  2.604  0.000    20.724     7.450
 591   8 O     -0.648  1.777  4.871  0.000    27.330     7.009
 592   8 O     -0.634  1.757  4.877  0.000    26.973     6.963
 593   1 H      0.176  0.824  0.000  0.000     1.234     1.740
 594   1 H      0.045  0.955  0.000  0.000     2.381     2.413
 595   1 H      0.047  0.953  0.000  0.000     2.352     2.398
 596   1 H      0.043  0.957  0.000  0.000     2.411     2.428
 597   1 H      0.012  0.988  0.000  0.000     2.855     2.642
 598   1 H      0.032  0.968  0.000  0.000     2.554     2.499
 599   7 N     -0.383  1.300  4.083  0.000    29.896     8.121
 600   6 C      0.048  1.054  2.898  0.000    19.767     6.329
 601   6 C      0.199  1.092  2.710  0.000    23.769     7.984
 602   8 O     -0.386  1.757  4.628  0.000    21.397     6.202
 603   6 C     -0.041  1.049  2.992  0.000    21.289     6.566
 604   6 C     -0.078  1.061  3.017  0.000    21.965     6.669
 605   6 C      0.363  1.023  2.613  0.000    20.836     7.470
 606   8 O     -0.639  1.774  4.865  0.000    27.100     6.980
 607   8 O     -0.643  1.766  4.877  0.000    27.201     6.992
 608   1 H      0.154  0.846  0.000  0.000     1.372     1.835
 609   1 H      0.031  0.969  0.000  0.000     2.568     2.506
 610   1 H      0.062  0.938  0.000  0.000     2.172     2.305
 611   1 H      0.016  0.984  0.000  0.000     2.791     2.613
 612   1 H      0.015  0.985  0.000  0.000     2.814     2.624
 613   1 H      0.021  0.979  0.000  0.000     2.713     2.576
 614   1 H      0.191  0.809  0.000  0.000     1.151     1.680
 615   1 H      0.093  0.907  0.000  0.000     1.850     2.127
 616   1 H      0.194  0.806  0.000  0.000     1.137     1.670
 617   1 H      0.063  0.937  0.000  0.000     2.162     2.299
 618   1 H      0.183  0.817  0.000  0.000     1.195     1.712
 619   1 H      0.074  0.926  0.000  0.000     2.041     2.234
 620   1 H      0.112  0.888  0.000  0.000     1.680     2.027
 621   1 H      0.183  0.817  0.000  0.000     1.194     1.712
 622   1 H      0.072  0.928  0.000  0.000     2.068     2.249
 623   1 H      0.161  0.839  0.000  0.000     1.331     1.807
 624   1 H      0.063  0.937  0.000  0.000     2.164     2.300
 625   1 H      0.176  0.824  0.000  0.000     1.235     1.740
 626   1 H      0.064  0.936  0.000  0.000     2.151     2.293
 627   1 H      0.162  0.838  0.000  0.000     1.323     1.802
 628   1 H      0.068  0.932  0.000  0.000     2.108     2.270
 629   1 H      0.170  0.830  0.000  0.000     1.274     1.768
 630   1 H      0.079  0.921  0.000  0.000     1.984     2.202
 631   1 H      0.175  0.825  0.000  0.000     1.245     1.748
 632   1 H      0.067  0.933  0.000  0.000     2.113     2.273
 633   1 H      0.185  0.815  0.000  0.000     1.184     1.704
 634   1 H      0.075  0.925  0.000  0.000     2.027     2.226

 Mol. C6AA /au·bohr⁶  :    3455340.645922
 Mol. C8AA /au·bohr⁸  :   75925392.379144
 Mol. α(0) /au        :       2767.931250

 
molecular dipole:
                 x           y           z       tot (Debye)
 q only:      -18.716     583.964       9.791
   full:      -15.037     582.358      11.313    1481.011
molecular quadrupole (traceless):
                xx          xy          yy          xz          yz          zz
 q only:   -55055.016   -4274.590  110791.213     208.947    4364.832  -55736.198
  q+dip:   -54913.055   -3365.697  110298.889     226.182    4602.595  -55385.834
   full:   -54915.208   -3367.095  110302.526     229.708    4604.145  -55387.319
speedup  1.64
cpu  time for grad    1 m 18.3 s
wall time for grad    0 m 47.8 s

SCC energy    :    -953.1921435
rep           :      11.2983133
ES            :       3.5009888
AES           :      -0.1999803
AXC           :       0.3387802
disp          :      -0.7961738
XB            :       0.0000000
fix           :       0.0000000
Gborn         :       0.0000000
Gsasa         :       0.0000000
Ghb           :       0.0000000
Gshift        :       0.0000000
Gsolv         :      -1.2258751     -769.25
Etot ala COSMO:    -953.1921435
grad norm     :       0.7326750
total E       :    -941.8202245
atomizationE  :     170.8021062   107179.94
(atE without considering molecular charge,
 total energy contains solvation terms)
H-L gap (eV)  :          0.9620

------------------------------------------------------------------------
 * finished run on 2019/05/11 at 23:19:11.270     
------------------------------------------------------------------------
 total:
 * wall-time:     0 d,  0 h,  0 min, 49.571 sec
 *  cpu-time:     0 d,  0 h,  1 min, 20.466 sec
 * ratio c/w:     1.623 speedup
 SCF:
 * wall-time:     0 d,  0 h,  0 min, 48.823 sec
 *  cpu-time:     0 d,  0 h,  1 min, 19.841 sec
 * ratio c/w:     1.635 speedup

