      -----------------------------------------------------------      
     |                   =====================                   |     
     |                           x T B                           |     
     |                   =====================                   |     
     |                         S. Grimme                         |     
     |          Mulliken Center for Theoretical Chemistry        |     
     |                    University of Bonn                     |     
     |                 Version 6.0.1 (SAW181210)                 |     
      -----------------------------------------------------------      

   This program is distributed in the hope that it will be useful,
   but WITHOUT ANY WARRANTY; without even the implied warranty of
   MERCHANTABILITY or FITNESS FOR A PARTICULAR PURPOSE.
   
   FOR NON-COMMERCIAL, ACADEMIA USE ONLY.
   
   Cite this work as:
   S. Grimme, C. Bannwarth, P. Shushkov, J. Comput. Theory Chem., 2017,
   13, 1989-2009.
   C. Bannwarth, S. Ehlert and S. Grimme., ChemRxiv, 2018, preprint.
   http://doi.org/10.26434/chemrxiv.7246238.v1
   
   for sTDA-xTB:
   S. Grimme and C. Bannwarth, J. Chem. Phys., 2016, 145, 054103.
   
   in the mass-spec context:
   V. Asgeirsson, C. Bauer and S. Grimme, Chem. Sci., 2017, 8, 4879.
   
   if GBSA is used:
   P. Shushkov, F. März and S. Grimme, unpublished.
   
   for ANC optimizer:
   S. Grimme, unpublished.
   Rational Function algorithm used in ANCopt:
   F. Eckert, P. Pulay, H.-J. Werner, J. Comput. Chem., 1997, 18, 1473.
   
   with help from (in alphabetical order)
   C. Bannwarth, F. Bohle, G. Brandenburg, E. Caldeweyher, M. Checinski,
   S. Dohm, S. Ehlert, S. Ehrlich, F. März, H. Neugebauer, J. Pisarek,
   P. Pracht, P. Shushkov, and S. Spicher.
   
 * started run on 2019/05/12 at 13:11:26.751     
========================================================================
 # omp threads = 2
========================================================================
number of atoms            : 436
number of electrons        : 1158
charge                     : 0
spin                       : .0
first test random number   : .7325

########################################################################
# WARNING! Please study the warnings concerning your input carefully
#  - Process number higher than OMP_NUM_THREADS, I hope you know what you are doing.
########################################################################

           ------------------------------------------------- 
          |                 G F N 2 - x T B                 |
          | Geometry, Frequencies, Noncovalent interactions |
          |            JCTC 2018 parametrisation            |
           ------------------------------------------------- 
 
      method parameters     
 k(s)        :  1.8500
 k(p)        :  2.2300
 k(d)        :  2.2300
 k(f)        :  2.0000
 kEN (H0ij)  : -2.0000
 D4 a1       :  0.5200
 D4 a2       :  5.0000
 D4 s6       :  1.0000
 D4 s8       :  2.7000
 D4 s9       :  5.0000
 alphaj      :  2.0000

 Solvent             : h2o
 Using internal parameter file: .param_gbsa2_h2o
 Gsolv ref. state (COSMO-RS): gsolv [1 M gas/solution]
 temperature (mdtemp)       :    298.150000000000     
 dielectric constant        :    80.2000000000000     
 rho                        :    1.00000000000000     
 mass                       :    18.0000000000000     
 surface tension            :    15.5689454083859     
 probe radius               :   0.975313790000000     
 vdW radii scaling          :    1.00000000000000     
 Gshift (Eh)                :   1.857443126794793E-003
 c1                         :    1.55243817000000     
 soset                      :   0.130326360000000     
 HB correction              :  T

            Z     q(EN)     CN     RAES       Cart. coordinates
     1  N   5.0   -0.15    4.17    3.35   143.90280   102.61149   396.21835
     2  C   4.0    0.00    4.32    4.23   142.25011   104.11172   394.47957
     3  C   4.0    0.15    3.41    3.08   139.91127   105.17706   395.84148
     4  O   6.0   -0.27    1.18    1.80   138.78251   103.87915   397.56505
     5  C   4.0    0.02    4.16    3.91   141.39448   102.46309   392.17738
     6  O   6.0   -0.26    2.02    1.83   139.72428   100.33423   392.86816
     7  H   1.0    0.07    1.08    1.44   144.69165   101.34075   395.32400
     8  H   1.0    0.07    1.07    1.44   145.09546   103.63348   396.92647
     9  H   1.0    0.09    1.08    1.44   142.93416   101.89289   397.46751
    10  H   1.0    0.04    1.11    1.45   143.24796   105.55307   393.85436
    11  H   1.0    0.04    1.06    1.44   140.50872   103.57210   390.97257
    12  H   1.0    0.04    1.06    1.44   142.94388   101.76905   391.36640
    13  H   1.0    0.13    1.06    1.44   139.51177    99.43606   391.51031
    14  N   5.0   -0.17    3.47    2.06   139.16511   107.48885   395.05066
    15  C   4.0    0.03    4.49    4.53   136.64719   108.38437   395.67185
    16  C   4.0    0.16    3.46    3.10   134.59374   106.54723   394.81925
    17  O   6.0   -0.31    1.26    1.80   132.94286   105.83987   396.30718
    18  C   4.0   -0.05    4.39    4.35   136.25490   110.90238   394.54777
    19  C   4.0   -0.04    4.15    3.90   134.05719   112.56992   395.57535
    20  C   4.0    0.24    3.06    3.02   134.56787   115.53752   395.22293
    21  O   6.0   -0.27    1.15    1.80   135.61145   116.36775   393.23462
    22  O   6.0   -0.26    1.14    1.80   134.06172   117.11047   396.96483
    23  H   1.0    0.09    1.12    1.45   140.09576   108.53095   394.14278
    24  H   1.0    0.07    1.13    1.45   136.46777   108.50613   397.53888
    25  H   1.0    0.06    1.09    1.44   137.83771   111.92022   394.77657
    26  H   1.0    0.05    1.09    1.44   135.93226   110.72568   392.71113
    27  H   1.0    0.05    1.07    1.44   132.49317   112.16423   394.71302
    28  H   1.0    0.06    1.07    1.44   133.89417   112.26615   397.42437
    29  N   5.0   -0.16    3.47    2.06   134.80369   105.58661   392.49403
    30  C   4.0    0.03    4.41    4.39   133.02664   103.94829   391.23123
    31  C   4.0    0.16    3.48    3.10   131.76643   101.80486   392.77211
    32  O   6.0   -0.31    1.24    1.80   129.40064   101.63913   392.89321
    33  C   4.0   -0.05    4.40    4.38   134.33745   102.79017   388.87865
    34  C   4.0   -0.01    3.60    3.17   132.56995   101.72277   386.91377
    35  C   4.0   -0.03    3.53    3.13   131.31250    99.41665   387.23906
    36  C   4.0   -0.04    3.53    3.13   132.14374   103.06044   384.70510
    37  C   4.0   -0.04    3.44    3.09   129.64538    98.54696   385.49262
    38  C   4.0   -0.04    3.45    3.09   130.48945   102.19251   382.94921
    39  C   4.0   -0.04    3.46    3.10   129.21309    99.93442   383.34163
    40  H   1.0    0.08    1.13    1.45   136.20791   105.86344   391.51839
    41  H   1.0    0.05    1.13    1.45   131.58947   105.05034   390.80647
    42  H   1.0    0.04    1.09    1.44   135.38806   104.09506   388.07013
    43  H   1.0    0.05    1.08    1.44   135.45388   101.37596   389.45994
    44  H   1.0    0.06    1.09    1.44   131.63407    98.45164   388.76026
    45  H   1.0    0.05    1.09    1.44   133.03315   104.62274   384.43893
    46  H   1.0    0.06    1.09    1.44   128.78620    96.95451   385.74087
    47  H   1.0    0.06    1.09    1.44   130.20661   103.14123   381.40883
    48  H   1.0    0.07    1.08    1.44   128.03089    99.31364   382.07113
    49  N   5.0   -0.16    3.56    2.12   133.25901   100.04868   393.84115
    50  C   4.0    0.04    4.60    4.67   132.12281    97.99847   395.10280
    51  C   4.0    0.15    3.43    3.09   130.71614    98.78625   397.45581
    52  O   6.0   -0.29    1.17    1.80   128.93098    97.40270   398.33352
    53  C   4.0   -0.04    4.44    4.45   134.04675    95.95431   395.47749
    54  C   4.0   -0.04    4.26    4.12   134.42847    94.49721   393.04436
    55  C   4.0    0.22    3.13    3.03   131.91474    93.04163   392.43509
    56  O   6.0   -0.28    1.13    1.80   130.41415    92.44950   394.37301
    57  O   6.0   -0.28    1.11    1.80   131.50716    92.70288   390.01699
    58  H   1.0    0.10    1.12    1.45   134.96242   100.09312   393.79707
    59  H   1.0    0.07    1.16    1.45   130.75989    97.22261   394.03523
    60  H   1.0    0.05    1.09    1.44   135.66184    96.68191   396.03987
    61  H   1.0    0.06    1.08    1.44   133.43964    94.75620   396.86671
    62  H   1.0    0.05    1.09    1.44   134.80542    95.60856   391.67529
    63  H   1.0    0.05    1.08    1.44   135.76429    93.18777   393.26894
    64  N   5.0   -0.15    3.50    2.08   131.48220   101.01520   398.50042
    65  C   4.0    0.04    4.41    4.40   130.37205   102.10424   400.78868
    66  C   4.0    0.16    3.46    3.10   127.87214   103.35529   400.25682
    67  O   6.0   -0.31    1.26    1.80   126.07499   103.08680   401.74478
    68  C   4.0   -0.07    4.22    4.05   132.14472   103.94235   402.05764
    69  H   1.0    0.12    1.14    1.45   132.72019   101.95745   397.86881
    70  H   1.0    0.05    1.12    1.45   130.07473   100.63908   401.98453
    71  H   1.0    0.05    1.05    1.44   131.36550   104.59598   403.61913
    72  H   1.0    0.05    1.05    1.44   133.75798   103.05680   402.51475
    73  H   1.0    0.07    1.06    1.44   132.52459   105.33224   400.89555
    74  N   5.0   -0.15    3.55    2.11   127.70942   104.76184   398.19257
    75  C   4.0    0.04    4.61    4.67   125.40965   105.92979   397.33088
    76  C   4.0    0.15    3.53    3.13   123.39219   103.92755   396.86004
    77  O   6.0   -0.31    1.26    1.80   121.14602   104.26869   397.53559
    78  C   4.0   -0.03    4.44    4.45   125.77286   107.67615   395.10576
    79  C   4.0   -0.08    4.35    4.30   123.39297   108.50093   394.12985
    80  C   4.0   -0.08    4.26    4.11   127.40630   109.93803   395.74427
    81  H   1.0    0.11    1.13    1.45   129.05674   105.07765   397.14337
    82  H   1.0    0.06    1.13    1.45   124.77672   107.00373   398.77992
    83  H   1.0    0.05    1.13    1.45   126.66429   106.66185   393.74417
    84  H   1.0    0.04    1.06    1.44   123.62635   109.70917   392.70668
    85  H   1.0    0.05    1.06    1.44   122.34655   107.06528   393.53723
    86  H   1.0    0.05    1.06    1.44   122.43480   109.40130   395.49877
    87  H   1.0    0.04    1.05    1.44   127.67684   110.98602   394.24183
    88  H   1.0    0.05    1.06    1.44   126.61318   110.90124   397.10053
    89  H   1.0    0.06    1.05    1.44   129.10895   109.31268   396.35392
    90  N   5.0   -0.16    3.52    2.09   124.09896   101.78395   395.79161
    91  C   4.0    0.03    4.59    4.66   122.31787    99.69075   395.52225
    92  C   4.0    0.16    3.48    3.11   121.21259    98.91574   398.08239
    93  O   6.0   -0.32    1.25    1.80   118.93122    98.39421   398.31860
    94  C   4.0   -0.03    4.48    4.50   123.41550    97.46606   394.07532
    95  C   4.0   -0.05    4.34    4.28   124.36113    98.21476   391.51225
    96  C   4.0   -0.08    4.29    4.18   121.50663    95.38819   394.06050
    97  C   4.0   -0.07    4.16    3.92   125.75762    96.16822   390.15103
    98  H   1.0    0.11    1.12    1.45   125.67218   101.44423   395.21867
    99  H   1.0    0.05    1.12    1.45   120.88415   100.37013   394.47752
   100  H   1.0    0.06    1.12    1.45   124.96210    96.82934   395.01642
   101  H   1.0    0.04    1.09    1.44   122.86413    98.65494   390.45876
   102  H   1.0    0.06    1.10    1.44   125.47581    99.68836   391.65776
   103  H   1.0    0.05    1.05    1.44   122.21113    93.87108   393.15600
   104  H   1.0    0.05    1.06    1.44   121.06978    94.85460   395.80906
   105  H   1.0    0.05    1.06    1.44   119.97066    95.94386   393.17888
   106  H   1.0    0.05    1.06    1.44   126.19858    96.69911   388.43426
   107  H   1.0    0.07    1.05    1.44   127.35365    95.77408   391.10325
   108  H   1.0    0.05    1.05    1.44   124.72223    94.60467   390.09076
   109  N   5.0   -0.15    3.48    2.07   122.86929    98.70850   400.03757
   110  C   4.0    0.04    4.44    4.45   122.07382    98.04907   402.59587
   111  C   4.0    0.16    3.48    3.11   120.10641    99.95927   403.53691
   112  O   6.0   -0.30    1.26    1.80   118.08112    99.28890   404.47025
   113  C   4.0   -0.05    4.33    4.25   124.22506    97.75768   404.38568
   114  C   4.0   -0.05    4.18    3.96   125.23710    95.12401   405.09314
   115  C   4.0   -0.06    4.13    3.86   127.16820    94.97448   407.41907
   116  C   4.0   -0.05    4.10    3.80   129.17612    92.85387   407.11132
   117  N   5.0   -0.16    3.99    2.85   130.74774    92.95741   404.50566
   118  H   1.0    0.11    1.12    1.45   124.54871    98.95399   399.89703
   119  H   1.0    0.05    1.12    1.45   121.21973    96.34164   402.47946
   120  H   1.0    0.06    1.09    1.44   125.69178    98.74170   403.70567
   121  H   1.0    0.05    1.09    1.44   123.73208    98.56605   406.03960
   122  H   1.0    0.05    1.08    1.44   123.80634    94.00610   405.49139
   123  H   1.0    0.05    1.07    1.44   126.14318    94.41790   403.56935
   124  H   1.0    0.04    1.07    1.44   128.08301    96.62566   407.47904
   125  H   1.0    0.05    1.08    1.44   126.22049    94.70382   408.94645
   126  H   1.0    0.04    1.07    1.44   130.37290    92.93755   408.49626
   127  H   1.0    0.04    1.06    1.44   128.28263    91.19975   407.10290
   128  H   1.0    0.07    1.06    1.44   131.89089    91.68715   404.52284
   129  H   1.0    0.08    1.06    1.44   129.67676    92.82292   403.20394
   130  H   1.0    0.07    1.06    1.44   131.56620    94.48341   404.46805
   131  N   5.0   -0.15    3.60    2.15   120.66887   102.41860   403.32451
   132  C   4.0    0.04    4.67    4.73   119.18264   104.34164   404.44065
   133  C   4.0    0.16    3.54    3.13   116.55361   104.30168   403.32043
   134  O   6.0   -0.31    1.25    1.80   114.59409   104.35677   404.64068
   135  C   4.0   -0.02    4.47    4.50   120.40278   106.83999   404.23211
   136  C   4.0   -0.07    4.28    4.15   118.53220   108.88065   405.00087
   137  C   4.0   -0.07    4.28    4.16   122.82421   106.89518   405.58220
   138  H   1.0    0.11    1.14    1.45   122.05958   102.95746   402.44838
   139  H   1.0    0.06    1.14    1.45   118.97922   103.92642   406.27949
   140  H   1.0    0.06    1.13    1.45   120.86156   107.28613   402.42469
   141  H   1.0    0.05    1.04    1.44   119.36903   110.58512   404.96904
   142  H   1.0    0.05    1.06    1.44   117.07292   108.90301   403.87225
   143  H   1.0    0.06    1.05    1.44   117.97763   108.54935   406.76600
   144  H   1.0    0.06    1.05    1.44   123.70232   108.56152   405.37378
   145  H   1.0    0.05    1.05    1.44   122.49018   106.68056   407.44970
   146  H   1.0    0.06    1.06    1.44   123.93906   105.54151   405.01634
   147  N   5.0   -0.15    3.56    2.12   116.46369   104.26773   400.74970
   148  C   4.0    0.03    4.59    4.65   114.20098   104.31266   399.26906
   149  C   4.0    0.15    3.53    3.13   112.57087   101.99683   399.84049
   150  O   6.0   -0.31    1.29    1.80   110.25222   102.12560   400.21197
   151  C   4.0   -0.02    4.53    4.57   114.79831   104.60948   396.53165
   152  C   4.0   -0.06    4.34    4.28   115.54407   107.32640   396.06101
   153  C   4.0   -0.09    4.25    4.11   112.67592   103.58821   394.80820
   154  C   4.0   -0.09    4.21    4.02   116.33732   107.50707   393.34010
   155  H   1.0    0.11    1.15    1.45   117.87604   104.22426   399.80366
   156  H   1.0    0.05    1.12    1.45   113.13808   105.80893   399.83331
   157  H   1.0    0.05    1.13    1.45   116.25642   103.49036   396.05904
   158  H   1.0    0.04    1.09    1.44   114.09390   108.44130   396.28655
   159  H   1.0    0.05    1.09    1.44   116.96508   107.80810   397.11289
   160  H   1.0    0.04    1.05    1.44   113.10947   103.83847   393.04194
   161  H   1.0    0.05    1.05    1.44   112.38726   101.78339   395.17778
   162  H   1.0    0.05    1.05    1.44   111.09579   104.54761   395.22348
   163  H   1.0    0.04    1.05    1.44   116.86902   109.32682   393.02141
   164  H   1.0    0.04    1.05    1.44   117.82237   106.42773   393.05384
   165  H   1.0    0.04    1.06    1.44   114.95772   107.08385   392.22933
   166  N   5.0   -0.16    3.57    2.13   113.73740    99.80443   399.88983
   167  C   4.0    0.04    4.49    4.52   112.51353    97.48075   400.60234
   168  C   4.0    0.17    3.45    3.10   111.24477    97.74008   403.21395
   169  O   6.0   -0.28    1.22    1.80   109.18186    96.74703   403.61843
   170  C   4.0    0.04    4.29    4.18   114.42964    95.37766   400.43182
   171  O   6.0   -0.26    2.12    1.84   113.19633    93.11626   400.33819
   172  H   1.0    0.11    1.15    1.45   115.40824    99.61160   399.48191
   173  H   1.0    0.06    1.13    1.45   111.10410    97.08840   399.43635
   174  H   1.0    0.05    1.08    1.44   115.48846    95.59483   398.93438
   175  H   1.0    0.06    1.07    1.44   115.53143    95.43902   401.98585
   176  H   1.0    0.12    1.07    1.44   114.33401    91.83329   400.31870
   177  N   5.0   -0.15    3.53    2.10   112.44446    99.10210   404.98129
   178  C   4.0    0.05    4.48    4.51   111.40013    99.64367   407.39359
   179  C   4.0    0.18    3.54    3.13   109.16931   101.46466   407.16021
   180  O   6.0   -0.26    1.27    1.80   107.15605   101.07762   408.28793
   181  C   4.0    0.04    4.26    4.12   113.34399   100.66028   409.24842
   182  O   6.0   -0.24    2.12    1.84   112.12623   101.92666   411.23587
   183  H   1.0    0.12    1.13    1.45   114.03618    99.77585   404.74547
   184  H   1.0    0.07    1.12    1.45   110.74464    98.00184   408.13172
   185  H   1.0    0.05    1.06    1.44   114.38668    99.24497   409.91885
   186  H   1.0    0.07    1.07    1.44   114.46159   101.85640   408.33681
   187  H   1.0    0.14    1.06    1.44   113.30385   102.48487   412.34056
   188  N   5.0   -0.14    3.58    2.14   109.45625   103.45656   405.79102
   189  C   4.0    0.04    4.50    4.53   107.40273   105.22042   405.38401
   190  C   4.0    0.17    3.53    3.13   105.13605   103.91137   404.35368
   191  O   6.0   -0.26    1.26    1.80   103.03665   104.47183   405.10593
   192  C   4.0   -0.08    4.24    4.07   108.12905   107.40575   403.74364
   193  H   1.0    0.12    1.14    1.45   110.93321   103.87338   404.94119
   194  H   1.0    0.07    1.13    1.45   106.98358   105.94105   407.08241
   195  H   1.0    0.05    1.05    1.44   106.73055   108.59870   403.55652
   196  H   1.0    0.05    1.05    1.44   109.62790   108.31256   404.47112
   197  H   1.0    0.06    1.05    1.44   108.63659   106.76403   402.03232
   198  N   5.0   -0.14    3.57    2.13   105.45166   102.10063   402.66552
   199  C   4.0    0.05    4.58    4.64   103.33896   100.80599   401.49930
   200  C   4.0    0.10    3.26    3.05   102.02895    99.00204   403.29170
   201  O   6.0   -0.26    1.12    1.80    99.73144    98.73595   403.25345
   202  C   4.0   -0.04    4.24    4.09   103.93722    99.38714   399.16512
   203  S   6.0   -0.05    2.54    3.10   104.87122   101.37526   396.77927
   204  H   1.0    0.12    1.14    1.45   106.99562   101.51747   402.12594
   205  H   1.0    0.07    1.15    1.45   102.14924   102.22392   401.05414
   206  H   1.0    0.06    1.16    1.45   105.38312    98.19534   399.53085
   207  H   1.0    0.06    1.17    1.46   102.48938    98.40228   398.57460
   208  H   1.0    0.06    1.00    1.43   106.72361   102.61659   397.43552
   209  N   5.0   -0.23    3.26    1.97   113.99912    88.19484   391.88044
   210  C   4.0    0.03    4.30    4.20   116.40675    89.40017   391.81132
   211  C   4.0    0.08    3.23    3.04   117.59136    89.28497   389.24093
   212  O   6.0   -0.31    1.14    1.80   118.71199    91.12986   388.36686
   213  C   4.0   -0.06    4.33    4.26   118.08334    88.36156   393.88888
   214  C   4.0   -0.06    4.21    4.02   117.48012    89.26028   396.67681
   215  C   4.0   -0.06    4.22    4.05   116.85516    87.06620   398.44727
   216  C   4.0   -0.04    4.23    4.06   114.13470    85.98989   397.98497
   217  N   5.0   -0.15    4.11    3.18   113.59992    83.70111   399.43159
   218  H   1.0    0.09    1.08    1.44   113.85133    86.90020   392.98320
   219  H   1.0    0.04    1.13    1.45   116.21792    91.25480   392.21325
   220  H   1.0    0.04    1.09    1.44   117.97000    86.47789   393.87629
   221  H   1.0    0.05    1.08    1.44   119.89171    88.82734   393.54620
   222  H   1.0    0.04    1.08    1.44   118.91968    90.19401   397.35016
   223  H   1.0    0.04    1.08    1.44   115.97314    90.37949   396.57410
   224  H   1.0    0.04    1.08    1.44   118.06216    85.66192   398.12231
   225  H   1.0    0.04    1.08    1.44   116.98424    87.62358   400.19680
   226  H   1.0    0.05    1.07    1.44   112.90429    87.32214   398.50021
   227  H   1.0    0.04    1.08    1.44   113.92287    85.61623   396.18244
   228  H   1.0    0.07    1.08    1.44   111.98172    83.14452   399.18588
   229  H   1.0    0.06    1.08    1.44   114.69795    82.41748   399.01551
   230  H   1.0    0.06    1.07    1.44   113.79448    83.99236   401.16847
   231  N   5.0   -0.21    3.28    1.98   114.42198    94.51765   385.24988
   232  C   4.0    0.03    4.51    4.55   115.25867    96.99170   386.07369
   233  C   4.0    0.15    3.49    3.11   117.75527    97.63197   384.90927
   234  O   6.0   -0.32    1.30    1.80   118.14057    99.65609   383.81263
   235  C   4.0   -0.03    4.49    4.52   115.30962    97.22081   388.95149
   236  C   4.0   -0.06    4.37    4.33   112.60028    96.85503   389.95424
   237  C   4.0   -0.09    4.27    4.14   116.42816    99.63718   389.82053
   238  C   4.0   -0.09    4.19    3.99   112.44284    96.33900   392.59943
   239  H   1.0    0.10    1.07    1.44   114.29355    93.37847   386.55626
   240  H   1.0    0.05    1.12    1.45   113.97045    98.23176   385.40588
   241  H   1.0    0.05    1.13    1.45   116.38655    95.84804   389.62805
   242  H   1.0    0.04    1.10    1.44   111.64662    98.44892   389.63990
   243  H   1.0    0.04    1.10    1.44   111.77922    95.46098   389.02369
   244  H   1.0    0.04    1.06    1.44   116.36620    99.76189   391.64961
   245  H   1.0    0.05    1.06    1.44   118.20512    99.74907   389.21337
   246  H   1.0    0.04    1.05    1.44   115.45990   101.07276   389.04656
   247  H   1.0    0.04    1.06    1.44   110.65181    96.14471   393.14099
   248  H   1.0    0.04    1.06    1.44   113.33571    94.70147   392.98405
   249  H   1.0    0.04    1.06    1.44   113.24337    97.68936   393.60318
   250  N   5.0   -0.15    3.43    2.04   119.55511    95.92707   385.10177
   251  C   4.0    0.01    4.26    4.11   121.99943    96.21350   383.90424
   252  C   4.0    0.09    3.17    3.03   121.91664    96.42953   381.09526
   253  O   6.0   -0.28    1.11    1.80   123.29578    97.95983   379.94481
   254  H   1.0    0.11    1.12    1.45   119.39632    94.42452   385.98029
   255  H   1.0    0.05    1.09    1.44   122.80715    97.77284   384.59772
   256  H   1.0    0.05    1.08    1.44   123.11525    94.76038   384.36219
   257  N   5.0   -0.21    3.27    1.97   119.87791   103.09286   380.29476
   258  C   4.0    0.04    4.37    4.33   122.01076   104.68775   380.89423
   259  C   4.0    0.09    3.23    3.04   124.03050   104.61145   378.86044
   260  O   6.0   -0.28    1.11    1.80   125.01281   106.61540   378.12307
   261  C   4.0   -0.05    4.57    4.62   123.06766   104.14975   383.40094
   262  C   4.0   -0.03    4.37    4.32   121.76601   105.39104   385.52875
   263  C   4.0   -0.09    4.22    4.03   122.95707   104.36471   388.00498
   264  C   4.0   -0.09    4.28    4.16   121.95722   108.16569   385.32852
   265  H   1.0    0.13    1.11    1.45   119.46210   101.97980   381.50929
   266  H   1.0    0.05    1.14    1.45   121.31823   106.45662   380.89568
   267  H   1.0    0.05    1.10    1.44   123.05072   102.28322   383.67656
   268  H   1.0    0.05    1.11    1.44   124.88514   104.71193   383.43309
   269  H   1.0    0.04    1.12    1.45   119.91908   105.00350   385.59070
   270  H   1.0    0.04    1.04    1.43   122.08863   105.13063   389.48323
   271  H   1.0    0.04    1.05    1.44   122.73414   102.50631   388.06721
   272  H   1.0    0.05    1.05    1.44   124.75340   104.79429   388.03480
   273  H   1.0    0.04    1.05    1.44   121.22147   108.98820   386.86132
   274  H   1.0    0.05    1.06    1.44   123.76123   108.65819   385.20319
   275  H   1.0    0.04    1.06    1.44   121.04079   108.75207   383.82426
   276  N   5.0   -0.23    3.28    1.98   121.32478   119.75915   388.72638
   277  C   4.0    0.03    4.46    4.47   118.76580   118.86447   388.27502
   278  C   4.0    0.15    3.52    3.12   117.06936   119.50182   390.44658
   279  O   6.0   -0.30    1.34    1.80   114.82911   119.24051   390.23822
   280  C   4.0   -0.05    4.71    4.77   118.69838   116.05986   387.72710
   281  C   4.0   -0.03    4.57    4.63   116.26869   114.93515   387.31977
   282  C   4.0   -0.06    4.67    4.74   116.46506   112.95073   385.60973
   283  C   4.0   -0.05    4.71    4.77   115.45310   113.63654   389.31722
   284  H   1.0    0.09    1.07    1.44   122.40393   118.49356   389.14805
   285  H   1.0    0.05    1.12    1.45   118.10054   119.73581   386.73683
   286  H   1.0    0.04    1.11    1.45   119.77588   115.72935   386.20914
   287  H   1.0    0.04    1.11    1.45   119.53611   115.19008   389.20554
   288  H   1.0    0.06    1.17    1.46   115.09622   116.33100   386.85827
   289  H   1.0    0.04    1.08    1.44   114.82642   112.08259   385.31272
   290  H   1.0    0.04    1.06    1.44   117.02469   113.63985   383.87830
   291  H   1.0    0.03    1.08    1.44   117.74529   111.69675   386.11846
   292  H   1.0    0.04    1.09    1.44   113.74625   112.89814   389.06377
   293  H   1.0    0.03    1.10    1.44   116.63675   112.32157   389.85926
   294  H   1.0    0.05    1.07    1.44   115.25440   114.85165   390.85943
   295  N   5.0   -0.15    3.57    2.13   118.02453   120.20127   392.53525
   296  C   4.0    0.04    4.44    4.44   116.53727   121.00097   394.68322
   297  C   4.0    0.10    3.26    3.05   115.64386   123.66567   394.38450
   298  O   6.0   -0.27    1.14    1.80   113.61652   124.23023   395.26045
   299  C   4.0   -0.04    4.40    4.37   118.01878   120.81711   397.19470
   300  C   4.0   -0.02    3.57    3.15   119.22198   118.30840   397.87751
   301  C   4.0   -0.05    3.55    3.14   117.96339   116.02690   397.60941
   302  C   4.0   -0.04    3.58    3.15   121.56380   118.18617   398.88758
   303  C   4.0   -0.05    3.48    3.11   119.07051   113.71780   398.28808
   304  C   4.0   -0.05    3.54    3.13   122.72143   115.98490   399.57315
   305  C   4.0    0.07    3.53    3.13   121.49874   113.73279   399.27503
   306  O   6.0   -0.27    2.18    1.85   122.66472   111.59821   399.96504
   307  H   1.0    0.09    1.13    1.45   119.76145   120.23084   392.89505
   308  H   1.0    0.07    1.13    1.45   115.09484   119.83227   394.80035
   309  H   1.0    0.05    1.09    1.44   119.39353   122.08829   397.12269
   310  H   1.0    0.06    1.09    1.44   116.83676   121.25609   398.57339
   311  H   1.0    0.05    1.08    1.44   116.25956   116.02528   396.90354
   312  H   1.0    0.06    1.09    1.44   122.48960   119.77934   399.18593
   313  H   1.0    0.05    1.08    1.44   118.19444   112.15792   398.05425
   314  H   1.0    0.06    1.09    1.44   124.41600   116.00802   400.31346
   315  H   1.0    0.14    1.12    1.45   124.26787   111.91881   400.36082
   316  N   5.0   -0.23    3.27    1.97   101.92275   105.54178   388.88650
   317  C   4.0    0.03    4.51    4.55   103.74976   106.80621   390.49103
   318  C   4.0    0.09    3.32    3.06   102.93320   109.43430   391.10711
   319  O   6.0   -0.28    1.14    1.80   103.00294   110.16566   393.25800
   320  C   4.0   -0.03    4.49    4.52   106.31918   106.74309   389.37456
   321  C   4.0   -0.08    4.35    4.29   107.94241   108.57887   390.73766
   322  C   4.0   -0.09    4.32    4.24   107.28115   104.16787   389.51730
   323  H   1.0    0.10    1.07    1.44   102.45652   105.05885   387.36371
   324  H   1.0    0.05    1.14    1.45   103.76708   105.82153   392.10180
   325  H   1.0    0.04    1.13    1.45   106.34717   107.25679   387.54545
   326  H   1.0    0.04    1.05    1.44   109.74465   108.42805   390.13885
   327  H   1.0    0.05    1.06    1.44   107.36433   110.31479   390.43514
   328  H   1.0    0.05    1.06    1.44   107.90966   108.20166   392.56796
   329  H   1.0    0.04    1.05    1.44   108.97563   104.03906   388.64593
   330  H   1.0    0.04    1.06    1.44   107.48470   103.64279   391.28053
   331  H   1.0    0.04    1.06    1.44   106.11110   102.98606   388.63421
   332  O   6.0   -0.33    2.01    1.83   126.40128   112.20847   403.60480
   333  H   1.0    0.16    1.01    1.43   127.72577   113.17454   403.21559
   334  H   1.0    0.15    1.02    1.43   125.49408   113.25572   404.59420
   335  N   5.0   -0.21    3.25    1.97   123.51764    97.76719   419.42684
   336  C   4.0    0.03    4.38    4.35   124.07045    99.57177   417.45673
   337  C   4.0    0.14    3.43    3.09   126.71086   100.68944   417.75215
   338  O   6.0   -0.28    1.18    1.80   128.01039   100.39154   419.77507
   339  C   4.0   -0.04    4.44    4.45   122.24731   101.77671   417.23172
   340  C   4.0   -0.04    4.35    4.30   119.47394   101.17753   417.18286
   341  C   4.0    0.15    3.31    3.05   118.66803    99.99611   414.80220
   342  O   6.0   -0.28    1.20    1.80   119.88462   100.49783   412.79933
   343  N   5.0   -0.23    3.20    1.96   116.55921    98.51653   414.93888
   344  H   1.0    0.11    1.07    1.44   123.85232    98.33648   421.02673
   345  H   1.0    0.05    1.12    1.45   123.97383    98.52186   415.87612
   346  H   1.0    0.05    1.09    1.44   122.51572   102.86932   418.76944
   347  H   1.0    0.07    1.10    1.44   122.62553   102.74236   415.71960
   348  H   1.0    0.04    1.10    1.44   119.04362   100.01518   418.59226
   349  H   1.0    0.05    1.09    1.44   118.48017   102.76858   417.39592
   350  H   1.0    0.10    1.07    1.44   115.75357    98.28613   416.36146
   351  H   1.0    0.11    1.07    1.44   116.01601    97.72818   413.51014
   352  N   5.0   -0.16    3.50    2.08   127.47214   102.05387   415.70092
   353  C   4.0    0.04    4.49    4.52   129.73444   103.57420   415.75220
   354  C   4.0    0.08    3.28    3.05   128.98417   106.15560   416.69226
   355  O   6.0   -0.30    1.16    1.80   127.56063   107.45262   415.42936
   356  C   4.0   -0.03    4.36    4.31   131.20578   103.72670   413.30265
   357  C   4.0   -0.09    4.17    3.94   133.75357   105.20825   413.82762
   358  C   4.0   -0.09    4.22    4.04   131.60112   101.19234   412.09985
   359  H   1.0    0.09    1.12    1.45   126.71395   102.00958   414.20762
   360  H   1.0    0.05    1.12    1.45   130.96106   102.76926   416.99853
   361  H   1.0    0.05    1.12    1.45   130.20267   104.66671   411.99979
   362  H   1.0    0.05    1.04    1.43   134.73790   105.27037   412.20815
   363  H   1.0    0.05    1.05    1.44   133.36444   106.90356   414.38866
   364  H   1.0    0.05    1.05    1.44   134.72289   104.26151   415.08802
   365  H   1.0    0.04    1.05    1.44   132.61452   101.34768   410.56066
   366  H   1.0    0.05    1.05    1.44   132.57061   100.10919   413.35033
   367  H   1.0    0.05    1.05    1.44   129.98047   100.37896   411.75947
   368  N   5.0   -0.21    3.27    1.97   130.18296   112.13649   412.11560
   369  C   4.0    0.04    4.39    4.36   128.92164   111.95037   409.71721
   370  C   4.0    0.16    3.47    3.10   126.14889   112.53234   410.07085
   371  O   6.0   -0.31    1.28    1.80   124.97642   113.79586   408.53068
   372  C   4.0   -0.05    4.35    4.28   129.19724   109.37429   408.37070
   373  C   4.0   -0.04    4.25    4.10   131.88827   108.67553   407.59444
   374  C   4.0    0.24    3.14    3.03   133.02522   110.43247   405.63490
   375  O   6.0   -0.28    1.15    1.80   131.71553   111.15255   403.69088
   376  O   6.0   -0.27    1.17    1.80   135.20683   111.24576   406.09130
   377  H   1.0    0.10    1.06    1.44   130.85117   110.58816   412.68317
   378  H   1.0    0.06    1.12    1.45   129.74683   113.21976   408.58570
   379  H   1.0    0.05    1.08    1.44   128.58376   108.04460   409.55150
   380  H   1.0    0.06    1.09    1.44   128.15346   109.37914   406.83801
   381  H   1.0    0.05    1.09    1.44   132.98951   108.74606   409.12302
   382  H   1.0    0.04    1.08    1.44   131.89802   106.94793   406.90844
   383  N   5.0   -0.15    3.54    2.10   125.02207   111.61840   412.07775
   384  C   4.0    0.04    4.43    4.43   122.40758   112.07751   412.69693
   385  C   4.0    0.09    3.26    3.04   122.06866   114.90841   413.08664
   386  O   6.0   -0.29    1.12    1.80   120.20653   115.98727   412.18615
   387  C   4.0   -0.04    4.41    4.39   121.48817   110.43213   414.83990
   388  C   4.0   -0.04    4.33    4.26   118.76915   110.12366   415.07593
   389  C   4.0    0.15    3.25    3.04   117.53000   108.34858   413.22420
   390  O   6.0   -0.29    1.22    1.80   118.66654   106.48392   412.59132
   391  N   5.0   -0.23    3.16    1.95   115.07960   108.91643   412.32156
   392  H   1.0    0.11    1.13    1.45   125.81826   110.59373   413.26571
   393  H   1.0    0.06    1.13    1.45   121.30757   111.63063   411.22584
   394  H   1.0    0.07    1.11    1.44   122.24177   108.73330   414.63915
   395  H   1.0    0.05    1.09    1.44   122.16082   111.19234   416.45019
   396  H   1.0    0.05    1.09    1.44   118.31788   109.50756   416.82097
   397  H   1.0    0.05    1.09    1.44   117.91337   111.83555   414.88575
   398  H   1.0    0.10    1.06    1.44   114.32073   110.32127   412.91321
   399  H   1.0    0.12    1.06    1.44   114.34603   107.93300   411.23670
   400  N   5.0   -0.21    3.28    1.98   121.98941   118.62983   406.92562
   401  C   4.0    0.04    4.36    4.31   119.63772   118.36870   405.67801
   402  C   4.0    0.10    3.30    3.05   117.80902   120.30831   406.61327
   403  O   6.0   -0.28    1.13    1.80   116.60171   121.62291   405.22475
   404  C   4.0   -0.04    4.52    4.57   118.62133   115.74453   405.92961
   405  C   4.0   -0.01    3.72    3.26   115.90473   115.42417   405.51413
   406  C   4.0   -0.03    3.70    3.24   114.89737   115.08859   403.34304
   407  C   4.0   -0.03    3.71    3.25   114.26887   115.49457   407.45211
   408  C   4.0   -0.03    3.61    3.17   112.28106   114.71377   403.02919
   409  C   4.0   -0.03    3.59    3.16   111.71567   115.13895   407.14499
   410  C   4.0   -0.04    3.49    3.11   110.70905   114.77851   404.84205
   411  H   1.0    0.12    1.08    1.44   122.42016   117.30406   407.97098
   412  H   1.0    0.05    1.12    1.45   119.88085   118.65885   403.80085
   413  H   1.0    0.05    1.10    1.44   119.53312   114.59765   404.80293
   414  H   1.0    0.06    1.10    1.44   118.98666   115.20827   407.74562
   415  H   1.0    0.05    1.10    1.44   115.97322   115.16412   401.77727
   416  H   1.0    0.06    1.08    1.44   114.91287   115.74073   409.21181
   417  H   1.0    0.05    1.08    1.44   111.61733   114.44478   401.24849
   418  H   1.0    0.06    1.08    1.44   110.58901   115.13807   408.66202
   419  H   1.0    0.06    1.10    1.44   108.91462   114.58585   404.63417
   420  H   1.0    0.08    1.05    1.44   103.04253    98.00275   404.53474
   421  H   1.0    0.09    1.08    1.44   112.80866    89.32907   392.31505
   422  H   1.0    0.06    1.05    1.44   117.47660    87.70031   388.21782
   423  H   1.0    0.09    1.08    1.44   112.88922    94.64908   384.52465
   424  H   1.0    0.06    1.05    1.44   120.74108    95.33675   380.09780
   425  H   1.0    0.10    1.08    1.44   118.50517   104.05927   380.02235
   426  H   1.0    0.07    1.04    1.43   124.56468   102.95651   378.12092
   427  H   1.0    0.10    1.07    1.44   121.92185   120.50507   387.31937
   428  H   1.0    0.06    1.05    1.44   116.71971   124.92685   393.47729
   429  H   1.0    0.10    1.08    1.44   101.37784   104.12507   389.65367
   430  H   1.0    0.06    1.05    1.44   102.32982   110.58283   389.73311
   431  H   1.0    0.09    1.08    1.44   121.86670    97.36149   419.37817
   432  H   1.0    0.06    1.05    1.44   129.65360   106.79220   418.34080
   433  H   1.0    0.10    1.08    1.44   131.47448   113.23637   411.99399
   434  H   1.0    0.06    1.04    1.43   123.35215   115.88726   414.06926
   435  H   1.0    0.10    1.08    1.44   123.23221   118.76336   405.77228
   436  H   1.0    0.07    1.05    1.44   117.55439   120.54905   408.47023

  Z AO/shell   Hii/eV     exponent
  1     Wed Apr 25 08:07:45 CEST 2018   EN: 2.200 GM2: 0.406  GM3: 0.0800  RAES: 1.40
     1s    -10.707211    1.230000
  6     Wed Apr 25 08:07:45 CEST 2018   EN: 2.550 GM2: 0.538  GM3: 0.1500  RAES: 3.00
     2s    -13.970922    2.096432
     2p    -10.063292    1.800000
  7     Wed Apr 25 08:07:45 CEST 2018   EN: 3.040 GM2: 0.461  GM3:-0.0640  RAES: 1.90
     2s    -16.686243    2.339881
     2p    -12.523956    2.014332
  8     Wed Apr 25 08:07:45 CEST 2018   EN: 3.440 GM2: 0.452  GM3:-0.0517  RAES: 1.80
     2s    -20.229985    2.439742
     2p    -15.503117    2.137023
 16     Tue Apr 24 11:44:34 CEST 2018   EN: 2.580 GM2: 0.340  GM3:-0.0502  RAES: 3.10
     3s    -20.029654    1.981333
     3p    -11.377694    2.025643
     3d     -0.420282    1.702555
 no old-style atom pair restraining (fixing) potential

molecular fragmentation (1/2 indicates fragments):
111111111111111111111111111111111111111111111111111111111111111111111111
111111111111111111111111111111111111111111111111111111111111111111111111
111111111111111111111111111111111111111111111111111111111111111122222222
222222222222222222222222222222222222222222222222222222222222222222222222
222222222222222222222222222222222222222222222222222222222222222222222222
222222222222222222222222222222222222222222222222222222222221222222222222
2222
# atoms in fragment 1/2:   209   227
 fragment masses (1/2) :     1466.71     1452.84
CMA distance (Bohr)    :   6.179
constraining FC (au)   :  0.0500
           ------------------------------------------------- 
          |        Self-Consistent Charge Iterations        |
           ------------------------------------------------- 

 Ncao       : 1054
 Nao        : 1053
 Nshell     : 641
 Nel        : 1158
 T(el)      :   500.0
 intcut     :    35.0
 scfconv/Eh :  0.100E-06
   qconv/e  :  0.100E-04
 intneglect :  0.100E-08
 broydamp   :      0.400
 iter      E             dE          RMSdq      gap      omega  full diag
   1   -663.7112025 -0.663711E+03  0.462E+00    3.02       0.0  T
   2   -665.2991156 -0.158791E+01  0.219E+00    1.75       1.0  T
   3   -665.3908986 -0.917830E-01  0.127E+00    1.79       1.0  T
   4   -665.5064288 -0.115530E+00  0.262E-01    1.21       1.0  T
   5   -665.5147016 -0.827285E-02  0.119E-01    1.38       1.0  T
   6   -665.5157686 -0.106695E-02  0.540E-02    1.39       1.0  T
   7   -665.5160689 -0.300358E-03  0.236E-02    1.38       1.0  T
   8   -665.5161069 -0.380059E-04  0.117E-02    1.38       1.0  T
   9   -665.5161233 -0.163219E-04  0.534E-03    1.38       1.0  T
  10   -665.5161261 -0.286269E-05  0.236E-03    1.38       2.0  T
  11   -665.5161266 -0.500285E-06  0.102E-03    1.38       4.7  T
  12   -665.5161267 -0.775418E-07  0.461E-04    1.38      10.4  T
  13   -665.5161267 -0.224408E-07  0.215E-04    1.38      22.3  T
  14   -665.5161267 -0.338503E-08  0.891E-05    1.38      53.7  T
  15   -665.5161267 -0.708383E-09  0.345E-05    1.38     138.6  T
speedup  1.96
cpu  time for SCC   23.08 s
wall time for SCC   11.79 s

   *** convergence criteria satisfied after 15 iterations ***

          eigenvalues
 #    :         567        568        569        570        571        572        573        574
 occ. :        2.000      2.000      2.000      2.000      2.000      2.000      2.000      2.000
 eps  :       -10.128    -10.113    -10.109    -10.057    -10.044    -10.019    -10.015     -9.959
 #    :         575        576        577        578        579        580        581        582
 occ. :        2.000      2.000      2.000      2.000      2.000      0.000      0.000      0.000
 eps  :        -9.909     -9.768     -9.749     -9.651     -9.535     -8.155     -8.078     -7.937
 #    :         583        584        585        586        587        588        589        590
 occ. :        0.000      0.000      0.000      0.000      0.000      0.000      0.000      0.000
 eps  :        -7.902     -7.867     -7.771     -7.726     -7.629     -7.347     -7.189     -7.131


   #   Z            q   n(s)   n(p)   n(d)      C6AA      α(0)
   1   7 N     -0.134  1.159  3.975  0.000    23.891     7.260
   2   6 C     -0.034  1.060  2.975  0.000    21.207     6.560
   3   6 C      0.252  1.045  2.703  0.000    22.772     7.814
   4   8 O     -0.465  1.784  4.681  0.000    23.026     6.434
   5   6 C      0.030  1.022  2.948  0.000    20.306     6.458
   6   8 O     -0.485  1.705  4.780  0.000    22.569     6.413
   7   1 H      0.317  0.683  0.000  0.000     0.665     1.277
   8   1 H      0.306  0.694  0.000  0.000     0.695     1.305
   9   1 H      0.304  0.696  0.000  0.000     0.702     1.312
  10   1 H      0.152  0.848  0.000  0.000     1.379     1.836
  11   1 H      0.095  0.905  0.000  0.000     1.828     2.114
  12   1 H      0.123  0.877  0.000  0.000     1.590     1.972
  13   1 H      0.337  0.663  0.000  0.000     0.619     1.235
  14   7 N     -0.180  1.221  3.959  0.000    24.896     7.411
  15   6 C      0.018  1.034  2.948  0.000    20.261     6.408
  16   6 C      0.272  1.044  2.684  0.000    22.404     7.751
  17   8 O     -0.499  1.751  4.748  0.000    23.753     6.534
  18   6 C     -0.080  1.011  3.069  0.000    22.017     6.677
  19   6 C     -0.111  1.027  3.085  0.000    22.636     6.775
  20   6 C      0.354  1.047  2.600  0.000    20.997     7.498
  21   8 O     -0.641  1.776  4.865  0.000    27.158     6.987
  22   8 O     -0.666  1.796  4.869  0.000    27.785     7.067
  23   1 H      0.240  0.760  0.000  0.000     0.924     1.505
  24   1 H      0.088  0.912  0.000  0.000     1.897     2.154
  25   1 H      0.066  0.934  0.000  0.000     2.126     2.280
  26   1 H      0.070  0.930  0.000  0.000     2.086     2.259
  27   1 H      0.046  0.954  0.000  0.000     2.375     2.410
  28   1 H      0.031  0.969  0.000  0.000     2.576     2.510
  29   7 N     -0.182  1.221  3.961  0.000    24.953     7.419
  30   6 C      0.011  1.043  2.945  0.000    20.399     6.432
  31   6 C      0.265  1.052  2.683  0.000    22.533     7.774
  32   8 O     -0.507  1.765  4.742  0.000    23.945     6.561
  33   6 C     -0.102  1.025  3.077  0.000    22.432     6.740
  34   6 C     -0.006  1.080  2.926  0.000    28.162     8.705
  35   6 C     -0.044  1.057  2.987  0.000    29.087     8.845
  36   6 C     -0.055  1.058  2.998  0.000    29.378     8.889
  37   6 C     -0.039  1.055  2.984  0.000    28.979     8.828
  38   6 C     -0.044  1.058  2.986  0.000    29.099     8.847
  39   6 C     -0.047  1.064  2.982  0.000    29.155     8.856
  40   1 H      0.226  0.774  0.000  0.000     0.981     1.551
  41   1 H      0.087  0.913  0.000  0.000     1.911     2.162
  42   1 H      0.090  0.910  0.000  0.000     1.879     2.144
  43   1 H      0.081  0.919  0.000  0.000     1.963     2.191
  44   1 H      0.041  0.959  0.000  0.000     2.438     2.441
  45   1 H      0.063  0.937  0.000  0.000     2.163     2.299
  46   1 H      0.052  0.948  0.000  0.000     2.291     2.367
  47   1 H      0.051  0.949  0.000  0.000     2.307     2.375
  48   1 H      0.055  0.945  0.000  0.000     2.260     2.351
  49   7 N     -0.179  1.215  3.963  0.000    24.865     7.406
  50   6 C      0.035  1.023  2.942  0.000    19.972     6.359
  51   6 C      0.252  1.062  2.686  0.000    22.772     7.814
  52   8 O     -0.499  1.764  4.734  0.000    23.759     6.535
  53   6 C     -0.081  1.017  3.065  0.000    22.030     6.679
  54   6 C     -0.114  1.020  3.093  0.000    22.663     6.776
  55   6 C      0.330  1.059  2.611  0.000    21.388     7.568
  56   8 O     -0.652  1.811  4.840  0.000    27.432     7.022
  57   8 O     -0.656  1.812  4.844  0.000    27.541     7.036
  58   1 H      0.228  0.772  0.000  0.000     0.975     1.547
  59   1 H      0.094  0.906  0.000  0.000     1.841     2.122
  60   1 H      0.077  0.923  0.000  0.000     2.013     2.218
  61   1 H      0.082  0.918  0.000  0.000     1.958     2.188
  62   1 H      0.056  0.944  0.000  0.000     2.246     2.343
  63   1 H      0.065  0.935  0.000  0.000     2.139     2.287
  64   7 N     -0.192  1.223  3.969  0.000    25.159     7.449
  65   6 C      0.021  1.041  2.938  0.000    20.227     6.404
  66   6 C      0.267  1.043  2.691  0.000    22.501     7.768
  67   8 O     -0.504  1.743  4.762  0.000    23.883     6.552
  68   6 C     -0.145  0.988  3.157  0.000    23.327     6.882
  69   1 H      0.215  0.785  0.000  0.000     1.030     1.590
  70   1 H      0.104  0.896  0.000  0.000     1.752     2.070
  71   1 H      0.068  0.932  0.000  0.000     2.110     2.271
  72   1 H      0.091  0.909  0.000  0.000     1.867     2.136
  73   1 H      0.061  0.939  0.000  0.000     2.184     2.311
  74   7 N     -0.184  1.222  3.962  0.000    24.977     7.423
  75   6 C      0.019  1.039  2.942  0.000    20.244     6.403
  76   6 C      0.269  1.047  2.684  0.000    22.461     7.761
  77   8 O     -0.508  1.749  4.759  0.000    23.958     6.563
  78   6 C     -0.011  1.024  2.987  0.000    20.734     6.475
  79   6 C     -0.138  0.979  3.159  0.000    23.155     6.852
  80   6 C     -0.137  0.985  3.151  0.000    23.149     6.854
  81   1 H      0.213  0.787  0.000  0.000     1.041     1.598
  82   1 H      0.086  0.914  0.000  0.000     1.916     2.164
  83   1 H      0.045  0.955  0.000  0.000     2.380     2.412
  84   1 H      0.064  0.936  0.000  0.000     2.156     2.296
  85   1 H      0.057  0.943  0.000  0.000     2.235     2.338
  86   1 H      0.063  0.937  0.000  0.000     2.158     2.297
  87   1 H      0.056  0.944  0.000  0.000     2.248     2.345
  88   1 H      0.053  0.947  0.000  0.000     2.277     2.360
  89   1 H      0.035  0.965  0.000  0.000     2.510     2.477
  90   7 N     -0.182  1.220  3.962  0.000    24.950     7.419
  91   6 C      0.015  1.048  2.937  0.000    20.313     6.415
  92   6 C      0.268  1.054  2.678  0.000    22.470     7.762
  93   8 O     -0.487  1.742  4.745  0.000    23.504     6.500
  94   6 C     -0.025  1.035  2.989  0.000    20.971     6.512
  95   6 C     -0.080  1.005  3.075  0.000    22.006     6.676
  96   6 C     -0.145  0.986  3.159  0.000    23.319     6.880
  97   6 C     -0.125  0.981  3.144  0.000    22.934     6.825
  98   1 H      0.210  0.790  0.000  0.000     1.057     1.611
  99   1 H      0.089  0.911  0.000  0.000     1.888     2.148
 100   1 H      0.053  0.947  0.000  0.000     2.282     2.362
 101   1 H      0.047  0.953  0.000  0.000     2.361     2.403
 102   1 H      0.051  0.949  0.000  0.000     2.307     2.375
 103   1 H      0.067  0.933  0.000  0.000     2.114     2.274
 104   1 H      0.063  0.937  0.000  0.000     2.169     2.303
 105   1 H      0.069  0.931  0.000  0.000     2.099     2.266
 106   1 H      0.050  0.950  0.000  0.000     2.319     2.381
 107   1 H      0.031  0.969  0.000  0.000     2.566     2.505
 108   1 H      0.055  0.945  0.000  0.000     2.254     2.348
 109   7 N     -0.189  1.225  3.964  0.000    25.089     7.439
 110   6 C      0.014  1.043  2.943  0.000    20.353     6.424
 111   6 C      0.269  1.048  2.684  0.000    22.460     7.761
 112   8 O     -0.496  1.745  4.751  0.000    23.689     6.526
 113   6 C     -0.102  1.014  3.088  0.000    22.434     6.741
 114   6 C     -0.111  1.029  3.082  0.000    22.627     6.773
 115   6 C     -0.116  1.030  3.086  0.000    22.730     6.789
 116   6 C     -0.071  1.059  3.011  0.000    21.994     6.702
 117   7 N     -0.160  1.168  3.992  0.000    24.455     7.345
 118   1 H      0.209  0.791  0.000  0.000     1.062     1.614
 119   1 H      0.107  0.893  0.000  0.000     1.721     2.051
 120   1 H      0.075  0.925  0.000  0.000     2.033     2.230
 121   1 H      0.076  0.924  0.000  0.000     2.024     2.225
 122   1 H      0.088  0.912  0.000  0.000     1.901     2.156
 123   1 H      0.076  0.924  0.000  0.000     2.021     2.223
 124   1 H      0.086  0.914  0.000  0.000     1.917     2.165
 125   1 H      0.116  0.884  0.000  0.000     1.645     2.005
 126   1 H      0.148  0.852  0.000  0.000     1.407     1.855
 127   1 H      0.145  0.855  0.000  0.000     1.426     1.867
 128   1 H      0.298  0.702  0.000  0.000     0.718     1.327
 129   1 H      0.274  0.726  0.000  0.000     0.795     1.396
 130   1 H      0.280  0.720  0.000  0.000     0.775     1.379
 131   7 N     -0.182  1.216  3.966  0.000    24.932     7.416
 132   6 C      0.027  1.029  2.944  0.000    20.096     6.378
 133   6 C      0.267  1.055  2.679  0.000    22.501     7.768
 134   8 O     -0.505  1.753  4.753  0.000    23.900     6.554
 135   6 C     -0.019  1.024  2.995  0.000    20.861     6.494
 136   6 C     -0.138  0.987  3.152  0.000    23.185     6.860
 137   6 C     -0.148  0.985  3.163  0.000    23.370     6.887
 138   1 H      0.216  0.784  0.000  0.000     1.029     1.589
 139   1 H      0.088  0.912  0.000  0.000     1.897     2.154
 140   1 H      0.055  0.945  0.000  0.000     2.262     2.352
 141   1 H      0.053  0.947  0.000  0.000     2.277     2.360
 142   1 H      0.051  0.949  0.000  0.000     2.308     2.376
 143   1 H      0.052  0.948  0.000  0.000     2.292     2.367
 144   1 H      0.056  0.944  0.000  0.000     2.250     2.345
 145   1 H      0.053  0.947  0.000  0.000     2.284     2.363
 146   1 H      0.071  0.929  0.000  0.000     2.074     2.252
 147   7 N     -0.196  1.224  3.971  0.000    25.247     7.463
 148   6 C      0.018  1.039  2.944  0.000    20.267     6.408
 149   6 C      0.270  1.046  2.684  0.000    22.442     7.758
 150   8 O     -0.518  1.747  4.771  0.000    24.186     6.594
 151   6 C     -0.038  1.042  2.997  0.000    21.210     6.548
 152   6 C     -0.088  1.005  3.083  0.000    22.160     6.699
 153   6 C     -0.150  0.990  3.160  0.000    23.433     6.899
 154   6 C     -0.142  0.984  3.158  0.000    23.262     6.871
 155   1 H      0.224  0.776  0.000  0.000     0.990     1.558
 156   1 H      0.076  0.924  0.000  0.000     2.016     2.220
 157   1 H      0.065  0.935  0.000  0.000     2.143     2.289
 158   1 H      0.059  0.941  0.000  0.000     2.208     2.323
 159   1 H      0.053  0.947  0.000  0.000     2.281     2.362
 160   1 H      0.083  0.917  0.000  0.000     1.947     2.182
 161   1 H      0.058  0.942  0.000  0.000     2.225     2.333
 162   1 H      0.054  0.946  0.000  0.000     2.275     2.359
 163   1 H      0.042  0.958  0.000  0.000     2.419     2.432
 164   1 H      0.048  0.952  0.000  0.000     2.340     2.392
 165   1 H      0.070  0.930  0.000  0.000     2.087     2.259
 166   7 N     -0.179  1.220  3.959  0.000    24.878     7.408
 167   6 C      0.011  1.041  2.947  0.000    20.386     6.428
 168   6 C      0.275  1.044  2.682  0.000    22.354     7.742
 169   8 O     -0.486  1.749  4.738  0.000    23.481     6.497
 170   6 C      0.064  0.997  2.940  0.000    19.668     6.343
 171   8 O     -0.469  1.681  4.788  0.000    22.233     6.365
 172   1 H      0.224  0.776  0.000  0.000     0.989     1.558
 173   1 H      0.107  0.893  0.000  0.000     1.720     2.051
 174   1 H      0.077  0.923  0.000  0.000     2.009     2.216
 175   1 H      0.048  0.952  0.000  0.000     2.343     2.394
 176   1 H      0.356  0.644  0.000  0.000     0.574     1.190
 177   7 N     -0.187  1.217  3.969  0.000    25.044     7.433
 178   6 C      0.018  1.037  2.945  0.000    20.270     6.409
 179   6 C      0.287  1.032  2.681  0.000    22.144     7.707
 180   8 O     -0.526  1.758  4.768  0.000    24.367     6.618
 181   6 C      0.066  1.001  2.933  0.000    19.643     6.342
 182   8 O     -0.485  1.701  4.784  0.000    22.575     6.414
 183   1 H      0.215  0.785  0.000  0.000     1.030     1.590
 184   1 H      0.092  0.908  0.000  0.000     1.858     2.131
 185   1 H      0.062  0.938  0.000  0.000     2.181     2.309
 186   1 H      0.061  0.939  0.000  0.000     2.186     2.312
 187   1 H      0.335  0.665  0.000  0.000     0.624     1.241
 188   7 N     -0.175  1.220  3.955  0.000    24.781     7.393
 189   6 C      0.026  1.030  2.944  0.000    20.122     6.384
 190   6 C      0.293  1.030  2.677  0.000    22.040     7.689
 191   8 O     -0.507  1.747  4.760  0.000    23.943     6.561
 192   6 C     -0.150  0.989  3.161  0.000    23.428     6.896
 193   1 H      0.230  0.770  0.000  0.000     0.967     1.540
 194   1 H      0.089  0.911  0.000  0.000     1.891     2.150
 195   1 H      0.085  0.915  0.000  0.000     1.930     2.173
 196   1 H      0.077  0.923  0.000  0.000     2.007     2.215
 197   1 H      0.070  0.930  0.000  0.000     2.086     2.258
 198   7 N     -0.189  1.215  3.974  0.000    25.104     7.441
 199   6 C      0.035  1.028  2.938  0.000    19.934     6.346
 200   6 C      0.203  1.083  2.714  0.000    23.693     7.972
 201   8 O     -0.360  1.751  4.609  0.000    20.904     6.130
 202   6 C     -0.002  1.007  2.995  0.000    20.593     6.457
 203  16 S     -0.298  1.877  4.384  0.037   153.977    20.885
 204   1 H      0.218  0.782  0.000  0.000     1.016     1.579
 205   1 H      0.098  0.902  0.000  0.000     1.805     2.101
 206   1 H      0.073  0.927  0.000  0.000     2.048     2.237
 207   1 H      0.096  0.904  0.000  0.000     1.820     2.109
 208   1 H      0.213  0.787  0.000  0.000     1.034     1.590
 209   7 N     -0.408  1.287  4.121  0.000    30.607     8.217
 210   6 C      0.032  1.027  2.942  0.000    20.053     6.377
 211   6 C      0.193  1.091  2.716  0.000    23.885     8.004
 212   8 O     -0.396  1.762  4.633  0.000    21.593     6.230
 213   6 C     -0.103  1.030  3.073  0.000    22.451     6.744
 214   6 C     -0.103  1.022  3.081  0.000    22.454     6.746
 215   6 C     -0.120  1.027  3.093  0.000    22.791     6.796
 216   6 C     -0.076  1.022  3.054  0.000    22.046     6.700
 217   7 N     -0.138  1.160  3.978  0.000    23.970     7.272
 218   1 H      0.195  0.805  0.000  0.000     1.129     1.664
 219   1 H      0.065  0.935  0.000  0.000     2.144     2.290
 220   1 H      0.085  0.915  0.000  0.000     1.932     2.173
 221   1 H      0.053  0.947  0.000  0.000     2.280     2.361
 222   1 H      0.075  0.925  0.000  0.000     2.034     2.230
 223   1 H      0.072  0.928  0.000  0.000     2.063     2.246
 224   1 H      0.098  0.902  0.000  0.000     1.806     2.101
 225   1 H      0.096  0.904  0.000  0.000     1.820     2.110
 226   1 H      0.126  0.874  0.000  0.000     1.562     1.954
 227   1 H      0.119  0.881  0.000  0.000     1.621     1.991
 228   1 H      0.296  0.704  0.000  0.000     0.725     1.334
 229   1 H      0.294  0.706  0.000  0.000     0.731     1.340
 230   1 H      0.294  0.706  0.000  0.000     0.730     1.338
 231   7 N     -0.414  1.303  4.110  0.000    30.759     8.237
 232   6 C      0.021  1.038  2.941  0.000    20.226     6.403
 233   6 C      0.271  1.044  2.685  0.000    22.417     7.754
 234   8 O     -0.516  1.754  4.762  0.000    24.145     6.588
 235   6 C     -0.039  1.042  2.998  0.000    21.234     6.553
 236   6 C     -0.081  1.003  3.077  0.000    22.020     6.678
 237   6 C     -0.137  0.981  3.157  0.000    23.172     6.859
 238   6 C     -0.134  0.978  3.156  0.000    23.106     6.850
 239   1 H      0.177  0.823  0.000  0.000     1.229     1.736
 240   1 H      0.054  0.946  0.000  0.000     2.268     2.355
 241   1 H      0.056  0.944  0.000  0.000     2.243     2.342
 242   1 H      0.048  0.952  0.000  0.000     2.343     2.394
 243   1 H      0.052  0.948  0.000  0.000     2.293     2.368
 244   1 H      0.065  0.935  0.000  0.000     2.141     2.288
 245   1 H      0.036  0.964  0.000  0.000     2.508     2.476
 246   1 H      0.048  0.952  0.000  0.000     2.347     2.396
 247   1 H      0.057  0.943  0.000  0.000     2.236     2.338
 248   1 H      0.047  0.953  0.000  0.000     2.362     2.403
 249   1 H      0.045  0.955  0.000  0.000     2.381     2.413
 250   7 N     -0.163  1.213  3.950  0.000    24.529     7.356
 251   6 C     -0.031  1.009  3.022  0.000    21.175     6.561
 252   6 C      0.201  1.080  2.719  0.000    23.718     7.976
 253   8 O     -0.376  1.769  4.606  0.000    21.199     6.173
 254   1 H      0.233  0.767  0.000  0.000     0.952     1.528
 255   1 H      0.098  0.902  0.000  0.000     1.799     2.098
 256   1 H      0.122  0.878  0.000  0.000     1.596     1.975
 257   7 N     -0.425  1.294  4.131  0.000    31.084     8.280
 258   6 C      0.041  1.026  2.934  0.000    19.893     6.351
 259   6 C      0.196  1.097  2.706  0.000    23.810     7.992
 260   8 O     -0.404  1.768  4.636  0.000    21.758     6.254
 261   6 C     -0.073  1.010  3.063  0.000    21.860     6.650
 262   6 C     -0.018  1.027  2.991  0.000    20.858     6.495
 263   6 C     -0.143  0.991  3.152  0.000    23.291     6.876
 264   6 C     -0.141  0.984  3.157  0.000    23.230     6.866
 265   1 H      0.201  0.799  0.000  0.000     1.100     1.643
 266   1 H      0.061  0.939  0.000  0.000     2.192     2.315
 267   1 H      0.063  0.937  0.000  0.000     2.167     2.302
 268   1 H      0.044  0.956  0.000  0.000     2.390     2.418
 269   1 H      0.052  0.948  0.000  0.000     2.294     2.368
 270   1 H      0.049  0.951  0.000  0.000     2.336     2.390
 271   1 H      0.047  0.953  0.000  0.000     2.360     2.402
 272   1 H      0.047  0.953  0.000  0.000     2.362     2.403
 273   1 H      0.049  0.951  0.000  0.000     2.336     2.390
 274   1 H      0.045  0.955  0.000  0.000     2.380     2.412
 275   1 H      0.051  0.949  0.000  0.000     2.310     2.377
 276   7 N     -0.427  1.305  4.122  0.000    31.146     8.289
 277   6 C      0.018  1.035  2.947  0.000    20.277     6.411
 278   6 C      0.282  1.024  2.694  0.000    22.227     7.721
 279   8 O     -0.518  1.734  4.785  0.000    24.188     6.594
 280   6 C     -0.082  1.016  3.066  0.000    22.001     6.666
 281   6 C     -0.002  0.974  3.028  0.000    20.572     6.449
 282   6 C     -0.130  0.988  3.142  0.000    22.890     6.795
 283   6 C     -0.115  0.979  3.136  0.000    22.606     6.753
 284   1 H      0.173  0.827  0.000  0.000     1.254     1.754
 285   1 H      0.056  0.944  0.000  0.000     2.240     2.340
 286   1 H      0.051  0.949  0.000  0.000     2.306     2.375
 287   1 H      0.040  0.960  0.000  0.000     2.445     2.445
 288   1 H      0.046  0.954  0.000  0.000     2.365     2.405
 289   1 H      0.054  0.946  0.000  0.000     2.266     2.354
 290   1 H      0.023  0.977  0.000  0.000     2.691     2.565
 291   1 H      0.055  0.945  0.000  0.000     2.257     2.349
 292   1 H      0.049  0.951  0.000  0.000     2.328     2.386
 293   1 H      0.047  0.953  0.000  0.000     2.351     2.397
 294   1 H      0.016  0.984  0.000  0.000     2.788     2.611
 295   7 N     -0.170  1.211  3.959  0.000    24.688     7.379
 296   6 C      0.018  1.037  2.945  0.000    20.261     6.408
 297   6 C      0.208  1.075  2.717  0.000    23.588     7.954
 298   8 O     -0.358  1.747  4.610  0.000    20.854     6.123
 299   6 C     -0.094  1.021  3.073  0.000    22.270     6.716
 300   6 C     -0.003  1.070  2.932  0.000    28.088     8.693
 301   6 C     -0.053  1.067  2.985  0.000    29.303     8.879
 302   6 C     -0.050  1.056  2.994  0.000    29.240     8.870
 303   6 C     -0.078  1.055  3.023  0.000    29.945     8.974
 304   6 C     -0.087  1.052  3.036  0.000    30.185     9.010
 305   6 C      0.145  1.036  2.819  0.000    24.840     8.169
 306   8 O     -0.413  1.667  4.746  0.000    21.097     6.201
 307   1 H      0.213  0.787  0.000  0.000     1.041     1.598
 308   1 H      0.110  0.890  0.000  0.000     1.695     2.036
 309   1 H      0.072  0.928  0.000  0.000     2.062     2.245
 310   1 H      0.092  0.908  0.000  0.000     1.863     2.134
 311   1 H      0.068  0.932  0.000  0.000     2.102     2.267
 312   1 H      0.045  0.955  0.000  0.000     2.385     2.415
 313   1 H      0.078  0.922  0.000  0.000     1.998     2.210
 314   1 H      0.038  0.962  0.000  0.000     2.473     2.459
 315   1 H      0.320  0.680  0.000  0.000     0.663     1.279
 316   7 N     -0.420  1.288  4.132  0.000    30.941     8.261
 317   6 C      0.024  1.033  2.943  0.000    20.148     6.387
 318   6 C      0.211  1.078  2.712  0.000    23.540     7.946
 319   8 O     -0.384  1.750  4.635  0.000    21.373     6.198
 320   6 C     -0.019  1.023  2.996  0.000    20.870     6.496
 321   6 C     -0.140  0.985  3.155  0.000    23.207     6.861
 322   6 C     -0.145  0.985  3.160  0.000    23.308     6.875
 323   1 H      0.183  0.817  0.000  0.000     1.196     1.713
 324   1 H      0.073  0.927  0.000  0.000     2.056     2.242
 325   1 H      0.051  0.949  0.000  0.000     2.307     2.375
 326   1 H      0.056  0.944  0.000  0.000     2.242     2.341
 327   1 H      0.039  0.961  0.000  0.000     2.457     2.451
 328   1 H      0.054  0.946  0.000  0.000     2.272     2.357
 329   1 H      0.055  0.945  0.000  0.000     2.256     2.349
 330   1 H      0.064  0.936  0.000  0.000     2.149     2.293
 331   1 H      0.059  0.941  0.000  0.000     2.214     2.326
 332   8 O     -0.608  1.701  4.907  0.000    25.372     6.799
 333   1 H      0.298  0.702  0.000  0.000     0.727     1.339
 334   1 H      0.313  0.687  0.000  0.000     0.683     1.298
 335   7 N     -0.401  1.300  4.102  0.000    30.409     8.190
 336   6 C      0.025  1.036  2.939  0.000    20.168     6.395
 337   6 C      0.254  1.063  2.682  0.000    22.721     7.806
 338   8 O     -0.503  1.783  4.719  0.000    23.843     6.547
 339   6 C     -0.086  1.010  3.076  0.000    22.121     6.692
 340   6 C     -0.105  1.012  3.093  0.000    22.479     6.747
 341   6 C      0.271  1.045  2.683  0.000    22.412     7.752
 342   8 O     -0.506  1.777  4.729  0.000    23.914     6.556
 343   7 N     -0.306  1.213  4.093  0.000    27.875     7.841
 344   1 H      0.173  0.827  0.000  0.000     1.255     1.755
 345   1 H      0.079  0.921  0.000  0.000     1.986     2.203
 346   1 H      0.051  0.949  0.000  0.000     2.311     2.377
 347   1 H      0.076  0.924  0.000  0.000     2.022     2.224
 348   1 H      0.077  0.923  0.000  0.000     2.007     2.215
 349   1 H      0.090  0.910  0.000  0.000     1.877     2.142
 350   1 H      0.237  0.763  0.000  0.000     0.935     1.515
 351   1 H      0.220  0.780  0.000  0.000     1.009     1.574
 352   7 N     -0.175  1.212  3.963  0.000    24.786     7.394
 353   6 C      0.014  1.036  2.949  0.000    20.329     6.419
 354   6 C      0.200  1.085  2.715  0.000    23.747     7.981
 355   8 O     -0.360  1.746  4.614  0.000    20.905     6.130
 356   6 C     -0.033  1.043  2.990  0.000    21.117     6.536
 357   6 C     -0.150  0.993  3.158  0.000    23.453     6.904
 358   6 C     -0.158  0.988  3.170  0.000    23.602     6.923
 359   1 H      0.221  0.779  0.000  0.000     1.007     1.572
 360   1 H      0.093  0.907  0.000  0.000     1.845     2.124
 361   1 H      0.053  0.947  0.000  0.000     2.287     2.365
 362   1 H      0.061  0.939  0.000  0.000     2.192     2.315
 363   1 H      0.040  0.960  0.000  0.000     2.449     2.447
 364   1 H      0.073  0.927  0.000  0.000     2.056     2.242
 365   1 H      0.077  0.923  0.000  0.000     2.009     2.216
 366   1 H      0.068  0.932  0.000  0.000     2.108     2.271
 367   1 H      0.073  0.927  0.000  0.000     2.047     2.237
 368   7 N     -0.403  1.298  4.105  0.000    30.459     8.197
 369   6 C      0.036  1.030  2.934  0.000    19.969     6.364
 370   6 C      0.272  1.044  2.684  0.000    22.406     7.752
 371   8 O     -0.525  1.743  4.782  0.000    24.340     6.615
 372   6 C     -0.077  1.017  3.060  0.000    21.955     6.669
 373   6 C     -0.102  1.021  3.081  0.000    22.439     6.742
 374   6 C      0.356  1.035  2.609  0.000    20.960     7.492
 375   8 O     -0.686  1.803  4.882  0.000    28.322     7.135
 376   8 O     -0.661  1.782  4.880  0.000    27.680     7.054
 377   1 H      0.172  0.828  0.000  0.000     1.263     1.760
 378   1 H      0.030  0.970  0.000  0.000     2.580     2.511
 379   1 H      0.057  0.943  0.000  0.000     2.239     2.340
 380   1 H      0.063  0.937  0.000  0.000     2.168     2.303
 381   1 H      0.046  0.954  0.000  0.000     2.363     2.404
 382   1 H      0.055  0.945  0.000  0.000     2.262     2.352
 383   7 N     -0.166  1.217  3.949  0.000    24.587     7.364
 384   6 C      0.020  1.034  2.947  0.000    20.245     6.406
 385   6 C      0.198  1.087  2.715  0.000    23.789     7.988
 386   8 O     -0.362  1.758  4.604  0.000    20.936     6.135
 387   6 C     -0.084  1.007  3.077  0.000    22.083     6.687
 388   6 C     -0.112  1.014  3.097  0.000    22.617     6.768
 389   6 C      0.276  1.049  2.675  0.000    22.333     7.738
 390   8 O     -0.450  1.739  4.711  0.000    22.697     6.388
 391   7 N     -0.328  1.216  4.112  0.000    28.443     7.921
 392   1 H      0.234  0.766  0.000  0.000     0.948     1.525
 393   1 H      0.096  0.904  0.000  0.000     1.821     2.110
 394   1 H      0.103  0.897  0.000  0.000     1.761     2.075
 395   1 H      0.084  0.916  0.000  0.000     1.934     2.175
 396   1 H      0.108  0.892  0.000  0.000     1.715     2.048
 397   1 H      0.073  0.927  0.000  0.000     2.054     2.241
 398   1 H      0.219  0.781  0.000  0.000     1.014     1.577
 399   1 H      0.217  0.783  0.000  0.000     1.024     1.585
 400   7 N     -0.398  1.285  4.113  0.000    30.303     8.176
 401   6 C      0.046  1.020  2.934  0.000    19.804     6.337
 402   6 C      0.211  1.079  2.710  0.000    23.531     7.945
 403   8 O     -0.375  1.741  4.634  0.000    21.185     6.171
 404   6 C     -0.086  1.012  3.074  0.000    22.107     6.688
 405   6 C      0.013  1.050  2.937  0.000    27.711     8.635
 406   6 C     -0.054  1.054  3.000  0.000    29.275     8.873
 407   6 C     -0.058  1.061  2.997  0.000    29.383     8.890
 408   6 C     -0.040  1.055  2.985  0.000    28.954     8.825
 409   6 C     -0.049  1.060  2.989  0.000    29.178     8.860
 410   6 C     -0.042  1.036  3.006  0.000    29.051     8.840
 411   1 H      0.177  0.823  0.000  0.000     1.230     1.737
 412   1 H      0.052  0.948  0.000  0.000     2.300     2.371
 413   1 H      0.057  0.943  0.000  0.000     2.228     2.334
 414   1 H      0.066  0.934  0.000  0.000     2.127     2.280
 415   1 H      0.041  0.959  0.000  0.000     2.435     2.440
 416   1 H      0.043  0.957  0.000  0.000     2.411     2.428
 417   1 H      0.041  0.959  0.000  0.000     2.434     2.439
 418   1 H      0.048  0.952  0.000  0.000     2.346     2.395
 419   1 H      0.059  0.941  0.000  0.000     2.214     2.327
 420   1 H      0.075  0.925  0.000  0.000     2.034     2.230
 421   1 H      0.183  0.817  0.000  0.000     1.196     1.713
 422   1 H      0.075  0.925  0.000  0.000     2.026     2.226
 423   1 H      0.183  0.817  0.000  0.000     1.196     1.713
 424   1 H      0.084  0.916  0.000  0.000     1.937     2.176
 425   1 H      0.175  0.825  0.000  0.000     1.240     1.744
 426   1 H      0.072  0.928  0.000  0.000     2.062     2.245
 427   1 H      0.183  0.817  0.000  0.000     1.198     1.715
 428   1 H      0.074  0.926  0.000  0.000     2.044     2.236
 429   1 H      0.185  0.815  0.000  0.000     1.187     1.707
 430   1 H      0.057  0.943  0.000  0.000     2.239     2.340
 431   1 H      0.188  0.812  0.000  0.000     1.170     1.694
 432   1 H      0.075  0.925  0.000  0.000     2.032     2.229
 433   1 H      0.173  0.827  0.000  0.000     1.253     1.753
 434   1 H      0.077  0.923  0.000  0.000     2.010     2.217
 435   1 H      0.173  0.827  0.000  0.000     1.253     1.754
 436   1 H      0.065  0.935  0.000  0.000     2.142     2.288

 Mol. C6AA /au·bohr⁶  :    1704800.379997
 Mol. C8AA /au·bohr⁸  :   38152376.253508
 Mol. α(0) /au        :       1957.248062

 
molecular dipole:
                 x           y           z       tot (Debye)
 q only:       10.202     -45.953       4.962
   full:       14.909     -44.931       5.158     121.040
molecular quadrupole (traceless):
                xx          xy          yy          xz          yz          zz
 q only:     5369.313   -6861.974  -12640.177    7075.366  -26848.691    7270.864
  q+dip:     6319.144   -5909.149  -13074.087    9916.619  -26200.015    6754.943
   full:     6319.416   -5909.190  -13073.764    9916.232  -26199.251    6754.348
speedup  1.91
cpu  time for grad   31.33 s
wall time for grad   16.40 s

SCC energy    :    -665.5314378
rep           :      12.5988140
ES            :       2.3088976
AES           :      -0.0707313
AXC           :       0.1304233
disp          :      -0.5524915
XB            :       0.0000000
fix           :       0.0000000
Gborn         :       0.0000000
Gsasa         :       0.0000000
Ghb           :       0.0000000
Gshift        :       0.0000000
Gsolv         :      -0.6651077     -417.36
Etot ala COSMO:    -665.5314378
grad norm     :       1.8467275
total E       :    -652.8764141
atomizationE  :     118.1917099    74166.42
(atE without considering molecular charge,
 total energy contains solvation terms)
H-L gap (eV)  :          1.3796

------------------------------------------------------------------------
 * finished run on 2019/05/12 at 13:11:44.232     
------------------------------------------------------------------------
 total:
 * wall-time:     0 d,  0 h,  0 min, 17.479 sec
 *  cpu-time:     0 d,  0 h,  0 min, 33.254 sec
 * ratio c/w:     1.902 speedup
 SCF:
 * wall-time:     0 d,  0 h,  0 min, 17.122 sec
 *  cpu-time:     0 d,  0 h,  0 min, 32.764 sec
 * ratio c/w:     1.914 speedup

