      -----------------------------------------------------------      
     |                   =====================                   |     
     |                           x T B                           |     
     |                   =====================                   |     
     |                         S. Grimme                         |     
     |          Mulliken Center for Theoretical Chemistry        |     
     |                    University of Bonn                     |     
     |                 Version 6.0.1 (SAW181210)                 |     
      -----------------------------------------------------------      

   This program is distributed in the hope that it will be useful,
   but WITHOUT ANY WARRANTY; without even the implied warranty of
   MERCHANTABILITY or FITNESS FOR A PARTICULAR PURPOSE.
   
   FOR NON-COMMERCIAL, ACADEMIA USE ONLY.
   
   Cite this work as:
   S. Grimme, C. Bannwarth, P. Shushkov, J. Comput. Theory Chem., 2017,
   13, 1989-2009.
   C. Bannwarth, S. Ehlert and S. Grimme., ChemRxiv, 2018, preprint.
   http://doi.org/10.26434/chemrxiv.7246238.v1
   
   for sTDA-xTB:
   S. Grimme and C. Bannwarth, J. Chem. Phys., 2016, 145, 054103.
   
   in the mass-spec context:
   V. Asgeirsson, C. Bauer and S. Grimme, Chem. Sci., 2017, 8, 4879.
   
   if GBSA is used:
   P. Shushkov, F. März and S. Grimme, unpublished.
   
   for ANC optimizer:
   S. Grimme, unpublished.
   Rational Function algorithm used in ANCopt:
   F. Eckert, P. Pulay, H.-J. Werner, J. Comput. Chem., 1997, 18, 1473.
   
   with help from (in alphabetical order)
   C. Bannwarth, F. Bohle, G. Brandenburg, E. Caldeweyher, M. Checinski,
   S. Dohm, S. Ehlert, S. Ehrlich, F. März, H. Neugebauer, J. Pisarek,
   P. Pracht, P. Shushkov, and S. Spicher.
   
 * started run on 2019/05/07 at 23:35:54.783     
========================================================================
 # omp threads = 2
========================================================================
number of atoms            : 438
number of electrons        : 1190
charge                     : 1
spin                       : .0
first test random number   : .3663

########################################################################
# WARNING! Please study the warnings concerning your input carefully
#  - Process number higher than OMP_NUM_THREADS, I hope you know what you are doing.
########################################################################

           ------------------------------------------------- 
          |                 G F N 2 - x T B                 |
          | Geometry, Frequencies, Noncovalent interactions |
          |            JCTC 2018 parametrisation            |
           ------------------------------------------------- 
 
      method parameters     
 k(s)        :  1.8500
 k(p)        :  2.2300
 k(d)        :  2.2300
 k(f)        :  2.0000
 kEN (H0ij)  : -2.0000
 D4 a1       :  0.5200
 D4 a2       :  5.0000
 D4 s6       :  1.0000
 D4 s8       :  2.7000
 D4 s9       :  5.0000
 alphaj      :  2.0000

 Solvent             : h2o
 Using internal parameter file: .param_gbsa2_h2o
 Gsolv ref. state (COSMO-RS): gsolv [1 M gas/solution]
 temperature (mdtemp)       :    298.150000000000     
 dielectric constant        :    80.2000000000000     
 rho                        :    1.00000000000000     
 mass                       :    18.0000000000000     
 surface tension            :    15.5689454083859     
 probe radius               :   0.975313790000000     
 vdW radii scaling          :    1.00000000000000     
 Gshift (Eh)                :   1.857443126794793E-003
 c1                         :    1.55243817000000     
 soset                      :   0.130326360000000     
 HB correction              :  T

            Z     q(EN)     CN     RAES       Cart. coordinates
     1  N   5.0   -0.21    3.26    1.97    39.12667    74.38121   143.58173
     2  C   4.0    0.03    4.31    4.22    37.12126    75.39381   142.01931
     3  C   4.0    0.15    3.43    3.09    36.57836    78.17126   142.59250
     4  O   6.0   -0.30    1.25    1.80    35.39627    79.53091   141.16422
     5  C   4.0   -0.04    4.36    4.31    34.81522    73.71817   142.39231
     6  C   4.0   -0.01    3.57    3.15    32.49257    74.45326   140.95396
     7  C   4.0   -0.03    3.48    3.11    30.77690    76.10233   142.06532
     8  C   4.0   -0.04    3.45    3.09    31.86925    73.20236   138.72709
     9  C   4.0   -0.04    3.37    3.07    28.36629    76.35365   141.10341
    10  C   4.0   -0.04    3.37    3.07    29.44431    73.43601   137.77921
    11  C   4.0   -0.04    3.38    3.07    27.68316    74.94940   139.00282
    12  H   1.0    0.08    1.02    1.43    38.63020    73.18161   145.02479
    13  H   1.0    0.05    1.06    1.44    37.72592    75.30005   140.04489
    14  H   1.0    0.04    1.04    1.43    35.35537    71.79310   141.88506
    15  H   1.0    0.04    1.04    1.43    34.36113    73.69996   144.41081
    16  H   1.0    0.05    1.03    1.43    31.26892    77.05223   143.80290
    17  H   1.0    0.05    1.03    1.43    33.21338    71.93844   137.86475
    18  H   1.0    0.05    1.04    1.43    27.00856    77.52897   142.05870
    19  H   1.0    0.05    1.03    1.43    28.86683    72.41362   136.11221
    20  H   1.0    0.05    1.03    1.43    25.77173    75.05084   138.29336
    21  N   5.0   -0.15    3.47    2.06    37.66463    79.08574   144.70131
    22  C   4.0    0.04    4.31    4.22    37.91158    81.80382   144.99416
    23  C   4.0    0.09    3.21    3.04    39.43745    82.91093   142.73788
    24  O   6.0   -0.28    1.14    1.80    38.80562    84.88752   141.74851
    25  C   4.0   -0.05    4.24    4.07    39.14940    82.41240   147.54947
    26  C   4.0   -0.05    4.15    3.90    37.30924    82.35992   149.79601
    27  C   4.0   -0.05    4.17    3.95    35.54808    84.66422   149.76221
    28  C   4.0   -0.03    4.11    3.82    33.99414    84.90346   152.18539
    29  N   5.0   -0.11    4.04    2.96    32.56819    87.32307   152.17267
    30  H   1.0    0.08    1.07    1.44    38.39481    77.92311   146.02464
    31  H   1.0    0.06    1.05    1.44    36.04469    82.69029   144.86722
    32  H   1.0    0.05    1.03    1.43    40.66329    81.05273   147.88261
    33  H   1.0    0.05    1.03    1.43    39.99891    84.28698   147.44182
    34  H   1.0    0.04    1.02    1.43    36.20669    80.62122   149.80628
    35  H   1.0    0.05    1.03    1.43    38.41087    82.40120   151.53538
    36  H   1.0    0.05    1.03    1.43    36.71315    86.35494   149.57076
    37  H   1.0    0.05    1.03    1.43    34.25099    84.56420   148.16781
    38  H   1.0    0.05    1.02    1.43    32.64491    83.35428   152.34700
    39  H   1.0    0.05    1.02    1.43    35.20970    84.88964   153.84912
    40  H   1.0    0.11    1.11    1.45    31.23154    87.50134   153.71671
    41  H   1.0    0.07    1.02    1.43    33.76341    88.84256   152.25530
    42  H   1.0    0.08    1.03    1.43    31.43148    87.45836   150.60376
    43  N   5.0   -0.20    3.22    1.96    37.73180    82.65396   134.69546
    44  C   4.0    0.03    4.29    4.18    35.57216    84.15455   133.94662
    45  C   4.0    0.16    3.53    3.13    35.76181    86.84859   134.97692
    46  O   6.0   -0.30    1.43    1.80    34.96136    87.36136   137.09735
    47  C   4.0   -0.04    4.32    4.24    33.16830    83.05641   135.18146
    48  C   4.0   -0.05    4.18    3.95    32.52688    80.33109   134.48825
    49  C   4.0   -0.05    4.16    3.92    31.24934    80.03747   131.91914
    50  C   4.0   -0.03    4.11    3.83    31.49400    77.33993   130.91909
    51  N   5.0   -0.12    4.00    2.85    33.71199    77.12802   129.15662
    52  H   1.0    0.11    1.03    1.43    38.27262    82.86795   136.51359
    53  H   1.0    0.04    1.05    1.44    35.47260    84.15561   131.88428
    54  H   1.0    0.06    1.04    1.43    33.47515    83.13350   137.21666
    55  H   1.0    0.04    1.03    1.43    31.60178    84.30359   134.70320
    56  H   1.0    0.04    1.03    1.43    34.24964    79.21169   134.57877
    57  H   1.0    0.05    1.03    1.43    31.27272    79.58460   135.94623
    58  H   1.0    0.05    1.03    1.43    29.25526    80.52168   132.09369
    59  H   1.0    0.04    1.03    1.43    32.07294    81.35575   130.56768
    60  H   1.0    0.04    1.03    1.43    31.74776    76.05109   132.50482
    61  H   1.0    0.05    1.02    1.43    29.77556    76.79370   129.92562
    62  H   1.0    0.06    1.02    1.43    33.25336    77.95131   127.45556
    63  H   1.0    0.06    1.01    1.43    35.26327    78.13138   129.88716
    64  H   1.0    0.06    1.02    1.43    34.14298    75.25895   128.84365
    65  N   5.0   -0.13    3.50    2.08    36.61064    88.68239   133.47682
    66  C   4.0    0.04    4.42    4.41    36.35571    91.25291   134.39908
    67  C   4.0    0.16    3.58    3.15    33.65198    91.46023   135.46670
    68  O   6.0   -0.31    1.42    1.80    31.89374    90.49667   134.29944
    69  C   4.0    0.03    4.14    3.87    36.72663    93.08609   132.15520
    70  O   6.0   -0.25    2.09    1.84    38.71639    92.16679   130.64901
    71  H   1.0    0.09    1.07    1.44    37.47860    88.42768   131.79792
    72  H   1.0    0.05    1.04    1.43    37.75054    91.62976   135.88159
    73  H   1.0    0.04    1.01    1.43    34.98471    93.17688   131.02818
    74  H   1.0    0.04    1.01    1.43    37.12425    94.97223   132.90016
    75  H   1.0    0.13    1.02    1.43    39.56512    93.54088   129.81199
    76  N   5.0   -0.15    3.41    2.03    33.25488    92.90788   137.50869
    77  C   4.0    0.03    4.39    4.36    30.71218    93.25785   138.55132
    78  C   4.0    0.16    3.55    3.14    28.69739    93.22484   136.46401
    79  O   6.0   -0.33    1.35    1.80    26.90011    91.76672   136.56997
    80  C   4.0   -0.05    4.33    4.25    30.61494    95.72645   140.07543
    81  C   4.0   -0.02    4.19    3.98    27.96925    96.88060   140.43657
    82  C   4.0   -0.07    4.12    3.84    26.01856    95.05661   141.49038
    83  C   4.0   -0.07    4.11    3.83    28.16945    99.13621   142.23557
    84  H   1.0    0.08    1.06    1.44    34.70979    93.53831   138.56971
    85  H   1.0    0.05    1.05    1.44    30.24109    91.65156   139.77711
    86  H   1.0    0.04    1.03    1.43    31.42587    95.37568   141.93700
    87  H   1.0    0.04    1.03    1.43    31.77572    97.14730   139.13098
    88  H   1.0    0.04    1.05    1.44    27.27995    97.56692   138.60897
    89  H   1.0    0.06    1.00    1.43    24.17115    95.95114   141.60947
    90  H   1.0    0.06    1.01    1.43    25.84151    93.34871   140.37137
    91  H   1.0    0.05    1.00    1.43    26.52298    94.48412   143.40457
    92  H   1.0    0.05    1.00    1.43    26.33884   100.04781   142.43305
    93  H   1.0    0.05    1.00    1.43    28.75708    98.51501   144.10418
    94  H   1.0    0.05    1.00    1.43    29.51482   100.52724   141.54591
    95  N   5.0   -0.14    3.49    2.07    28.96886    94.90741   134.59501
    96  C   4.0    0.03    4.32    4.23    27.19109    95.22938   132.52666
    97  C   4.0    0.16    3.45    3.10    26.23501    92.67583   131.51284
    98  O   6.0   -0.30    1.24    1.80    23.96538    92.24494   131.28269
    99  C   4.0   -0.07    4.12    3.85    28.50527    96.71561   130.43360
   100  H   1.0    0.07    1.07    1.44    30.40764    96.15993   134.66587
   101  H   1.0    0.05    1.05    1.44    25.51375    96.25881   133.19077
   102  H   1.0    0.05    1.00    1.43    27.23988    96.93874   128.83088
   103  H   1.0    0.05    1.00    1.43    29.00414    98.58750   131.11814
   104  H   1.0    0.05    1.00    1.43    30.19531    95.73183   129.80694
   105  N   5.0   -0.14    3.51    2.08    28.05884    91.09504   130.75240
   106  C   4.0    0.03    4.44    4.45    27.55076    88.73671   129.42173
   107  C   4.0    0.16    3.45    3.09    25.63466    87.12703   130.90594
   108  O   6.0   -0.30    1.22    1.80    23.83143    86.01904   129.98089
   109  C   4.0   -0.02    4.30    4.19    30.00091    87.17602   128.96899
   110  C   4.0   -0.04    4.17    3.94    32.39281    88.70748   128.31134
   111  C   4.0   -0.07    4.11    3.83    29.48849    85.16963   126.95282
   112  C   4.0   -0.07    4.00    3.62    32.30303    90.28388   125.89810
   113  H   1.0    0.10    1.11    1.45    29.79466    91.26129   131.55309
   114  H   1.0    0.06    1.05    1.44    26.66291    89.21206   127.60903
   115  H   1.0    0.04    1.06    1.44    30.42240    86.23140   130.76332
   116  H   1.0    0.05    1.03    1.43    32.85201    89.92277   129.90397
   117  H   1.0    0.04    1.03    1.43    33.93181    87.34906   128.12759
   118  H   1.0    0.04    1.00    1.43    31.19594    84.09323   126.59244
   119  H   1.0    0.05    1.00    1.43    27.98100    83.90883   127.54861
   120  H   1.0    0.05    1.00    1.43    28.90011    86.05817   125.19719
   121  H   1.0    0.05    1.00    1.43    34.06518    91.32071   125.69576
   122  H   1.0    0.05    1.00    1.43    32.06936    89.10138   124.23786
   123  H   1.0    0.05    1.00    1.43    30.75708    91.63856   125.94467
   124  N   5.0   -0.14    3.53    2.10    26.22502    86.87943   133.36186
   125  C   4.0    0.04    4.42    4.41    24.75140    85.26843   135.00152
   126  C   4.0    0.15    3.44    3.09    22.36990    86.56792   136.00359
   127  O   6.0   -0.32    1.29    1.80    20.48810    85.35301   136.62333
   128  C   4.0   -0.05    4.25    4.11    26.41556    84.21898   137.13407
   129  C   4.0   -0.04    4.20    4.00    27.12183    86.14841   139.16762
   130  C   4.0   -0.00    4.20    3.99    29.85060    85.79137   140.05428
   131  N   5.0   -0.13    3.43    2.04    30.13729    86.95346   142.51762
   132  C   4.0    0.10    3.34    3.06    32.24342    87.64591   143.65979
   133  N   5.0   -0.17    3.26    1.97    34.48101    87.60683   142.53954
   134  N   5.0   -0.18    3.25    1.97    32.08288    88.34327   146.12543
   135  H   1.0    0.10    1.07    1.44    27.56150    87.99525   134.15233
   136  H   1.0    0.06    1.06    1.44    24.08907    83.68024   133.84039
   137  H   1.0    0.04    1.03    1.43    25.40504    82.64132   137.98358
   138  H   1.0    0.04    1.04    1.43    28.11716    83.47310   136.25067
   139  H   1.0    0.06    1.04    1.43    26.87751    88.06798   138.46938
   140  H   1.0    0.05    1.03    1.43    25.85515    85.94628   140.78459
   141  H   1.0    0.05    1.02    1.43    30.26385    83.76866   140.20864
   142  H   1.0    0.07    1.03    1.43    31.15238    86.66589   138.71439
   143  H   1.0    0.12    1.13    1.45    28.54033    86.97075   143.60807
   144  H   1.0    0.13    1.06    1.44    34.70399    87.12527   140.69634
   145  H   1.0    0.10    1.03    1.43    36.06142    88.06093   143.49708
   146  H   1.0    0.11    1.04    1.43    30.29712    88.50089   146.80396
   147  H   1.0    0.08    1.03    1.43    33.36228    89.59461   146.78454
   148  N   5.0   -0.14    3.56    2.12    22.48929    89.08676   136.10435
   149  C   4.0    0.04    4.45    4.47    20.34844    90.59835   136.87970
   150  C   4.0    0.16    3.51    3.12    18.12194    89.99897   135.11155
   151  O   6.0   -0.31    1.29    1.80    15.94523    89.67136   135.86427
   152  C   4.0   -0.04    4.28    4.16    21.09581    93.38853   136.82785
   153  C   4.0   -0.03    4.23    4.05    19.01270    95.09750   137.86260
   154  C   4.0    0.15    3.25    3.04    18.25028    94.24847   140.50062
   155  O   6.0   -0.29    1.19    1.80    19.36106    94.93935   142.40297
   156  N   5.0   -0.19    3.20    1.96    16.25341    92.66864   140.55509
   157  H   1.0    0.12    1.13    1.45    24.10566    90.02680   135.69264
   158  H   1.0    0.05    1.06    1.44    19.78886    90.03845   138.79863
   159  H   1.0    0.05    1.04    1.43    22.78310    93.61031   137.97908
   160  H   1.0    0.06    1.03    1.43    21.53146    93.91913   134.88208
   161  H   1.0    0.05    1.03    1.43    19.71493    97.02900   137.98685
   162  H   1.0    0.06    1.03    1.43    17.37128    95.06017   136.61652
   163  H   1.0    0.10    1.05    1.44    15.56597    91.87672   138.95543
   164  H   1.0    0.09    1.03    1.43    15.64255    92.01628   142.23436
   165  N   5.0   -0.13    3.54    2.11    18.77400    89.72906   132.69716
   166  C   4.0    0.04    4.43    4.43    16.85555    88.99108   130.88851
   167  C   4.0    0.16    3.49    3.11    15.70568    86.49908   131.81891
   168  O   6.0   -0.31    1.32    1.80    13.42559    86.19175   132.07969
   169  C   4.0   -0.03    4.26    4.12    18.02494    88.70992   128.24069
   170  C   4.0   -0.03    4.14    3.88    16.10786    88.74888   126.07731
   171  C   4.0    0.26    3.09    3.02    15.70450    91.48984   125.01145
   172  O   6.0   -0.27    1.18    1.80    15.94088    93.27480   126.53558
   173  O   6.0   -0.25    1.16    1.80    15.19576    91.64717   122.70895
   174  H   1.0    0.11    1.08    1.44    20.48990    90.29078   132.05919
   175  H   1.0    0.07    1.05    1.44    15.35586    90.42445   130.81565
   176  H   1.0    0.07    1.04    1.43    19.30293    90.31271   127.98035
   177  H   1.0    0.06    1.02    1.43    19.15627    86.98358   128.17766
   178  H   1.0    0.06    1.02    1.43    16.74486    87.57477   124.51007
   179  H   1.0    0.06    1.02    1.43    14.26679    88.05479   126.70048
   180  N   5.0   -0.13    3.54    2.11    17.40046    84.67700   132.26145
   181  C   4.0    0.03    4.43    4.42    16.73259    82.00740   132.40496
   182  C   4.0    0.16    3.44    3.09    14.79867    81.54082   134.49497
   183  O   6.0   -0.30    1.22    1.80    13.01128    80.09956   134.22620
   184  C   4.0   -0.04    4.27    4.15    19.13256    80.43754   132.71940
   185  C   4.0   -0.03    4.17    3.93    18.74881    77.70577   131.91139
   186  C   4.0    0.25    3.08    3.02    21.30365    76.33199   131.31533
   187  O   6.0   -0.31    1.21    1.80    21.07633    74.24243   130.21249
   188  O   6.0   -0.30    1.18    1.80    23.30518    77.34607   131.97783
   189  H   1.0    0.10    1.08    1.44    19.23909    85.06959   131.92312
   190  H   1.0    0.06    1.05    1.44    15.79354    81.48493   130.62203
   191  H   1.0    0.06    1.03    1.43    20.59498    81.26710   131.51401
   192  H   1.0    0.06    1.03    1.43    19.79087    80.55265   134.66847
   193  H   1.0    0.05    1.02    1.43    17.76227    76.63968   133.37554
   194  H   1.0    0.05    1.03    1.43    17.59999    77.61010   130.19775
   195  N   5.0   -0.14    3.53    2.10    15.31642    82.84951   136.59452
   196  C   4.0    0.03    4.51    4.55    13.62725    83.15616   138.71698
   197  C   4.0    0.16    3.52    3.12    10.94357    83.79462   137.85508
   198  O   6.0   -0.32    1.26    1.80     9.10559    82.48692   138.37364
   199  C   4.0   -0.02    4.34    4.28    14.53864    85.35601   140.35161
   200  C   4.0   -0.07    4.16    3.91    12.61546    85.81349   142.44764
   201  C   4.0   -0.07    4.13    3.86    17.15196    84.81819   141.41334
   202  H   1.0    0.11    1.11    1.45    16.87348    83.96236   136.57221
   203  H   1.0    0.05    1.05    1.44    13.54197    81.39816   139.81635
   204  H   1.0    0.06    1.07    1.44    14.66891    87.03702   139.15652
   205  H   1.0    0.04    1.00    1.43    13.11619    87.50261   143.50549
   206  H   1.0    0.05    1.01    1.43    10.72647    86.08600   141.69608
   207  H   1.0    0.04    1.00    1.43    12.59056    84.20772   143.72984
   208  H   1.0    0.04    1.00    1.43    17.75379    86.36753   142.62015
   209  H   1.0    0.05    1.00    1.43    17.15976    83.10359   142.54776
   210  H   1.0    0.07    1.02    1.43    18.54812    84.62374   139.92816
   211  N   5.0   -0.14    3.55    2.12    10.77291    86.01494   136.65278
   212  C   4.0    0.04    4.35    4.28     8.38300    87.05339   135.80556
   213  C   4.0    0.16    3.43    3.09     7.03866    85.19156   134.04224
   214  O   6.0   -0.31    1.25    1.80     4.78592    84.72305   134.29728
   215  C   4.0   -0.06    4.11    3.83     8.85170    89.58534   134.53388
   216  H   1.0    0.11    1.09    1.44    12.34039    86.91971   136.04416
   217  H   1.0    0.06    1.05    1.44     7.13792    87.29625   137.44967
   218  H   1.0    0.06    1.00    1.43     7.09327    90.37331   133.82714
   219  H   1.0    0.05    1.00    1.43     9.67512    90.89305   135.88576
   220  H   1.0    0.07    1.00    1.43    10.15696    89.35290   132.96347
   221  N   5.0   -0.13    3.41    2.03     8.53320    84.13745   132.30029
   222  C   4.0    0.03    4.24    4.07     7.60433    82.45188   130.36286
   223  C   4.0    0.16    3.31    3.05     6.46189    79.97355   131.33331
   224  O   6.0   -0.28    1.21    1.80     4.87790    78.89828   130.02511
   225  H   1.0    0.12    1.12    1.45    10.36284    84.68798   132.20178
   226  H   1.0    0.06    1.03    1.43     6.12588    83.37652   129.24703
   227  H   1.0    0.06    1.03    1.43     9.16830    81.96901   129.10976
   228  N   5.0   -0.13    3.46    2.05     7.30560    79.12489   133.57549
   229  C   4.0    0.04    4.49    4.53     6.40165    76.77009   134.67588
   230  C   4.0    0.15    3.48    3.11     4.23811    77.22694   136.52213
   231  O   6.0   -0.28    1.23    1.80     2.41583    75.79988   136.58443
   232  C   4.0   -0.02    4.32    4.24     8.50899    75.17486   135.90762
   233  C   4.0   -0.04    4.20    4.00     7.72664    72.38877   136.01808
   234  C   4.0   -0.07    4.15    3.90     9.17967    76.06919   138.55256
   235  C   4.0   -0.06    4.01    3.64     7.92550    71.04801   133.48304
   236  H   1.0    0.11    1.08    1.44     8.81917    79.96540   134.38678
   237  H   1.0    0.07    1.07    1.44     5.58783    75.70206   133.09575
   238  H   1.0    0.05    1.06    1.44    10.18511    75.37902   134.70824
   239  H   1.0    0.04    1.03    1.43     8.99567    71.44325   137.33787
   240  H   1.0    0.06    1.03    1.43     5.80379    72.27720   136.75183
   241  H   1.0    0.04    1.00    1.43    10.83430    75.03808   139.20640
   242  H   1.0    0.06    1.00    1.43     9.63673    78.07074   138.57591
   243  H   1.0    0.05    1.00    1.43     7.62842    75.72620   139.85628
   244  H   1.0    0.05    1.00    1.43     7.37179    69.08315   133.68029
   245  H   1.0    0.06    1.00    1.43     6.72661    71.94988   132.08011
   246  H   1.0    0.05    1.00    1.43     9.86836    71.12334   132.81436
   247  N   5.0   -0.15    3.53    2.10     4.52511    79.22834   138.03352
   248  C   4.0    0.04    4.41    4.40     2.50029    80.01695   139.68453
   249  C   4.0    0.16    3.48    3.11     0.20003    80.78138   138.11432
   250  O   6.0   -0.26    1.24    1.80    -1.92128    80.70041   139.01806
   251  C   4.0   -0.04    4.24    4.08     3.25461    82.20406   141.42959
   252  C   4.0   -0.05    4.16    3.92     4.11795    81.41145   144.08386
   253  C   4.0   -0.01    4.18    3.95     2.01298    80.31324   145.75071
   254  N   5.0   -0.14    3.39    2.02     2.74661    80.52325   148.39802
   255  C   4.0    0.10    3.33    3.06     1.25973    80.20810   150.39902
   256  N   5.0   -0.17    3.25    1.97    -1.16651    79.62038   150.19018
   257  N   5.0   -0.17    3.24    1.97     2.21763    80.54905   152.71893
   258  H   1.0    0.11    1.09    1.44     6.03806    80.38218   137.84830
   259  H   1.0    0.06    1.06    1.44     1.89072    78.37266   140.79558
   260  H   1.0    0.06    1.03    1.43     4.78756    83.23394   140.51222
   261  H   1.0    0.06    1.03    1.43     1.64497    83.48157   141.60204
   262  H   1.0    0.04    1.02    1.43     5.65955    80.05648   143.91035
   263  H   1.0    0.05    1.03    1.43     4.84665    83.11007   144.99847
   264  H   1.0    0.05    1.02    1.43     0.26190    81.36621   145.44411
   265  H   1.0    0.05    1.02    1.43     1.67180    78.32594   145.29589
   266  H   1.0    0.08    1.07    1.44     4.60980    80.78990   148.71990
   267  H   1.0    0.09    1.02    1.43    -2.04361    79.32453   148.50719
   268  H   1.0    0.10    1.04    1.43    -2.25730    79.63276   151.74506
   269  H   1.0    0.09    1.03    1.43     4.05455    80.97993   153.00537
   270  H   1.0    0.10    1.03    1.43     1.10859    80.41046   154.25377
   271  N   5.0   -0.13    3.49    2.07     0.64158    81.47006   135.71305
   272  C   4.0    0.05    4.25    4.10    -1.49138    82.20058   134.14373
   273  C   4.0    0.11    3.22    3.04    -3.12809    79.83133   133.66726
   274  O   6.0   -0.24    1.11    1.80    -5.32426    79.66534   134.35960
   275  C   4.0   -0.06    4.09    3.77    -0.56931    83.38560   131.67874
   276  H   1.0    0.11    1.10    1.44     2.36090    82.12245   135.17453
   277  H   1.0    0.07    1.05    1.44    -2.69912    83.53280   135.18292
   278  H   1.0    0.06    1.00    1.43    -2.17579    83.88701   130.50438
   279  H   1.0    0.07    1.00    1.43     0.50940    85.08034   132.10594
   280  H   1.0    0.07    1.00    1.43     0.64766    82.09307   130.64470
   281  N   5.0   -0.14    3.44    2.04    10.28119    73.27450   148.96005
   282  C   4.0    0.03    4.36    4.32    12.50798    72.29338   147.66031
   283  C   4.0    0.08    3.19    3.03    14.77772    72.31999   149.49425
   284  O   6.0   -0.29    1.12    1.80    15.60452    74.27088   150.44578
   285  C   4.0   -0.04    4.33    4.26    12.83525    74.13961   145.46664
   286  C   4.0   -0.03    4.25    4.11    11.97340    76.66255   146.56191
   287  C   4.0    0.01    4.23    4.05     9.89923    75.95126   148.48817
   288  H   1.0    0.04    1.04    1.43    12.16409    70.35039   147.06368
   289  H   1.0    0.04    1.03    1.43    14.77677    74.19718   144.81293
   290  H   1.0    0.04    1.02    1.43    11.59995    73.57372   143.91746
   291  H   1.0    0.06    1.03    1.43    13.52105    77.58510   147.55281
   292  H   1.0    0.04    1.02    1.43    11.26813    77.93657   145.11410
   293  H   1.0    0.06    1.02    1.43    10.10811    77.04934   150.22188
   294  H   1.0    0.04    1.02    1.43     8.01698    76.24971   147.68918
   295  N   5.0   -0.19    3.26    1.97    23.72033    64.39463   141.61092
   296  C   4.0    0.03    4.18    3.96    21.45161    65.89894   141.93868
   297  C   4.0    0.08    3.18    3.03    19.29830    63.95307   142.25277
   298  O   6.0   -0.28    1.13    1.80    18.99683    62.27723   140.69269
   299  C   4.0   -0.05    4.19    3.99    21.15113    67.91826   139.80176
   300  C   4.0   -0.05    4.19    3.97    22.49505    67.25122   137.34182
   301  C   4.0   -0.05    4.13    3.87    21.61979    68.89385   135.11071
   302  C   4.0   -0.04    4.09    3.79    22.26816    67.61190   132.55894
   303  N   5.0   -0.12    3.99    2.83    20.94584    68.76644   130.34530
   304  H   1.0    0.10    1.03    1.43    23.74359    63.23349   140.09893
   305  H   1.0    0.04    1.05    1.44    21.65023    66.89699   143.73520
   306  H   1.0    0.05    1.03    1.43    19.13438    68.18290   139.47789
   307  H   1.0    0.04    1.02    1.43    21.88706    69.70589   140.51526
   308  H   1.0    0.04    1.03    1.43    24.52922    67.43696   137.59932
   309  H   1.0    0.05    1.03    1.43    22.05872    65.28473   136.89672
   310  H   1.0    0.04    1.05    1.44    19.58453    69.15489   135.25753
   311  H   1.0    0.05    1.02    1.43    22.48311    70.75922   135.20377
   312  H   1.0    0.05    1.02    1.43    24.29741    67.78953   132.24483
   313  H   1.0    0.04    1.02    1.43    21.79891    65.60941   132.65753
   314  H   1.0    0.06    1.02    1.43    21.61272    68.06520   128.66046
   315  H   1.0    0.06    1.02    1.43    19.01296    68.60265   130.45319
   316  H   1.0    0.09    1.05    1.44    21.27670    70.73279   130.31254
   317  N   5.0   -0.17    3.21    1.96    20.93956    85.87197   157.29700
   318  C   4.0    0.04    4.31    4.22    22.80708    87.66253   156.41557
   319  C   4.0    0.17    3.45    3.10    21.62001    90.06154   155.26919
   320  O   6.0   -0.23    1.27    1.80    19.37831    90.37460   154.83178
   321  C   4.0   -0.02    4.31    4.22    24.42552    86.45442   154.35508
   322  C   4.0    0.24    3.17    3.03    26.90401    87.85827   153.70147
   323  O   6.0   -0.30    1.30    1.80    28.66977    87.69795   155.30573
   324  O   6.0   -0.30    1.19    1.80    27.12451    88.89449   151.60170
   325  H   1.0    0.13    1.08    1.44    20.51760    84.48732   156.03874
   326  H   1.0    0.06    1.05    1.44    23.97725    88.25585   158.03143
   327  H   1.0    0.06    1.03    1.43    24.97727    84.57226   154.99879
   328  H   1.0    0.09    1.03    1.43    23.29264    86.26740   152.64220
   329  N   5.0   -0.13    3.62    2.18    23.44642    91.73287   154.64329
   330  C   4.0    0.05    4.40    4.37    22.94450    94.11969   153.39341
   331  C   4.0    0.17    3.50    3.11    21.22335    93.46747   151.17226
   332  O   6.0   -0.26    1.21    1.80    19.19338    94.52503   150.87865
   333  C   4.0   -0.04    4.19    3.98    25.40464    95.45904   152.59490
   334  C   4.0   -0.02    4.16    3.92    27.67468    94.97206   154.34749
   335  C   4.0    0.26    3.07    3.02    27.34882    95.02878   157.32808
   336  O   6.0   -0.26    1.15    1.80    25.53532    96.17466   158.29852
   337  O   6.0   -0.25    1.16    1.80    29.05948    93.89058   158.49066
   338  H   1.0    0.09    1.12    1.45    25.13331    91.59176   155.51018
   339  H   1.0    0.08    1.05    1.44    21.86363    95.35338   154.67290
   340  H   1.0    0.05    1.03    1.43    25.91534    94.80558   150.70554
   341  H   1.0    0.06    1.03    1.43    25.00387    97.47659   152.51687
   342  H   1.0    0.07    1.03    1.43    28.47844    93.11496   153.94082
   343  H   1.0    0.06    1.02    1.43    29.13173    96.37449   153.93823
   344  N   5.0   -0.13    3.49    2.07    22.18371    91.74458   149.55606
   345  C   4.0    0.04    4.40    4.38    20.56410    90.52399   147.69247
   346  C   4.0    0.17    3.49    3.11    18.94146    88.47864   148.95385
   347  O   6.0   -0.25    1.32    1.80    19.28535    87.67696   151.07528
   348  C   4.0   -0.03    4.26    4.11    22.08933    89.34680   145.55328
   349  C   4.0    0.26    3.12    3.03    23.88871    87.20261   146.52669
   350  O   6.0   -0.30    1.22    1.80    22.97340    85.45140   147.79746
   351  O   6.0   -0.31    1.25    1.80    26.12597    87.41646   145.83120
   352  H   1.0    0.11    1.09    1.44    23.67307    90.70820   150.18877
   353  H   1.0    0.07    1.06    1.44    19.31738    92.01714   146.96703
   354  H   1.0    0.04    1.03    1.43    20.80542    88.51091   144.17330
   355  H   1.0    0.05    1.02    1.43    23.21515    90.79850   144.61863
   356  N   5.0   -0.15    3.37    2.01    17.02779    87.57576   147.48772
   357  C   4.0    0.02    4.28    4.15    15.09824    86.10332   148.73227
   358  C   4.0    0.16    3.35    3.06    15.82123    83.39497   149.34895
   359  O   6.0   -0.29    1.25    1.80    14.20754    82.01737   150.30961
   360  H   1.0    0.07    1.06    1.44    16.54383    88.53568   145.91767
   361  H   1.0    0.08    1.03    1.43    14.66438    86.96879   150.57226
   362  H   1.0    0.04    1.03    1.43    13.37644    86.08793   147.60244
   363  N   5.0   -0.12    3.48    2.06    18.11809    82.54403   148.78719
   364  C   4.0    0.05    4.36    4.30    18.88449    80.09826   149.77175
   365  C   4.0    0.10    3.23    3.04    19.53041    80.22892   152.59261
   366  O   6.0   -0.29    1.19    1.80    20.47711    82.11419   153.53214
   367  C   4.0   -0.03    4.36    4.31    21.32089    79.30420   148.44238
   368  C   4.0   -0.01    3.55    3.14    21.04195    78.67758   145.67896
   369  C   4.0   -0.04    3.47    3.10    19.19627    77.02438   144.83413
   370  C   4.0   -0.04    3.47    3.10    22.78128    79.62497   143.95857
   371  C   4.0   -0.05    3.38    3.07    19.12921    76.28021   142.32777
   372  C   4.0   -0.04    3.40    3.08    22.71041    78.88063   141.46131
   373  C   4.0   -0.04    3.38    3.07    20.90962    77.17106   140.64235
   374  H   1.0    0.11    1.09    1.44    19.53872    83.77308   148.38331
   375  H   1.0    0.06    1.05    1.44    17.33790    78.75698   149.48127
   376  H   1.0    0.06    1.04    1.43    22.65162    80.86366   148.65058
   377  H   1.0    0.04    1.03    1.43    22.11066    77.66527   149.42729
   378  H   1.0    0.05    1.03    1.43    17.85927    76.26717   146.17383
   379  H   1.0    0.06    1.03    1.43    24.17596    80.97222   144.60060
   380  H   1.0    0.04    1.03    1.43    17.70833    74.97749   141.67861
   381  H   1.0    0.05    1.03    1.43    24.02837    79.65958   140.11484
   382  H   1.0    0.05    1.03    1.43    20.87173    76.59627   138.68396
   383  N   5.0   -0.18    3.23    1.96    24.79758    76.41150   156.56293
   384  C   4.0    0.03    4.19    3.97    26.94599    74.76527   156.18797
   385  C   4.0    0.09    3.17    3.03    27.41857    73.15842   158.61627
   386  O   6.0   -0.25    1.11    1.80    27.21338    74.04360   160.76841
   387  C   4.0   -0.03    4.30    4.20    29.28928    76.32744   155.53368
   388  C   4.0   -0.02    3.51    3.12    29.24887    77.71845   153.03678
   389  C   4.0   -0.04    3.46    3.10    27.46961    79.57224   152.41509
   390  C   4.0   -0.04    3.46    3.10    31.16645    77.24457   151.29983
   391  C   4.0   -0.03    3.42    3.08    27.62665    80.97046   150.20799
   392  C   4.0   -0.05    3.43    3.09    31.31294    78.58452   149.06148
   393  C   4.0    0.07    3.44    3.09    29.58409    80.49390   148.51322
   394  O   6.0   -0.24    2.11    1.84    29.79902    81.93754   146.40309
   395  H   1.0    0.10    1.03    1.43    25.07875    78.00312   157.57179
   396  H   1.0    0.04    1.05    1.44    26.46360    73.45541   154.66243
   397  H   1.0    0.06    1.03    1.43    29.55418    77.69387   157.06638
   398  H   1.0    0.05    1.04    1.43    30.91458    75.05705   155.52591
   399  H   1.0    0.06    1.03    1.43    25.92106    79.99202   153.67871
   400  H   1.0    0.05    1.03    1.43    32.57141    75.81298   151.68357
   401  H   1.0    0.08    1.03    1.43    26.28606    82.45643   149.81247
   402  H   1.0    0.05    1.03    1.43    32.82084    78.16293   147.74898
   403  H   1.0    0.12    1.03    1.43    31.10359    81.25962   145.30611
   404  N   5.0   -0.12    4.06    3.01    17.52294    62.16570   132.35276
   405  C   4.0    0.00    4.21    4.02    16.21316    63.28202   134.61092
   406  C   4.0    0.09    3.18    3.03    14.35807    61.34830   135.88423
   407  O   6.0   -0.28    1.15    1.80    12.10856    61.41599   135.43917
   408  C   4.0   -0.03    4.33    4.25    14.60065    65.56720   133.80425
   409  C   4.0   -0.02    3.55    3.14    14.52298    67.50438   135.91477
   410  C   4.0   -0.03    3.46    3.10    13.73514    66.84354   138.32982
   411  C   4.0   -0.05    3.50    3.11    15.41769    69.94873   135.48034
   412  C   4.0   -0.04    3.39    3.07    13.92604    68.60300   140.24671
   413  C   4.0   -0.05    3.36    3.07    15.65537    71.69770   137.41044
   414  C   4.0   -0.05    3.39    3.08    14.90504    70.99357   139.79990
   415  H   1.0    0.05    1.02    1.43    18.60392    63.50068   131.43282
   416  H   1.0    0.07    1.02    1.43    18.64692    60.65446   132.86876
   417  H   1.0    0.07    1.02    1.43    16.16851    61.53052   131.08642
   418  H   1.0    0.05    1.04    1.43    17.63038    63.85173   136.00519
   419  H   1.0    0.04    1.03    1.43    15.32541    66.47162   132.10567
   420  H   1.0    0.07    1.05    1.44    12.67892    64.91350   133.41562
   421  H   1.0    0.07    1.04    1.43    13.00087    64.98640   138.71803
   422  H   1.0    0.05    1.03    1.43    15.89480    70.54188   133.58431
   423  H   1.0    0.05    1.03    1.43    13.40512    68.13368   142.16351
   424  H   1.0    0.05    1.03    1.43    16.37836    73.56975   137.03551
   425  H   1.0    0.04    1.04    1.43    15.06187    72.29096   141.35755
   426  H   1.0    0.10    1.07    1.44    40.20556    73.49093   142.61429
   427  H   1.0    0.06    1.04    1.43    40.95660    81.99602   142.08505
   428  H   1.0    0.09    1.08    1.44    37.37720    81.00399   134.48476
   429  H   1.0    0.07    1.05    1.44    -2.39741    78.34582   132.75598
   430  H   1.0    0.09    1.10    1.44     9.06562    72.08515   148.98025
   431  H   1.0    0.06    1.04    1.44    15.64035    70.70260   149.95358
   432  H   1.0    0.09    1.08    1.44    25.06323    65.42341   141.43537
   433  H   1.0    0.06    1.04    1.43    18.13858    64.05916   143.74101
   434  H   1.0    0.10    1.07    1.44    21.50722    85.10682   158.70585
   435  H   1.0    0.06    1.04    1.44    19.17793    78.74795   153.71222
   436  H   1.0    0.09    1.08    1.44    24.21110    76.93217   155.05380
   437  H   1.0    0.06    1.04    1.43    27.90772    71.33936   158.46518
   438  H   1.0    0.07    1.04    1.43    15.02593    60.04279   137.07615

  Z AO/shell   Hii/eV     exponent
  1     Wed Apr 25 08:07:45 CEST 2018   EN: 2.200 GM2: 0.406  GM3: 0.0800  RAES: 1.40
     1s    -10.707211    1.230000
  6     Wed Apr 25 08:07:45 CEST 2018   EN: 2.550 GM2: 0.538  GM3: 0.1500  RAES: 3.00
     2s    -13.970922    2.096432
     2p    -10.063292    1.800000
  7     Wed Apr 25 08:07:45 CEST 2018   EN: 3.040 GM2: 0.461  GM3:-0.0640  RAES: 1.90
     2s    -16.686243    2.339881
     2p    -12.523956    2.014332
  8     Wed Apr 25 08:07:45 CEST 2018   EN: 3.440 GM2: 0.452  GM3:-0.0517  RAES: 1.80
     2s    -20.229985    2.439742
     2p    -15.503117    2.137023
 no old-style atom pair restraining (fixing) potential

molecular fragmentation (1/2 indicates fragments):
111111111111111111111111111111111111111111222222222222222222222222222222
222222222222222222222222222222222222222222222222222222222222222222222222
222222222222222222222222222222222222222222222222222222222222222222222222
222222222222222222222222222222222222222222222222222222222222222222222222
222222222222222222222222222222222222222222222222222222222222222222222222
222222222222222222222222222222222222222222222222222222222222222221122222
222222
# atoms in fragment 1/2:    44   394
 fragment masses (1/2) :      278.37     2734.14
CMA distance (Bohr)    :  16.163
constraining FC (au)   :  0.0500
           ------------------------------------------------- 
          |        Self-Consistent Charge Iterations        |
           ------------------------------------------------- 

 Ncao       : 1077
 Nao        : 1077
 Nshell     : 651
 Nel        : 1190
 T(el)      :   500.0
 intcut     :    35.0
 scfconv/Eh :  0.100E-06
   qconv/e  :  0.100E-04
 intneglect :  0.100E-08
 broydamp   :      0.400
 iter      E             dE          RMSdq      gap      omega  full diag
   1   -680.6737291 -0.680674E+03  0.462E+00    2.76       0.0  T
   2   -682.2375694 -0.156384E+01  0.219E+00    1.22       1.0  T
   3   -682.3384844 -0.100915E+00  0.125E+00    1.21       1.0  T
   4   -682.4559239 -0.117439E+00  0.269E-01    0.70       1.0  T
   5   -682.4623896 -0.646580E-02  0.138E-01    0.91       1.0  T
   6   -682.4635891 -0.119946E-02  0.618E-02    0.94       1.0  T
   7   -682.4640521 -0.463025E-03  0.269E-02    0.96       1.0  T
   8   -682.4641084 -0.562323E-04  0.134E-02    0.97       1.0  T
   9   -682.4641282 -0.198381E-04  0.587E-03    0.98       1.0  T
  10   -682.4641314 -0.323142E-05  0.258E-03    0.99       1.9  T
  11   -682.4641321 -0.656888E-06  0.111E-03    0.99       4.3  T
  12   -682.4641322 -0.118560E-06  0.521E-04    0.99       9.2  T
  13   -682.4641322 -0.338505E-07  0.268E-04    0.99      17.8  T
  14   -682.4641323 -0.696605E-08  0.114E-04    0.99      41.8  T
  15   -682.4641323 -0.158309E-08  0.515E-05    0.99      92.7  T
  16   -682.4641323 -0.277510E-09  0.238E-05    0.99     201.0  T
speedup  1.97
cpu  time for SCC   24.88 s
wall time for SCC   12.61 s

   *** convergence criteria satisfied after 16 iterations ***

          eigenvalues
 #    :         583        584        585        586        587        588        589        590
 occ. :        2.000      2.000      2.000      2.000      2.000      2.000      2.000      2.000
 eps  :       -10.408    -10.346    -10.302    -10.187    -10.119     -9.989     -9.985     -9.900
 #    :         591        592        593        594        595        596        597        598
 occ. :        2.000      2.000      2.000      2.000      2.000      0.000      0.000      0.000
 eps  :        -9.837     -9.828     -9.827     -9.801     -9.305     -8.317     -7.982     -7.943
 #    :         599        600        601        602        603        604        605        606
 occ. :        0.000      0.000      0.000      0.000      0.000      0.000      0.000      0.000
 eps  :        -7.826     -7.730     -7.697     -7.640     -6.932     -6.851     -6.779     -6.690


   #   Z            q   n(s)   n(p)   n(d)      C6AA      α(0)
   1   7 N     -0.396  1.315  4.081  0.000    30.273     8.172
   2   6 C      0.029  1.057  2.914  0.000    20.096     6.385
   3   6 C      0.262  1.048  2.690  0.000    22.586     7.783
   4   8 O     -0.478  1.742  4.736  0.000    23.312     6.473
   5   6 C     -0.071  1.055  3.016  0.000    21.850     6.652
   6   6 C      0.010  1.081  2.909  0.000    27.784     8.646
   7   6 C     -0.036  1.079  2.957  0.000    28.890     8.815
   8   6 C     -0.046  1.081  2.966  0.000    29.154     8.854
   9   6 C     -0.038  1.081  2.957  0.000    28.944     8.822
  10   6 C     -0.038  1.081  2.957  0.000    28.940     8.822
  11   6 C     -0.036  1.080  2.955  0.000    28.887     8.814
  12   1 H      0.157  0.843  0.000  0.000     1.352     1.821
  13   1 H      0.060  0.940  0.000  0.000     2.193     2.316
  14   1 H      0.053  0.947  0.000  0.000     2.279     2.361
  15   1 H      0.039  0.961  0.000  0.000     2.468     2.457
  16   1 H      0.015  0.985  0.000  0.000     2.807     2.620
  17   1 H      0.055  0.945  0.000  0.000     2.264     2.353
  18   1 H      0.022  0.978  0.000  0.000     2.700     2.570
  19   1 H      0.059  0.941  0.000  0.000     2.207     2.323
  20   1 H      0.031  0.969  0.000  0.000     2.573     2.508
  21   7 N     -0.178  1.240  3.938  0.000    24.856     7.405
  22   6 C      0.014  1.067  2.919  0.000    20.349     6.424
  23   6 C      0.200  1.090  2.711  0.000    23.748     7.980
  24   8 O     -0.344  1.745  4.599  0.000    20.594     6.084
  25   6 C     -0.084  1.060  3.024  0.000    22.092     6.692
  26   6 C     -0.079  1.052  3.026  0.000    22.005     6.679
  27   6 C     -0.101  1.059  3.042  0.000    22.420     6.741
  28   6 C     -0.031  1.053  2.977  0.000    21.214     6.575
  29   7 N     -0.169  1.242  3.927  0.000    24.649     7.374
  30   1 H      0.216  0.784  0.000  0.000     1.028     1.588
  31   1 H      0.092  0.908  0.000  0.000     1.857     2.131
  32   1 H      0.080  0.920  0.000  0.000     1.983     2.202
  33   1 H      0.074  0.926  0.000  0.000     2.041     2.234
  34   1 H      0.066  0.934  0.000  0.000     2.128     2.281
  35   1 H      0.070  0.930  0.000  0.000     2.083     2.257
  36   1 H      0.081  0.919  0.000  0.000     1.966     2.193
  37   1 H      0.077  0.923  0.000  0.000     2.011     2.218
  38   1 H      0.083  0.917  0.000  0.000     1.951     2.184
  39   1 H      0.106  0.894  0.000  0.000     1.732     2.058
  40   1 H      0.279  0.721  0.000  0.000     0.780     1.384
  41   1 H      0.271  0.729  0.000  0.000     0.805     1.406
  42   1 H      0.254  0.746  0.000  0.000     0.870     1.461
  43   7 N     -0.380  1.314  4.066  0.000    29.815     8.109
  44   6 C      0.020  1.061  2.919  0.000    20.252     6.410
  45   6 C      0.270  1.050  2.680  0.000    22.446     7.760
  46   8 O     -0.482  1.736  4.746  0.000    23.381     6.483
  47   6 C     -0.083  1.057  3.026  0.000    22.081     6.688
  48   6 C     -0.080  1.052  3.028  0.000    22.024     6.681
  49   6 C     -0.095  1.052  3.042  0.000    22.304     6.724
  50   6 C     -0.051  1.062  2.989  0.000    21.584     6.632
  51   7 N     -0.148  1.236  3.912  0.000    24.187     7.304
  52   1 H      0.147  0.853  0.000  0.000     1.423     1.869
  53   1 H      0.060  0.940  0.000  0.000     2.196     2.318
  54   1 H      0.065  0.935  0.000  0.000     2.144     2.290
  55   1 H      0.029  0.971  0.000  0.000     2.604     2.523
  56   1 H      0.066  0.934  0.000  0.000     2.133     2.284
  57   1 H      0.052  0.948  0.000  0.000     2.292     2.367
  58   1 H      0.063  0.937  0.000  0.000     2.165     2.301
  59   1 H      0.077  0.923  0.000  0.000     2.007     2.215
  60   1 H      0.122  0.878  0.000  0.000     1.597     1.976
  61   1 H      0.118  0.882  0.000  0.000     1.631     1.997
  62   1 H      0.293  0.707  0.000  0.000     0.736     1.344
  63   1 H      0.296  0.704  0.000  0.000     0.726     1.334
  64   1 H      0.309  0.691  0.000  0.000     0.688     1.299
  65   7 N     -0.152  1.235  3.917  0.000    24.292     7.320
  66   6 C      0.013  1.066  2.921  0.000    20.360     6.424
  67   6 C      0.276  1.048  2.677  0.000    22.341     7.740
  68   8 O     -0.482  1.736  4.746  0.000    23.384     6.483
  69   6 C      0.071  1.037  2.892  0.000    19.614     6.345
  70   8 O     -0.466  1.707  4.759  0.000    22.178     6.357
  71   1 H      0.238  0.762  0.000  0.000     0.932     1.512
  72   1 H      0.080  0.920  0.000  0.000     1.981     2.201
  73   1 H      0.043  0.957  0.000  0.000     2.412     2.429
  74   1 H      0.048  0.952  0.000  0.000     2.343     2.394
  75   1 H      0.352  0.648  0.000  0.000     0.584     1.200
  76   7 N     -0.176  1.249  3.926  0.000    24.808     7.397
  77   6 C      0.010  1.067  2.922  0.000    20.414     6.435
  78   6 C      0.289  1.041  2.670  0.000    22.105     7.699
  79   8 O     -0.495  1.739  4.756  0.000    23.668     6.523
  80   6 C     -0.095  1.065  3.029  0.000    22.300     6.722
  81   6 C     -0.012  1.057  2.955  0.000    20.755     6.480
  82   6 C     -0.110  1.035  3.075  0.000    22.657     6.787
  83   6 C     -0.119  1.043  3.076  0.000    22.829     6.812
  84   1 H      0.232  0.768  0.000  0.000     0.955     1.531
  85   1 H      0.085  0.915  0.000  0.000     1.928     2.171
  86   1 H      0.078  0.922  0.000  0.000     1.995     2.209
  87   1 H      0.075  0.925  0.000  0.000     2.030     2.228
  88   1 H      0.031  0.969  0.000  0.000     2.566     2.505
  89   1 H      0.032  0.968  0.000  0.000     2.563     2.504
  90   1 H      0.039  0.961  0.000  0.000     2.460     2.453
  91   1 H      0.029  0.971  0.000  0.000     2.603     2.523
  92   1 H      0.033  0.967  0.000  0.000     2.548     2.496
  93   1 H      0.041  0.959  0.000  0.000     2.438     2.442
  94   1 H      0.053  0.947  0.000  0.000     2.279     2.361
  95   7 N     -0.177  1.243  3.934  0.000    24.825     7.400
  96   6 C      0.022  1.062  2.916  0.000    20.220     6.404
  97   6 C      0.280  1.042  2.678  0.000    22.255     7.725
  98   8 O     -0.523  1.761  4.762  0.000    24.300     6.609
  99   6 C     -0.137  1.045  3.092  0.000    23.185     6.865
 100   1 H      0.223  0.777  0.000  0.000     0.997     1.564
 101   1 H      0.057  0.943  0.000  0.000     2.232     2.336
 102   1 H      0.062  0.938  0.000  0.000     2.179     2.308
 103   1 H      0.082  0.918  0.000  0.000     1.959     2.189
 104   1 H      0.079  0.921  0.000  0.000     1.989     2.205
 105   7 N     -0.188  1.255  3.933  0.000    25.079     7.438
 106   6 C      0.016  1.069  2.915  0.000    20.315     6.419
 107   6 C      0.280  1.045  2.675  0.000    22.261     7.726
 108   8 O     -0.501  1.754  4.747  0.000    23.811     6.542
 109   6 C     -0.031  1.071  2.961  0.000    21.102     6.534
 110   6 C     -0.075  1.055  3.020  0.000    21.939     6.669
 111   6 C     -0.125  1.041  3.084  0.000    22.949     6.831
 112   6 C     -0.115  1.035  3.081  0.000    22.774     6.806
 113   1 H      0.242  0.758  0.000  0.000     0.915     1.498
 114   1 H      0.062  0.938  0.000  0.000     2.178     2.308
 115   1 H      0.058  0.942  0.000  0.000     2.219     2.329
 116   1 H      0.052  0.948  0.000  0.000     2.295     2.369
 117   1 H      0.072  0.928  0.000  0.000     2.060     2.245
 118   1 H      0.082  0.918  0.000  0.000     1.963     2.191
 119   1 H      0.044  0.956  0.000  0.000     2.390     2.418
 120   1 H      0.044  0.956  0.000  0.000     2.403     2.424
 121   1 H      0.050  0.950  0.000  0.000     2.316     2.380
 122   1 H      0.048  0.952  0.000  0.000     2.351     2.398
 123   1 H      0.023  0.977  0.000  0.000     2.695     2.567
 124   7 N     -0.184  1.242  3.943  0.000    24.993     7.425
 125   6 C      0.019  1.060  2.921  0.000    20.254     6.408
 126   6 C      0.268  1.046  2.686  0.000    22.472     7.763
 127   8 O     -0.501  1.742  4.759  0.000    23.812     6.542
 128   6 C     -0.081  1.056  3.024  0.000    22.039     6.683
 129   6 C     -0.080  1.049  3.031  0.000    22.031     6.682
 130   6 C     -0.023  1.055  2.968  0.000    21.073     6.551
 131   7 N     -0.151  1.228  3.923  0.000    24.265     7.316
 132   6 C      0.224  1.021  2.754  0.000    23.275     7.899
 133   7 N     -0.233  1.227  4.005  0.000    26.098     7.587
 134   7 N     -0.283  1.264  4.019  0.000    27.304     7.761
 135   1 H      0.216  0.784  0.000  0.000     1.030     1.590
 136   1 H      0.090  0.910  0.000  0.000     1.884     2.146
 137   1 H      0.069  0.931  0.000  0.000     2.095     2.263
 138   1 H      0.095  0.905  0.000  0.000     1.829     2.115
 139   1 H      0.060  0.940  0.000  0.000     2.202     2.321
 140   1 H      0.039  0.961  0.000  0.000     2.459     2.452
 141   1 H      0.087  0.913  0.000  0.000     1.909     2.161
 142   1 H      0.103  0.897  0.000  0.000     1.756     2.072
 143   1 H      0.239  0.761  0.000  0.000     0.927     1.508
 144   1 H      0.264  0.736  0.000  0.000     0.830     1.427
 145   1 H      0.252  0.748  0.000  0.000     0.875     1.465
 146   1 H      0.207  0.793  0.000  0.000     1.073     1.623
 147   1 H      0.239  0.761  0.000  0.000     0.927     1.508
 148   7 N     -0.197  1.253  3.944  0.000    25.267     7.465
 149   6 C      0.028  1.058  2.914  0.000    20.101     6.384
 150   6 C      0.277  1.044  2.679  0.000    22.321     7.737
 151   8 O     -0.495  1.740  4.755  0.000    23.664     6.522
 152   6 C     -0.071  1.053  3.018  0.000    21.852     6.654
 153   6 C     -0.099  1.057  3.043  0.000    22.389     6.736
 154   6 C      0.290  1.039  2.672  0.000    22.088     7.695
 155   8 O     -0.494  1.756  4.738  0.000    23.655     6.521
 156   7 N     -0.289  1.268  4.021  0.000    27.467     7.784
 157   1 H      0.239  0.761  0.000  0.000     0.926     1.507
 158   1 H      0.058  0.942  0.000  0.000     2.224     2.332
 159   1 H      0.082  0.918  0.000  0.000     1.961     2.190
 160   1 H      0.066  0.934  0.000  0.000     2.131     2.283
 161   1 H      0.080  0.920  0.000  0.000     1.982     2.201
 162   1 H      0.053  0.947  0.000  0.000     2.278     2.360
 163   1 H      0.228  0.772  0.000  0.000     0.973     1.545
 164   1 H      0.200  0.800  0.000  0.000     1.108     1.649
 165   7 N     -0.178  1.251  3.928  0.000    24.865     7.406
 166   6 C      0.038  1.059  2.904  0.000    19.939     6.357
 167   6 C      0.283  1.044  2.673  0.000    22.210     7.717
 168   8 O     -0.486  1.729  4.757  0.000    23.486     6.497
 169   6 C     -0.053  1.054  2.999  0.000    21.526     6.605
 170   6 C     -0.096  1.067  3.029  0.000    22.328     6.729
 171   6 C      0.369  1.026  2.604  0.000    20.744     7.453
 172   8 O     -0.644  1.774  4.870  0.000    27.215     6.994
 173   8 O     -0.650  1.776  4.873  0.000    27.377     7.015
 174   1 H      0.218  0.782  0.000  0.000     1.019     1.581
 175   1 H      0.058  0.942  0.000  0.000     2.226     2.333
 176   1 H      0.048  0.952  0.000  0.000     2.340     2.392
 177   1 H      0.049  0.951  0.000  0.000     2.334     2.389
 178   1 H      0.034  0.966  0.000  0.000     2.525     2.485
 179   1 H      0.018  0.982  0.000  0.000     2.764     2.600
 180   7 N     -0.182  1.256  3.927  0.000    24.949     7.418
 181   6 C      0.027  1.066  2.907  0.000    20.127     6.388
 182   6 C      0.278  1.037  2.684  0.000    22.287     7.730
 183   8 O     -0.477  1.734  4.743  0.000    23.283     6.469
 184   6 C     -0.053  1.049  3.004  0.000    21.521     6.604
 185   6 C     -0.098  1.065  3.033  0.000    22.365     6.734
 186   6 C      0.364  1.026  2.610  0.000    20.830     7.469
 187   8 O     -0.615  1.734  4.881  0.000    26.495     6.901
 188   8 O     -0.602  1.766  4.836  0.000    26.163     6.858
 189   1 H      0.201  0.799  0.000  0.000     1.101     1.644
 190   1 H      0.053  0.947  0.000  0.000     2.282     2.362
 191   1 H      0.046  0.954  0.000  0.000     2.373     2.409
 192   1 H      0.052  0.948  0.000  0.000     2.301     2.372
 193   1 H      0.037  0.963  0.000  0.000     2.493     2.469
 194   1 H      0.023  0.977  0.000  0.000     2.686     2.563
 195   7 N     -0.183  1.245  3.938  0.000    24.960     7.420
 196   6 C      0.019  1.063  2.918  0.000    20.250     6.407
 197   6 C      0.275  1.044  2.681  0.000    22.348     7.741
 198   8 O     -0.472  1.726  4.746  0.000    23.176     6.455
 199   6 C     -0.028  1.062  2.965  0.000    21.024     6.521
 200   6 C     -0.123  1.041  3.082  0.000    22.917     6.825
 201   6 C     -0.120  1.037  3.083  0.000    22.849     6.815
 202   1 H      0.218  0.782  0.000  0.000     1.018     1.580
 203   1 H      0.084  0.916  0.000  0.000     1.940     2.178
 204   1 H      0.048  0.952  0.000  0.000     2.349     2.397
 205   1 H      0.038  0.962  0.000  0.000     2.480     2.463
 206   1 H      0.053  0.947  0.000  0.000     2.279     2.361
 207   1 H      0.063  0.937  0.000  0.000     2.164     2.301
 208   1 H      0.024  0.976  0.000  0.000     2.668     2.554
 209   1 H      0.050  0.950  0.000  0.000     2.316     2.380
 210   1 H      0.069  0.931  0.000  0.000     2.102     2.267
 211   7 N     -0.181  1.248  3.933  0.000    24.930     7.416
 212   6 C      0.023  1.060  2.916  0.000    20.187     6.398
 213   6 C      0.273  1.042  2.685  0.000    22.387     7.748
 214   8 O     -0.482  1.734  4.748  0.000    23.380     6.483
 215   6 C     -0.129  1.041  3.088  0.000    23.029     6.842
 216   1 H      0.210  0.790  0.000  0.000     1.054     1.608
 217   1 H      0.080  0.920  0.000  0.000     1.984     2.203
 218   1 H      0.067  0.933  0.000  0.000     2.115     2.274
 219   1 H      0.070  0.930  0.000  0.000     2.084     2.257
 220   1 H      0.057  0.943  0.000  0.000     2.235     2.338
 221   7 N     -0.183  1.245  3.939  0.000    24.975     7.422
 222   6 C     -0.026  1.051  2.975  0.000    21.108     6.555
 223   6 C      0.278  1.039  2.683  0.000    22.300     7.732
 224   8 O     -0.493  1.748  4.745  0.000    23.636     6.518
 225   1 H      0.224  0.776  0.000  0.000     0.993     1.561
 226   1 H      0.082  0.918  0.000  0.000     1.961     2.190
 227   1 H      0.082  0.918  0.000  0.000     1.960     2.190
 228   7 N     -0.179  1.246  3.933  0.000    24.873     7.407
 229   6 C      0.013  1.066  2.922  0.000    20.364     6.425
 230   6 C      0.279  1.039  2.682  0.000    22.286     7.731
 231   8 O     -0.500  1.752  4.748  0.000    23.774     6.537
 232   6 C     -0.024  1.066  2.959  0.000    20.974     6.514
 233   6 C     -0.067  1.051  3.016  0.000    21.784     6.644
 234   6 C     -0.125  1.041  3.084  0.000    22.943     6.829
 235   6 C     -0.117  1.039  3.078  0.000    22.802     6.810
 236   1 H      0.208  0.792  0.000  0.000     1.065     1.617
 237   1 H      0.081  0.919  0.000  0.000     1.972     2.196
 238   1 H      0.058  0.942  0.000  0.000     2.225     2.333
 239   1 H      0.060  0.940  0.000  0.000     2.200     2.319
 240   1 H      0.038  0.962  0.000  0.000     2.478     2.462
 241   1 H      0.059  0.941  0.000  0.000     2.215     2.327
 242   1 H      0.047  0.953  0.000  0.000     2.354     2.399
 243   1 H      0.043  0.957  0.000  0.000     2.414     2.430
 244   1 H      0.058  0.942  0.000  0.000     2.221     2.331
 245   1 H      0.025  0.975  0.000  0.000     2.666     2.553
 246   1 H      0.056  0.944  0.000  0.000     2.246     2.344
 247   7 N     -0.183  1.245  3.938  0.000    24.970     7.422
 248   6 C      0.015  1.062  2.923  0.000    20.321     6.419
 249   6 C      0.277  1.043  2.680  0.000    22.316     7.736
 250   8 O     -0.489  1.747  4.742  0.000    23.545     6.506
 251   6 C     -0.076  1.055  3.021  0.000    21.955     6.671
 252   6 C     -0.085  1.055  3.029  0.000    22.115     6.695
 253   6 C     -0.025  1.055  2.970  0.000    21.101     6.556
 254   7 N     -0.137  1.207  3.929  0.000    23.960     7.270
 255   6 C      0.234  1.017  2.749  0.000    23.103     7.869
 256   7 N     -0.242  1.225  4.017  0.000    26.326     7.620
 257   7 N     -0.261  1.232  4.029  0.000    26.768     7.684
 258   1 H      0.221  0.779  0.000  0.000     1.005     1.571
 259   1 H      0.092  0.908  0.000  0.000     1.863     2.135
 260   1 H      0.067  0.933  0.000  0.000     2.122     2.278
 261   1 H      0.063  0.937  0.000  0.000     2.162     2.300
 262   1 H      0.073  0.927  0.000  0.000     2.051     2.239
 263   1 H      0.079  0.921  0.000  0.000     1.992     2.207
 264   1 H      0.086  0.914  0.000  0.000     1.920     2.167
 265   1 H      0.082  0.918  0.000  0.000     1.959     2.189
 266   1 H      0.224  0.776  0.000  0.000     0.991     1.559
 267   1 H      0.248  0.752  0.000  0.000     0.892     1.480
 268   1 H      0.255  0.745  0.000  0.000     0.863     1.455
 269   1 H      0.243  0.757  0.000  0.000     0.912     1.496
 270   1 H      0.254  0.746  0.000  0.000     0.869     1.460
 271   7 N     -0.191  1.260  3.931  0.000    25.145     7.448
 272   6 C      0.036  1.058  2.906  0.000    19.970     6.363
 273   6 C      0.211  1.087  2.703  0.000    23.539     7.945
 274   8 O     -0.356  1.753  4.603  0.000    20.826     6.119
 275   6 C     -0.128  1.042  3.086  0.000    23.018     6.841
 276   1 H      0.220  0.780  0.000  0.000     1.008     1.573
 277   1 H      0.075  0.925  0.000  0.000     2.030     2.228
 278   1 H      0.067  0.933  0.000  0.000     2.118     2.276
 279   1 H      0.077  0.923  0.000  0.000     2.007     2.216
 280   1 H      0.063  0.937  0.000  0.000     2.163     2.300
 281   7 N     -0.274  1.235  4.039  0.000    27.089     7.730
 282   6 C      0.027  1.064  2.909  0.000    20.116     6.384
 283   6 C      0.195  1.092  2.714  0.000    23.842     7.996
 284   8 O     -0.382  1.767  4.614  0.000    21.323     6.191
 285   6 C     -0.058  1.052  3.006  0.000    21.590     6.611
 286   6 C     -0.062  1.050  3.012  0.000    21.675     6.625
 287   6 C      0.009  1.050  2.941  0.000    20.481     6.453
 288   1 H      0.048  0.952  0.000  0.000     2.345     2.394
 289   1 H      0.044  0.956  0.000  0.000     2.401     2.423
 290   1 H      0.059  0.941  0.000  0.000     2.210     2.325
 291   1 H      0.038  0.962  0.000  0.000     2.476     2.461
 292   1 H      0.038  0.962  0.000  0.000     2.480     2.463
 293   1 H      0.036  0.964  0.000  0.000     2.508     2.476
 294   1 H      0.038  0.962  0.000  0.000     2.470     2.458
 295   7 N     -0.395  1.328  4.067  0.000    30.220     8.164
 296   6 C      0.031  1.062  2.907  0.000    20.071     6.383
 297   6 C      0.200  1.093  2.707  0.000    23.736     7.979
 298   8 O     -0.347  1.736  4.611  0.000    20.649     6.092
 299   6 C     -0.077  1.057  3.020  0.000    21.968     6.674
 300   6 C     -0.074  1.052  3.022  0.000    21.912     6.665
 301   6 C     -0.095  1.056  3.039  0.000    22.311     6.726
 302   6 C     -0.056  1.065  2.991  0.000    21.681     6.648
 303   7 N     -0.147  1.228  3.919  0.000    24.171     7.302
 304   1 H      0.179  0.821  0.000  0.000     1.220     1.730
 305   1 H      0.037  0.963  0.000  0.000     2.483     2.464
 306   1 H      0.046  0.954  0.000  0.000     2.368     2.406
 307   1 H      0.040  0.960  0.000  0.000     2.448     2.447
 308   1 H      0.059  0.941  0.000  0.000     2.209     2.324
 309   1 H      0.072  0.928  0.000  0.000     2.066     2.248
 310   1 H      0.076  0.924  0.000  0.000     2.021     2.223
 311   1 H      0.058  0.942  0.000  0.000     2.219     2.330
 312   1 H      0.125  0.875  0.000  0.000     1.574     1.962
 313   1 H      0.121  0.879  0.000  0.000     1.604     1.981
 314   1 H      0.301  0.699  0.000  0.000     0.709     1.319
 315   1 H      0.273  0.727  0.000  0.000     0.801     1.402
 316   1 H      0.289  0.711  0.000  0.000     0.746     1.353
 317   7 N     -0.413  1.332  4.081  0.000    30.733     8.233
 318   6 C      0.063  1.051  2.887  0.000    19.542     6.296
 319   6 C      0.284  1.048  2.668  0.000    22.186     7.713
 320   8 O     -0.477  1.750  4.727  0.000    23.284     6.470
 321   6 C     -0.081  1.064  3.017  0.000    22.035     6.682
 322   6 C      0.359  1.032  2.609  0.000    20.916     7.484
 323   8 O     -0.608  1.765  4.843  0.000    26.320     6.878
 324   8 O     -0.597  1.758  4.839  0.000    26.045     6.842
 325   1 H      0.193  0.807  0.000  0.000     1.145     1.676
 326   1 H     -0.005  1.005  0.000  0.000     3.153     2.777
 327   1 H      0.034  0.966  0.000  0.000     2.530     2.487
 328   1 H      0.037  0.963  0.000  0.000     2.489     2.467
 329   7 N     -0.207  1.253  3.954  0.000    25.501     7.500
 330   6 C      0.047  1.056  2.897  0.000    19.788     6.335
 331   6 C      0.294  1.043  2.663  0.000    22.006     7.682
 332   8 O     -0.497  1.743  4.754  0.000    23.715     6.529
 333   6 C     -0.059  1.056  3.003  0.000    21.643     6.624
 334   6 C     -0.099  1.073  3.026  0.000    22.398     6.740
 335   6 C      0.367  1.028  2.605  0.000    20.774     7.458
 336   8 O     -0.649  1.779  4.870  0.000    27.346     7.011
 337   8 O     -0.645  1.771  4.875  0.000    27.262     7.000
 338   1 H      0.177  0.823  0.000  0.000     1.231     1.738
 339   1 H      0.031  0.969  0.000  0.000     2.576     2.510
 340   1 H      0.050  0.950  0.000  0.000     2.314     2.379
 341   1 H      0.048  0.952  0.000  0.000     2.346     2.395
 342   1 H      0.031  0.969  0.000  0.000     2.578     2.511
 343   1 H      0.045  0.955  0.000  0.000     2.378     2.411
 344   7 N     -0.192  1.261  3.931  0.000    25.164     7.450
 345   6 C      0.044  1.055  2.901  0.000    19.836     6.342
 346   6 C      0.290  1.041  2.669  0.000    22.081     7.696
 347   8 O     -0.463  1.761  4.702  0.000    22.982     6.427
 348   6 C     -0.100  1.070  3.031  0.000    22.412     6.740
 349   6 C      0.373  1.022  2.605  0.000    20.684     7.443
 350   8 O     -0.606  1.767  4.839  0.000    26.273     6.872
 351   8 O     -0.585  1.730  4.855  0.000    25.747     6.803
 352   1 H      0.201  0.799  0.000  0.000     1.102     1.644
 353   1 H      0.051  0.949  0.000  0.000     2.305     2.375
 354   1 H      0.032  0.968  0.000  0.000     2.558     2.501
 355   1 H      0.046  0.954  0.000  0.000     2.365     2.405
 356   7 N     -0.203  1.256  3.947  0.000    25.420     7.488
 357   6 C     -0.020  1.047  2.973  0.000    20.995     6.534
 358   6 C      0.279  1.039  2.682  0.000    22.281     7.730
 359   8 O     -0.496  1.737  4.759  0.000    23.691     6.526
 360   1 H      0.187  0.813  0.000  0.000     1.172     1.696
 361   1 H      0.070  0.930  0.000  0.000     2.081     2.256
 362   1 H      0.104  0.896  0.000  0.000     1.749     2.068
 363   7 N     -0.162  1.248  3.914  0.000    24.502     7.352
 364   6 C      0.040  1.056  2.904  0.000    19.906     6.352
 365   6 C      0.202  1.087  2.711  0.000    23.699     7.973
 366   8 O     -0.380  1.765  4.616  0.000    21.289     6.186
 367   6 C     -0.064  1.051  3.012  0.000    21.706     6.630
 368   6 C      0.015  1.081  2.904  0.000    27.683     8.630
 369   6 C     -0.043  1.078  2.965  0.000    29.076     8.843
 370   6 C     -0.032  1.078  2.954  0.000    28.808     8.802
 371   6 C     -0.036  1.078  2.957  0.000    28.890     8.814
 372   6 C     -0.029  1.077  2.951  0.000    28.714     8.787
 373   6 C     -0.033  1.078  2.956  0.000    28.833     8.806
 374   1 H      0.210  0.790  0.000  0.000     1.056     1.610
 375   1 H      0.103  0.897  0.000  0.000     1.762     2.076
 376   1 H      0.061  0.939  0.000  0.000     2.189     2.314
 377   1 H      0.059  0.941  0.000  0.000     2.211     2.325
 378   1 H      0.040  0.960  0.000  0.000     2.444     2.445
 379   1 H      0.024  0.976  0.000  0.000     2.680     2.560
 380   1 H      0.058  0.942  0.000  0.000     2.228     2.334
 381   1 H      0.044  0.956  0.000  0.000     2.401     2.423
 382   1 H      0.048  0.952  0.000  0.000     2.343     2.394
 383   7 N     -0.373  1.305  4.068  0.000    29.638     8.085
 384   6 C      0.041  1.061  2.898  0.000    19.905     6.356
 385   6 C      0.193  1.098  2.709  0.000    23.877     8.002
 386   8 O     -0.375  1.771  4.604  0.000    21.183     6.171
 387   6 C     -0.071  1.054  3.016  0.000    21.843     6.653
 388   6 C     -0.000  1.080  2.920  0.000    28.032     8.684
 389   6 C     -0.038  1.080  2.958  0.000    28.953     8.824
 390   6 C     -0.047  1.088  2.959  0.000    29.165     8.856
 391   6 C     -0.054  1.076  2.978  0.000    29.339     8.882
 392   6 C     -0.076  1.077  2.999  0.000    29.903     8.967
 393   6 C      0.146  1.043  2.811  0.000    24.827     8.166
 394   8 O     -0.413  1.722  4.691  0.000    21.109     6.202
 395   1 H      0.145  0.855  0.000  0.000     1.435     1.877
 396   1 H      0.069  0.931  0.000  0.000     2.096     2.264
 397   1 H      0.045  0.955  0.000  0.000     2.387     2.416
 398   1 H      0.061  0.939  0.000  0.000     2.185     2.312
 399   1 H      0.004  0.996  0.000  0.000     2.986     2.702
 400   1 H      0.067  0.933  0.000  0.000     2.116     2.275
 401   1 H      0.019  0.981  0.000  0.000     2.744     2.591
 402   1 H      0.067  0.933  0.000  0.000     2.116     2.275
 403   1 H      0.336  0.664  0.000  0.000     0.621     1.238
 404   7 N     -0.140  1.229  3.911  0.000    24.020     7.279
 405   6 C     -0.019  1.081  2.939  0.000    20.950     6.522
 406   6 C      0.202  1.083  2.715  0.000    23.702     7.973
 407   8 O     -0.317  1.765  4.552  0.000    20.084     6.008
 408   6 C     -0.107  1.058  3.049  0.000    22.541     6.758
 409   6 C      0.009  1.078  2.913  0.000    27.810     8.650
 410   6 C     -0.039  1.079  2.961  0.000    28.976     8.827
 411   6 C     -0.048  1.083  2.965  0.000    29.192     8.861
 412   6 C     -0.033  1.080  2.953  0.000    28.826     8.805
 413   6 C     -0.028  1.078  2.950  0.000    28.710     8.786
 414   6 C     -0.038  1.079  2.958  0.000    28.940     8.822
 415   1 H      0.305  0.695  0.000  0.000     0.699     1.310
 416   1 H      0.313  0.687  0.000  0.000     0.677     1.289
 417   1 H      0.306  0.694  0.000  0.000     0.696     1.307
 418   1 H      0.148  0.852  0.000  0.000     1.409     1.856
 419   1 H      0.100  0.900  0.000  0.000     1.784     2.089
 420   1 H      0.112  0.888  0.000  0.000     1.683     2.029
 421   1 H      0.043  0.957  0.000  0.000     2.410     2.427
 422   1 H      0.060  0.940  0.000  0.000     2.198     2.318
 423   1 H      0.027  0.973  0.000  0.000     2.633     2.538
 424   1 H      0.025  0.975  0.000  0.000     2.658     2.550
 425   1 H      0.026  0.974  0.000  0.000     2.640     2.541
 426   1 H      0.184  0.816  0.000  0.000     1.192     1.710
 427   1 H      0.079  0.921  0.000  0.000     1.990     2.206
 428   1 H      0.198  0.802  0.000  0.000     1.115     1.654
 429   1 H      0.072  0.928  0.000  0.000     2.060     2.244
 430   1 H      0.182  0.818  0.000  0.000     1.200     1.716
 431   1 H      0.066  0.934  0.000  0.000     2.126     2.280
 432   1 H      0.185  0.815  0.000  0.000     1.184     1.705
 433   1 H      0.055  0.945  0.000  0.000     2.255     2.348
 434   1 H      0.185  0.815  0.000  0.000     1.183     1.704
 435   1 H      0.083  0.917  0.000  0.000     1.946     2.181
 436   1 H      0.170  0.830  0.000  0.000     1.272     1.767
 437   1 H      0.085  0.915  0.000  0.000     1.923     2.169
 438   1 H      0.106  0.894  0.000  0.000     1.734     2.059

 Mol. C6AA /au·bohr⁶  :    1784236.613366
 Mol. C8AA /au·bohr⁸  :   39827425.109630
 Mol. α(0) /au        :       2007.467856

 
molecular dipole:
                 x           y           z       tot (Debye)
 q only:       47.539      28.832     116.213
   full:       49.006      32.442     116.850     332.462
molecular quadrupole (traceless):
                xx          xy          yy          xz          yz          zz
 q only:    -3297.182    4319.917   -8967.028    8510.364    3173.356   12264.210
  q+dip:    -3688.738    4607.819   -8466.742    8849.083    3996.366   12155.480
   full:    -3689.657    4603.068   -8464.936    8849.586    3996.618   12154.592
speedup  1.98
cpu  time for grad   33.13 s
wall time for grad   16.73 s

SCC energy    :    -682.4810754
rep           :       8.3148655
ES            :       2.5946024
AES           :      -0.1848902
AXC           :       0.2301079
disp          :      -0.5944076
XB            :       0.0000000
fix           :       0.0000000
Gborn         :       0.0000000
Gsasa         :       0.0000000
Ghb           :       0.0000000
Gshift        :       0.0000000
Gsolv         :      -0.9091424     -570.50
Etot ala COSMO:    -682.4810754
grad norm     :       0.5661101
total E       :    -674.1043591
atomizationE  :     123.6431007    77587.22
(atE without considering molecular charge,
 total energy contains solvation terms)
H-L gap (eV)  :          0.9883

------------------------------------------------------------------------
 * finished run on 2019/05/07 at 23:36:12.693     
------------------------------------------------------------------------
 total:
 * wall-time:     0 d,  0 h,  0 min, 17.908 sec
 *  cpu-time:     0 d,  0 h,  0 min, 35.123 sec
 * ratio c/w:     1.961 speedup
 SCF:
 * wall-time:     0 d,  0 h,  0 min, 17.457 sec
 *  cpu-time:     0 d,  0 h,  0 min, 34.464 sec
 * ratio c/w:     1.974 speedup

