      -----------------------------------------------------------      
     |                   =====================                   |     
     |                           x T B                           |     
     |                   =====================                   |     
     |                         S. Grimme                         |     
     |          Mulliken Center for Theoretical Chemistry        |     
     |                    University of Bonn                     |     
     |                 Version 6.0.1 (SAW181210)                 |     
      -----------------------------------------------------------      

   This program is distributed in the hope that it will be useful,
   but WITHOUT ANY WARRANTY; without even the implied warranty of
   MERCHANTABILITY or FITNESS FOR A PARTICULAR PURPOSE.
   
   FOR NON-COMMERCIAL, ACADEMIA USE ONLY.
   
   Cite this work as:
   S. Grimme, C. Bannwarth, P. Shushkov, J. Comput. Theory Chem., 2017,
   13, 1989-2009.
   C. Bannwarth, S. Ehlert and S. Grimme., ChemRxiv, 2018, preprint.
   http://doi.org/10.26434/chemrxiv.7246238.v1
   
   for sTDA-xTB:
   S. Grimme and C. Bannwarth, J. Chem. Phys., 2016, 145, 054103.
   
   in the mass-spec context:
   V. Asgeirsson, C. Bauer and S. Grimme, Chem. Sci., 2017, 8, 4879.
   
   if GBSA is used:
   P. Shushkov, F. März and S. Grimme, unpublished.
   
   for ANC optimizer:
   S. Grimme, unpublished.
   Rational Function algorithm used in ANCopt:
   F. Eckert, P. Pulay, H.-J. Werner, J. Comput. Chem., 1997, 18, 1473.
   
   with help from (in alphabetical order)
   C. Bannwarth, F. Bohle, G. Brandenburg, E. Caldeweyher, M. Checinski,
   S. Dohm, S. Ehlert, S. Ehrlich, F. März, H. Neugebauer, J. Pisarek,
   P. Pracht, P. Shushkov, and S. Spicher.
   
 * started run on 2019/05/12 at 13:12:39.214     
========================================================================
 # omp threads = 2
========================================================================
number of atoms            : 408
number of electrons        : 1090
charge                     : 2
spin                       : .0
first test random number   : .8899

########################################################################
# WARNING! Please study the warnings concerning your input carefully
#  - Process number higher than OMP_NUM_THREADS, I hope you know what you are doing.
########################################################################

           ------------------------------------------------- 
          |                 G F N 2 - x T B                 |
          | Geometry, Frequencies, Noncovalent interactions |
          |            JCTC 2018 parametrisation            |
           ------------------------------------------------- 
 
      method parameters     
 k(s)        :  1.8500
 k(p)        :  2.2300
 k(d)        :  2.2300
 k(f)        :  2.0000
 kEN (H0ij)  : -2.0000
 D4 a1       :  0.5200
 D4 a2       :  5.0000
 D4 s6       :  1.0000
 D4 s8       :  2.7000
 D4 s9       :  5.0000
 alphaj      :  2.0000

 Solvent             : h2o
 Using internal parameter file: .param_gbsa2_h2o
 Gsolv ref. state (COSMO-RS): gsolv [1 M gas/solution]
 temperature (mdtemp)       :    298.150000000000     
 dielectric constant        :    80.2000000000000     
 rho                        :    1.00000000000000     
 mass                       :    18.0000000000000     
 surface tension            :    15.5689454083859     
 probe radius               :   0.975313790000000     
 vdW radii scaling          :    1.00000000000000     
 Gshift (Eh)                :   1.857443126794793E-003
 c1                         :    1.55243817000000     
 soset                      :   0.130326360000000     
 HB correction              :  T

            Z     q(EN)     CN     RAES       Cart. coordinates
     1  N   5.0   -0.19    3.19    1.95    51.95572    58.10903   143.59935
     2  C   4.0    0.03    4.24    4.07    50.91935    60.44464   144.67390
     3  C   4.0    0.16    3.45    3.09    50.31790    62.24150   142.45390
     4  O   6.0   -0.29    1.28    1.80    51.55764    64.13083   141.92450
     5  C   4.0    0.05    4.10    3.80    52.56088    61.61641   146.81271
     6  O   6.0   -0.23    2.07    1.83    54.65097    63.07139   146.06073
     7  H   1.0    0.10    1.02    1.43    50.75101    56.63787   143.49555
     8  H   1.0    0.05    1.06    1.44    49.12574    59.94517   145.57077
     9  H   1.0    0.05    1.02    1.43    51.34995    62.86857   147.91799
    10  H   1.0    0.06    1.01    1.43    53.18491    60.04911   148.01811
    11  H   1.0    0.14    1.03    1.43    55.64291    61.98181   144.96633
    12  N   5.0   -0.14    3.49    2.07    48.37344    61.46988   141.01070
    13  C   4.0    0.03    4.52    4.57    47.50712    63.18821   139.03625
    14  C   4.0    0.17    3.46    3.10    46.83079    65.69854   140.35436
    15  O   6.0   -0.28    1.26    1.80    45.76017    65.72660   142.36128
    16  C   4.0   -0.02    4.23    4.06    45.35845    62.08146   137.42255
    17  C   4.0   -0.06    4.10    3.80    46.38732    60.03756   135.65477
    18  C   4.0   -0.06    4.11    3.82    43.18752    61.06509   139.03060
    19  H   1.0    0.08    1.07    1.44    47.07711    60.25932   141.70288
    20  H   1.0    0.05    1.06    1.44    49.14213    63.53731   137.80878
    21  H   1.0    0.04    1.06    1.44    44.63445    63.64743   136.28152
    22  H   1.0    0.05    1.00    1.43    44.86454    59.26625   134.51760
    23  H   1.0    0.05    1.00    1.43    47.81059    60.81216   134.39368
    24  H   1.0    0.05    1.00    1.43    47.23387    58.50993   136.73788
    25  H   1.0    0.05    1.00    1.43    41.51981    60.81438   137.85457
    26  H   1.0    0.05    1.00    1.43    43.64688    59.23198   139.84046
    27  H   1.0    0.06    1.00    1.43    42.71078    62.38375   140.53277
    28  N   5.0   -0.13    3.45    2.05    47.70536    67.77612   139.20087
    29  C   4.0    0.04    4.40    4.37    48.09604    70.17308   140.49136
    30  C   4.0    0.16    3.51    3.12    45.56172    71.18783   141.50057
    31  O   6.0   -0.28    1.28    1.80    43.62270    71.04299   140.24343
    32  C   4.0   -0.04    4.25    4.09    49.27437    72.07942   138.63539
    33  C   4.0   -0.04    4.14    3.88    51.24455    73.89039   139.73529
    34  C   4.0   -0.00    4.17    3.94    53.66809    72.59454   140.68834
    35  N   5.0   -0.14    3.38    2.01    53.72613    72.33856   143.42299
    36  C   4.0    0.10    3.32    3.06    54.18747    70.29200   144.82058
    37  N   5.0   -0.16    3.26    1.97    54.54862    68.02733   143.78676
    38  N   5.0   -0.18    3.24    1.96    54.26659    70.53548   147.34079
    39  H   1.0    0.08    1.07    1.44    48.60891    67.57209   137.53126
    40  H   1.0    0.05    1.06    1.44    49.36242    69.80969   142.08153
    41  H   1.0    0.05    1.04    1.43    50.19231    71.02688   137.11767
    42  H   1.0    0.06    1.03    1.43    47.75577    73.18876   137.78883
    43  H   1.0    0.05    1.03    1.43    51.77070    75.16687   138.20825
    44  H   1.0    0.06    1.03    1.43    50.43385    75.07253   141.21515
    45  H   1.0    0.05    1.03    1.43    53.87942    70.74796   139.81073
    46  H   1.0    0.06    1.02    1.43    55.29508    73.74738   140.15038
    47  H   1.0    0.09    1.07    1.44    53.65242    74.02386   144.34549
    48  H   1.0    0.11    1.04    1.43    54.19791    67.69612   141.95989
    49  H   1.0    0.12    1.06    1.44    54.61036    66.44278   144.87188
    50  H   1.0    0.09    1.04    1.43    54.27760    72.21070   148.16350
    51  H   1.0    0.10    1.03    1.43    54.75221    69.00699   148.38933
    52  N   5.0   -0.09    3.66    2.22    45.64425    72.35827   143.74204
    53  C   4.0    0.04    4.65    4.72    43.38519    73.38422   144.91014
    54  C   4.0    0.16    3.49    3.11    41.61441    74.62817   143.07214
    55  O   6.0   -0.32    1.30    1.80    42.31236    76.22343   141.53646
    56  C   4.0   -0.04    4.37    4.32    44.45803    75.29325   146.79328
    57  C   4.0   -0.04    4.26    4.12    46.69315    73.81530   147.87013
    58  C   4.0   -0.01    4.37    4.33    47.74712    72.46522   145.53290
    59  H   1.0    0.06    1.06    1.44    42.36068    71.88035   145.91984
    60  H   1.0    0.05    1.03    1.43    45.12388    76.95476   145.77995
    61  H   1.0    0.05    1.02    1.43    43.08761    75.82821   148.23241
    62  H   1.0    0.05    1.02    1.43    48.08710    75.03525   148.75233
    63  H   1.0    0.05    1.02    1.43    46.01015    72.45845   149.25920
    64  H   1.0    0.05    1.03    1.43    49.27772    73.57078   144.71486
    65  H   1.0    0.05    1.02    1.43    48.40168    70.56092   146.00062
    66  N   5.0   -0.14    3.52    2.09    39.20533    74.04392   143.44713
    67  C   4.0    0.04    4.40    4.38    37.15992    75.11566   141.98205
    68  C   4.0    0.15    3.41    3.08    36.79945    77.96562   142.45013
    69  O   6.0   -0.30    1.24    1.80    35.79676    79.31888   140.91653
    70  C   4.0   -0.04    4.34    4.27    34.77864    73.56935   142.54710
    71  C   4.0   -0.01    3.56    3.14    32.49713    74.34557   141.05780
    72  C   4.0   -0.03    3.48    3.11    30.71407    75.94339   142.12770
    73  C   4.0   -0.04    3.46    3.10    32.06484    73.35651   138.67438
    74  C   4.0   -0.04    3.37    3.07    28.50097    76.52001   140.88295
    75  C   4.0   -0.04    3.38    3.07    29.83411    73.92176   137.41876
    76  C   4.0   -0.04    3.37    3.07    28.04606    75.49012   138.52084
    77  H   1.0    0.11    1.12    1.45    38.74805    72.79479   144.86960
    78  H   1.0    0.05    1.06    1.44    37.62588    74.92114   139.97717
    79  H   1.0    0.05    1.03    1.43    35.23948    71.59602   142.16645
    80  H   1.0    0.05    1.03    1.43    34.37767    73.70228   144.57821
    81  H   1.0    0.05    1.03    1.43    31.01860    76.63738   144.02358
    82  H   1.0    0.05    1.03    1.43    33.42706    72.09586   137.84199
    83  H   1.0    0.05    1.03    1.43    27.11794    77.72292   141.76791
    84  H   1.0    0.05    1.03    1.43    29.45103    73.10765   135.58729
    85  H   1.0    0.05    1.03    1.43    26.30966    75.91471   137.53584
    86  N   5.0   -0.14    3.48    2.07    37.77474    78.87386   144.62455
    87  C   4.0    0.03    4.38    4.35    37.95859    81.58158   145.06221
    88  C   4.0    0.16    3.40    3.08    39.61642    82.91398   143.04572
    89  O   6.0   -0.29    1.24    1.80    39.22076    85.09959   142.48320
    90  C   4.0   -0.05    4.25    4.09    39.08982    82.14671   147.68477
    91  C   4.0   -0.05    4.15    3.91    37.21965    82.03968   149.89576
    92  C   4.0   -0.05    4.16    3.91    35.49176    84.36637   150.00557
    93  C   4.0   -0.03    4.11    3.83    33.95188    84.39708   152.45214
    94  N   5.0   -0.11    4.03    2.94    32.52632    86.79476   152.74916
    95  H   1.0    0.08    1.07    1.44    38.41104    77.68554   145.97554
    96  H   1.0    0.06    1.05    1.44    36.08208    82.43689   144.90067
    97  H   1.0    0.04    1.03    1.43    40.61560    80.80049   148.02909
    98  H   1.0    0.05    1.03    1.43    39.93099    84.03023   147.62932
    99  H   1.0    0.05    1.02    1.43    36.09615    80.31811   149.81961
   100  H   1.0    0.05    1.03    1.43    38.32135    81.96142   151.63564
   101  H   1.0    0.05    1.03    1.43    36.67621    86.05047   149.93958
   102  H   1.0    0.05    1.03    1.43    34.20438    84.37231   148.40177
   103  H   1.0    0.05    1.02    1.43    32.60773    82.83615   152.47527
   104  H   1.0    0.05    1.02    1.43    35.18985    84.18806   154.08615
   105  H   1.0    0.11    1.12    1.45    31.14306    86.70048   154.27835
   106  H   1.0    0.07    1.02    1.43    33.70455    88.28339   153.10824
   107  H   1.0    0.08    1.03    1.43    31.41863    87.18712   151.20921
   108  N   5.0   -0.14    3.49    2.07    41.54804    81.54886   142.13447
   109  C   4.0    0.04    4.40    4.38    43.33823    82.49861   140.30256
   110  C   4.0    0.15    3.44    3.09    42.59922    81.89770   137.56595
   111  O   6.0   -0.27    1.23    1.80    43.21605    83.30428   135.84632
   112  C   4.0   -0.03    4.29    4.18    45.98706    81.40044   140.72851
   113  C   4.0   -0.03    4.21    4.03    47.29868    82.50127   143.05310
   114  C   4.0    0.16    3.22    3.04    49.94118    81.39952   143.27629
   115  O   6.0   -0.30    1.21    1.80    50.34177    79.13014   143.29543
   116  N   5.0   -0.17    3.18    1.95    51.80897    83.10368   143.42916
   117  H   1.0    0.10    1.10    1.44    41.72021    79.68680   142.57301
   118  H   1.0    0.07    1.06    1.44    43.37605    84.56088   140.46543
   119  H   1.0    0.07    1.03    1.43    45.84269    79.35043   140.91279
   120  H   1.0    0.06    1.03    1.43    47.12328    81.82543   139.05886
   121  H   1.0    0.05    1.03    1.43    47.38449    84.55268   142.91961
   122  H   1.0    0.05    1.03    1.43    46.23684    82.00245   144.75349
   123  H   1.0    0.10    1.03    1.43    51.47897    84.97209   143.43932
   124  H   1.0    0.11    1.03    1.43    53.61088    82.50542   143.60014
   125  N   5.0   -0.14    3.48    2.07    41.25694    79.77581   137.22340
   126  C   4.0    0.04    4.38    4.34    40.41562    78.92722   134.75207
   127  C   4.0    0.15    3.43    3.09    38.46766    80.69757   133.50147
   128  O   6.0   -0.32    1.30    1.80    37.44334    80.01066   131.54328
   129  C   4.0   -0.04    4.29    4.19    39.11558    76.33350   134.93070
   130  C   4.0   -0.04    4.13    3.86    40.87003    74.04681   135.20952
   131  C   4.0   -0.01    4.17    3.93    39.38528    71.54597   134.97123
   132  N   5.0   -0.14    3.36    2.01    40.22891    69.94347   132.87784
   133  C   4.0    0.10    3.33    3.06    39.77305    70.21774   130.40521
   134  N   5.0   -0.18    3.24    1.97    40.35874    68.35366   128.81683
   135  N   5.0   -0.18    3.24    1.97    38.65918    72.28447   129.47903
   136  H   1.0    0.10    1.09    1.44    41.13314    78.51588   138.66403
   137  H   1.0    0.06    1.05    1.44    42.04501    78.85456   133.46833
   138  H   1.0    0.05    1.03    1.43    37.78059    76.41476   136.50315
   139  H   1.0    0.05    1.05    1.44    38.01804    76.15380   133.19382
   140  H   1.0    0.05    1.03    1.43    42.33411    74.13073   133.75364
   141  H   1.0    0.07    1.03    1.43    41.82731    74.09851   137.02599
   142  H   1.0    0.05    1.03    1.43    39.64044    70.45544   136.67893
   143  H   1.0    0.04    1.03    1.43    37.37426    71.93607   134.71541
   144  H   1.0    0.08    1.07    1.44    41.21066    68.39499   133.39026
   145  H   1.0    0.09    1.03    1.43    41.02765    66.68468   129.44139
   146  H   1.0    0.10    1.03    1.43    40.05152    68.52843   126.95154
   147  H   1.0    0.09    1.04    1.43    38.70323    73.90245   130.49202
   148  H   1.0    0.09    1.04    1.43    38.44299    72.44867   127.59990
   149  N   5.0   -0.12    3.50    2.08    37.89065    82.82527   134.69267
   150  C   4.0    0.04    4.38    4.34    35.87484    84.49688   133.90174
   151  C   4.0    0.16    3.53    3.13    36.30822    87.15871   134.96938
   152  O   6.0   -0.30    1.39    1.80    35.91472    87.56478   137.22063
   153  C   4.0   -0.04    4.33    4.26    33.38535    83.64604   135.15836
   154  C   4.0   -0.04    4.20    4.00    32.47140    80.99536   134.52238
   155  C   4.0   -0.05    4.18    3.97    31.17325    80.82076   131.96645
   156  C   4.0   -0.03    4.12    3.85    30.66894    78.07620   131.27778
   157  N   5.0   -0.12    4.02    2.91    33.00356    76.97648   130.07874
   158  H   1.0    0.11    1.10    1.44    38.67698    83.22891   136.38396
   159  H   1.0    0.05    1.05    1.44    35.78626    84.49592   131.84156
   160  H   1.0    0.06    1.04    1.44    33.75220    83.71916   137.18404
   161  H   1.0    0.04    1.03    1.43    31.94530    85.03716   134.67183
   162  H   1.0    0.06    1.04    1.43    34.06063    79.69815   134.65818
   163  H   1.0    0.04    1.03    1.43    31.13952    80.41259   135.98922
   164  H   1.0    0.04    1.03    1.43    29.38726    81.84724   132.01567
   165  H   1.0    0.05    1.03    1.43    32.33336    81.70567   130.50925
   166  H   1.0    0.04    1.03    1.43    30.18670    77.03175   132.97825
   167  H   1.0    0.05    1.02    1.43    29.08515    77.92009   129.96685
   168  H   1.0    0.07    1.02    1.43    32.89762    77.14392   128.15574
   169  H   1.0    0.08    1.05    1.44    34.58946    77.99095   130.67205
   170  H   1.0    0.06    1.02    1.43    33.16733    75.09598   130.54216
   171  N   5.0   -0.12    3.47    2.06    36.89275    89.07246   133.41288
   172  C   4.0    0.05    4.35    4.29    36.65137    91.59013   134.48282
   173  C   4.0    0.09    3.31    3.06    33.93221    91.73653   135.50038
   174  O   6.0   -0.31    1.22    1.80    32.23130    90.61999   134.37766
   175  C   4.0    0.04    4.13    3.86    37.11422    93.64717   132.49356
   176  O   6.0   -0.23    2.06    1.83    39.62222    93.43050   131.65406
   177  H   1.0    0.09    1.05    1.44    37.30789    88.86928   131.57128
   178  H   1.0    0.07    1.05    1.44    38.01285    91.81698   136.02892
   179  H   1.0    0.05    1.01    1.43    35.78345    93.41112   130.92058
   180  H   1.0    0.05    1.01    1.43    36.76523    95.49045   133.38480
   181  H   1.0    0.14    1.02    1.43    40.06292    94.86889   130.63277
   182  N   5.0   -0.19    3.25    1.97    28.58181    91.41639   130.66081
   183  C   4.0    0.03    4.38    4.34    28.20037    89.12599   129.18501
   184  C   4.0    0.15    3.41    3.08    26.23830    87.41578   130.46910
   185  O   6.0   -0.28    1.22    1.80    24.50139    86.40904   129.34718
   186  C   4.0   -0.02    4.31    4.22    30.71048    87.68791   128.77974
   187  C   4.0   -0.04    4.18    3.95    32.90346    89.36705   127.87389
   188  C   4.0   -0.07    4.13    3.85    30.27561    85.49195   126.95392
   189  C   4.0   -0.06    4.01    3.64    32.58178    90.54313   125.26396
   190  H   1.0    0.11    1.06    1.44    30.25135    91.57971   131.58771
   191  H   1.0    0.06    1.05    1.44    27.38026    89.67191   127.36001
   192  H   1.0    0.05    1.06    1.44    31.26313    86.94573   130.63205
   193  H   1.0    0.05    1.03    1.43    33.19816    90.87142   129.24476
   194  H   1.0    0.05    1.03    1.43    34.59757    88.19414   127.84689
   195  H   1.0    0.05    1.00    1.43    32.04838    84.51763   126.60695
   196  H   1.0    0.06    1.00    1.43    28.89315    84.17844   127.71445
   197  H   1.0    0.05    1.00    1.43    29.54801    86.18113   125.16504
   198  H   1.0    0.06    1.00    1.43    34.17982    91.76472   124.84825
   199  H   1.0    0.05    1.00    1.43    32.49256    89.10493   123.80231
   200  H   1.0    0.05    1.00    1.43    30.87045    91.67809   125.16012
   201  N   5.0   -0.15    3.45    2.04    26.71472    86.96360   132.93969
   202  C   4.0    0.04    4.31    4.22    25.04625    85.34622   134.38343
   203  C   4.0    0.09    3.22    3.04    22.62920    86.65149   135.26721
   204  O   6.0   -0.28    1.14    1.80    20.67770    85.45446   135.63614
   205  C   4.0   -0.05    4.25    4.09    26.41065    84.14427   136.65273
   206  C   4.0   -0.04    4.17    3.95    26.88240    85.91159   138.91417
   207  C   4.0   -0.01    4.21    4.02    29.63098    85.76315   139.79600
   208  N   5.0   -0.13    3.40    2.02    29.90296    86.88414   142.28489
   209  C   4.0    0.10    3.34    3.06    32.09650    87.30617   143.42814
   210  N   5.0   -0.17    3.27    1.97    34.29541    87.15487   142.25173
   211  N   5.0   -0.18    3.24    1.97    32.04336    87.79128   145.93772
   212  H   1.0    0.09    1.06    1.44    27.93083    88.08728   133.89684
   213  H   1.0    0.06    1.06    1.44    24.44289    83.83384   133.09758
   214  H   1.0    0.04    1.03    1.43    25.25233    82.54955   137.24842
   215  H   1.0    0.04    1.04    1.43    28.19865    83.40903   135.96696
   216  H   1.0    0.05    1.03    1.43    26.45413    87.86480   138.42573
   217  H   1.0    0.05    1.03    1.43    25.63876    85.40287   140.47793
   218  H   1.0    0.05    1.02    1.43    30.23043    83.78478   139.88174
   219  H   1.0    0.06    1.03    1.43    30.81968    86.79958   138.46607
   220  H   1.0    0.08    1.07    1.44    28.33529    86.95005   143.41220
   221  H   1.0    0.12    1.07    1.44    34.47396    86.98466   140.34878
   222  H   1.0    0.11    1.04    1.44    35.94271    87.33601   143.18997
   223  H   1.0    0.09    1.04    1.43    30.30889    87.94970   146.72755
   224  H   1.0    0.09    1.03    1.43    33.44235    88.84991   146.68024
   225  N   5.0   -0.17    3.21    1.96    17.34989    84.59141   131.62584
   226  C   4.0    0.04    4.21    4.02    16.60483    81.97162   132.03027
   227  C   4.0    0.10    3.20    3.04    14.86680    81.72508   134.32260
   228  O   6.0   -0.25    1.11    1.80    13.06791    80.27112   134.36076
   229  C   4.0   -0.03    4.27    4.14    18.99070    80.35334   132.32458
   230  C   4.0   -0.02    4.16    3.92    18.47698    77.54821   131.97739
   231  C   4.0    0.25    3.08    3.02    20.92667    76.01118   131.33551
   232  O   6.0   -0.30    1.26    1.80    20.54000    73.76727   130.68315
   233  O   6.0   -0.30    1.18    1.80    23.01010    77.05560   131.50927
   234  H   1.0    0.11    1.04    1.43    19.22014    84.93803   131.50496
   235  H   1.0    0.06    1.05    1.44    15.51780    81.34268   130.37185
   236  H   1.0    0.06    1.03    1.43    20.33939    80.94379   130.86890
   237  H   1.0    0.06    1.03    1.43    19.83927    80.74060   134.15737
   238  H   1.0    0.06    1.02    1.43    17.62157    76.74600   133.67377
   239  H   1.0    0.07    1.03    1.43    17.15114    77.25238   130.42266
   240  N   5.0   -0.18    3.24    1.96    22.48017    70.23100   150.42369
   241  C   4.0    0.03    4.32    4.23    24.93264    69.57867   149.37261
   242  C   4.0    0.09    3.25    3.04    26.36008    68.11258   151.42900
   243  O   6.0   -0.29    1.13    1.80    26.72257    69.06124   153.51297
   244  C   4.0   -0.02    4.27    4.15    26.40502    71.95879   148.62663
   245  C   4.0   -0.07    4.14    3.89    29.14529    71.31325   148.05225
   246  C   4.0   -0.08    4.12    3.85    25.17441    73.20461   146.35709
   247  H   1.0    0.10    1.03    1.43    22.50222    71.22419   152.04172
   248  H   1.0    0.06    1.06    1.44    24.62537    68.38256   147.72191
   249  H   1.0    0.05    1.05    1.44    26.35142    73.27906   150.23000
   250  H   1.0    0.04    1.00    1.43    30.14741    72.98405   147.39985
   251  H   1.0    0.05    1.00    1.43    30.10713    70.63204   149.73803
   252  H   1.0    0.04    1.00    1.43    29.25589    69.86859   146.60771
   253  H   1.0    0.04    1.00    1.43    25.97887    75.06697   146.02386
   254  H   1.0    0.04    1.00    1.43    25.47384    72.06403   144.67297
   255  H   1.0    0.04    1.00    1.43    23.15013    73.43232   146.63959
   256  N   5.0   -0.18    3.23    1.96    33.10160    64.57572   152.71904
   257  C   4.0    0.03    4.21    4.01    35.70703    64.45575   151.88793
   258  C   4.0    0.09    3.23    3.04    37.24074    63.00509   153.85582
   259  O   6.0   -0.25    1.13    1.80    36.99021    63.40276   156.11673
   260  C   4.0   -0.04    4.26    4.11    36.93106    67.08885   151.63245
   261  C   4.0   -0.03    4.18    3.95    35.21998    69.05098   150.39668
   262  C   4.0    0.24    3.10    3.02    36.80500    71.27809   149.27872
   263  O   6.0   -0.32    1.24    1.80    38.18630    70.70838   147.43837
   264  O   6.0   -0.31    1.16    1.80    36.57047    73.41269   150.22710
   265  H   1.0    0.11    1.02    1.43    32.75653    65.39688   154.41196
   266  H   1.0    0.05    1.05    1.44    35.68984    63.50720   150.05373
   267  H   1.0    0.06    1.03    1.43    37.47675    67.77668   153.50330
   268  H   1.0    0.06    1.03    1.43    38.64935    66.90364   150.50212
   269  H   1.0    0.04    1.02    1.43    34.20843    68.19634   148.80667
   270  H   1.0    0.05    1.02    1.43    33.85484    69.79973   151.74245
   271  N   5.0   -0.14    3.43    2.04    48.37167    65.39696   157.05116
   272  C   4.0    0.03    4.37    4.32    50.49139    65.27408   155.29760
   273  C   4.0    0.10    3.18    3.03    52.54159    63.43833   156.19414
   274  O   6.0   -0.26    1.11    1.80    53.63301    62.06343   154.68282
   275  C   4.0   -0.04    4.31    4.22    51.42140    68.02053   155.06978
   276  C   4.0   -0.03    4.26    4.12    50.04808    69.44313   157.18021
   277  C   4.0   -0.00    4.35    4.28    47.57720    67.99722   157.44723
   278  H   1.0    0.05    1.05    1.44    49.84725    64.53959   153.47584
   279  H   1.0    0.06    1.02    1.43    53.46970    68.14055   155.24296
   280  H   1.0    0.04    1.02    1.43    50.89869    68.77603   153.23061
   281  H   1.0    0.06    1.02    1.43    51.10683    69.33476   158.94217
   282  H   1.0    0.05    1.02    1.43    49.74707    71.41719   156.70731
   283  H   1.0    0.06    1.02    1.43    46.73167    68.26999   159.28974
   284  H   1.0    0.04    1.02    1.43    46.22118    68.51862   155.97042
   285  N   5.0   -0.19    3.28    1.98    27.42599    60.53973   140.80340
   286  C   4.0    0.04    4.39    4.37    28.06229    62.49288   142.56432
   287  C   4.0    0.15    3.40    3.08    25.80311    64.09530   143.38154
   288  O   6.0   -0.31    1.24    1.80    25.82768    65.27756   145.38626
   289  C   4.0    0.05    4.25    4.10    30.16095    64.15156   141.41675
   290  O   6.0   -0.25    2.15    1.85    32.10249    62.45574   140.75746
   291  C   4.0   -0.07    4.08    3.77    31.06373    66.20163   143.20121
   292  H   1.0    0.09    1.03    1.43    27.44959    61.09256   138.95513
   293  H   1.0    0.06    1.05    1.44    28.83684    61.57185   144.25664
   294  H   1.0    0.04    1.03    1.43    29.41769    65.06169   139.68473
   295  H   1.0    0.12    1.03    1.43    33.69150    63.33418   140.72110
   296  H   1.0    0.04    1.00    1.43    32.65986    67.21179   142.41037
   297  H   1.0    0.05    1.00    1.43    29.55628    67.55832   143.54503
   298  H   1.0    0.05    1.00    1.43    31.61335    65.37757   145.01086
   299  N   5.0   -0.13    3.53    2.10    23.89327    64.20928   141.72761
   300  C   4.0    0.04    4.30    4.19    21.62912    65.69750   142.13572
   301  C   4.0    0.09    3.21    3.04    19.40442    63.86840   142.39606
   302  O   6.0   -0.26    1.14    1.80    19.15989    62.17354   140.84175
   303  C   4.0   -0.04    4.24    4.07    21.23643    67.59229   139.92634
   304  C   4.0   -0.04    4.20    4.00    22.04738    66.51904   137.38110
   305  C   4.0   -0.04    4.16    3.92    21.22973    68.24018   135.20313
   306  C   4.0   -0.03    4.10    3.80    21.94848    67.14152   132.60744
   307  N   5.0   -0.11    4.02    2.91    20.75875    68.61764   130.53157
   308  H   1.0    0.10    1.09    1.44    23.80260    62.90491   140.34380
   309  H   1.0    0.05    1.06    1.44    21.84244    66.75133   143.90329
   310  H   1.0    0.05    1.03    1.43    19.24652    68.13105   139.89417
   311  H   1.0    0.04    1.02    1.43    22.31912    69.29744   140.33733
   312  H   1.0    0.04    1.03    1.43    24.09965    66.32844   137.35448
   313  H   1.0    0.06    1.03    1.43    21.20567    64.64679   137.16968
   314  H   1.0    0.05    1.03    1.43    19.19130    68.51748   135.30571
   315  H   1.0    0.05    1.03    1.43    22.10057    70.08694   135.43161
   316  H   1.0    0.05    1.02    1.43    23.99709    67.25265   132.38538
   317  H   1.0    0.05    1.02    1.43    21.37151    65.17734   132.46890
   318  H   1.0    0.08    1.02    1.43    21.44066    68.14868   128.79245
   319  H   1.0    0.08    1.02    1.43    18.81935    68.49735   130.57380
   320  H   1.0    0.10    1.07    1.44    21.08808    70.59545   130.76518
   321  N   5.0   -0.16    3.23    1.96    20.46037    86.08148   157.37019
   322  C   4.0    0.04    4.30    4.20    22.54129    87.67869   156.59056
   323  C   4.0    0.17    3.39    3.08    21.57202    90.17397   155.43831
   324  O   6.0   -0.23    1.22    1.80    19.35217    90.77457   155.36600
   325  C   4.0   -0.02    4.29    4.17    24.16638    86.22241   154.69669
   326  C   4.0    0.23    3.16    3.03    26.86688    87.21633   154.21335
   327  O   6.0   -0.30    1.32    1.80    28.55327    86.55827   155.76249
   328  O   6.0   -0.31    1.20    1.80    27.31426    88.46883   152.27050
   329  H   1.0    0.13    1.06    1.44    19.89254    84.82370   156.04488
   330  H   1.0    0.07    1.05    1.44    23.64457    88.18476   158.28429
   331  H   1.0    0.06    1.03    1.43    24.36475    84.29804   155.42132
   332  H   1.0    0.06    1.03    1.43    23.15531    86.14736   152.89900
   333  N   5.0   -0.13    3.53    2.10    23.47238    91.59684   154.51751
   334  C   4.0    0.05    4.29    4.18    23.10898    94.01737   153.27971
   335  C   4.0    0.11    3.26    3.04    21.48147    93.53073   150.94244
   336  O   6.0   -0.23    1.12    1.80    19.62335    94.73233   150.43393
   337  C   4.0   -0.03    4.22    4.03    25.61900    95.26604   152.47485
   338  C   4.0   -0.02    4.17    3.95    27.89445    94.63154   154.14007
   339  C   4.0    0.26    3.08    3.02    27.54460    94.90662   157.08427
   340  O   6.0   -0.24    1.16    1.80    25.77338    96.22551   157.91651
   341  O   6.0   -0.24    1.16    1.80    29.16361    93.76358   158.36264
   342  H   1.0    0.10    1.12    1.45    25.26348    91.09818   154.88410
   343  H   1.0    0.09    1.05    1.44    22.06703    95.27007   154.56219
   344  H   1.0    0.06    1.03    1.43    26.05361    94.67307   150.54999
   345  H   1.0    0.07    1.03    1.43    25.30430    97.29893   152.48478
   346  H   1.0    0.07    1.03    1.43    28.51838    92.69473   153.80521
   347  H   1.0    0.06    1.03    1.43    29.45432    95.88083   153.64017
   348  N   5.0   -0.17    3.22    1.96    18.23021    82.56811   148.81573
   349  C   4.0    0.03    4.23    4.05    18.96676    80.09005   149.71695
   350  C   4.0    0.09    3.21    3.04    19.41633    80.15466   152.58288
   351  O   6.0   -0.29    1.17    1.80    20.04412    82.05866   153.70511
   352  C   4.0   -0.04    4.34    4.27    21.43029    79.26609   148.45662
   353  C   4.0   -0.02    3.55    3.14    21.14954    78.65374   145.68787
   354  C   4.0   -0.04    3.47    3.10    19.43692    76.84088   144.87602
   355  C   4.0   -0.04    3.46    3.10    22.69013    79.81903   143.90698
   356  C   4.0   -0.03    3.37    3.07    19.26232    76.21134   142.33239
   357  C   4.0   -0.04    3.38    3.07    22.50292    79.20358   141.37542
   358  C   4.0   -0.04    3.37    3.07    20.79310    77.38828   140.57510
   359  H   1.0    0.09    1.02    1.43    19.66303    83.79342   148.44749
   360  H   1.0    0.05    1.05    1.44    17.42270    78.76841   149.32243
   361  H   1.0    0.05    1.04    1.43    22.78803    80.79521   148.68408
   362  H   1.0    0.04    1.03    1.43    22.15456    77.60026   149.44673
   363  H   1.0    0.05    1.03    1.43    18.27553    75.88899   146.25441
   364  H   1.0    0.05    1.03    1.43    24.01143    81.24948   144.52554
   365  H   1.0    0.06    1.03    1.43    17.94705    74.78645   141.72191
   366  H   1.0    0.05    1.03    1.43    23.67509    80.15901   140.00592
   367  H   1.0    0.05    1.03    1.43    20.65172    76.92558   138.59523
   368  N   5.0   -0.18    3.21    1.96    24.60696    76.34506   156.61210
   369  C   4.0    0.04    4.20    4.00    26.86781    74.83782   156.26013
   370  C   4.0    0.10    3.20    3.04    27.44877    73.31209   158.68494
   371  O   6.0   -0.24    1.12    1.80    27.29290    74.26588   160.78692
   372  C   4.0   -0.03    4.32    4.23    29.16655    76.52323   155.71185
   373  C   4.0   -0.02    3.52    3.12    29.25252    77.66263   153.10100
   374  C   4.0   -0.04    3.46    3.10    27.58142    79.55257   152.32707
   375  C   4.0   -0.04    3.47    3.10    31.17025    76.94634   151.45603
   376  C   4.0   -0.04    3.42    3.09    27.87015    80.76516   150.03976
   377  C   4.0   -0.05    3.43    3.09    31.46669    78.12425   149.14696
   378  C   4.0    0.06    3.44    3.09    29.85140    80.07518   148.43296
   379  O   6.0   -0.25    2.11    1.84    30.18904    81.36830   146.23427
   380  H   1.0    0.10    1.03    1.43    24.80447    77.95640   157.61422
   381  H   1.0    0.05    1.05    1.44    26.51231    73.52031   154.71413
   382  H   1.0    0.06    1.03    1.43    29.18601    78.03289   157.12525
   383  H   1.0    0.05    1.04    1.43    30.86451    75.38109   155.97435
   384  H   1.0    0.06    1.03    1.43    26.07314    80.16208   153.55877
   385  H   1.0    0.06    1.03    1.43    32.49977    75.49049   151.97370
   386  H   1.0    0.06    1.03    1.43    26.64185    82.29015   149.49469
   387  H   1.0    0.05    1.03    1.43    32.99527    77.53990   147.92546
   388  H   1.0    0.12    1.04    1.43    31.59792    80.66862   145.30214
   389  H   1.0    0.11    1.08    1.44    52.48526    58.40152   142.00982
   390  H   1.0    0.06    1.04    1.43    33.56016    92.73341   137.06207
   391  H   1.0    0.10    1.07    1.44    28.48951    92.77244   129.63848
   392  H   1.0    0.07    1.05    1.44    22.61551    88.51881   135.55698
   393  H   1.0    0.11    1.07    1.44    16.68017    85.15337   130.16700
   394  H   1.0    0.08    1.05    1.44    15.18058    82.77330   135.86333
   395  H   1.0    0.09    1.08    1.44    21.61570    71.17541   149.30415
   396  H   1.0    0.07    1.04    1.43    27.00215    66.37098   151.07457
   397  H   1.0    0.09    1.08    1.44    32.18656    65.46228   151.59243
   398  H   1.0    0.06    1.05    1.44    38.48541    61.69415   153.30510
   399  H   1.0    0.09    1.18    1.46    46.94645    64.92326   156.25308
   400  H   1.0    0.07    1.04    1.44    52.99951    63.35449   158.02563
   401  H   1.0    0.11    1.08    1.44    28.53511    59.25886   140.95100
   402  H   1.0    0.07    1.04    1.43    18.17825    64.06859   143.81996
   403  H   1.0    0.11    1.07    1.44    20.91552    85.18551   158.74228
   404  H   1.0    0.07    1.05    1.44    21.94490    92.14910   149.73935
   405  H   1.0    0.10    1.07    1.44    17.36248    82.40863   147.36171
   406  H   1.0    0.06    1.05    1.44    19.19416    78.58395   153.60980
   407  H   1.0    0.09    1.07    1.44    23.99557    76.81404   155.09592
   408  H   1.0    0.08    1.04    1.43    27.96678    71.49911   158.55914

  Z AO/shell   Hii/eV     exponent
  1     Wed Apr 25 08:07:45 CEST 2018   EN: 2.200 GM2: 0.406  GM3: 0.0800  RAES: 1.40
     1s    -10.707211    1.230000
  6     Wed Apr 25 08:07:45 CEST 2018   EN: 2.550 GM2: 0.538  GM3: 0.1500  RAES: 3.00
     2s    -13.970922    2.096432
     2p    -10.063292    1.800000
  7     Wed Apr 25 08:07:45 CEST 2018   EN: 3.040 GM2: 0.461  GM3:-0.0640  RAES: 1.90
     2s    -16.686243    2.339881
     2p    -12.523956    2.014332
  8     Wed Apr 25 08:07:45 CEST 2018   EN: 3.440 GM2: 0.452  GM3:-0.0517  RAES: 1.80
     2s    -20.229985    2.439742
     2p    -15.503117    2.137023
 no old-style atom pair restraining (fixing) potential

molecular fragmentation (1/2 indicates fragments):
111111111111111111111111111111111111111111111111111111111111111111111111
111111111111111111111111111111111111111111111111111111111111111111111111
111111111111111111111111111111111111122222222222222222222222222222222222
222222222222222222222222222222222222222222222222222222222222222222222222
222222222222222222222222222222222222222222222222222222222222222222222222
222222222222222222222222222211222222222222222222
# atoms in fragment 1/2:   183   225
 fragment masses (1/2) :     1220.48     1523.79
CMA distance (Bohr)    :  15.368
constraining FC (au)   :  0.0500
           ------------------------------------------------- 
          |        Self-Consistent Charge Iterations        |
           ------------------------------------------------- 

 Ncao       : 987
 Nao        : 987
 Nshell     : 601
 Nel        : 1090
 T(el)      :   500.0
 intcut     :    35.0
 scfconv/Eh :  0.100E-06
   qconv/e  :  0.100E-04
 intneglect :  0.100E-08
 broydamp   :      0.400
 iter      E             dE          RMSdq      gap      omega  full diag
   1   -623.1461192 -0.623146E+03  0.465E+00    2.99       0.0  T
   2   -624.5789683 -0.143285E+01  0.219E+00    1.81       1.0  T
   3   -624.6721602 -0.931919E-01  0.123E+00    1.93       1.0  T
   4   -624.7789651 -0.106805E+00  0.271E-01    1.21       1.0  T
   5   -624.7843774 -0.541238E-02  0.139E-01    1.40       1.0  T
   6   -624.7859778 -0.160040E-02  0.640E-02    1.38       1.0  T
   7   -624.7864123 -0.434455E-03  0.297E-02    1.40       1.0  T
   8   -624.7864915 -0.792414E-04  0.145E-02    1.41       1.0  T
   9   -624.7865138 -0.222637E-04  0.698E-03    1.41       1.0  T
  10   -624.7865181 -0.427288E-05  0.292E-03    1.41       1.7  T
  11   -624.7865189 -0.838294E-06  0.132E-03    1.40       3.8  T
  12   -624.7865191 -0.152607E-06  0.591E-04    1.40       8.4  T
  13   -624.7865191 -0.419052E-07  0.295E-04    1.40      16.8  T
  14   -624.7865191 -0.669127E-08  0.119E-04    1.40      41.7  T
  15   -624.7865191 -0.187208E-08  0.533E-05    1.40      92.9  T
  16   -624.7865191 -0.254090E-09  0.253E-05    1.40     195.7  T
speedup  1.88
cpu  time for SCC    8.90 s
wall time for SCC    4.74 s

   *** convergence criteria satisfied after 16 iterations ***

          eigenvalues
 #    :         533        534        535        536        537        538        539        540
 occ. :        2.000      2.000      2.000      2.000      2.000      2.000      2.000      2.000
 eps  :       -10.242    -10.197    -10.196    -10.149    -10.102    -10.047    -10.019    -10.011
 #    :         541        542        543        544        545        546        547        548
 occ. :        2.000      2.000      2.000      2.000      2.000      0.000      0.000      0.000
 eps  :        -9.899     -9.785     -9.709     -9.668     -9.558     -8.155     -7.980     -7.911
 #    :         549        550        551        552        553        554        555        556
 occ. :        0.000      0.000      0.000      0.000      0.000      0.000      0.000      0.000
 eps  :        -7.890     -7.849     -7.847     -7.844     -7.672     -7.561     -7.502     -6.585


   #   Z            q   n(s)   n(p)   n(d)      C6AA      α(0)
   1   7 N     -0.391  1.325  4.065  0.000    30.117     8.151
   2   6 C      0.013  1.067  2.920  0.000    20.377     6.431
   3   6 C      0.263  1.051  2.685  0.000    22.560     7.778
   4   8 O     -0.470  1.735  4.735  0.000    23.128     6.448
   5   6 C      0.068  1.039  2.893  0.000    19.667     6.356
   6   8 O     -0.453  1.707  4.745  0.000    21.901     6.317
   7   1 H      0.168  0.832  0.000  0.000     1.286     1.776
   8   1 H      0.034  0.966  0.000  0.000     2.527     2.486
   9   1 H      0.048  0.952  0.000  0.000     2.350     2.397
  10   1 H      0.043  0.957  0.000  0.000     2.403     2.424
  11   1 H      0.346  0.654  0.000  0.000     0.598     1.215
  12   7 N     -0.178  1.256  3.922  0.000    24.857     7.405
  13   6 C      0.009  1.072  2.919  0.000    20.421     6.433
  14   6 C      0.286  1.037  2.677  0.000    22.155     7.708
  15   8 O     -0.491  1.749  4.743  0.000    23.593     6.512
  16   6 C     -0.020  1.062  2.957  0.000    20.892     6.501
  17   6 C     -0.126  1.043  3.083  0.000    22.975     6.834
  18   6 C     -0.119  1.037  3.082  0.000    22.836     6.814
  19   1 H      0.195  0.805  0.000  0.000     1.131     1.666
  20   1 H      0.072  0.928  0.000  0.000     2.059     2.244
  21   1 H      0.061  0.939  0.000  0.000     2.185     2.311
  22   1 H      0.062  0.938  0.000  0.000     2.179     2.308
  23   1 H      0.054  0.946  0.000  0.000     2.275     2.359
  24   1 H      0.040  0.960  0.000  0.000     2.443     2.444
  25   1 H      0.061  0.939  0.000  0.000     2.190     2.314
  26   1 H      0.035  0.965  0.000  0.000     2.513     2.479
  27   1 H      0.044  0.956  0.000  0.000     2.396     2.421
  28   7 N     -0.181  1.251  3.930  0.000    24.913     7.413
  29   6 C      0.017  1.063  2.919  0.000    20.295     6.416
  30   6 C      0.270  1.042  2.687  0.000    22.430     7.756
  31   8 O     -0.479  1.738  4.742  0.000    23.331     6.476
  32   6 C     -0.085  1.061  3.024  0.000    22.112     6.694
  33   6 C     -0.093  1.055  3.038  0.000    22.267     6.719
  34   6 C     -0.030  1.056  2.975  0.000    21.203     6.572
  35   7 N     -0.147  1.213  3.934  0.000    24.177     7.303
  36   6 C      0.226  1.022  2.752  0.000    23.243     7.893
  37   7 N     -0.240  1.236  4.004  0.000    26.277     7.613
  38   7 N     -0.262  1.234  4.028  0.000    26.790     7.687
  39   1 H      0.216  0.784  0.000  0.000     1.028     1.588
  40   1 H      0.060  0.940  0.000  0.000     2.194     2.316
  41   1 H      0.078  0.922  0.000  0.000     1.999     2.211
  42   1 H      0.077  0.923  0.000  0.000     2.006     2.215
  43   1 H      0.084  0.916  0.000  0.000     1.937     2.176
  44   1 H      0.083  0.917  0.000  0.000     1.948     2.183
  45   1 H      0.088  0.912  0.000  0.000     1.897     2.154
  46   1 H      0.091  0.909  0.000  0.000     1.869     2.138
  47   1 H      0.228  0.772  0.000  0.000     0.976     1.547
  48   1 H      0.241  0.759  0.000  0.000     0.919     1.502
  49   1 H      0.249  0.751  0.000  0.000     0.886     1.474
  50   1 H      0.243  0.757  0.000  0.000     0.912     1.496
  51   1 H      0.237  0.763  0.000  0.000     0.937     1.516
  52   7 N     -0.086  1.232  3.853  0.000    22.908     7.109
  53   6 C      0.028  1.058  2.915  0.000    20.077     6.373
  54   6 C      0.281  1.036  2.683  0.000    22.248     7.724
  55   8 O     -0.492  1.720  4.772  0.000    23.608     6.514
  56   6 C     -0.062  1.051  3.011  0.000    21.661     6.621
  57   6 C     -0.073  1.052  3.021  0.000    21.862     6.652
  58   6 C     -0.022  1.058  2.964  0.000    20.993     6.529
  59   1 H      0.044  0.956  0.000  0.000     2.396     2.421
  60   1 H      0.069  0.931  0.000  0.000     2.095     2.264
  61   1 H      0.036  0.964  0.000  0.000     2.497     2.471
  62   1 H      0.076  0.924  0.000  0.000     2.025     2.225
  63   1 H      0.045  0.955  0.000  0.000     2.385     2.415
  64   1 H      0.090  0.910  0.000  0.000     1.880     2.144
  65   1 H      0.060  0.940  0.000  0.000     2.203     2.321
  66   7 N     -0.198  1.264  3.933  0.000    25.288     7.469
  67   6 C      0.020  1.063  2.917  0.000    20.246     6.407
  68   6 C      0.263  1.044  2.694  0.000    22.572     7.780
  69   8 O     -0.433  1.722  4.711  0.000    22.342     6.337
  70   6 C     -0.063  1.050  3.013  0.000    21.702     6.630
  71   6 C      0.008  1.077  2.915  0.000    27.847     8.656
  72   6 C     -0.036  1.078  2.958  0.000    28.903     8.817
  73   6 C     -0.048  1.081  2.968  0.000    29.193     8.860
  74   6 C     -0.034  1.081  2.954  0.000    28.850     8.808
  75   6 C     -0.042  1.083  2.958  0.000    29.031     8.836
  76   6 C     -0.036  1.083  2.953  0.000    28.884     8.813
  77   1 H      0.219  0.781  0.000  0.000     1.014     1.577
  78   1 H      0.096  0.904  0.000  0.000     1.825     2.113
  79   1 H      0.057  0.943  0.000  0.000     2.232     2.337
  80   1 H      0.023  0.977  0.000  0.000     2.681     2.561
  81   1 H      0.011  0.989  0.000  0.000     2.870     2.649
  82   1 H      0.065  0.935  0.000  0.000     2.139     2.287
  83   1 H      0.039  0.961  0.000  0.000     2.469     2.457
  84   1 H      0.075  0.925  0.000  0.000     2.033     2.230
  85   1 H      0.047  0.953  0.000  0.000     2.359     2.402
  86   7 N     -0.187  1.238  3.949  0.000    25.064     7.436
  87   6 C      0.002  1.071  2.927  0.000    20.557     6.457
  88   6 C      0.269  1.042  2.688  0.000    22.449     7.758
  89   8 O     -0.457  1.733  4.725  0.000    22.863     6.411
  90   6 C     -0.078  1.058  3.020  0.000    21.992     6.676
  91   6 C     -0.074  1.050  3.025  0.000    21.922     6.666
  92   6 C     -0.102  1.059  3.043  0.000    22.453     6.746
  93   6 C     -0.030  1.052  2.979  0.000    21.208     6.573
  94   7 N     -0.171  1.244  3.927  0.000    24.693     7.380
  95   1 H      0.180  0.820  0.000  0.000     1.216     1.727
  96   1 H      0.095  0.905  0.000  0.000     1.835     2.119
  97   1 H      0.053  0.947  0.000  0.000     2.281     2.362
  98   1 H      0.077  0.923  0.000  0.000     2.008     2.216
  99   1 H      0.053  0.947  0.000  0.000     2.280     2.361
 100   1 H      0.056  0.944  0.000  0.000     2.249     2.345
 101   1 H      0.084  0.916  0.000  0.000     1.934     2.175
 102   1 H      0.088  0.912  0.000  0.000     1.898     2.155
 103   1 H      0.082  0.918  0.000  0.000     1.963     2.191
 104   1 H      0.095  0.905  0.000  0.000     1.833     2.117
 105   1 H      0.284  0.716  0.000  0.000     0.764     1.369
 106   1 H      0.269  0.731  0.000  0.000     0.813     1.413
 107   1 H      0.264  0.736  0.000  0.000     0.832     1.429
 108   7 N     -0.184  1.243  3.941  0.000    24.980     7.423
 109   6 C      0.010  1.063  2.926  0.000    20.410     6.433
 110   6 C      0.267  1.043  2.690  0.000    22.495     7.767
 111   8 O     -0.491  1.751  4.740  0.000    23.578     6.510
 112   6 C     -0.068  1.053  3.016  0.000    21.799     6.646
 113   6 C     -0.101  1.058  3.042  0.000    22.417     6.740
 114   6 C      0.285  1.039  2.676  0.000    22.165     7.709
 115   8 O     -0.482  1.733  4.749  0.000    23.393     6.485
 116   7 N     -0.291  1.268  4.023  0.000    27.505     7.789
 117   1 H      0.208  0.792  0.000  0.000     1.067     1.618
 118   1 H      0.085  0.915  0.000  0.000     1.929     2.172
 119   1 H      0.081  0.919  0.000  0.000     1.964     2.192
 120   1 H      0.063  0.937  0.000  0.000     2.170     2.304
 121   1 H      0.057  0.943  0.000  0.000     2.237     2.339
 122   1 H      0.069  0.931  0.000  0.000     2.100     2.266
 123   1 H      0.220  0.780  0.000  0.000     1.011     1.575
 124   1 H      0.230  0.770  0.000  0.000     0.963     1.537
 125   7 N     -0.187  1.248  3.939  0.000    25.055     7.434
 126   6 C      0.007  1.065  2.928  0.000    20.477     6.445
 127   6 C      0.264  1.045  2.691  0.000    22.543     7.775
 128   8 O     -0.462  1.708  4.754  0.000    22.950     6.423
 129   6 C     -0.096  1.064  3.032  0.000    22.320     6.725
 130   6 C     -0.092  1.055  3.037  0.000    22.257     6.717
 131   6 C     -0.035  1.058  2.977  0.000    21.287     6.585
 132   7 N     -0.137  1.207  3.930  0.000    23.978     7.273
 133   6 C      0.226  1.023  2.751  0.000    23.236     7.892
 134   7 N     -0.255  1.234  4.021  0.000    26.636     7.665
 135   7 N     -0.244  1.234  4.010  0.000    26.364     7.626
 136   1 H      0.223  0.777  0.000  0.000     0.997     1.564
 137   1 H      0.093  0.907  0.000  0.000     1.849     2.127
 138   1 H      0.070  0.930  0.000  0.000     2.089     2.261
 139   1 H      0.095  0.905  0.000  0.000     1.831     2.116
 140   1 H      0.078  0.922  0.000  0.000     1.996     2.210
 141   1 H      0.067  0.933  0.000  0.000     2.116     2.275
 142   1 H      0.089  0.911  0.000  0.000     1.891     2.151
 143   1 H      0.099  0.901  0.000  0.000     1.797     2.097
 144   1 H      0.220  0.780  0.000  0.000     1.008     1.572
 145   1 H      0.242  0.758  0.000  0.000     0.916     1.499
 146   1 H      0.256  0.744  0.000  0.000     0.861     1.453
 147   1 H      0.246  0.754  0.000  0.000     0.901     1.487
 148   1 H      0.256  0.744  0.000  0.000     0.860     1.453
 149   7 N     -0.137  1.226  3.911  0.000    23.965     7.271
 150   6 C      0.007  1.065  2.928  0.000    20.466     6.443
 151   6 C      0.264  1.050  2.687  0.000    22.552     7.778
 152   8 O     -0.464  1.734  4.731  0.000    23.012     6.432
 153   6 C     -0.092  1.060  3.032  0.000    22.247     6.713
 154   6 C     -0.091  1.053  3.039  0.000    22.233     6.713
 155   6 C     -0.101  1.053  3.048  0.000    22.426     6.742
 156   6 C     -0.054  1.061  2.993  0.000    21.633     6.639
 157   7 N     -0.153  1.234  3.919  0.000    24.302     7.322
 158   1 H      0.188  0.812  0.000  0.000     1.171     1.695
 159   1 H      0.094  0.906  0.000  0.000     1.840     2.121
 160   1 H      0.080  0.920  0.000  0.000     1.978     2.199
 161   1 H      0.064  0.936  0.000  0.000     2.151     2.294
 162   1 H      0.075  0.925  0.000  0.000     2.035     2.231
 163   1 H      0.069  0.931  0.000  0.000     2.095     2.263
 164   1 H      0.070  0.930  0.000  0.000     2.091     2.261
 165   1 H      0.088  0.912  0.000  0.000     1.896     2.153
 166   1 H      0.120  0.880  0.000  0.000     1.610     1.984
 167   1 H      0.111  0.889  0.000  0.000     1.685     2.030
 168   1 H      0.297  0.703  0.000  0.000     0.723     1.332
 169   1 H      0.297  0.703  0.000  0.000     0.723     1.332
 170   1 H      0.293  0.707  0.000  0.000     0.734     1.342
 171   7 N     -0.148  1.234  3.914  0.000    24.200     7.306
 172   6 C      0.021  1.062  2.917  0.000    20.225     6.402
 173   6 C      0.193  1.092  2.716  0.000    23.886     8.004
 174   8 O     -0.347  1.741  4.606  0.000    20.657     6.094
 175   6 C      0.079  1.034  2.887  0.000    19.475     6.323
 176   8 O     -0.472  1.714  4.758  0.000    22.294     6.374
 177   1 H      0.221  0.779  0.000  0.000     1.003     1.569
 178   1 H      0.101  0.899  0.000  0.000     1.772     2.081
 179   1 H      0.047  0.953  0.000  0.000     2.364     2.404
 180   1 H      0.042  0.958  0.000  0.000     2.422     2.434
 181   1 H      0.347  0.653  0.000  0.000     0.595     1.212
 182   7 N     -0.403  1.322  4.081  0.000    30.470     8.198
 183   6 C      0.028  1.063  2.909  0.000    20.122     6.389
 184   6 C      0.273  1.051  2.676  0.000    22.384     7.748
 185   8 O     -0.502  1.758  4.744  0.000    23.834     6.545
 186   6 C     -0.035  1.072  2.963  0.000    21.159     6.543
 187   6 C     -0.061  1.051  3.010  0.000    21.672     6.628
 188   6 C     -0.124  1.041  3.083  0.000    22.937     6.829
 189   6 C     -0.106  1.033  3.074  0.000    22.593     6.779
 190   1 H      0.182  0.818  0.000  0.000     1.201     1.717
 191   1 H      0.028  0.972  0.000  0.000     2.620     2.531
 192   1 H      0.058  0.942  0.000  0.000     2.219     2.329
 193   1 H      0.034  0.966  0.000  0.000     2.525     2.485
 194   1 H      0.051  0.949  0.000  0.000     2.312     2.378
 195   1 H      0.068  0.932  0.000  0.000     2.110     2.271
 196   1 H      0.048  0.952  0.000  0.000     2.340     2.392
 197   1 H      0.034  0.966  0.000  0.000     2.527     2.486
 198   1 H      0.032  0.968  0.000  0.000     2.553     2.499
 199   1 H      0.043  0.957  0.000  0.000     2.404     2.424
 200   1 H      0.020  0.980  0.000  0.000     2.731     2.584
 201   7 N     -0.176  1.244  3.933  0.000    24.820     7.399
 202   6 C      0.021  1.057  2.922  0.000    20.231     6.405
 203   6 C      0.196  1.084  2.720  0.000    23.818     7.993
 204   8 O     -0.365  1.767  4.598  0.000    21.003     6.144
 205   6 C     -0.090  1.059  3.030  0.000    22.205     6.708
 206   6 C     -0.087  1.052  3.034  0.000    22.152     6.701
 207   6 C     -0.036  1.059  2.976  0.000    21.293     6.584
 208   7 N     -0.136  1.219  3.916  0.000    23.942     7.267
 209   6 C      0.221  1.022  2.756  0.000    23.331     7.908
 210   7 N     -0.228  1.227  4.001  0.000    26.000     7.573
 211   7 N     -0.272  1.257  4.016  0.000    27.048     7.724
 212   1 H      0.225  0.775  0.000  0.000     0.989     1.558
 213   1 H      0.099  0.901  0.000  0.000     1.791     2.093
 214   1 H      0.079  0.921  0.000  0.000     1.992     2.207
 215   1 H      0.109  0.891  0.000  0.000     1.706     2.042
 216   1 H      0.064  0.936  0.000  0.000     2.157     2.297
 217   1 H      0.061  0.939  0.000  0.000     2.186     2.312
 218   1 H      0.100  0.900  0.000  0.000     1.789     2.092
 219   1 H      0.098  0.902  0.000  0.000     1.803     2.100
 220   1 H      0.217  0.783  0.000  0.000     1.022     1.584
 221   1 H      0.262  0.738  0.000  0.000     0.838     1.434
 222   1 H      0.251  0.749  0.000  0.000     0.878     1.468
 223   1 H      0.214  0.786  0.000  0.000     1.039     1.596
 224   1 H      0.240  0.760  0.000  0.000     0.923     1.505
 225   7 N     -0.390  1.315  4.075  0.000    30.086     8.146
 226   6 C      0.045  1.058  2.897  0.000    19.834     6.344
 227   6 C      0.206  1.091  2.703  0.000    23.635     7.962
 228   8 O     -0.396  1.759  4.637  0.000    21.594     6.230
 229   6 C     -0.049  1.054  2.995  0.000    21.446     6.593
 230   6 C     -0.096  1.064  3.032  0.000    22.332     6.729
 231   6 C      0.364  1.027  2.609  0.000    20.828     7.469
 232   8 O     -0.624  1.740  4.884  0.000    26.709     6.929
 233   8 O     -0.587  1.754  4.833  0.000    25.795     6.809
 234   1 H      0.162  0.838  0.000  0.000     1.321     1.800
 235   1 H      0.031  0.969  0.000  0.000     2.577     2.510
 236   1 H      0.053  0.947  0.000  0.000     2.286     2.364
 237   1 H      0.053  0.947  0.000  0.000     2.287     2.365
 238   1 H      0.016  0.984  0.000  0.000     2.796     2.615
 239   1 H      0.015  0.985  0.000  0.000     2.816     2.624
 240   7 N     -0.386  1.320  4.067  0.000    29.999     8.134
 241   6 C      0.028  1.062  2.910  0.000    20.115     6.388
 242   6 C      0.211  1.089  2.699  0.000    23.524     7.943
 243   8 O     -0.389  1.759  4.630  0.000    21.462     6.211
 244   6 C     -0.008  1.059  2.949  0.000    20.679     6.468
 245   6 C     -0.106  1.037  3.069  0.000    22.579     6.775
 246   6 C     -0.113  1.040  3.074  0.000    22.721     6.796
 247   1 H      0.145  0.855  0.000  0.000     1.432     1.875
 248   1 H      0.084  0.916  0.000  0.000     1.933     2.174
 249   1 H      0.018  0.982  0.000  0.000     2.772     2.604
 250   1 H      0.049  0.951  0.000  0.000     2.332     2.388
 251   1 H      0.010  0.990  0.000  0.000     2.893     2.660
 252   1 H      0.052  0.948  0.000  0.000     2.301     2.372
 253   1 H      0.053  0.947  0.000  0.000     2.283     2.363
 254   1 H      0.057  0.943  0.000  0.000     2.240     2.341
 255   1 H      0.037  0.963  0.000  0.000     2.485     2.465
 256   7 N     -0.375  1.311  4.064  0.000    29.676     8.091
 257   6 C      0.039  1.059  2.903  0.000    19.945     6.362
 258   6 C      0.201  1.085  2.714  0.000    23.724     7.977
 259   8 O     -0.378  1.760  4.618  0.000    21.246     6.180
 260   6 C     -0.045  1.051  2.994  0.000    21.371     6.581
 261   6 C     -0.080  1.062  3.018  0.000    22.030     6.683
 262   6 C      0.367  1.027  2.607  0.000    20.781     7.460
 263   8 O     -0.611  1.755  4.857  0.000    26.402     6.889
 264   8 O     -0.612  1.768  4.844  0.000    26.418     6.891
 265   1 H      0.152  0.848  0.000  0.000     1.385     1.843
 266   1 H      0.061  0.939  0.000  0.000     2.186     2.312
 267   1 H      0.017  0.983  0.000  0.000     2.772     2.604
 268   1 H      0.038  0.962  0.000  0.000     2.475     2.460
 269   1 H      0.029  0.971  0.000  0.000     2.604     2.523
 270   1 H      0.003  0.997  0.000  0.000     3.000     2.709
 271   7 N     -0.317  1.352  3.965  0.000    28.145     7.879
 272   6 C      0.034  1.062  2.904  0.000    20.001     6.366
 273   6 C      0.201  1.091  2.708  0.000    23.713     7.975
 274   8 O     -0.377  1.758  4.620  0.000    21.232     6.178
 275   6 C     -0.065  1.057  3.008  0.000    21.730     6.633
 276   6 C     -0.069  1.052  3.017  0.000    21.800     6.643
 277   6 C      0.016  1.042  2.942  0.000    20.343     6.427
 278   1 H      0.043  0.957  0.000  0.000     2.406     2.425
 279   1 H      0.054  0.946  0.000  0.000     2.268     2.355
 280   1 H      0.067  0.933  0.000  0.000     2.120     2.277
 281   1 H      0.051  0.949  0.000  0.000     2.313     2.378
 282   1 H      0.056  0.944  0.000  0.000     2.243     2.342
 283   1 H      0.039  0.961  0.000  0.000     2.469     2.457
 284   1 H      0.010  0.990  0.000  0.000     2.893     2.660
 285   7 N     -0.393  1.320  4.073  0.000    30.185     8.160
 286   6 C      0.026  1.057  2.916  0.000    20.141     6.392
 287   6 C      0.259  1.051  2.690  0.000    22.638     7.791
 288   8 O     -0.505  1.755  4.750  0.000    23.900     6.554
 289   6 C      0.116  1.049  2.835  0.000    18.774     6.186
 290   8 O     -0.490  1.723  4.766  0.000    22.668     6.427
 291   6 C     -0.123  1.041  3.082  0.000    22.922     6.827
 292   1 H      0.176  0.824  0.000  0.000     1.239     1.744
 293   1 H      0.045  0.955  0.000  0.000     2.382     2.414
 294   1 H      0.033  0.967  0.000  0.000     2.542     2.493
 295   1 H      0.342  0.658  0.000  0.000     0.607     1.224
 296   1 H      0.059  0.941  0.000  0.000     2.210     2.325
 297   1 H      0.048  0.952  0.000  0.000     2.346     2.395
 298   1 H      0.030  0.970  0.000  0.000     2.582     2.513
 299   7 N     -0.156  1.235  3.921  0.000    24.376     7.333
 300   6 C      0.020  1.060  2.920  0.000    20.255     6.410
 301   6 C      0.199  1.086  2.715  0.000    23.767     7.984
 302   8 O     -0.351  1.751  4.600  0.000    20.731     6.105
 303   6 C     -0.071  1.057  3.014  0.000    21.861     6.657
 304   6 C     -0.078  1.050  3.028  0.000    21.995     6.677
 305   6 C     -0.086  1.053  3.033  0.000    22.133     6.698
 306   6 C     -0.044  1.058  2.986  0.000    21.453     6.612
 307   7 N     -0.161  1.234  3.928  0.000    24.476     7.348
 308   1 H      0.227  0.773  0.000  0.000     0.978     1.549
 309   1 H      0.077  0.923  0.000  0.000     2.010     2.217
 310   1 H      0.057  0.943  0.000  0.000     2.234     2.337
 311   1 H      0.072  0.928  0.000  0.000     2.059     2.244
 312   1 H      0.070  0.930  0.000  0.000     2.088     2.260
 313   1 H      0.065  0.935  0.000  0.000     2.137     2.286
 314   1 H      0.059  0.941  0.000  0.000     2.209     2.324
 315   1 H      0.076  0.924  0.000  0.000     2.022     2.224
 316   1 H      0.124  0.876  0.000  0.000     1.580     1.966
 317   1 H      0.109  0.891  0.000  0.000     1.702     2.040
 318   1 H      0.291  0.709  0.000  0.000     0.741     1.348
 319   1 H      0.273  0.727  0.000  0.000     0.801     1.402
 320   1 H      0.304  0.696  0.000  0.000     0.703     1.314
 321   7 N     -0.405  1.329  4.076  0.000    30.514     8.204
 322   6 C      0.052  1.053  2.894  0.000    19.712     6.324
 323   6 C      0.272  1.049  2.679  0.000    22.407     7.751
 324   8 O     -0.487  1.750  4.737  0.000    23.498     6.499
 325   6 C     -0.094  1.069  3.025  0.000    22.296     6.722
 326   6 C      0.353  1.031  2.616  0.000    21.012     7.502
 327   8 O     -0.601  1.769  4.831  0.000    26.140     6.855
 328   8 O     -0.585  1.748  4.837  0.000    25.747     6.803
 329   1 H      0.191  0.809  0.000  0.000     1.152     1.681
 330   1 H      0.004  0.996  0.000  0.000     2.995     2.707
 331   1 H      0.040  0.960  0.000  0.000     2.444     2.445
 332   1 H      0.038  0.962  0.000  0.000     2.481     2.463
 333   7 N     -0.191  1.245  3.946  0.000    25.149     7.448
 334   6 C      0.042  1.056  2.902  0.000    19.879     6.350
 335   6 C      0.211  1.083  2.706  0.000    23.533     7.945
 336   8 O     -0.357  1.742  4.615  0.000    20.831     6.119
 337   6 C     -0.059  1.055  3.004  0.000    21.636     6.622
 338   6 C     -0.102  1.071  3.031  0.000    22.444     6.746
 339   6 C      0.368  1.027  2.605  0.000    20.766     7.457
 340   8 O     -0.655  1.783  4.872  0.000    27.500     7.031
 341   8 O     -0.657  1.774  4.883  0.000    27.572     7.040
 342   1 H      0.195  0.805  0.000  0.000     1.132     1.666
 343   1 H      0.054  0.946  0.000  0.000     2.270     2.356
 344   1 H      0.069  0.931  0.000  0.000     2.099     2.265
 345   1 H      0.054  0.946  0.000  0.000     2.273     2.358
 346   1 H      0.043  0.957  0.000  0.000     2.410     2.428
 347   1 H      0.049  0.951  0.000  0.000     2.333     2.389
 348   7 N     -0.389  1.324  4.064  0.000    30.056     8.142
 349   6 C      0.044  1.056  2.901  0.000    19.862     6.348
 350   6 C      0.197  1.088  2.715  0.000    23.799     7.990
 351   8 O     -0.374  1.755  4.619  0.000    21.171     6.169
 352   6 C     -0.064  1.054  3.010  0.000    21.715     6.632
 353   6 C      0.008  1.081  2.911  0.000    27.830     8.653
 354   6 C     -0.042  1.078  2.964  0.000    29.033     8.836
 355   6 C     -0.041  1.080  2.961  0.000    29.027     8.835
 356   6 C     -0.032  1.080  2.952  0.000    28.805     8.801
 357   6 C     -0.031  1.081  2.950  0.000    28.766     8.795
 358   6 C     -0.031  1.079  2.952  0.000    28.777     8.797
 359   1 H      0.158  0.842  0.000  0.000     1.345     1.817
 360   1 H      0.060  0.940  0.000  0.000     2.193     2.316
 361   1 H      0.052  0.948  0.000  0.000     2.297     2.370
 362   1 H      0.040  0.960  0.000  0.000     2.445     2.445
 363   1 H      0.022  0.978  0.000  0.000     2.706     2.572
 364   1 H      0.047  0.953  0.000  0.000     2.364     2.404
 365   1 H      0.036  0.964  0.000  0.000     2.496     2.471
 366   1 H      0.062  0.938  0.000  0.000     2.178     2.308
 367   1 H      0.043  0.957  0.000  0.000     2.415     2.430
 368   7 N     -0.376  1.313  4.063  0.000    29.720     8.097
 369   6 C      0.046  1.057  2.897  0.000    19.823     6.343
 370   6 C      0.201  1.092  2.707  0.000    23.720     7.976
 371   8 O     -0.374  1.760  4.614  0.000    21.178     6.170
 372   6 C     -0.062  1.053  3.009  0.000    21.675     6.627
 373   6 C     -0.001  1.080  2.922  0.000    28.054     8.688
 374   6 C     -0.037  1.079  2.958  0.000    28.920     8.819
 375   6 C     -0.034  1.085  2.949  0.000    28.855     8.809
 376   6 C     -0.061  1.073  2.988  0.000    29.508     8.908
 377   6 C     -0.069  1.075  2.994  0.000    29.717     8.939
 378   6 C      0.138  1.045  2.817  0.000    24.978     8.191
 379   8 O     -0.388  1.695  4.693  0.000    20.614     6.129
 380   1 H      0.152  0.848  0.000  0.000     1.387     1.845
 381   1 H      0.061  0.939  0.000  0.000     2.183     2.311
 382   1 H      0.042  0.958  0.000  0.000     2.420     2.433
 383   1 H      0.035  0.965  0.000  0.000     2.520     2.482
 384   1 H      0.013  0.987  0.000  0.000     2.844     2.637
 385   1 H      0.038  0.962  0.000  0.000     2.469     2.457
 386   1 H      0.046  0.954  0.000  0.000     2.367     2.406
 387   1 H      0.051  0.949  0.000  0.000     2.305     2.374
 388   1 H      0.336  0.664  0.000  0.000     0.621     1.238
 389   1 H      0.184  0.816  0.000  0.000     1.191     1.710
 390   1 H      0.090  0.910  0.000  0.000     1.876     2.142
 391   1 H      0.165  0.835  0.000  0.000     1.301     1.787
 392   1 H      0.067  0.933  0.000  0.000     2.118     2.275
 393   1 H      0.177  0.823  0.000  0.000     1.232     1.738
 394   1 H      0.070  0.930  0.000  0.000     2.081     2.256
 395   1 H      0.187  0.813  0.000  0.000     1.173     1.697
 396   1 H      0.062  0.938  0.000  0.000     2.171     2.304
 397   1 H      0.174  0.826  0.000  0.000     1.247     1.749
 398   1 H      0.071  0.929  0.000  0.000     2.072     2.251
 399   1 H      0.186  0.814  0.000  0.000     1.178     1.700
 400   1 H      0.072  0.928  0.000  0.000     2.065     2.247
 401   1 H      0.190  0.810  0.000  0.000     1.160     1.687
 402   1 H      0.069  0.931  0.000  0.000     2.101     2.267
 403   1 H      0.177  0.823  0.000  0.000     1.232     1.738
 404   1 H      0.081  0.919  0.000  0.000     1.969     2.194
 405   1 H      0.187  0.813  0.000  0.000     1.173     1.696
 406   1 H      0.061  0.939  0.000  0.000     2.189     2.313
 407   1 H      0.174  0.826  0.000  0.000     1.247     1.749
 408   1 H      0.067  0.933  0.000  0.000     2.115     2.274

 Mol. C6AA /au·bohr⁶  :    1492839.499965
 Mol. C8AA /au·bohr⁸  :   33048473.313267
 Mol. α(0) /au        :       1833.507833

 
molecular dipole:
                 x           y           z       tot (Debye)
 q only:      106.407     130.688     234.575
   full:      107.162     130.676     236.302     738.429
molecular quadrupole (traceless):
                xx          xy          yy          xz          yz          zz
 q only:   -12025.952   11389.296   -7449.639   20431.654   21967.523   19475.592
  q+dip:   -12265.089   11471.313   -7695.694   20689.238   22140.461   19960.783
   full:   -12261.190   11472.253   -7693.353   20689.302   22138.372   19954.542
speedup  1.90
cpu  time for grad   10.90 s
wall time for grad    5.75 s

SCC energy    :    -624.8073957
rep           :       7.7645864
ES            :       2.1966037
AES           :      -0.1243136
AXC           :       0.2275600
disp          :      -0.4868432
XB            :       0.0000000
fix           :       0.0000000
Gborn         :       0.0000000
Gsasa         :       0.0000000
Ghb           :       0.0000000
Gshift        :       0.0000000
Gsolv         :      -0.7831084     -491.41
Etot ala COSMO:    -624.8073957
grad norm     :       0.7062267
total E       :    -616.9983288
atomizationE  :     112.4089376    70537.67
(atE without considering molecular charge,
 total energy contains solvation terms)
H-L gap (eV)  :          1.4035

------------------------------------------------------------------------
 * finished run on 2019/05/12 at 13:12:45.640     
------------------------------------------------------------------------
 total:
 * wall-time:     0 d,  0 h,  0 min,  6.424 sec
 *  cpu-time:     0 d,  0 h,  0 min, 12.019 sec
 * ratio c/w:     1.871 speedup
 SCF:
 * wall-time:     0 d,  0 h,  0 min,  6.120 sec
 *  cpu-time:     0 d,  0 h,  0 min, 11.648 sec
 * ratio c/w:     1.903 speedup

