      -----------------------------------------------------------      
     |                   =====================                   |     
     |                           x T B                           |     
     |                   =====================                   |     
     |                         S. Grimme                         |     
     |          Mulliken Center for Theoretical Chemistry        |     
     |                    University of Bonn                     |     
     |                 Version 6.0.1 (SAW181210)                 |     
      -----------------------------------------------------------      

   This program is distributed in the hope that it will be useful,
   but WITHOUT ANY WARRANTY; without even the implied warranty of
   MERCHANTABILITY or FITNESS FOR A PARTICULAR PURPOSE.
   
   FOR NON-COMMERCIAL, ACADEMIA USE ONLY.
   
   Cite this work as:
   S. Grimme, C. Bannwarth, P. Shushkov, J. Comput. Theory Chem., 2017,
   13, 1989-2009.
   C. Bannwarth, S. Ehlert and S. Grimme., ChemRxiv, 2018, preprint.
   http://doi.org/10.26434/chemrxiv.7246238.v1
   
   for sTDA-xTB:
   S. Grimme and C. Bannwarth, J. Chem. Phys., 2016, 145, 054103.
   
   in the mass-spec context:
   V. Asgeirsson, C. Bauer and S. Grimme, Chem. Sci., 2017, 8, 4879.
   
   if GBSA is used:
   P. Shushkov, F. März and S. Grimme, unpublished.
   
   for ANC optimizer:
   S. Grimme, unpublished.
   Rational Function algorithm used in ANCopt:
   F. Eckert, P. Pulay, H.-J. Werner, J. Comput. Chem., 1997, 18, 1473.
   
   with help from (in alphabetical order)
   C. Bannwarth, F. Bohle, G. Brandenburg, E. Caldeweyher, M. Checinski,
   S. Dohm, S. Ehlert, S. Ehrlich, F. März, H. Neugebauer, J. Pisarek,
   P. Pracht, P. Shushkov, and S. Spicher.
   
 * started run on 2019/05/10 at 16:39:39.571     
========================================================================
 # omp threads = 2
========================================================================
number of atoms            : 120
number of electrons        : 308
charge                     : 2
spin                       : .0
first test random number   : .6600

########################################################################
# WARNING! Please study the warnings concerning your input carefully
#  - Process number higher than OMP_NUM_THREADS, I hope you know what you are doing.
########################################################################

           ------------------------------------------------- 
          |                 G F N 2 - x T B                 |
          | Geometry, Frequencies, Noncovalent interactions |
          |            JCTC 2018 parametrisation            |
           ------------------------------------------------- 
 
      method parameters     
 k(s)        :  1.8500
 k(p)        :  2.2300
 k(d)        :  2.2300
 k(f)        :  2.0000
 kEN (H0ij)  : -2.0000
 D4 a1       :  0.5200
 D4 a2       :  5.0000
 D4 s6       :  1.0000
 D4 s8       :  2.7000
 D4 s9       :  5.0000
 alphaj      :  2.0000

 Solvent             : h2o
 Using internal parameter file: .param_gbsa2_h2o
 Gsolv ref. state (COSMO-RS): gsolv [1 M gas/solution]
 temperature (mdtemp)       :    298.150000000000     
 dielectric constant        :    80.2000000000000     
 rho                        :    1.00000000000000     
 mass                       :    18.0000000000000     
 surface tension            :    15.5689454083859     
 probe radius               :   0.975313790000000     
 vdW radii scaling          :    1.00000000000000     
 Gshift (Eh)                :   1.857443126794793E-003
 c1                         :    1.55243817000000     
 soset                      :   0.130326360000000     
 HB correction              :  T

            Z     q(EN)     CN     RAES       Cart. coordinates
     1  N   5.0   -0.13    3.46    2.05     5.07378    40.64669    -5.50755
     2  C   4.0    0.04    4.48    4.50     5.31986    38.82074    -3.47861
     3  C   4.0    0.17    3.49    3.11     5.71693    36.16246    -4.56550
     4  O   6.0   -0.29    1.34    1.80     5.11403    35.67452    -6.75116
     5  C   4.0   -0.02    4.36    4.32     2.72921    38.96057    -2.18816
     6  C   4.0   -0.02    4.27    4.13     0.92505    39.43570    -4.38557
     7  C   4.0    0.02    4.25    4.09     2.43716    41.16823    -6.12454
     8  H   1.0    0.06    1.04    1.43     6.82769    39.31908    -2.16404
     9  H   1.0    0.07    1.02    1.43     2.29140    37.23784    -1.16219
    10  H   1.0    0.06    1.03    1.43     2.73722    40.55641    -0.88852
    11  H   1.0    0.07    1.03    1.43     0.50812    37.65292    -5.32744
    12  H   1.0    0.07    1.02    1.43    -0.84200    40.29165    -3.78361
    13  H   1.0    0.07    1.02    1.43     2.10613    40.77932    -8.12276
    14  H   1.0    0.07    1.02    1.43     2.04993    43.16573    -5.74909
    15  N   5.0   -0.13    3.46    2.05     6.69933    34.43782    -2.99022
    16  C   4.0    0.04    4.47    4.50     6.73184    31.82107    -3.83673
    17  C   4.0    0.16    3.58    3.15     4.12014    31.21704    -4.94424
    18  O   6.0   -0.27    1.25    1.80     2.17694    31.90817    -3.88038
    19  C   4.0   -0.04    4.35    4.28     7.36136    30.01202    -1.68138
    20  C   4.0   -0.02    4.18    3.95    10.17428    30.00861    -0.99547
    21  C   4.0   -0.06    4.10    3.81    10.54545    28.60336     1.49877
    22  C   4.0   -0.06    4.10    3.81    11.76280    28.78585    -3.07338
    23  H   1.0    0.11    1.10    1.44     6.61395    34.78655    -1.10678
    24  H   1.0    0.05    1.07    1.44     8.14323    31.70068    -5.34034
    25  H   1.0    0.06    1.03    1.43     6.22677    30.55594    -0.04427
    26  H   1.0    0.05    1.03    1.43     6.77411    28.10493    -2.21592
    27  H   1.0    0.05    1.05    1.44    10.77047    31.97511    -0.77115
    28  H   1.0    0.05    1.00    1.43    12.52548    28.59841     2.03474
    29  H   1.0    0.05    1.00    1.43     9.44601    29.48900     2.98949
    30  H   1.0    0.06    1.00    1.43     9.91678    26.65503     1.31196
    31  H   1.0    0.05    1.00    1.43    13.72450    28.67618    -2.48371
    32  H   1.0    0.06    1.00    1.43    11.09991    26.87678    -3.45520
    33  H   1.0    0.06    1.00    1.43    11.67385    29.86025    -4.82319
    34  N   5.0   -0.10    3.66    2.22     4.09199    29.92336    -7.12586
    35  C   4.0    0.02    4.55    4.61     6.14984    28.47062    -8.20666
    36  C   4.0    0.15    3.42    3.08     8.12726    29.91822    -9.75973
    37  O   6.0   -0.27    1.24    1.80     9.93868    28.76278   -10.61692
    38  C   4.0   -0.02    4.37    4.32     4.79544    26.60257    -9.98245
    39  C   4.0   -0.03    4.26    4.12     2.50335    28.11192   -10.86371
    40  C   4.0    0.02    4.39    4.36     1.71422    29.47696    -8.45491
    41  H   1.0    0.05    1.05    1.44     7.18949    27.44996    -6.73741
    42  H   1.0    0.08    1.02    1.43     6.02173    25.99975   -11.51751
    43  H   1.0    0.07    1.02    1.43     4.18654    24.94665    -8.92054
    44  H   1.0    0.06    1.02    1.43     3.05245    29.47107   -12.31048
    45  H   1.0    0.07    1.02    1.43     1.00546    26.91826   -11.60355
    46  H   1.0    0.07    1.02    1.43     0.76583    31.27858    -8.78567
    47  H   1.0    0.07    1.02    1.43     0.47665    28.30140    -7.28376
    48  N   5.0   -0.13    3.46    2.05     7.71214    32.36959   -10.23738
    49  C   4.0    0.05    4.43    4.43     9.45115    33.71555   -11.85149
    50  C   4.0    0.16    3.39    3.08    11.61265    34.94013   -10.35960
    51  O   6.0   -0.28    1.22    1.80    11.51722    35.25505    -8.07510
    52  C   4.0    0.05    4.16    3.91     8.05071    35.71591   -13.41110
    53  O   6.0   -0.22    2.06    1.83     9.46150    36.17557   -15.61802
    54  H   1.0    0.11    1.09    1.44     6.45818    33.39666    -9.20331
    55  H   1.0    0.08    1.07    1.44    10.25980    32.32085   -13.15480
    56  H   1.0    0.06    1.01    1.43     6.16912    34.98496   -13.88688
    57  H   1.0    0.07    1.01    1.43     7.80877    37.45662   -12.30445
    58  H   1.0    0.15    1.02    1.43     8.53519    37.41641   -16.60403
    59  N   5.0   -0.13    3.47    2.06    13.59071    35.58913   -11.80575
    60  C   4.0    0.04    4.30    4.20    15.77005    36.97096   -10.86122
    61  C   4.0    0.10    3.18    3.03    15.87314    39.55112   -12.18780
    62  O   6.0   -0.22    1.13    1.80    14.01733    40.94089   -12.07910
    63  C   4.0   -0.04    4.23    4.06    18.18348    35.38963   -10.97860
    64  C   4.0   -0.04    4.18    3.95    18.14550    33.21462    -9.06288
    65  C   4.0   -0.04    4.18    3.96    20.84015    32.40137    -8.40563
    66  C   4.0   -0.02    4.12    3.83    20.91357    30.37726    -6.35327
    67  N   5.0   -0.10    3.98    2.81    23.47263    30.28590    -5.22166
    68  H   1.0    0.10    1.07    1.44    13.38784    35.43134   -13.69922
    69  H   1.0    0.07    1.07    1.44    15.34082    37.39395    -8.87133
    70  H   1.0    0.06    1.02    1.43    18.45569    34.65158   -12.88376
    71  H   1.0    0.06    1.03    1.43    19.75938    36.62399   -10.49405
    72  H   1.0    0.05    1.03    1.43    17.19893    33.85833    -7.34840
    73  H   1.0    0.06    1.02    1.43    17.06913    31.62509    -9.80841
    74  H   1.0    0.06    1.02    1.43    21.78863    31.72907   -10.10647
    75  H   1.0    0.06    1.03    1.43    21.86048    34.05240    -7.70448
    76  H   1.0    0.05    1.03    1.43    19.58241    30.86815    -4.85943
    77  H   1.0    0.06    1.02    1.43    20.40882    28.53381    -7.12513
    78  H   1.0    0.08    1.02    1.43    23.59016    28.93769    -3.84238
    79  H   1.0    0.08    1.02    1.43    24.81806    29.94698    -6.56927
    80  H   1.0    0.07    0.96    1.43    23.86986    32.15732    -4.35013
    81  N   5.0   -0.19    3.24    1.97     5.41616    35.10380     9.01934
    82  C   4.0    0.04    4.31    4.21     6.58719    35.62228     6.59959
    83  C   4.0    0.15    3.39    3.08     4.90938    34.89097     4.35245
    84  O   6.0   -0.32    1.28    1.80     5.50026    35.51596     2.21427
    85  C   4.0   -0.04    4.26    4.12     9.19665    34.40105     6.39312
    86  C   4.0   -0.04    4.18    3.96    11.10992    35.61759     8.19192
    87  C   4.0   -0.04    4.18    3.95    13.80756    34.93817     7.42095
    88  C   4.0   -0.02    4.11    3.83    15.74017    36.01830     9.27402
    89  N   5.0   -0.10    3.97    2.79    18.31244    35.90949     8.16823
    90  H   1.0    0.10    1.03    1.43     6.28641    33.86947    10.19175
    91  H   1.0    0.06    1.06    1.44     6.80582    37.68259     6.40960
    92  H   1.0    0.05    1.02    1.43     9.04385    32.38017     6.76686
    93  H   1.0    0.05    1.03    1.43     9.82317    34.65449     4.44499
    94  H   1.0    0.06    1.03    1.43    10.90317    37.66836     8.12700
    95  H   1.0    0.06    1.02    1.43    10.77186    35.01226    10.13320
    96  H   1.0    0.05    1.03    1.43    13.99652    32.88860     7.33767
    97  H   1.0    0.05    1.03    1.43    14.15529    35.70834     5.54008
    98  H   1.0    0.06    1.02    1.43    15.30786    37.98384     9.71999
    99  H   1.0    0.06    1.02    1.43    15.71910    34.94857    11.03646
   100  H   1.0    0.08    0.96    1.42    19.79831    35.82259     9.64752
   101  H   1.0    0.07    1.03    1.43    18.53052    34.27691     7.15084
   102  H   1.0    0.08    1.02    1.43    18.65162    37.44123     7.03944
   103  N   5.0   -0.14    3.45    2.05     2.77436    33.61653     4.86533
   104  C   4.0    0.04    4.31    4.22     0.85826    33.20959     2.95449
   105  C   4.0    0.10    3.20    3.04    -0.76224    35.58582     2.51816
   106  O   6.0   -0.27    1.18    1.80    -2.32406    35.63546     0.81494
   107  C   4.0   -0.01    4.29    4.17    -0.79674    30.91737     3.63620
   108  C   4.0    0.18    3.20    3.04    -1.53743    29.29571     1.34980
   109  O   6.0   -0.23    1.19    1.80    -1.11999    27.02260     1.30411
   110  N   5.0   -0.15    3.21    1.96    -2.72324    30.54215    -0.48693
   111  H   1.0    0.10    1.07    1.44     2.36386    33.09598     6.65419
   112  H   1.0    0.07    1.06    1.44     1.82597    32.85127     1.15047
   113  H   1.0    0.07    1.03    1.43     0.24055    29.67932     4.91624
   114  H   1.0    0.08    1.03    1.43    -2.53250    31.52957     4.56641
   115  H   1.0    0.13    1.08    1.44    -2.88472    32.45588    -0.42436
   116  H   1.0    0.13    1.03    1.43    -3.14705    29.62861    -2.10006
   117  H   1.0    0.11    1.10    1.44     6.30621    41.81130    -5.37581
   118  H   1.0    0.08    1.04    1.43    17.43249    40.07321   -13.11888
   119  H   1.0    0.11    1.07    1.44     5.29242    36.54679     9.91098
   120  H   1.0    0.08    1.04    1.44    -0.54049    37.09790     3.62969

  Z AO/shell   Hii/eV     exponent
  1     Wed Apr 25 08:07:45 CEST 2018   EN: 2.200 GM2: 0.406  GM3: 0.0800  RAES: 1.40
     1s    -10.707211    1.230000
  6     Wed Apr 25 08:07:45 CEST 2018   EN: 2.550 GM2: 0.538  GM3: 0.1500  RAES: 3.00
     2s    -13.970922    2.096432
     2p    -10.063292    1.800000
  7     Wed Apr 25 08:07:45 CEST 2018   EN: 3.040 GM2: 0.461  GM3:-0.0640  RAES: 1.90
     2s    -16.686243    2.339881
     2p    -12.523956    2.014332
  8     Wed Apr 25 08:07:45 CEST 2018   EN: 3.440 GM2: 0.452  GM3:-0.0517  RAES: 1.80
     2s    -20.229985    2.439742
     2p    -15.503117    2.137023
 no old-style atom pair restraining (fixing) potential

molecular fragmentation (1/2 indicates fragments):
111111111111111111111111111111111111111111111111111111111111111111111111
111111112222222222222222222222222222222222221122
# atoms in fragment 1/2:    82    38
 fragment masses (1/2) :      525.67      245.30
CMA distance (Bohr)    :  12.809
constraining FC (au)   :  0.0500
           ------------------------------------------------- 
          |        Self-Consistent Charge Iterations        |
           ------------------------------------------------- 

 Ncao       : 282
 Nao        : 282
 Nshell     : 174
 Nel        : 308
 T(el)      :   500.0
 intcut     :    35.0
 scfconv/Eh :  0.100E-06
   qconv/e  :  0.100E-04
 intneglect :  0.100E-08
 broydamp   :      0.400
 iter      E             dE          RMSdq      gap      omega  full diag
   1   -175.5356344 -0.175536E+03  0.437E+00    3.16       0.0  T
   2   -175.8989685 -0.363334E+00  0.207E+00    1.19       1.0  T
   3   -175.9210408 -0.220723E-01  0.114E+00    1.21       1.0  T
   4   -175.9464180 -0.253772E-01  0.247E-01    0.75       1.0  T
   5   -175.9478183 -0.140023E-02  0.107E-01    0.97       1.0  T
   6   -175.9480511 -0.232815E-03  0.416E-02    0.94       1.0  T
   7   -175.9480862 -0.351101E-04  0.182E-02    0.93       1.0  T
   8   -175.9480902 -0.403410E-05  0.705E-03    0.93       1.3  T
   9   -175.9480915 -0.127942E-05  0.257E-03    0.93       3.5  T
  10   -175.9480916 -0.806936E-07  0.998E-04    0.93       9.1  T
  11   -175.9480916 -0.147646E-07  0.437E-04    0.93      20.9  T
  12   -175.9480916 -0.418740E-08  0.145E-04    0.93      63.0  T
  13   -175.9480916 -0.423142E-09  0.698E-05    0.93     130.9  T
  14   -175.9480916 -0.842135E-10  0.298E-05    0.93     306.1  T
speedup  2.00
cpu  time for SCC    0.67 s
wall time for SCC    0.33 s

   *** convergence criteria satisfied after 14 iterations ***

          eigenvalues
 #    :         142        143        144        145        146        147        148        149
 occ. :        2.000      2.000      2.000      2.000      2.000      2.000      2.000      2.000
 eps  :       -11.511    -11.493    -11.478    -11.384    -11.367    -11.036    -10.918    -10.877
 #    :         150        151        152        153        154        155        156        157
 occ. :        2.000      2.000      2.000      2.000      2.000      0.000      0.000      0.000
 eps  :       -10.845    -10.618    -10.555    -10.113     -9.199     -8.273     -8.024     -6.209
 #    :         158        159        160        161        162        163        164        165
 occ. :        0.000      0.000      0.000      0.000      0.000      0.000      0.000      0.000
 eps  :        -6.147     -6.060     -6.013     -5.808     -5.632     -2.680     -2.501     -0.988


   #   Z            q   n(s)   n(p)   n(d)      C6AA      α(0)
   1   7 N     -0.285  1.236  4.049  0.000    27.340     7.766
   2   6 C      0.026  1.063  2.911  0.000    20.118     6.384
   3   6 C      0.279  1.050  2.670  0.000    22.275     7.729
   4   8 O     -0.494  1.744  4.749  0.000    23.645     6.519
   5   6 C     -0.051  1.052  2.999  0.000    21.451     6.589
   6   6 C     -0.055  1.047  3.007  0.000    21.532     6.603
   7   6 C      0.020  1.047  2.933  0.000    20.288     6.421
   8   1 H      0.039  0.961  0.000  0.000     2.457     2.451
   9   1 H      0.029  0.971  0.000  0.000     2.603     2.523
  10   1 H      0.041  0.959  0.000  0.000     2.436     2.441
  11   1 H      0.034  0.966  0.000  0.000     2.526     2.486
  12   1 H      0.036  0.964  0.000  0.000     2.501     2.473
  13   1 H      0.031  0.969  0.000  0.000     2.566     2.505
  14   1 H      0.020  0.980  0.000  0.000     2.739     2.588
  15   7 N     -0.193  1.267  3.926  0.000    25.194     7.455
  16   6 C      0.030  1.058  2.913  0.000    20.073     6.378
  17   6 C      0.268  1.048  2.684  0.000    22.470     7.763
  18   8 O     -0.510  1.753  4.758  0.000    24.015     6.570
  19   6 C     -0.065  1.055  3.010  0.000    21.739     6.637
  20   6 C     -0.016  1.059  2.957  0.000    20.825     6.491
  21   6 C     -0.122  1.043  3.079  0.000    22.897     6.822
  22   6 C     -0.119  1.041  3.078  0.000    22.830     6.813
  23   1 H      0.229  0.771  0.000  0.000     0.972     1.544
  24   1 H      0.056  0.944  0.000  0.000     2.251     2.346
  25   1 H      0.045  0.955  0.000  0.000     2.381     2.413
  26   1 H      0.036  0.964  0.000  0.000     2.508     2.476
  27   1 H      0.051  0.949  0.000  0.000     2.310     2.377
  28   1 H      0.069  0.931  0.000  0.000     2.096     2.264
  29   1 H      0.040  0.960  0.000  0.000     2.443     2.444
  30   1 H      0.038  0.962  0.000  0.000     2.478     2.461
  31   1 H      0.071  0.929  0.000  0.000     2.078     2.254
  32   1 H      0.033  0.967  0.000  0.000     2.548     2.496
  33   1 H      0.029  0.971  0.000  0.000     2.603     2.523
  34   7 N     -0.103  1.237  3.866  0.000    23.256     7.162
  35   6 C      0.012  1.068  2.920  0.000    20.367     6.423
  36   6 C      0.274  1.041  2.684  0.000    22.364     7.745
  37   8 O     -0.485  1.742  4.743  0.000    23.454     6.493
  38   6 C     -0.067  1.055  3.012  0.000    21.755     6.635
  39   6 C     -0.072  1.051  3.021  0.000    21.859     6.652
  40   6 C      0.005  1.049  2.946  0.000    20.518     6.453
  41   1 H      0.072  0.928  0.000  0.000     2.069     2.249
  42   1 H      0.070  0.930  0.000  0.000     2.083     2.257
  43   1 H      0.066  0.934  0.000  0.000     2.127     2.281
  44   1 H      0.054  0.946  0.000  0.000     2.275     2.359
  45   1 H      0.068  0.932  0.000  0.000     2.104     2.268
  46   1 H      0.057  0.943  0.000  0.000     2.232     2.336
  47   1 H      0.055  0.945  0.000  0.000     2.258     2.350
  48   7 N     -0.181  1.249  3.933  0.000    24.921     7.414
  49   6 C      0.017  1.060  2.923  0.000    20.295     6.414
  50   6 C      0.276  1.041  2.683  0.000    22.333     7.738
  51   8 O     -0.470  1.741  4.729  0.000    23.133     6.449
  52   6 C      0.077  1.038  2.885  0.000    19.513     6.328
  53   8 O     -0.479  1.719  4.759  0.000    22.439     6.395
  54   1 H      0.219  0.781  0.000  0.000     1.014     1.577
  55   1 H      0.092  0.908  0.000  0.000     1.858     2.132
  56   1 H      0.042  0.958  0.000  0.000     2.424     2.435
  57   1 H      0.034  0.966  0.000  0.000     2.531     2.488
  58   1 H      0.350  0.650  0.000  0.000     0.587     1.204
  59   7 N     -0.159  1.239  3.920  0.000    24.436     7.342
  60   6 C      0.016  1.063  2.920  0.000    20.311     6.419
  61   6 C      0.196  1.089  2.715  0.000    23.810     7.991
  62   8 O     -0.374  1.770  4.604  0.000    21.169     6.169
  63   6 C     -0.091  1.058  3.033  0.000    22.226     6.712
  64   6 C     -0.073  1.051  3.022  0.000    21.899     6.662
  65   6 C     -0.096  1.057  3.039  0.000    22.331     6.728
  66   6 C     -0.049  1.058  2.992  0.000    21.556     6.627
  67   7 N     -0.147  1.242  3.905  0.000    24.166     7.301
  68   1 H      0.205  0.795  0.000  0.000     1.080     1.628
  69   1 H      0.116  0.884  0.000  0.000     1.642     2.004
  70   1 H      0.066  0.934  0.000  0.000     2.134     2.284
  71   1 H      0.080  0.920  0.000  0.000     1.975     2.197
  72   1 H      0.062  0.938  0.000  0.000     2.181     2.310
  73   1 H      0.051  0.949  0.000  0.000     2.304     2.374
  74   1 H      0.076  0.924  0.000  0.000     2.023     2.224
  75   1 H      0.083  0.917  0.000  0.000     1.952     2.185
  76   1 H      0.118  0.882  0.000  0.000     1.627     1.995
  77   1 H      0.114  0.886  0.000  0.000     1.661     2.015
  78   1 H      0.302  0.698  0.000  0.000     0.707     1.317
  79   1 H      0.293  0.707  0.000  0.000     0.734     1.342
  80   1 H      0.308  0.692  0.000  0.000     0.691     1.303
  81   7 N     -0.400  1.314  4.086  0.000    30.368     8.184
  82   6 C      0.026  1.060  2.914  0.000    20.151     6.394
  83   6 C      0.264  1.052  2.683  0.000    22.539     7.774
  84   8 O     -0.494  1.740  4.754  0.000    23.658     6.521
  85   6 C     -0.073  1.054  3.019  0.000    21.897     6.662
  86   6 C     -0.070  1.051  3.019  0.000    21.838     6.653
  87   6 C     -0.095  1.056  3.038  0.000    22.305     6.724
  88   6 C     -0.047  1.057  2.990  0.000    21.508     6.620
  89   7 N     -0.148  1.240  3.908  0.000    24.192     7.305
  90   1 H      0.172  0.828  0.000  0.000     1.261     1.759
  91   1 H      0.052  0.948  0.000  0.000     2.296     2.370
  92   1 H      0.051  0.949  0.000  0.000     2.307     2.375
  93   1 H      0.060  0.940  0.000  0.000     2.202     2.321
  94   1 H      0.050  0.950  0.000  0.000     2.316     2.380
  95   1 H      0.051  0.949  0.000  0.000     2.311     2.377
  96   1 H      0.079  0.921  0.000  0.000     1.989     2.205
  97   1 H      0.083  0.917  0.000  0.000     1.953     2.186
  98   1 H      0.110  0.890  0.000  0.000     1.701     2.039
  99   1 H      0.111  0.889  0.000  0.000     1.688     2.032
 100   1 H      0.306  0.694  0.000  0.000     0.696     1.308
 101   1 H      0.300  0.700  0.000  0.000     0.715     1.324
 102   1 H      0.300  0.700  0.000  0.000     0.715     1.324
 103   7 N     -0.178  1.242  3.937  0.000    24.863     7.406
 104   6 C      0.031  1.056  2.913  0.000    20.062     6.379
 105   6 C      0.199  1.090  2.710  0.000    23.757     7.982
 106   8 O     -0.352  1.755  4.596  0.000    20.737     6.105
 107   6 C     -0.108  1.066  3.042  0.000    22.559     6.761
 108   6 C      0.293  1.032  2.675  0.000    22.027     7.684
 109   8 O     -0.508  1.754  4.754  0.000    23.965     6.564
 110   7 N     -0.286  1.271  4.014  0.000    27.372     7.770
 111   1 H      0.230  0.770  0.000  0.000     0.967     1.540
 112   1 H      0.103  0.897  0.000  0.000     1.762     2.076
 113   1 H      0.101  0.899  0.000  0.000     1.780     2.086
 114   1 H      0.080  0.920  0.000  0.000     1.980     2.201
 115   1 H      0.242  0.758  0.000  0.000     0.916     1.499
 116   1 H      0.214  0.786  0.000  0.000     1.040     1.597
 117   1 H      0.171  0.829  0.000  0.000     1.267     1.763
 118   1 H      0.089  0.911  0.000  0.000     1.889     2.149
 119   1 H      0.181  0.819  0.000  0.000     1.209     1.722
 120   1 H      0.091  0.909  0.000  0.000     1.864     2.135

 Mol. C6AA /au·bohr⁶  :     118567.992730
 Mol. C8AA /au·bohr⁸  :    2596127.891737
 Mol. α(0) /au        :        511.629416

 
molecular dipole:
                 x           y           z       tot (Debye)
 q only:       43.058      66.883       4.798
   full:       42.676      67.735       5.168     203.915
molecular quadrupole (traceless):
                xx          xy          yy          xz          yz          zz
 q only:     -273.771    2123.413    1706.815      40.075     304.065   -1433.045
  q+dip:     -316.323    2113.272    1770.232      50.053     322.147   -1453.909
   full:     -313.669    2112.954    1768.077      50.303     320.559   -1454.407
speedup  2.00
cpu  time for grad    0.91 s
wall time for grad    0.46 s

SCC energy    :    -175.9547617
rep           :       2.1002468
ES            :       0.7020138
AES           :      -0.0364772
AXC           :       0.0672315
disp          :      -0.1244351
XB            :       0.0000000
fix           :       0.0000000
Gborn         :       0.0000000
Gsasa         :       0.0000000
Ghb           :       0.0000000
Gshift        :       0.0000000
Gsolv         :      -0.3499023     -219.57
Etot ala COSMO:    -175.9547617
grad norm     :       0.3266953
total E       :    -173.8486429
atomizationE  :      31.8790998    20004.44
(atE without considering molecular charge,
 total energy contains solvation terms)
H-L gap (eV)  :          0.9262

------------------------------------------------------------------------
 * finished run on 2019/05/10 at 16:39:40.164     
------------------------------------------------------------------------
 total:
 * wall-time:     0 d,  0 h,  0 min,  0.591 sec
 *  cpu-time:     0 d,  0 h,  0 min,  1.111 sec
 * ratio c/w:     1.879 speedup
 SCF:
 * wall-time:     0 d,  0 h,  0 min,  0.508 sec
 *  cpu-time:     0 d,  0 h,  0 min,  1.014 sec
 * ratio c/w:     1.998 speedup

