      -----------------------------------------------------------      
     |                   =====================                   |     
     |                           x T B                           |     
     |                   =====================                   |     
     |                         S. Grimme                         |     
     |          Mulliken Center for Theoretical Chemistry        |     
     |                    University of Bonn                     |     
     |                 Version 6.0.1 (SAW181210)                 |     
      -----------------------------------------------------------      

   This program is distributed in the hope that it will be useful,
   but WITHOUT ANY WARRANTY; without even the implied warranty of
   MERCHANTABILITY or FITNESS FOR A PARTICULAR PURPOSE.
   
   FOR NON-COMMERCIAL, ACADEMIA USE ONLY.
   
   Cite this work as:
   S. Grimme, C. Bannwarth, P. Shushkov, J. Comput. Theory Chem., 2017,
   13, 1989-2009.
   C. Bannwarth, S. Ehlert and S. Grimme., ChemRxiv, 2018, preprint.
   http://doi.org/10.26434/chemrxiv.7246238.v1
   
   for sTDA-xTB:
   S. Grimme and C. Bannwarth, J. Chem. Phys., 2016, 145, 054103.
   
   in the mass-spec context:
   V. Asgeirsson, C. Bauer and S. Grimme, Chem. Sci., 2017, 8, 4879.
   
   if GBSA is used:
   P. Shushkov, F. März and S. Grimme, unpublished.
   
   for ANC optimizer:
   S. Grimme, unpublished.
   Rational Function algorithm used in ANCopt:
   F. Eckert, P. Pulay, H.-J. Werner, J. Comput. Chem., 1997, 18, 1473.
   
   with help from (in alphabetical order)
   C. Bannwarth, F. Bohle, G. Brandenburg, E. Caldeweyher, M. Checinski,
   S. Dohm, S. Ehlert, S. Ehrlich, F. März, H. Neugebauer, J. Pisarek,
   P. Pracht, P. Shushkov, and S. Spicher.
   
 * started run on 2019/05/10 at 01:43:20.282     
========================================================================
 # omp threads = 2
========================================================================
number of atoms            : 453
number of electrons        : 1242
charge                     : -2
spin                       : .0
first test random number   : .3329

########################################################################
# WARNING! Please study the warnings concerning your input carefully
#  - Process number higher than OMP_NUM_THREADS, I hope you know what you are doing.
########################################################################

           ------------------------------------------------- 
          |                 G F N 2 - x T B                 |
          | Geometry, Frequencies, Noncovalent interactions |
          |            JCTC 2018 parametrisation            |
           ------------------------------------------------- 
 
      method parameters     
 k(s)        :  1.8500
 k(p)        :  2.2300
 k(d)        :  2.2300
 k(f)        :  2.0000
 kEN (H0ij)  : -2.0000
 D4 a1       :  0.5200
 D4 a2       :  5.0000
 D4 s6       :  1.0000
 D4 s8       :  2.7000
 D4 s9       :  5.0000
 alphaj      :  2.0000

 Solvent             : h2o
 Using internal parameter file: .param_gbsa2_h2o
 Gsolv ref. state (COSMO-RS): gsolv [1 M gas/solution]
 temperature (mdtemp)       :    298.150000000000     
 dielectric constant        :    80.2000000000000     
 rho                        :    1.00000000000000     
 mass                       :    18.0000000000000     
 surface tension            :    15.5689454083859     
 probe radius               :   0.975313790000000     
 vdW radii scaling          :    1.00000000000000     
 Gshift (Eh)                :   1.857443126794793E-003
 c1                         :    1.55243817000000     
 soset                      :   0.130326360000000     
 HB correction              :  T

            Z     q(EN)     CN     RAES       Cart. coordinates
     1  N   5.0   -0.22    3.26    1.97    39.18809    74.28983   143.47790
     2  C   4.0    0.02    4.30    4.20    37.15477    75.32015   141.96502
     3  C   4.0    0.14    3.39    3.08    36.71107    78.14073   142.48942
     4  O   6.0   -0.30    1.23    1.80    35.74603    79.53580   140.93349
     5  C   4.0   -0.04    4.34    4.27    34.84623    73.63325   142.41044
     6  C   4.0   -0.01    3.56    3.14    32.51142    74.36023   140.98282
     7  C   4.0   -0.03    3.48    3.11    30.76403    75.95758   142.11315
     8  C   4.0   -0.05    3.45    3.10    31.96760    73.28284   138.65098
     9  C   4.0   -0.04    3.37    3.07    28.45300    76.41503   140.99205
    10  C   4.0   -0.05    3.38    3.07    29.64384    73.72263   137.53656
    11  C   4.0   -0.04    3.38    3.07    27.88037    75.26169   138.71328
    12  H   1.0    0.07    1.02    1.43    38.70508    73.07310   144.91620
    13  H   1.0    0.04    1.05    1.44    37.69929    75.20798   139.96806
    14  H   1.0    0.03    1.03    1.43    35.41083    71.71402   141.90519
    15  H   1.0    0.04    1.03    1.43    34.43783    73.61885   144.43650
    16  H   1.0    0.05    1.03    1.43    31.16882    76.75395   143.94976
    17  H   1.0    0.04    1.03    1.43    33.32181    72.03225   137.78103
    18  H   1.0    0.05    1.03    1.43    27.09655    77.61685   141.92435
    19  H   1.0    0.04    1.03    1.43    29.16184    72.84615   135.76122
    20  H   1.0    0.05    1.03    1.43    26.06101    75.58986   137.85254
    21  N   5.0   -0.15    3.45    2.05    37.66200    79.00309   144.68970
    22  C   4.0    0.03    4.29    4.17    37.92255    81.69654   145.15868
    23  C   4.0    0.08    3.21    3.04    39.57776    82.96714   143.09659
    24  O   6.0   -0.30    1.15    1.80    39.24259    85.17455   142.52191
    25  C   4.0   -0.06    4.24    4.08    39.10912    82.18322   147.77016
    26  C   4.0   -0.06    4.15    3.90    37.24631    82.17775   149.99297
    27  C   4.0   -0.05    4.16    3.93    35.52908    84.51526   149.97148
    28  C   4.0   -0.03    4.11    3.82    34.08027    84.80698   152.45435
    29  N   5.0   -0.11    4.03    2.95    32.54519    87.15460   152.44630
    30  H   1.0    0.07    1.07    1.44    38.24178    77.77858   146.03488
    31  H   1.0    0.06    1.05    1.44    36.06923    82.61634   145.04672
    32  H   1.0    0.03    1.03    1.43    40.55917    80.75641   148.11173
    33  H   1.0    0.04    1.03    1.43    40.04048    84.02271   147.72479
    34  H   1.0    0.04    1.02    1.43    36.11221    80.45905   150.01196
    35  H   1.0    0.03    1.03    1.43    38.35008    82.19546   151.73296
    36  H   1.0    0.04    1.03    1.43    36.71224    86.18134   149.69522
    37  H   1.0    0.05    1.03    1.43    34.16389    84.39217   148.43517
    38  H   1.0    0.05    1.02    1.43    32.81121    83.20659   152.73807
    39  H   1.0    0.04    1.02    1.43    35.37734    84.90443   154.05445
    40  H   1.0    0.11    1.11    1.45    31.22659    87.29210   154.01527
    41  H   1.0    0.06    1.02    1.43    33.65636    88.73765   152.48733
    42  H   1.0    0.08    1.03    1.43    31.34984    87.23161   150.91461
    43  N   5.0   -0.21    3.23    1.96    38.00877    82.81200   134.64928
    44  C   4.0    0.03    4.29    4.17    36.04294    84.55320   133.88960
    45  C   4.0    0.15    3.54    3.14    36.54007    87.15162   135.06407
    46  O   6.0   -0.30    1.40    1.80    36.24133    87.43818   137.34643
    47  C   4.0   -0.04    4.33    4.26    33.51765    83.72752   135.10550
    48  C   4.0   -0.05    4.18    3.97    32.61125    81.06998   134.46801
    49  C   4.0   -0.05    4.18    3.95    31.45620    80.87558   131.82950
    50  C   4.0   -0.04    4.12    3.83    30.87234    78.13893   131.14996
    51  N   5.0   -0.13    4.00    2.87    33.20025    76.89023   130.10074
    52  H   1.0    0.10    1.03    1.43    38.72063    83.12052   136.39109
    53  H   1.0    0.03    1.04    1.43    35.96943    84.61999   131.82981
    54  H   1.0    0.06    1.05    1.44    33.84065    83.80767   137.13799
    55  H   1.0    0.05    1.03    1.43    32.08515    85.12175   134.60471
    56  H   1.0    0.04    1.03    1.43    34.18130    79.76531   134.70441
    57  H   1.0    0.04    1.03    1.43    31.19711    80.53141   135.86833
    58  H   1.0    0.04    1.03    1.43    29.71728    81.97617   131.76919
    59  H   1.0    0.03    1.03    1.43    32.73843    81.68327   130.43579
    60  H   1.0    0.04    1.02    1.43    30.22883    77.15127   132.83983
    61  H   1.0    0.04    1.02    1.43    29.35423    78.05915   129.76646
    62  H   1.0    0.04    1.02    1.43    33.05535    76.74314   128.16875
    63  H   1.0    0.04    1.02    1.43    34.78043    78.01077   130.50657
    64  H   1.0    0.05    1.02    1.43    33.40473    75.11267   130.85693
    65  N   5.0   -0.13    3.48    2.07    37.09037    89.13944   133.59963
    66  C   4.0    0.04    4.43    4.43    36.78359    91.60214   134.76977
    67  C   4.0    0.16    3.56    3.14    34.05172    91.63320   135.76825
    68  O   6.0   -0.31    1.41    1.80    32.40639    90.46316   134.62894
    69  C   4.0    0.02    4.13    3.87    37.18787    93.73682   132.84437
    70  O   6.0   -0.27    2.06    1.83    39.57144    93.40581   131.72268
    71  H   1.0    0.07    1.06    1.44    37.49397    89.03684   131.74331
    72  H   1.0    0.05    1.05    1.44    38.13150    91.80156   136.32892
    73  H   1.0    0.04    1.01    1.43    35.68994    93.67424   131.40536
    74  H   1.0    0.03    1.01    1.43    37.05768    95.54398   133.85067
    75  H   1.0    0.11    1.02    1.43    40.09225    94.94562   130.90787
    76  N   5.0   -0.15    3.44    2.04    33.51543    93.04064   137.79195
    77  C   4.0    0.03    4.39    4.36    30.93558    93.21711   138.77133
    78  C   4.0    0.16    3.55    3.14    29.04169    93.16337   136.58210
    79  O   6.0   -0.32    1.33    1.80    27.37793    91.55176   136.47829
    80  C   4.0   -0.05    4.33    4.25    30.77445    95.57267   140.47312
    81  C   4.0   -0.02    4.17    3.94    28.23482    96.97012   140.65405
    82  C   4.0   -0.07    4.12    3.84    25.97593    95.24656   141.10707
    83  C   4.0   -0.07    4.12    3.83    28.41616    98.86629   142.83477
    84  H   1.0    0.07    1.06    1.44    34.88871    93.85887   138.83548
    85  H   1.0    0.06    1.05    1.44    30.48688    91.52914   139.89265
    86  H   1.0    0.04    1.03    1.43    31.29171    94.99100   142.38284
    87  H   1.0    0.04    1.03    1.43    32.16453    96.96194   139.84473
    88  H   1.0    0.04    1.05    1.44    27.90301    98.03557   138.91040
    89  H   1.0    0.06    1.00    1.43    24.26398    96.36441   141.32305
    90  H   1.0    0.06    1.02    1.43    25.68907    93.92257   139.57399
    91  H   1.0    0.05    1.00    1.43    26.20984    94.16341   142.83946
    92  H   1.0    0.05    1.00    1.43    26.80734   100.14700   142.83515
    93  H   1.0    0.04    1.00    1.43    28.41708    97.88361   144.64320
    94  H   1.0    0.04    1.00    1.43    30.11427   100.01919   142.71856
    95  N   5.0   -0.15    3.48    2.07    29.32802    94.93172   134.79904
    96  C   4.0    0.03    4.33    4.25    27.54481    95.24788   132.73228
    97  C   4.0    0.16    3.48    3.11    26.91430    92.73212   131.43336
    98  O   6.0   -0.30    1.25    1.80    24.72304    92.19779   130.89026
    99  C   4.0   -0.08    4.12    3.83    28.64462    97.08594   130.80231
   100  H   1.0    0.07    1.07    1.44    30.54733    96.37168   135.09289
   101  H   1.0    0.05    1.05    1.44    25.74794    95.98935   133.46166
   102  H   1.0    0.04    1.00    1.43    27.34077    97.29396   129.22891
   103  H   1.0    0.04    1.00    1.43    28.89935    98.93166   131.67009
   104  H   1.0    0.04    1.00    1.43    30.44219    96.39791   130.08914
   105  N   5.0   -0.15    3.49    2.07    28.90586    91.31540   130.76345
   106  C   4.0    0.03    4.46    4.48    28.54017    89.05069   129.24335
   107  C   4.0    0.16    3.48    3.11    26.47239    87.39431   130.44246
   108  O   6.0   -0.30    1.22    1.80    24.81472    86.34480   129.22911
   109  C   4.0   -0.03    4.30    4.19    30.97263    87.44996   128.89115
   110  C   4.0   -0.05    4.16    3.93    33.43921    88.92692   128.42187
   111  C   4.0   -0.08    4.13    3.87    30.53105    85.53151   126.77342
   112  C   4.0   -0.09    4.01    3.64    33.86553    89.94513   125.75763
   113  H   1.0    0.11    1.10    1.44    30.51505    91.42739   131.80392
   114  H   1.0    0.05    1.05    1.44    27.81063    89.65670   127.40037
   115  H   1.0    0.04    1.06    1.44    31.24336    86.44513   130.67744
   116  H   1.0    0.05    1.03    1.43    33.55764    90.47694   129.76707
   117  H   1.0    0.03    1.03    1.43    34.98006    87.62029   128.83689
   118  H   1.0    0.03    1.00    1.43    32.19541    84.35672   126.53524
   119  H   1.0    0.05    1.00    1.43    28.90346    84.35399   127.19140
   120  H   1.0    0.04    1.00    1.43    30.15485    86.49914   125.00237
   121  H   1.0    0.03    1.00    1.43    35.56142    91.10718   125.73721
   122  H   1.0    0.03    1.00    1.43    34.14014    88.41433   124.41936
   123  H   1.0    0.04    1.00    1.43    32.29136    91.09847   125.12375
   124  N   5.0   -0.14    3.49    2.07    26.77314    87.00058   132.94985
   125  C   4.0    0.04    4.41    4.40    25.04042    85.38490   134.31420
   126  C   4.0    0.15    3.49    3.11    22.63298    86.68563   135.21192
   127  O   6.0   -0.32    1.32    1.80    20.70990    85.46389   135.66373
   128  C   4.0   -0.05    4.25    4.10    26.30516    84.08237   136.57985
   129  C   4.0   -0.04    4.18    3.97    26.81810    85.79956   138.86959
   130  C   4.0   -0.00    4.20    4.00    29.62178    85.85937   139.56560
   131  N   5.0   -0.13    3.42    2.03    29.94227    86.90778   142.07958
   132  C   4.0    0.10    3.34    3.06    32.11526    87.18350   143.29704
   133  N   5.0   -0.17    3.28    1.98    34.32768    86.89789   142.16660
   134  N   5.0   -0.18    3.24    1.97    32.03853    87.65539   145.80907
   135  H   1.0    0.10    1.07    1.44    27.93008    88.13192   133.96908
   136  H   1.0    0.06    1.07    1.44    24.43166    83.92643   132.96722
   137  H   1.0    0.04    1.03    1.43    25.04119    82.55175   137.12263
   138  H   1.0    0.04    1.04    1.43    28.06012    83.24930   135.91099
   139  H   1.0    0.06    1.04    1.43    26.18544    87.72421   138.50791
   140  H   1.0    0.05    1.03    1.43    25.74584    85.12196   140.49753
   141  H   1.0    0.05    1.02    1.43    30.37707    83.93339   139.54418
   142  H   1.0    0.06    1.02    1.43    30.63951    87.02770   138.19560
   143  H   1.0    0.11    1.12    1.45    28.35409    87.11195   143.15998
   144  H   1.0    0.12    1.07    1.44    34.52271    86.76780   140.26197
   145  H   1.0    0.11    1.05    1.44    35.98788    87.07221   143.10359
   146  H   1.0    0.11    1.05    1.44    30.28725    87.91791   146.54516
   147  H   1.0    0.08    1.03    1.43    33.47195    88.64934   146.57515
   148  N   5.0   -0.14    3.55    2.12    22.75489    89.19083   135.47592
   149  C   4.0    0.04    4.47    4.50    20.57077    90.59418   136.32666
   150  C   4.0    0.16    3.53    3.13    18.29748    89.83695   134.69837
   151  O   6.0   -0.31    1.27    1.80    16.17797    89.48494   135.56694
   152  C   4.0   -0.04    4.28    4.16    21.09616    93.42468   136.12421
   153  C   4.0   -0.04    4.23    4.05    19.00443    95.01654   137.32549
   154  C   4.0    0.15    3.25    3.04    18.58274    94.24334   140.06161
   155  O   6.0   -0.30    1.20    1.80    19.78213    95.13188   141.82074
   156  N   5.0   -0.19    3.20    1.96    16.77800    92.48143   140.38110
   157  H   1.0    0.12    1.11    1.45    24.41207    90.13843   135.29999
   158  H   1.0    0.05    1.06    1.44    20.15960    90.07993   138.29411
   159  H   1.0    0.05    1.03    1.43    22.86865    93.81720   137.09538
   160  H   1.0    0.06    1.03    1.43    21.30193    93.93284   134.13407
   161  H   1.0    0.05    1.03    1.43    19.56932    96.99761   137.30308
   162  H   1.0    0.05    1.03    1.43    17.24958    94.80585   136.26794
   163  H   1.0    0.10    1.04    1.44    15.94958    91.61369   138.89300
   164  H   1.0    0.09    1.03    1.43    16.38534    91.89045   142.14569
   165  N   5.0   -0.13    3.54    2.11    18.86700    89.58060   132.25723
   166  C   4.0    0.04    4.43    4.43    16.98319    88.78628   130.43495
   167  C   4.0    0.16    3.47    3.10    15.73425    86.36045   131.40975
   168  O   6.0   -0.31    1.31    1.80    13.44628    86.19020   131.71582
   169  C   4.0   -0.04    4.27    4.14    18.18566    88.36509   127.83230
   170  C   4.0   -0.03    4.16    3.93    16.21473    88.27387   125.72828
   171  C   4.0    0.25    3.09    3.02    15.39754    90.98347   124.86367
   172  O   6.0   -0.29    1.18    1.80    15.44439    92.69636   126.48233
   173  O   6.0   -0.30    1.16    1.80    14.77529    91.19568   122.59991
   174  H   1.0    0.10    1.08    1.44    20.59097    90.10321   131.61741
   175  H   1.0    0.07    1.05    1.44    15.51942    90.24626   130.24884
   176  H   1.0    0.06    1.03    1.43    19.45060    89.95570   127.45930
   177  H   1.0    0.05    1.02    1.43    19.32011    86.63897   127.84289
   178  H   1.0    0.05    1.02    1.43    16.95529    87.30708   124.06728
   179  H   1.0    0.05    1.02    1.43    14.51194    87.28238   126.34646
   180  N   5.0   -0.14    3.54    2.10    17.32964    84.44465   131.81154
   181  C   4.0    0.03    4.41    4.39    16.59095    81.82264   132.21729
   182  C   4.0    0.16    3.45    3.09    14.83868    81.55634   134.49290
   183  O   6.0   -0.31    1.25    1.80    13.01398    80.13238   134.49739
   184  C   4.0   -0.04    4.28    4.17    18.97867    80.21394   132.47124
   185  C   4.0   -0.03    4.16    3.92    18.46031    77.39936   132.17718
   186  C   4.0    0.24    3.09    3.02    20.93047    75.91682   131.46846
   187  O   6.0   -0.32    1.19    1.80    20.62491    73.83599   130.38435
   188  O   6.0   -0.31    1.18    1.80    22.97832    76.89709   132.04083
   189  H   1.0    0.09    1.08    1.44    19.20112    84.77314   131.64695
   190  H   1.0    0.05    1.05    1.44    15.50779    81.18919   130.56011
   191  H   1.0    0.06    1.03    1.43    20.27418    80.77718   130.96188
   192  H   1.0    0.06    1.02    1.43    19.90055    80.61957   134.27056
   193  H   1.0    0.05    1.02    1.43    17.69118    76.61251   133.92477
   194  H   1.0    0.05    1.02    1.43    17.07406    77.06518   130.68476
   195  N   5.0   -0.14    3.53    2.10    15.50982    83.01365   136.43402
   196  C   4.0    0.03    4.51    4.55    13.95922    83.32111   138.66369
   197  C   4.0    0.16    3.51    3.12    11.21784    83.88554   137.89013
   198  O   6.0   -0.31    1.25    1.80     9.42237    82.58248   138.54296
   199  C   4.0   -0.02    4.31    4.22    14.94701    85.52537   140.25850
   200  C   4.0   -0.08    4.14    3.88    13.23392    85.83580   142.55618
   201  C   4.0   -0.07    4.12    3.83    17.69173    85.11657   141.03173
   202  H   1.0    0.11    1.10    1.44    17.04362    84.13858   136.23662
   203  H   1.0    0.05    1.05    1.44    13.96715    81.56582   139.76824
   204  H   1.0    0.06    1.07    1.44    14.86545    87.23090   139.09484
   205  H   1.0    0.04    1.00    1.43    13.63811    87.60586   143.51493
   206  H   1.0    0.05    1.01    1.43    11.26099    85.85544   141.99435
   207  H   1.0    0.04    1.00    1.43    13.53747    84.28097   143.86494
   208  H   1.0    0.04    1.00    1.43    18.34320    86.73035   142.12507
   209  H   1.0    0.05    1.00    1.43    17.90266    83.43670   142.19742
   210  H   1.0    0.06    1.01    1.43    18.92541    84.94572   139.40156
   211  N   5.0   -0.14    3.52    2.09    10.96295    86.02542   136.56446
   212  C   4.0    0.04    4.34    4.28     8.51986    86.94959   135.73751
   213  C   4.0    0.16    3.44    3.09     7.21281    85.03349   134.00630
   214  O   6.0   -0.31    1.26    1.80     4.97597    84.51186   134.27657
   215  C   4.0   -0.07    4.11    3.83     8.81849    89.47323   134.38877
   216  H   1.0    0.11    1.08    1.44    12.50015    86.93116   135.87916
   217  H   1.0    0.05    1.05    1.44     7.29314    87.17059   137.39782
   218  H   1.0    0.04    1.00    1.43     6.99093    90.12448   133.71936
   219  H   1.0    0.05    1.00    1.43     9.59776    90.87803   135.66768
   220  H   1.0    0.06    1.00    1.43    10.08468    89.27004   132.78239
   221  N   5.0   -0.14    3.41    2.03     8.69787    84.02740   132.23324
   222  C   4.0    0.02    4.24    4.07     7.76288    82.33830   130.29982
   223  C   4.0    0.16    3.32    3.06     6.51621    79.93771   131.32729
   224  O   6.0   -0.30    1.22    1.80     4.70882    79.00954   130.21647
   225  H   1.0    0.12    1.12    1.45    10.50597    84.64500   132.07618
   226  H   1.0    0.05    1.02    1.43     6.35884    83.29282   129.11146
   227  H   1.0    0.04    1.03    1.43     9.35195    81.77632   129.11035
   228  N   5.0   -0.14    3.47    2.06     7.53866    78.96372   133.43997
   229  C   4.0    0.04    4.48    4.51     6.60249    76.61054   134.51811
   230  C   4.0    0.15    3.47    3.10     4.51157    77.14011   136.45100
   231  O   6.0   -0.29    1.22    1.80     2.64543    75.77389   136.57574
   232  C   4.0   -0.02    4.30    4.21     8.71825    74.89708   135.58750
   233  C   4.0   -0.05    4.18    3.96     8.22111    72.12046   134.90182
   234  C   4.0   -0.07    4.14    3.89     9.02062    75.17465   138.43599
   235  C   4.0   -0.08    4.01    3.64     8.79815    71.55647   132.13401
   236  H   1.0    0.11    1.08    1.44     9.20207    79.65244   134.09179
   237  H   1.0    0.06    1.07    1.44     5.65886    75.61804   132.95897
   238  H   1.0    0.05    1.06    1.44    10.49633    75.47138   134.69364
   239  H   1.0    0.04    1.03    1.43     9.43552    70.92010   136.06140
   240  H   1.0    0.05    1.02    1.43     6.25889    71.66030   135.33964
   241  H   1.0    0.04    1.00    1.43    10.54310    73.94464   139.06830
   242  H   1.0    0.05    1.00    1.43     9.49941    77.10708   138.93704
   243  H   1.0    0.05    1.01    1.43     7.28911    74.63212   139.40174
   244  H   1.0    0.04    1.00    1.43     8.42462    69.58156   131.71801
   245  H   1.0    0.04    1.00    1.43     7.69279    72.75053   130.87793
   246  H   1.0    0.04    1.00    1.43    10.79004    71.90844   131.75448
   247  N   5.0   -0.14    3.52    2.09     4.85130    79.20315   137.86421
   248  C   4.0    0.04    4.41    4.40     2.89459    80.08533   139.55371
   249  C   4.0    0.16    3.47    3.10     0.54134    80.84695   138.06585
   250  O   6.0   -0.29    1.24    1.80    -1.51656    80.94564   139.10420
   251  C   4.0   -0.04    4.25    4.09     3.75373    82.31842   141.19245
   252  C   4.0   -0.05    4.16    3.92     4.46629    81.63889   143.91669
   253  C   4.0   -0.01    4.18    3.96     2.23242    80.75626   145.54375
   254  N   5.0   -0.15    3.39    2.02     2.77108    81.24574   148.20236
   255  C   4.0    0.09    3.33    3.06     1.35614    80.54600   150.15636
   256  N   5.0   -0.19    3.25    1.97    -0.88597    79.47251   149.85771
   257  N   5.0   -0.19    3.24    1.97     2.16880    81.02368   152.50165
   258  H   1.0    0.11    1.09    1.44     6.46278    80.22564   137.73755
   259  H   1.0    0.05    1.06    1.44     2.29454    78.49531   140.74458
   260  H   1.0    0.06    1.04    1.43     5.39160    83.16493   140.27352
   261  H   1.0    0.05    1.04    1.43     2.24370    83.72190   141.22830
   262  H   1.0    0.04    1.02    1.43     5.93822    80.19903   143.89516
   263  H   1.0    0.04    1.03    1.43     5.25427    83.34983   144.75645
   264  H   1.0    0.05    1.02    1.43     0.51434    81.76030   144.97614
   265  H   1.0    0.04    1.02    1.43     1.90564    78.73026   145.29707
   266  H   1.0    0.07    1.07    1.44     4.43342    82.10839   148.57928
   267  H   1.0    0.08    1.02    1.43    -1.71406    79.22387   148.14228
   268  H   1.0    0.07    1.04    1.43    -1.88290    78.95733   151.38956
   269  H   1.0    0.08    1.03    1.43     3.91427    81.71287   152.84987
   270  H   1.0    0.08    1.03    1.43     1.09301    80.57903   154.00326
   271  N   5.0   -0.13    3.50    2.07     0.84111    81.36195   135.61143
   272  C   4.0    0.04    4.26    4.11    -1.35401    82.06957   134.12549
   273  C   4.0    0.09    3.21    3.04    -2.98076    79.71125   133.60945
   274  O   6.0   -0.29    1.11    1.80    -5.22377    79.61434   134.13647
   275  C   4.0   -0.07    4.10    3.80    -0.53526    83.28534   131.64568
   276  H   1.0    0.11    1.10    1.44     2.56398    81.81293   134.91060
   277  H   1.0    0.06    1.05    1.44    -2.53524    83.36588   135.23465
   278  H   1.0    0.04    1.00    1.43    -2.18523    83.77138   130.52688
   279  H   1.0    0.05    1.00    1.43     0.55022    84.98303   132.04117
   280  H   1.0    0.06    1.00    1.43     0.65374    81.98873   130.58209
   281  N   5.0   -0.16    3.43    2.04    10.31594    73.30239   149.00008
   282  C   4.0    0.02    4.37    4.32    12.53591    72.37095   147.65613
   283  C   4.0    0.07    3.19    3.03    14.86232    72.35340   149.40565
   284  O   6.0   -0.30    1.13    1.80    15.78399    74.30751   150.25475
   285  C   4.0   -0.04    4.34    4.28    12.82730    74.28303   145.51295
   286  C   4.0   -0.03    4.26    4.12    11.97616    76.76739   146.70427
   287  C   4.0   -0.00    4.23    4.07     9.87811    75.98309   148.54831
   288  H   1.0    0.03    1.04    1.43    12.20161    70.44474   146.99565
   289  H   1.0    0.04    1.02    1.43    14.75655    74.36338   144.81835
   290  H   1.0    0.03    1.02    1.43    11.57240    73.75315   143.96524
   291  H   1.0    0.07    1.03    1.43    13.52717    77.62336   147.74957
   292  H   1.0    0.04    1.02    1.43    11.30989    78.10294   145.29289
   293  H   1.0    0.05    1.02    1.43    10.00529    77.05963   150.30195
   294  H   1.0    0.03    1.02    1.43     8.01105    76.23427   147.69906
   295  N   5.0   -0.21    3.27    1.97    23.75770    64.29150   141.66638
   296  C   4.0    0.03    4.20    4.00    21.52423    65.84196   142.04711
   297  C   4.0    0.07    3.19    3.03    19.29796    63.99322   142.33405
   298  O   6.0   -0.31    1.13    1.80    18.92780    62.33460   140.75969
   299  C   4.0   -0.05    4.21    4.02    21.22086    67.79132   139.87335
   300  C   4.0   -0.05    4.21    4.03    22.20120    66.76818   137.35798
   301  C   4.0   -0.05    4.15    3.90    21.56643    68.42807   135.07382
   302  C   4.0   -0.04    4.12    3.85    22.25078    67.04530   132.61757
   303  N   5.0   -0.12    4.01    2.90    20.99778    68.22410   130.39607
   304  H   1.0    0.09    1.03    1.43    23.67191    63.05836   140.20987
   305  H   1.0    0.03    1.05    1.44    21.76203    66.85643   143.83042
   306  H   1.0    0.04    1.03    1.43    19.22859    68.30377   139.71346
   307  H   1.0    0.04    1.02    1.43    22.25693    69.50175   140.37889
   308  H   1.0    0.03    1.03    1.43    24.24877    66.56398   137.47210
   309  H   1.0    0.05    1.03    1.43    21.34822    64.91246   137.06398
   310  H   1.0    0.05    1.05    1.44    19.54828    68.84882   135.09371
   311  H   1.0    0.05    1.02    1.43    22.56989    70.22499   135.18221
   312  H   1.0    0.03    1.02    1.43    24.28960    67.09143   132.32621
   313  H   1.0    0.04    1.04    1.43    21.64064    65.07935   132.70685
   314  H   1.0    0.05    1.02    1.43    21.48842    67.28955   128.76435
   315  H   1.0    0.05    1.02    1.43    19.06950    68.17570   130.61497
   316  H   1.0    0.08    1.04    1.43    21.44579    70.14049   130.24666
   317  N   5.0   -0.18    3.24    1.96    20.60688    86.03364   157.22005
   318  C   4.0    0.04    4.32    4.23    22.65842    87.66453   156.46989
   319  C   4.0    0.17    3.46    3.10    21.68085    90.04159   155.11634
   320  O   6.0   -0.25    1.27    1.80    19.47153    90.41521   154.57245
   321  C   4.0   -0.02    4.30    4.20    24.40936    86.19187   154.71388
   322  C   4.0    0.23    3.17    3.03    26.90512    87.49808   153.97900
   323  O   6.0   -0.32    1.31    1.80    28.66425    87.45734   155.59572
   324  O   6.0   -0.30    1.19    1.80    27.14711    88.36291   151.80767
   325  H   1.0    0.13    1.07    1.44    20.15369    84.67077   155.95408
   326  H   1.0    0.05    1.05    1.44    23.67187    88.28555   158.17939
   327  H   1.0    0.05    1.03    1.43    24.92362    84.43168   155.66392
   328  H   1.0    0.09    1.04    1.43    23.37434    85.75833   152.98480
   329  N   5.0   -0.13    3.62    2.18    23.59288    91.61053   154.50837
   330  C   4.0    0.05    4.41    4.40    23.21699    94.01073   153.25687
   331  C   4.0    0.17    3.50    3.11    21.50603    93.49604   150.99512
   332  O   6.0   -0.28    1.21    1.80    19.68505    94.82827   150.49168
   333  C   4.0   -0.04    4.21    4.02    25.74064    95.19403   152.41202
   334  C   4.0   -0.03    4.17    3.95    28.04440    94.49168   154.02380
   335  C   4.0    0.25    3.07    3.02    27.94205    94.71231   156.99510
   336  O   6.0   -0.29    1.17    1.80    25.89651    95.15239   158.07752
   337  O   6.0   -0.29    1.17    1.80    30.02189    94.35038   158.04421
   338  H   1.0    0.10    1.12    1.45    25.20371    91.47265   155.50602
   339  H   1.0    0.07    1.05    1.44    22.22529    95.32429   154.52768
   340  H   1.0    0.05    1.03    1.43    26.13065    94.57886   150.47674
   341  H   1.0    0.05    1.02    1.43    25.48551    97.23958   152.39030
   342  H   1.0    0.06    1.03    1.43    28.55148    92.52499   153.64651
   343  H   1.0    0.05    1.03    1.43    29.63969    95.65611   153.42747
   344  N   5.0   -0.12    3.54    2.10    22.28422    91.55062   149.55687
   345  C   4.0    0.04    4.41    4.40    20.62494    90.37330   147.72519
   346  C   4.0    0.17    3.48    3.11    19.14803    88.23333   149.00062
   347  O   6.0   -0.26    1.32    1.80    19.77635    87.25232   150.97095
   348  C   4.0   -0.03    4.26    4.11    22.11466    89.34999   145.48629
   349  C   4.0    0.26    3.13    3.03    24.09501    87.33257   146.36964
   350  O   6.0   -0.30    1.21    1.80    23.29820    85.43139   147.48133
   351  O   6.0   -0.31    1.25    1.80    26.32695    87.79604   145.76693
   352  H   1.0    0.11    1.09    1.44    23.65364    90.42075   150.28771
   353  H   1.0    0.06    1.06    1.44    19.30084    91.85357   147.12414
   354  H   1.0    0.04    1.03    1.43    20.81464    88.44456   144.16729
   355  H   1.0    0.06    1.02    1.43    23.08786    90.89679   144.53309
   356  N   5.0   -0.15    3.37    2.01    17.05111    87.48523   147.72205
   357  C   4.0    0.02    4.26    4.13    15.17374    85.98545   149.01011
   358  C   4.0    0.16    3.35    3.07    15.85575    83.22817   149.42574
   359  O   6.0   -0.30    1.24    1.80    14.23354    81.81135   150.30389
   360  H   1.0    0.07    1.06    1.44    16.46453    88.52006   146.23746
   361  H   1.0    0.07    1.03    1.43    14.88385    86.75270   150.92021
   362  H   1.0    0.04    1.03    1.43    13.38251    86.08238   147.99520
   363  N   5.0   -0.12    3.49    2.07    18.15400    82.41610   148.80779
   364  C   4.0    0.04    4.36    4.31    18.98117    79.97842   149.74579
   365  C   4.0    0.09    3.23    3.04    19.50464    80.11358   152.59007
   366  O   6.0   -0.29    1.18    1.80    20.28382    82.02832   153.62205
   367  C   4.0   -0.03    4.35    4.28    21.45853    79.23531   148.45478
   368  C   4.0   -0.01    3.55    3.14    21.16649    78.58134   145.70333
   369  C   4.0   -0.04    3.48    3.10    19.43708    76.76920   144.92812
   370  C   4.0   -0.04    3.47    3.10    22.72168    79.69356   143.90860
   371  C   4.0   -0.05    3.38    3.07    19.27373    76.07615   142.40998
   372  C   4.0   -0.04    3.38    3.07    22.55435    79.00228   141.39279
   373  C   4.0   -0.04    3.37    3.07    20.84002    77.17919   140.63318
   374  H   1.0    0.11    1.09    1.44    19.54798    83.67557   148.43558
   375  H   1.0    0.06    1.05    1.44    17.48153    78.59747   149.39990
   376  H   1.0    0.06    1.04    1.43    22.75321    80.82702   148.64250
   377  H   1.0    0.04    1.03    1.43    22.27594    77.62193   149.45757
   378  H   1.0    0.06    1.03    1.43    18.25789    75.86118   146.32465
   379  H   1.0    0.06    1.03    1.43    24.06030    81.11832   144.49831
   380  H   1.0    0.04    1.03    1.43    17.94728    74.64682   141.82107
   381  H   1.0    0.05    1.03    1.43    23.75230    79.89373   140.00345
   382  H   1.0    0.05    1.03    1.43    20.72019    76.63742   138.66888
   383  N   5.0   -0.19    3.22    1.96    24.66576    76.30887   156.56284
   384  C   4.0    0.03    4.20    4.00    26.87367    74.73674   156.19520
   385  C   4.0    0.07    3.19    3.04    27.38983    73.18841   158.62027
   386  O   6.0   -0.30    1.12    1.80    27.40265    74.20316   160.71471
   387  C   4.0   -0.04    4.31    4.23    29.19682    76.38191   155.63866
   388  C   4.0   -0.02    3.52    3.12    29.26180    77.65548   153.08734
   389  C   4.0   -0.04    3.46    3.10    27.54481    79.53049   152.38534
   390  C   4.0   -0.05    3.46    3.10    31.21747    77.08711   151.42986
   391  C   4.0   -0.03    3.42    3.09    27.79070    80.84675   150.14212
   392  C   4.0   -0.05    3.44    3.09    31.45663    78.35801   149.16433
   393  C   4.0    0.07    3.45    3.09    29.77277    80.26896   148.51192
   394  O   6.0   -0.24    2.11    1.84    30.06088    81.61750   146.35151
   395  H   1.0    0.09    1.03    1.43    24.89578    77.88971   157.60285
   396  H   1.0    0.03    1.05    1.44    26.46401    73.42759   154.64834
   397  H   1.0    0.05    1.03    1.43    29.29168    77.82441   157.11913
   398  H   1.0    0.04    1.04    1.43    30.86718    75.18261   155.80723
   399  H   1.0    0.05    1.03    1.43    26.00379    80.03919   153.62788
   400  H   1.0    0.04    1.03    1.43    32.59549    75.65894   151.91137
   401  H   1.0    0.08    1.03    1.43    26.50743    82.36418   149.67614
   402  H   1.0    0.04    1.03    1.43    32.99742    77.87675   147.91244
   403  H   1.0    0.12    1.04    1.43    31.47297    80.94690   145.39008
   404  N   5.0   -0.25    2.96    1.92    18.95474    62.43914   130.46869
   405  C   4.0   -0.07    3.30    3.05    15.65140    63.11303   134.66991
   406  C   4.0    0.08    3.15    3.03    14.19211    61.26385   135.84201
   407  O   6.0   -0.30    1.14    1.80    11.88199    60.81193   135.38672
   408  C   4.0   -0.02    4.23    4.06    14.21862    65.44108   133.79978
   409  C   4.0   -0.02    3.53    3.13    14.31007    67.45356   135.82911
   410  C   4.0   -0.04    3.46    3.10    13.54319    66.85319   138.24848
   411  C   4.0   -0.05    3.45    3.10    15.33493    69.83452   135.33764
   412  C   4.0   -0.05    3.34    3.06    13.79419    68.66002   140.21656
   413  C   4.0   -0.05    3.33    3.06    15.55706    71.67025   137.30320
   414  C   4.0   -0.05    3.36    3.07    14.76524    71.02521   139.68394
   415  H   1.0    0.08    1.00    1.43    17.61901    63.81526   130.47385
   416  H   1.0    0.08    1.01    1.43    19.19707    62.10289   132.34609
   417  H   1.0    0.08    0.99    1.43    18.00566    60.88330   129.85209
   418  H   1.0    0.05    1.03    1.43    17.37028    63.59158   135.71545
   419  H   1.0    0.03    1.02    1.43    14.94308    66.29969   132.05052
   420  H   1.0    0.05    1.03    1.43    12.24005    64.89867   133.49460
   421  H   1.0    0.06    1.02    1.43    12.71108    65.01907   138.69965
   422  H   1.0    0.05    1.02    1.43    15.60724    70.50099   133.42213
   423  H   1.0    0.04    1.01    1.43    13.18930    68.25596   142.16303
   424  H   1.0    0.05    1.02    1.43    16.18110    73.60037   136.93100
   425  H   1.0    0.04    1.02    1.43    14.81514    72.40220   141.22554
   426  N   5.0   -0.23    2.27    1.90    23.59288   110.43737   147.47204
   427  C   4.0    0.09    4.12    3.84    23.21699   108.03716   148.72354
   428  C   4.0    0.06    2.24    3.00    21.50603   108.55186   150.98529
   429  O   6.0   -0.27    1.08    1.80    19.68505   107.21963   151.48873
   430  C   4.0   -0.04    4.20    4.00    25.74064   106.85387   149.56839
   431  C   4.0   -0.04    4.17    3.94    28.04440   107.55622   147.95661
   432  C   4.0    0.24    3.07    3.02    27.94205   107.33559   144.98531
   433  O   6.0   -0.29    1.17    1.80    25.89651   106.89551   143.90289
   434  O   6.0   -0.30    1.17    1.80    30.02189   107.69752   143.93620
   435  H   1.0    0.12    1.05    1.44    25.20371   110.57525   146.47439
   436  H   1.0    0.07    1.05    1.44    22.22529   106.72360   147.45273
   437  H   1.0    0.04    1.03    1.43    26.13065   107.46904   151.50367
   438  H   1.0    0.05    1.02    1.43    25.48551   104.80831   149.59011
   439  H   1.0    0.04    1.03    1.43    28.55148   109.52291   148.33390
   440  H   1.0    0.04    1.03    1.43    29.63969   106.39179   148.55294
   441  H   1.0    0.08    1.07    1.44    40.24834    73.41024   142.48054
   442  H   1.0    0.05    1.04    1.43    40.93144    81.97527   142.22780
   443  H   1.0    0.09    1.09    1.44    37.39503    81.22585   134.64494
   444  H   1.0    0.06    1.05    1.44    -2.20404    78.18323   132.81388
   445  H   1.0    0.08    1.10    1.44     9.11178    72.10134   149.00814
   446  H   1.0    0.04    1.04    1.44    15.67198    70.71448   149.88466
   447  H   1.0    0.08    1.08    1.44    25.09898    65.29259   141.36416
   448  H   1.0    0.04    1.04    1.43    18.13499    64.13754   143.81653
   449  H   1.0    0.09    1.07    1.44    21.01393    85.23829   158.66721
   450  H   1.0    0.06    1.05    1.44    19.20960    78.59702   153.67822
   451  H   1.0    0.09    1.08    1.44    24.08532    76.83449   155.05308
   452  H   1.0    0.04    1.04    1.43    27.72052    71.33153   158.50324
   453  H   1.0    0.06    1.06    1.44    14.95759    60.15543   137.16734

  Z AO/shell   Hii/eV     exponent
  1     Wed Apr 25 08:07:45 CEST 2018   EN: 2.200 GM2: 0.406  GM3: 0.0800  RAES: 1.40
     1s    -10.707211    1.230000
  6     Wed Apr 25 08:07:45 CEST 2018   EN: 2.550 GM2: 0.538  GM3: 0.1500  RAES: 3.00
     2s    -13.970922    2.096432
     2p    -10.063292    1.800000
  7     Wed Apr 25 08:07:45 CEST 2018   EN: 3.040 GM2: 0.461  GM3:-0.0640  RAES: 1.90
     2s    -16.686243    2.339881
     2p    -12.523956    2.014332
  8     Wed Apr 25 08:07:45 CEST 2018   EN: 3.440 GM2: 0.452  GM3:-0.0517  RAES: 1.80
     2s    -20.229985    2.439742
     2p    -15.503117    2.137023
 no old-style atom pair restraining (fixing) potential

molecular fragmentation (1/2 indicates fragments):
111111111111111111111111111111111111111111222222222222222222222222222222
222222222222222222222222222222222222222222222222222222222222222222222222
222222222222222222222222222222222222222222222222222222222222222222222222
222222222222222222222222222222222222222222222222222222222222222222222222
222222222222222222222222222222222222222222222222222222222222222222222222
222222222222222222222222222222222222222222222222222222222222222222222222
222222221122222222222
# atoms in fragment 1/2:    44   409
 fragment masses (1/2) :      278.37     2862.25
CMA distance (Bohr)    :  16.125
constraining FC (au)   :  0.0500
           ------------------------------------------------- 
          |        Self-Consistent Charge Iterations        |
           ------------------------------------------------- 

 Ncao       : 1119
 Nao        : 1119
 Nshell     : 675
 Nel        : 1242
 T(el)      :   500.0
 intcut     :    35.0
 scfconv/Eh :  0.100E-06
   qconv/e  :  0.100E-04
 intneglect :  0.100E-08
 broydamp   :      0.400
 iter      E             dE          RMSdq      gap      omega  full diag
   1   -710.1236817 -0.710124E+03  0.473E+00    1.30       0.0  T
   2   -710.4214770 -0.297795E+00  0.283E+00    0.64       1.0  T
   3   -711.2621490 -0.840672E+00  0.204E+00    1.42       1.0  T
   4   -712.1103033 -0.848154E+00  0.111E+00    1.50       1.0  T
   5   -712.1774241 -0.671208E-01  0.728E-01    0.76       1.0  T
   6   -712.0227655  0.154659E+00  0.100E+00    0.62       1.0  T
   7   -712.2413524 -0.218587E+00  0.636E-01    0.06       1.0  T
   8   -712.3321894 -0.908370E-01  0.431E-01    0.42       1.0  T
   9   -712.3292903  0.289911E-02  0.342E-01    0.47       1.0  T
  10   -712.0126753  0.316615E+00  0.763E-01    0.21       1.0  T
  11   -712.3436967 -0.331021E+00  0.334E-01    0.19       1.0  T
  12   -712.3776165 -0.339198E-01  0.161E-01    0.22       1.0  T
  13   -712.3830446 -0.542813E-02  0.114E-01    0.20       1.0  T
  14   -712.3899492 -0.690459E-02  0.395E-02    0.11       1.0  T
  15   -712.3900661 -0.116843E-03  0.365E-02    0.13       1.0  T
  16   -712.3904923 -0.426225E-03  0.179E-02    0.12       1.0  T
  17   -712.3906292 -0.136957E-03  0.485E-03    0.12       1.0  T
  18   -712.3906355 -0.627086E-05  0.323E-03    0.13       1.5  T
  19   -712.3906390 -0.350202E-05  0.733E-04    0.12       6.4  T
  20   -712.3906363  0.271229E-05  0.211E-03    0.12       2.2  T
  21   -712.3906390 -0.268416E-05  0.383E-04    0.12      12.3  T
  22   -712.3906391 -0.853175E-07  0.110E-04    0.12      42.6  T
  23   -712.3906391 -0.142450E-09  0.749E-05    0.12      62.8  T
  24   -712.3906391 -0.263560E-08  0.195E-05    0.12     241.4  T
speedup  1.78
cpu  time for SCC   44.07 s
wall time for SCC   24.77 s

   *** convergence criteria satisfied after 24 iterations ***

          eigenvalues
 #    :         609        610        611        612        613        614        615        616
 occ. :        2.000      2.000      2.000      2.000      2.000      2.000      2.000      2.000
 eps  :        -9.974     -9.949     -9.943     -9.943     -9.897     -9.833     -9.786     -9.765
 #    :         617        618        619        620        621        622        623        624
 occ. :        2.000      2.000      2.000      1.999      1.617      0.384      0.000      0.000
 eps  :        -9.755     -9.700     -9.322     -9.126     -8.869     -8.745     -7.977     -7.885
 #    :         625        626        627        628        629        630        631        632
 occ. :        0.000      0.000      0.000      0.000      0.000      0.000      0.000      0.000
 eps  :        -7.815     -7.714     -7.696     -7.691     -7.304     -7.018     -6.888     -6.841


   #   Z            q   n(s)   n(p)   n(d)      C6AA      α(0)
   1   7 N     -0.394  1.315  4.078  0.000    30.201     8.162
   2   6 C      0.027  1.061  2.912  0.000    20.137     6.392
   3   6 C      0.260  1.051  2.690  0.000    22.624     7.789
   4   8 O     -0.479  1.745  4.734  0.000    23.315     6.474
   5   6 C     -0.074  1.057  3.017  0.000    21.900     6.660
   6   6 C      0.010  1.081  2.909  0.000    27.783     8.646
   7   6 C     -0.039  1.080  2.959  0.000    28.957     8.825
   8   6 C     -0.046  1.081  2.965  0.000    29.141     8.853
   9   6 C     -0.035  1.081  2.954  0.000    28.868     8.811
  10   6 C     -0.039  1.080  2.959  0.000    28.968     8.826
  11   6 C     -0.035  1.080  2.956  0.000    28.876     8.812
  12   1 H      0.159  0.841  0.000  0.000     1.343     1.815
  13   1 H      0.062  0.938  0.000  0.000     2.178     2.308
  14   1 H      0.057  0.943  0.000  0.000     2.235     2.338
  15   1 H      0.042  0.958  0.000  0.000     2.423     2.434
  16   1 H      0.020  0.980  0.000  0.000     2.731     2.584
  17   1 H      0.058  0.942  0.000  0.000     2.221     2.330
  18   1 H      0.017  0.983  0.000  0.000     2.779     2.607
  19   1 H      0.055  0.945  0.000  0.000     2.263     2.352
  20   1 H      0.024  0.976  0.000  0.000     2.675     2.558
  21   7 N     -0.176  1.239  3.937  0.000    24.802     7.397
  22   6 C      0.014  1.066  2.921  0.000    20.357     6.426
  23   6 C      0.202  1.090  2.709  0.000    23.711     7.974
  24   8 O     -0.350  1.750  4.600  0.000    20.707     6.101
  25   6 C     -0.083  1.060  3.023  0.000    22.080     6.690
  26   6 C     -0.080  1.053  3.028  0.000    22.031     6.683
  27   6 C     -0.100  1.058  3.042  0.000    22.406     6.739
  28   6 C     -0.030  1.053  2.977  0.000    21.213     6.575
  29   7 N     -0.167  1.241  3.926  0.000    24.607     7.367
  30   1 H      0.218  0.782  0.000  0.000     1.016     1.579
  31   1 H      0.091  0.909  0.000  0.000     1.865     2.136
  32   1 H      0.085  0.915  0.000  0.000     1.927     2.171
  33   1 H      0.075  0.925  0.000  0.000     2.036     2.231
  34   1 H      0.068  0.932  0.000  0.000     2.104     2.268
  35   1 H      0.074  0.926  0.000  0.000     2.044     2.236
  36   1 H      0.078  0.922  0.000  0.000     1.999     2.211
  37   1 H      0.074  0.926  0.000  0.000     2.043     2.235
  38   1 H      0.086  0.914  0.000  0.000     1.921     2.168
  39   1 H      0.109  0.891  0.000  0.000     1.704     2.042
  40   1 H      0.280  0.720  0.000  0.000     0.778     1.382
  41   1 H      0.267  0.733  0.000  0.000     0.822     1.420
  42   1 H      0.250  0.750  0.000  0.000     0.885     1.473
  43   7 N     -0.379  1.313  4.067  0.000    29.801     8.108
  44   6 C      0.021  1.061  2.918  0.000    20.242     6.409
  45   6 C      0.270  1.052  2.678  0.000    22.449     7.761
  46   8 O     -0.484  1.737  4.746  0.000    23.424     6.489
  47   6 C     -0.086  1.059  3.027  0.000    22.120     6.694
  48   6 C     -0.083  1.053  3.030  0.000    22.084     6.690
  49   6 C     -0.098  1.055  3.044  0.000    22.370     6.734
  50   6 C     -0.049  1.058  2.991  0.000    21.553     6.627
  51   7 N     -0.150  1.236  3.914  0.000    24.231     7.311
  52   1 H      0.149  0.851  0.000  0.000     1.406     1.857
  53   1 H      0.058  0.942  0.000  0.000     2.220     2.330
  54   1 H      0.063  0.937  0.000  0.000     2.168     2.302
  55   1 H      0.031  0.969  0.000  0.000     2.578     2.511
  56   1 H      0.074  0.926  0.000  0.000     2.047     2.237
  57   1 H      0.052  0.948  0.000  0.000     2.298     2.371
  58   1 H      0.061  0.939  0.000  0.000     2.193     2.316
  59   1 H      0.087  0.913  0.000  0.000     1.905     2.158
  60   1 H      0.115  0.885  0.000  0.000     1.654     2.011
  61   1 H      0.112  0.888  0.000  0.000     1.682     2.028
  62   1 H      0.304  0.696  0.000  0.000     0.703     1.313
  63   1 H      0.298  0.702  0.000  0.000     0.718     1.328
  64   1 H      0.305  0.695  0.000  0.000     0.699     1.310
  65   7 N     -0.158  1.233  3.924  0.000    24.414     7.338
  66   6 C      0.015  1.064  2.921  0.000    20.325     6.418
  67   6 C      0.268  1.049  2.683  0.000    22.480     7.764
  68   8 O     -0.474  1.734  4.740  0.000    23.214     6.460
  69   6 C      0.074  1.036  2.890  0.000    19.568     6.338
  70   8 O     -0.466  1.711  4.755  0.000    22.172     6.357
  71   1 H      0.226  0.774  0.000  0.000     0.981     1.551
  72   1 H      0.092  0.908  0.000  0.000     1.858     2.131
  73   1 H      0.041  0.959  0.000  0.000     2.434     2.440
  74   1 H      0.042  0.958  0.000  0.000     2.423     2.434
  75   1 H      0.354  0.646  0.000  0.000     0.580     1.196
  76   7 N     -0.173  1.250  3.923  0.000    24.739     7.387
  77   6 C      0.011  1.067  2.922  0.000    20.398     6.432
  78   6 C      0.288  1.042  2.671  0.000    22.126     7.702
  79   8 O     -0.490  1.736  4.754  0.000    23.564     6.508
  80   6 C     -0.092  1.066  3.027  0.000    22.254     6.715
  81   6 C     -0.009  1.057  2.952  0.000    20.698     6.471
  82   6 C     -0.106  1.035  3.071  0.000    22.577     6.775
  83   6 C     -0.103  1.039  3.065  0.000    22.520     6.765
  84   1 H      0.232  0.768  0.000  0.000     0.958     1.533
  85   1 H      0.088  0.912  0.000  0.000     1.898     2.155
  86   1 H      0.075  0.925  0.000  0.000     2.033     2.229
  87   1 H      0.073  0.927  0.000  0.000     2.056     2.242
  88   1 H      0.032  0.968  0.000  0.000     2.551     2.498
  89   1 H      0.032  0.968  0.000  0.000     2.555     2.500
  90   1 H      0.040  0.960  0.000  0.000     2.442     2.444
  91   1 H      0.029  0.971  0.000  0.000     2.607     2.525
  92   1 H      0.015  0.985  0.000  0.000     2.817     2.625
  93   1 H      0.031  0.969  0.000  0.000     2.577     2.510
  94   1 H      0.042  0.958  0.000  0.000     2.428     2.437
  95   7 N     -0.179  1.248  3.932  0.000    24.885     7.409
  96   6 C      0.023  1.060  2.917  0.000    20.199     6.400
  97   6 C      0.280  1.041  2.679  0.000    22.260     7.726
  98   8 O     -0.516  1.762  4.754  0.000    24.151     6.589
  99   6 C     -0.136  1.044  3.092  0.000    23.170     6.863
 100   1 H      0.219  0.781  0.000  0.000     1.013     1.577
 101   1 H      0.051  0.949  0.000  0.000     2.302     2.373
 102   1 H      0.067  0.933  0.000  0.000     2.115     2.274
 103   1 H      0.075  0.925  0.000  0.000     2.034     2.230
 104   1 H      0.084  0.916  0.000  0.000     1.934     2.175
 105   7 N     -0.188  1.258  3.930  0.000    25.067     7.436
 106   6 C      0.015  1.069  2.916  0.000    20.325     6.420
 107   6 C      0.282  1.046  2.671  0.000    22.219     7.719
 108   8 O     -0.490  1.754  4.736  0.000    23.566     6.509
 109   6 C     -0.034  1.070  2.964  0.000    21.138     6.540
 110   6 C     -0.070  1.054  3.016  0.000    21.844     6.654
 111   6 C     -0.128  1.041  3.087  0.000    23.007     6.839
 112   6 C     -0.118  1.036  3.082  0.000    22.827     6.814
 113   1 H      0.235  0.765  0.000  0.000     0.946     1.523
 114   1 H      0.069  0.931  0.000  0.000     2.101     2.266
 115   1 H      0.061  0.939  0.000  0.000     2.187     2.313
 116   1 H      0.040  0.960  0.000  0.000     2.450     2.448
 117   1 H      0.065  0.935  0.000  0.000     2.139     2.287
 118   1 H      0.084  0.916  0.000  0.000     1.937     2.176
 119   1 H      0.045  0.955  0.000  0.000     2.388     2.416
 120   1 H      0.050  0.950  0.000  0.000     2.319     2.381
 121   1 H      0.049  0.951  0.000  0.000     2.331     2.388
 122   1 H      0.058  0.942  0.000  0.000     2.217     2.328
 123   1 H      0.029  0.971  0.000  0.000     2.601     2.522
 124   7 N     -0.189  1.243  3.946  0.000    25.104     7.441
 125   6 C      0.019  1.058  2.923  0.000    20.264     6.410
 126   6 C      0.270  1.046  2.684  0.000    22.439     7.757
 127   8 O     -0.504  1.743  4.761  0.000    23.879     6.552
 128   6 C     -0.082  1.057  3.025  0.000    22.060     6.686
 129   6 C     -0.075  1.048  3.027  0.000    21.939     6.669
 130   6 C     -0.017  1.055  2.962  0.000    20.965     6.534
 131   7 N     -0.159  1.229  3.929  0.000    24.430     7.341
 132   6 C      0.228  1.022  2.751  0.000    23.215     7.889
 133   7 N     -0.243  1.234  4.010  0.000    26.353     7.624
 134   7 N     -0.277  1.260  4.017  0.000    27.165     7.741
 135   1 H      0.212  0.788  0.000  0.000     1.045     1.601
 136   1 H      0.091  0.909  0.000  0.000     1.871     2.139
 137   1 H      0.070  0.930  0.000  0.000     2.083     2.257
 138   1 H      0.102  0.898  0.000  0.000     1.767     2.079
 139   1 H      0.050  0.950  0.000  0.000     2.321     2.382
 140   1 H      0.043  0.957  0.000  0.000     2.415     2.430
 141   1 H      0.093  0.907  0.000  0.000     1.853     2.129
 142   1 H      0.083  0.917  0.000  0.000     1.950     2.184
 143   1 H      0.227  0.773  0.000  0.000     0.979     1.550
 144   1 H      0.256  0.744  0.000  0.000     0.859     1.452
 145   1 H      0.259  0.741  0.000  0.000     0.850     1.444
 146   1 H      0.211  0.789  0.000  0.000     1.052     1.607
 147   1 H      0.237  0.763  0.000  0.000     0.934     1.514
 148   7 N     -0.195  1.254  3.942  0.000    25.240     7.462
 149   6 C      0.028  1.057  2.916  0.000    20.106     6.384
 150   6 C      0.281  1.040  2.679  0.000    22.237     7.722
 151   8 O     -0.490  1.736  4.754  0.000    23.561     6.508
 152   6 C     -0.066  1.052  3.014  0.000    21.761     6.640
 153   6 C     -0.100  1.057  3.043  0.000    22.401     6.738
 154   6 C      0.291  1.037  2.672  0.000    22.071     7.692
 155   8 O     -0.498  1.761  4.738  0.000    23.748     6.534
 156   7 N     -0.285  1.265  4.020  0.000    27.346     7.767
 157   1 H      0.234  0.766  0.000  0.000     0.948     1.526
 158   1 H      0.058  0.942  0.000  0.000     2.219     2.330
 159   1 H      0.067  0.933  0.000  0.000     2.117     2.276
 160   1 H      0.065  0.935  0.000  0.000     2.145     2.290
 161   1 H      0.075  0.925  0.000  0.000     2.030     2.228
 162   1 H      0.060  0.940  0.000  0.000     2.194     2.316
 163   1 H      0.232  0.768  0.000  0.000     0.958     1.533
 164   1 H      0.200  0.800  0.000  0.000     1.105     1.646
 165   7 N     -0.177  1.246  3.931  0.000    24.834     7.401
 166   6 C      0.034  1.059  2.907  0.000    20.001     6.368
 167   6 C      0.283  1.044  2.673  0.000    22.210     7.717
 168   8 O     -0.485  1.728  4.757  0.000    23.460     6.494
 169   6 C     -0.053  1.053  3.000  0.000    21.522     6.605
 170   6 C     -0.095  1.066  3.029  0.000    22.318     6.727
 171   6 C      0.370  1.025  2.605  0.000    20.720     7.449
 172   8 O     -0.644  1.774  4.871  0.000    27.235     6.997
 173   8 O     -0.645  1.773  4.873  0.000    27.264     7.001
 174   1 H      0.209  0.791  0.000  0.000     1.061     1.614
 175   1 H      0.071  0.929  0.000  0.000     2.077     2.254
 176   1 H      0.047  0.953  0.000  0.000     2.355     2.400
 177   1 H      0.047  0.953  0.000  0.000     2.364     2.404
 178   1 H      0.037  0.963  0.000  0.000     2.489     2.467
 179   1 H      0.017  0.983  0.000  0.000     2.785     2.610
 180   7 N     -0.178  1.246  3.931  0.000    24.850     7.404
 181   6 C      0.025  1.066  2.909  0.000    20.156     6.393
 182   6 C      0.278  1.038  2.684  0.000    22.289     7.731
 183   8 O     -0.486  1.735  4.751  0.000    23.476     6.496
 184   6 C     -0.052  1.051  3.001  0.000    21.498     6.601
 185   6 C     -0.092  1.064  3.029  0.000    22.261     6.718
 186   6 C      0.364  1.026  2.610  0.000    20.829     7.469
 187   8 O     -0.622  1.746  4.876  0.000    26.661     6.923
 188   8 O     -0.601  1.759  4.842  0.000    26.156     6.857
 189   1 H      0.203  0.797  0.000  0.000     1.089     1.635
 190   1 H      0.056  0.944  0.000  0.000     2.241     2.341
 191   1 H      0.048  0.952  0.000  0.000     2.350     2.398
 192   1 H      0.053  0.947  0.000  0.000     2.279     2.361
 193   1 H      0.022  0.978  0.000  0.000     2.708     2.573
 194   1 H      0.018  0.982  0.000  0.000     2.760     2.598
 195   7 N     -0.180  1.245  3.935  0.000    24.891     7.410
 196   6 C      0.019  1.065  2.916  0.000    20.250     6.407
 197   6 C      0.275  1.044  2.680  0.000    22.341     7.740
 198   8 O     -0.471  1.727  4.744  0.000    23.146     6.450
 199   6 C     -0.029  1.063  2.966  0.000    21.052     6.526
 200   6 C     -0.124  1.041  3.083  0.000    22.936     6.828
 201   6 C     -0.113  1.037  3.076  0.000    22.726     6.797
 202   1 H      0.217  0.783  0.000  0.000     1.022     1.584
 203   1 H      0.080  0.920  0.000  0.000     1.975     2.198
 204   1 H      0.050  0.950  0.000  0.000     2.316     2.380
 205   1 H      0.039  0.961  0.000  0.000     2.458     2.452
 206   1 H      0.058  0.942  0.000  0.000     2.218     2.329
 207   1 H      0.062  0.938  0.000  0.000     2.174     2.306
 208   1 H      0.025  0.975  0.000  0.000     2.655     2.548
 209   1 H      0.050  0.950  0.000  0.000     2.321     2.383
 210   1 H      0.058  0.942  0.000  0.000     2.219     2.330
 211   7 N     -0.180  1.247  3.933  0.000    24.901     7.411
 212   6 C      0.023  1.060  2.917  0.000    20.199     6.400
 213   6 C      0.273  1.042  2.685  0.000    22.377     7.746
 214   8 O     -0.479  1.732  4.746  0.000    23.318     6.474
 215   6 C     -0.130  1.042  3.088  0.000    23.052     6.845
 216   1 H      0.208  0.792  0.000  0.000     1.068     1.619
 217   1 H      0.083  0.917  0.000  0.000     1.944     2.180
 218   1 H      0.071  0.929  0.000  0.000     2.073     2.251
 219   1 H      0.070  0.930  0.000  0.000     2.081     2.256
 220   1 H      0.057  0.943  0.000  0.000     2.232     2.336
 221   7 N     -0.187  1.247  3.940  0.000    25.052     7.434
 222   6 C     -0.024  1.051  2.974  0.000    21.079     6.550
 223   6 C      0.278  1.039  2.683  0.000    22.287     7.730
 224   8 O     -0.489  1.745  4.743  0.000    23.535     6.504
 225   1 H      0.224  0.776  0.000  0.000     0.990     1.559
 226   1 H      0.083  0.917  0.000  0.000     1.949     2.183
 227   1 H      0.076  0.924  0.000  0.000     2.022     2.223
 228   7 N     -0.186  1.251  3.934  0.000    25.022     7.429
 229   6 C      0.013  1.069  2.918  0.000    20.359     6.425
 230   6 C      0.279  1.040  2.681  0.000    22.284     7.730
 231   8 O     -0.498  1.749  4.749  0.000    23.750     6.534
 232   6 C     -0.022  1.067  2.955  0.000    20.934     6.508
 233   6 C     -0.062  1.052  3.010  0.000    21.692     6.631
 234   6 C     -0.118  1.040  3.079  0.000    22.823     6.812
 235   6 C     -0.109  1.038  3.071  0.000    22.650     6.787
 236   1 H      0.212  0.788  0.000  0.000     1.047     1.603
 237   1 H      0.080  0.920  0.000  0.000     1.984     2.203
 238   1 H      0.052  0.948  0.000  0.000     2.297     2.370
 239   1 H      0.047  0.953  0.000  0.000     2.364     2.405
 240   1 H      0.040  0.960  0.000  0.000     2.448     2.447
 241   1 H      0.054  0.946  0.000  0.000     2.275     2.359
 242   1 H      0.049  0.951  0.000  0.000     2.338     2.391
 243   1 H      0.044  0.956  0.000  0.000     2.400     2.423
 244   1 H      0.047  0.953  0.000  0.000     2.359     2.402
 245   1 H      0.031  0.969  0.000  0.000     2.566     2.505
 246   1 H      0.041  0.959  0.000  0.000     2.435     2.440
 247   7 N     -0.180  1.244  3.936  0.000    24.907     7.412
 248   6 C      0.016  1.062  2.922  0.000    20.309     6.417
 249   6 C      0.277  1.042  2.681  0.000    22.321     7.737
 250   8 O     -0.489  1.740  4.749  0.000    23.544     6.506
 251   6 C     -0.078  1.055  3.023  0.000    21.988     6.676
 252   6 C     -0.083  1.055  3.027  0.000    22.074     6.689
 253   6 C     -0.025  1.055  2.970  0.000    21.100     6.556
 254   7 N     -0.140  1.210  3.930  0.000    24.030     7.280
 255   6 C      0.234  1.017  2.750  0.000    23.104     7.870
 256   7 N     -0.243  1.224  4.018  0.000    26.334     7.621
 257   7 N     -0.261  1.232  4.028  0.000    26.766     7.684
 258   1 H      0.216  0.784  0.000  0.000     1.028     1.588
 259   1 H      0.090  0.910  0.000  0.000     1.883     2.146
 260   1 H      0.070  0.930  0.000  0.000     2.081     2.256
 261   1 H      0.065  0.935  0.000  0.000     2.140     2.287
 262   1 H      0.070  0.930  0.000  0.000     2.091     2.261
 263   1 H      0.075  0.925  0.000  0.000     2.028     2.227
 264   1 H      0.087  0.913  0.000  0.000     1.911     2.162
 265   1 H      0.082  0.918  0.000  0.000     1.962     2.190
 266   1 H      0.225  0.775  0.000  0.000     0.987     1.556
 267   1 H      0.247  0.753  0.000  0.000     0.895     1.482
 268   1 H      0.259  0.741  0.000  0.000     0.850     1.444
 269   1 H      0.242  0.758  0.000  0.000     0.913     1.497
 270   1 H      0.257  0.743  0.000  0.000     0.857     1.450
 271   7 N     -0.184  1.254  3.931  0.000    24.994     7.425
 272   6 C      0.035  1.057  2.908  0.000    19.989     6.366
 273   6 C      0.210  1.087  2.703  0.000    23.545     7.947
 274   8 O     -0.355  1.748  4.607  0.000    20.805     6.115
 275   6 C     -0.128  1.042  3.086  0.000    23.009     6.839
 276   1 H      0.215  0.785  0.000  0.000     1.032     1.592
 277   1 H      0.084  0.916  0.000  0.000     1.941     2.179
 278   1 H      0.071  0.929  0.000  0.000     2.075     2.253
 279   1 H      0.077  0.923  0.000  0.000     2.014     2.219
 280   1 H      0.064  0.936  0.000  0.000     2.157     2.297
 281   7 N     -0.274  1.237  4.037  0.000    27.088     7.730
 282   6 C      0.029  1.062  2.909  0.000    20.077     6.378
 283   6 C      0.195  1.092  2.713  0.000    23.829     7.994
 284   8 O     -0.373  1.762  4.612  0.000    21.154     6.167
 285   6 C     -0.055  1.051  3.003  0.000    21.534     6.602
 286   6 C     -0.062  1.050  3.012  0.000    21.678     6.625
 287   6 C      0.007  1.051  2.942  0.000    20.508     6.457
 288   1 H      0.037  0.963  0.000  0.000     2.493     2.469
 289   1 H      0.035  0.965  0.000  0.000     2.512     2.479
 290   1 H      0.048  0.952  0.000  0.000     2.342     2.393
 291   1 H      0.046  0.954  0.000  0.000     2.366     2.405
 292   1 H      0.036  0.964  0.000  0.000     2.503     2.474
 293   1 H      0.045  0.955  0.000  0.000     2.378     2.412
 294   1 H      0.041  0.959  0.000  0.000     2.440     2.443
 295   7 N     -0.388  1.322  4.066  0.000    30.053     8.142
 296   6 C      0.034  1.061  2.906  0.000    20.029     6.376
 297   6 C      0.205  1.089  2.707  0.000    23.648     7.964
 298   8 O     -0.369  1.758  4.611  0.000    21.066     6.154
 299   6 C     -0.067  1.055  3.012  0.000    21.791     6.646
 300   6 C     -0.065  1.049  3.016  0.000    21.744     6.639
 301   6 C     -0.082  1.051  3.031  0.000    22.066     6.688
 302   6 C     -0.050  1.060  2.990  0.000    21.572     6.630
 303   7 N     -0.137  1.227  3.910  0.000    23.955     7.269
 304   1 H      0.168  0.832  0.000  0.000     1.286     1.776
 305   1 H      0.051  0.949  0.000  0.000     2.305     2.374
 306   1 H      0.029  0.971  0.000  0.000     2.600     2.522
 307   1 H      0.051  0.949  0.000  0.000     2.308     2.376
 308   1 H      0.064  0.936  0.000  0.000     2.155     2.295
 309   1 H      0.049  0.951  0.000  0.000     2.338     2.391
 310   1 H      0.054  0.946  0.000  0.000     2.266     2.354
 311   1 H      0.063  0.937  0.000  0.000     2.167     2.302
 312   1 H      0.125  0.875  0.000  0.000     1.570     1.960
 313   1 H      0.119  0.881  0.000  0.000     1.624     1.993
 314   1 H      0.303  0.697  0.000  0.000     0.704     1.314
 315   1 H      0.258  0.742  0.000  0.000     0.852     1.446
 316   1 H      0.295  0.705  0.000  0.000     0.728     1.337
 317   7 N     -0.407  1.327  4.080  0.000    30.579     8.213
 318   6 C      0.062  1.050  2.888  0.000    19.553     6.298
 319   6 C      0.287  1.047  2.666  0.000    22.142     7.705
 320   8 O     -0.484  1.748  4.736  0.000    23.426     6.489
 321   6 C     -0.086  1.065  3.021  0.000    22.137     6.698
 322   6 C      0.359  1.031  2.610  0.000    20.911     7.483
 323   8 O     -0.610  1.763  4.846  0.000    26.355     6.883
 324   8 O     -0.603  1.764  4.839  0.000    26.192     6.862
 325   1 H      0.192  0.808  0.000  0.000     1.149     1.679
 326   1 H      0.001  0.999  0.000  0.000     3.041     2.727
 327   1 H      0.035  0.965  0.000  0.000     2.520     2.482
 328   1 H      0.045  0.955  0.000  0.000     2.377     2.411
 329   7 N     -0.201  1.254  3.946  0.000    25.363     7.480
 330   6 C      0.051  1.053  2.896  0.000    19.729     6.325
 331   6 C      0.292  1.043  2.666  0.000    22.056     7.691
 332   8 O     -0.505  1.745  4.760  0.000    23.894     6.554
 333   6 C     -0.051  1.054  2.997  0.000    21.491     6.600
 334   6 C     -0.098  1.071  3.027  0.000    22.375     6.736
 335   6 C      0.368  1.027  2.605  0.000    20.757     7.456
 336   8 O     -0.651  1.780  4.871  0.000    27.400     7.018
 337   8 O     -0.633  1.763  4.870  0.000    26.949     6.960
 338   1 H      0.184  0.816  0.000  0.000     1.191     1.710
 339   1 H      0.029  0.971  0.000  0.000     2.598     2.521
 340   1 H      0.037  0.963  0.000  0.000     2.494     2.470
 341   1 H      0.030  0.970  0.000  0.000     2.589     2.516
 342   1 H      0.036  0.964  0.000  0.000     2.501     2.473
 343   1 H      0.041  0.959  0.000  0.000     2.430     2.438
 344   7 N     -0.188  1.256  3.932  0.000    25.078     7.438
 345   6 C      0.046  1.053  2.900  0.000    19.804     6.337
 346   6 C      0.288  1.040  2.672  0.000    22.123     7.703
 347   8 O     -0.452  1.752  4.700  0.000    22.750     6.395
 348   6 C     -0.099  1.069  3.030  0.000    22.389     6.737
 349   6 C      0.373  1.021  2.605  0.000    20.673     7.441
 350   8 O     -0.599  1.762  4.837  0.000    26.097     6.849
 351   8 O     -0.595  1.736  4.859  0.000    26.008     6.837
 352   1 H      0.202  0.798  0.000  0.000     1.098     1.642
 353   1 H      0.042  0.958  0.000  0.000     2.424     2.435
 354   1 H      0.033  0.967  0.000  0.000     2.544     2.494
 355   1 H      0.034  0.966  0.000  0.000     2.524     2.485
 356   7 N     -0.200  1.251  3.949  0.000    25.354     7.478
 357   6 C     -0.024  1.049  2.975  0.000    21.064     6.546
 358   6 C      0.278  1.038  2.684  0.000    22.300     7.733
 359   8 O     -0.485  1.735  4.750  0.000    23.456     6.493
 360   1 H      0.189  0.811  0.000  0.000     1.163     1.690
 361   1 H      0.076  0.924  0.000  0.000     2.017     2.221
 362   1 H      0.107  0.893  0.000  0.000     1.722     2.052
 363   7 N     -0.160  1.246  3.915  0.000    24.466     7.346
 364   6 C      0.037  1.057  2.906  0.000    19.955     6.360
 365   6 C      0.202  1.087  2.711  0.000    23.705     7.974
 366   8 O     -0.378  1.763  4.615  0.000    21.253     6.181
 367   6 C     -0.064  1.051  3.013  0.000    21.718     6.633
 368   6 C      0.016  1.080  2.904  0.000    27.661     8.627
 369   6 C     -0.042  1.079  2.963  0.000    29.040     8.837
 370   6 C     -0.032  1.079  2.954  0.000    28.806     8.802
 371   6 C     -0.034  1.079  2.955  0.000    28.847     8.808
 372   6 C     -0.028  1.077  2.951  0.000    28.708     8.787
 373   6 C     -0.032  1.078  2.954  0.000    28.793     8.799
 374   1 H      0.205  0.795  0.000  0.000     1.083     1.630
 375   1 H      0.107  0.893  0.000  0.000     1.718     2.050
 376   1 H      0.061  0.939  0.000  0.000     2.183     2.311
 377   1 H      0.063  0.937  0.000  0.000     2.162     2.300
 378   1 H      0.042  0.958  0.000  0.000     2.422     2.434
 379   1 H      0.028  0.972  0.000  0.000     2.620     2.531
 380   1 H      0.046  0.954  0.000  0.000     2.364     2.404
 381   1 H      0.041  0.959  0.000  0.000     2.440     2.443
 382   1 H      0.039  0.961  0.000  0.000     2.466     2.456
 383   7 N     -0.372  1.306  4.066  0.000    29.594     8.079
 384   6 C      0.041  1.059  2.900  0.000    19.914     6.357
 385   6 C      0.196  1.094  2.710  0.000    23.811     7.991
 386   8 O     -0.370  1.765  4.605  0.000    21.094     6.158
 387   6 C     -0.071  1.056  3.015  0.000    21.842     6.652
 388   6 C     -0.001  1.079  2.922  0.000    28.048     8.687
 389   6 C     -0.037  1.079  2.958  0.000    28.925     8.820
 390   6 C     -0.047  1.087  2.960  0.000    29.171     8.857
 391   6 C     -0.054  1.075  2.979  0.000    29.330     8.881
 392   6 C     -0.077  1.076  3.001  0.000    29.936     8.972
 393   6 C      0.146  1.042  2.812  0.000    24.823     8.165
 394   8 O     -0.417  1.725  4.692  0.000    21.178     6.212
 395   1 H      0.147  0.853  0.000  0.000     1.423     1.869
 396   1 H      0.065  0.935  0.000  0.000     2.147     2.291
 397   1 H      0.047  0.953  0.000  0.000     2.362     2.403
 398   1 H      0.060  0.940  0.000  0.000     2.198     2.318
 399   1 H      0.003  0.997  0.000  0.000     3.008     2.712
 400   1 H      0.070  0.930  0.000  0.000     2.085     2.258
 401   1 H      0.016  0.984  0.000  0.000     2.792     2.613
 402   1 H      0.069  0.931  0.000  0.000     2.100     2.266
 403   1 H      0.337  0.663  0.000  0.000     0.620     1.237
 404   7 N     -0.470  1.420  4.050  0.000    32.429     8.457
 405   6 C     -0.126  1.122  3.004  0.000    31.212     9.159
 406   6 C      0.166  1.048  2.786  0.000    24.412     8.092
 407   8 O     -0.609  1.793  4.816  0.000    26.342     6.881
 408   6 C     -0.046  1.051  2.995  0.000    21.389     6.583
 409   6 C      0.020  1.090  2.889  0.000    27.555     8.610
 410   6 C     -0.030  1.085  2.945  0.000    28.746     8.792
 411   6 C     -0.046  1.087  2.959  0.000    29.141     8.852
 412   6 C     -0.038  1.090  2.949  0.000    28.956     8.824
 413   6 C     -0.031  1.086  2.945  0.000    28.764     8.794
 414   6 C     -0.038  1.078  2.960  0.000    28.941     8.822
 415   1 H      0.159  0.841  0.000  0.000     1.338     1.812
 416   1 H      0.163  0.837  0.000  0.000     1.316     1.797
 417   1 H      0.151  0.849  0.000  0.000     1.391     1.848
 418   1 H      0.011  0.989  0.000  0.000     2.877     2.653
 419   1 H      0.026  0.974  0.000  0.000     2.645     2.544
 420   1 H      0.035  0.965  0.000  0.000     2.510     2.478
 421   1 H      0.011  0.989  0.000  0.000     2.870     2.649
 422   1 H      0.039  0.961  0.000  0.000     2.464     2.455
 423   1 H      0.023  0.977  0.000  0.000     2.684     2.562
 424   1 H      0.024  0.976  0.000  0.000     2.680     2.560
 425   1 H      0.030  0.970  0.000  0.000     2.586     2.515
 426   7 N     -0.482  1.540  3.943  0.000    33.782     8.607
 427   6 C      0.090  1.065  2.845  0.000    19.111     6.228
 428   6 C      0.100  1.329  2.570  0.000    28.656     8.648
 429   8 O     -0.335  1.776  4.559  0.000    20.419     6.058
 430   6 C     -0.040  1.053  2.987  0.000    21.296     6.570
 431   6 C     -0.082  1.070  3.012  0.000    22.074     6.691
 432   6 C      0.374  1.026  2.600  0.000    20.666     7.439
 433   8 O     -0.638  1.777  4.861  0.000    27.074     6.976
 434   8 O     -0.644  1.766  4.879  0.000    27.238     6.997
 435   1 H      0.114  0.886  0.000  0.000     1.674     2.027
 436   1 H      0.076  0.924  0.000  0.000     2.021     2.223
 437   1 H      0.035  0.965  0.000  0.000     2.522     2.483
 438   1 H      0.003  0.997  0.000  0.000     3.011     2.714
 439   1 H      0.027  0.973  0.000  0.000     2.635     2.538
 440   1 H      0.021  0.979  0.000  0.000     2.719     2.579
 441   1 H      0.186  0.814  0.000  0.000     1.179     1.701
 442   1 H      0.085  0.915  0.000  0.000     1.923     2.169
 443   1 H      0.200  0.800  0.000  0.000     1.106     1.647
 444   1 H      0.070  0.930  0.000  0.000     2.090     2.261
 445   1 H      0.182  0.818  0.000  0.000     1.203     1.718
 446   1 H      0.066  0.934  0.000  0.000     2.127     2.281
 447   1 H      0.195  0.805  0.000  0.000     1.132     1.666
 448   1 H      0.057  0.943  0.000  0.000     2.229     2.335
 449   1 H      0.189  0.811  0.000  0.000     1.166     1.691
 450   1 H      0.086  0.914  0.000  0.000     1.917     2.165
 451   1 H      0.168  0.832  0.000  0.000     1.288     1.777
 452   1 H      0.084  0.916  0.000  0.000     1.935     2.175
 453   1 H     -0.021  1.021  0.000  0.000     3.458     2.908

 Mol. C6AA /au·bohr⁶  :    1945356.100052
 Mol. C8AA /au·bohr⁸  :   43372132.686598
 Mol. α(0) /au        :       2095.833483

 
molecular dipole:
                 x           y           z       tot (Debye)
 q only:      -16.693    -221.046    -298.696
   full:      -15.859    -218.178    -297.876     939.378
molecular quadrupole (traceless):
                xx          xy          yy          xz          yz          zz
 q only:    35108.844   -4249.241   -1839.749   -4915.528  -49285.529  -33269.095
  q+dip:    34712.743   -4023.744   -1456.864   -4691.866  -48594.466  -33255.879
   full:    34713.176   -4029.189   -1455.576   -4691.343  -48595.065  -33257.600
speedup  1.73
cpu  time for grad   52.66 s
wall time for grad   30.48 s

SCC energy    :    -712.4088285
rep           :       8.5672987
ES            :       2.8170185
AES           :      -0.1607807
AXC           :       0.2374095
disp          :      -0.6084416
XB            :       0.0000000
fix           :       0.0000000
Gborn         :       0.0000000
Gsasa         :       0.0000000
Ghb           :       0.0000000
Gshift        :       0.0000000
Gsolv         :      -0.9555864     -599.64
Etot ala COSMO:    -712.4088285
grad norm     :       0.5787818
total E       :    -703.7799781
atomizationE  :     129.0153709    80958.37
(atE without considering molecular charge,
 total energy contains solvation terms)
H-L gap (eV)  :          0.1240

------------------------------------------------------------------------
 * finished run on 2019/05/10 at 01:43:52.534     
------------------------------------------------------------------------
 total:
 * wall-time:     0 d,  0 h,  0 min, 32.251 sec
 *  cpu-time:     0 d,  0 h,  0 min, 55.658 sec
 * ratio c/w:     1.726 speedup
 SCF:
 * wall-time:     0 d,  0 h,  0 min, 31.618 sec
 *  cpu-time:     0 d,  0 h,  0 min, 54.808 sec
 * ratio c/w:     1.733 speedup

