      -----------------------------------------------------------      
     |                   =====================                   |     
     |                           x T B                           |     
     |                   =====================                   |     
     |                         S. Grimme                         |     
     |          Mulliken Center for Theoretical Chemistry        |     
     |                    University of Bonn                     |     
     |                 Version 6.0.1 (SAW181210)                 |     
      -----------------------------------------------------------      

   This program is distributed in the hope that it will be useful,
   but WITHOUT ANY WARRANTY; without even the implied warranty of
   MERCHANTABILITY or FITNESS FOR A PARTICULAR PURPOSE.
   
   FOR NON-COMMERCIAL, ACADEMIA USE ONLY.
   
   Cite this work as:
   S. Grimme, C. Bannwarth, P. Shushkov, J. Comput. Theory Chem., 2017,
   13, 1989-2009.
   C. Bannwarth, S. Ehlert and S. Grimme., ChemRxiv, 2018, preprint.
   http://doi.org/10.26434/chemrxiv.7246238.v1
   
   for sTDA-xTB:
   S. Grimme and C. Bannwarth, J. Chem. Phys., 2016, 145, 054103.
   
   in the mass-spec context:
   V. Asgeirsson, C. Bauer and S. Grimme, Chem. Sci., 2017, 8, 4879.
   
   if GBSA is used:
   P. Shushkov, F. März and S. Grimme, unpublished.
   
   for ANC optimizer:
   S. Grimme, unpublished.
   Rational Function algorithm used in ANCopt:
   F. Eckert, P. Pulay, H.-J. Werner, J. Comput. Chem., 1997, 18, 1473.
   
   with help from (in alphabetical order)
   C. Bannwarth, F. Bohle, G. Brandenburg, E. Caldeweyher, M. Checinski,
   S. Dohm, S. Ehlert, S. Ehrlich, F. März, H. Neugebauer, J. Pisarek,
   P. Pracht, P. Shushkov, and S. Spicher.
   
 * started run on 2019/05/12 at 12:15:34.766     
========================================================================
 # omp threads = 2
========================================================================
number of atoms            : 395
number of electrons        : 1062
charge                     : 2
spin                       : .0
first test random number   : .0404

########################################################################
# WARNING! Please study the warnings concerning your input carefully
#  - Process number higher than OMP_NUM_THREADS, I hope you know what you are doing.
########################################################################

           ------------------------------------------------- 
          |                 G F N 2 - x T B                 |
          | Geometry, Frequencies, Noncovalent interactions |
          |            JCTC 2018 parametrisation            |
           ------------------------------------------------- 
 
      method parameters     
 k(s)        :  1.8500
 k(p)        :  2.2300
 k(d)        :  2.2300
 k(f)        :  2.0000
 kEN (H0ij)  : -2.0000
 D4 a1       :  0.5200
 D4 a2       :  5.0000
 D4 s6       :  1.0000
 D4 s8       :  2.7000
 D4 s9       :  5.0000
 alphaj      :  2.0000

 Solvent             : h2o
 Using internal parameter file: .param_gbsa2_h2o
 Gsolv ref. state (COSMO-RS): gsolv [1 M gas/solution]
 temperature (mdtemp)       :    298.150000000000     
 dielectric constant        :    80.2000000000000     
 rho                        :    1.00000000000000     
 mass                       :    18.0000000000000     
 surface tension            :    15.5689454083859     
 probe radius               :   0.975313790000000     
 vdW radii scaling          :    1.00000000000000     
 Gshift (Eh)                :   1.857443126794793E-003
 c1                         :    1.55243817000000     
 soset                      :   0.130326360000000     
 HB correction              :  T

            Z     q(EN)     CN     RAES       Cart. coordinates
     1  N   5.0   -0.18    3.25    1.97    68.39325    44.46547   163.36301
     2  C   4.0    0.03    4.39    4.36    65.91684    44.74171   162.18098
     3  C   4.0    0.16    3.39    3.08    66.25325    46.76294   160.17295
     4  O   6.0   -0.26    1.21    1.80    67.74002    48.50889   160.50544
     5  C   4.0   -0.04    4.33    4.25    63.83252    45.44308   164.07441
     6  C   4.0   -0.04    4.06    3.73    62.93517    43.08434   165.52263
     7  S   6.0   -0.04    2.55    3.10    61.25287    40.99068   163.50109
     8  C   4.0   -0.06    3.88    3.44    58.28117    42.78641   163.01112
     9  H   1.0    0.10    1.03    1.43    68.79019    45.68395   164.76111
    10  H   1.0    0.04    1.09    1.44    65.44325    42.95088   161.28716
    11  H   1.0    0.05    1.02    1.43    64.57718    46.83292   165.41913
    12  H   1.0    0.05    1.04    1.44    62.27098    46.29865   163.07796
    13  H   1.0    0.05    1.09    1.44    64.52899    42.01103   166.22580
    14  H   1.0    0.05    1.08    1.44    61.69579    43.61397   167.06290
    15  H   1.0    0.04    1.04    1.43    56.82259    41.38197   162.65272
    16  H   1.0    0.05    1.03    1.43    57.86414    43.71812   164.81092
    17  H   1.0    0.07    1.05    1.44    58.46574    44.12331   161.53989
    18  N   5.0   -0.14    3.54    2.10    64.91688    46.23659   158.02728
    19  C   4.0    0.03    4.54    4.59    65.26928    47.44596   155.55281
    20  C   4.0    0.15    3.48    3.10    63.50555    49.73954   155.18118
    21  O   6.0   -0.29    1.27    1.80    62.28669    50.72713   156.95736
    22  C   4.0   -0.02    4.48    4.51    64.68147    45.37313   153.80322
    23  C   4.0   -0.04    4.18    3.96    65.99664    45.53491   151.26300
    24  C   4.0   -0.06    4.19    3.98    61.81528    44.99506   153.73240
    25  C   4.0   -0.06    4.04    3.69    68.80933    46.02696   151.61061
    26  H   1.0    0.07    1.10    1.44    63.62927    44.92697   158.11684
    27  H   1.0    0.06    1.06    1.44    67.21366    48.17665   155.54907
    28  H   1.0    0.04    1.09    1.44    65.53730    43.67856   154.66009
    29  H   1.0    0.05    1.02    1.43    65.76188    43.67396   150.31461
    30  H   1.0    0.06    1.02    1.43    65.13555    46.88803   149.94091
    31  H   1.0    0.07    1.02    1.43    61.00453    45.64417   151.96850
    32  H   1.0    0.04    0.99    1.43    61.42410    42.94247   153.91457
    33  H   1.0    0.06    1.02    1.43    60.87101    45.92625   155.26540
    34  H   1.0    0.06    0.96    1.43    69.77136    45.70566   149.70113
    35  H   1.0    0.06    1.01    1.43    69.19165    47.95790   152.06431
    36  H   1.0    0.06    1.02    1.43    69.62204    44.73651   152.88892
    37  N   5.0   -0.13    3.43    2.03    63.39276    50.64170   152.90823
    38  C   4.0    0.02    4.17    3.94    61.21590    52.16594   152.12963
    39  C   4.0    0.09    3.12    3.03    59.66187    50.64180   150.22482
    40  O   6.0   -0.29    1.17    1.80    60.36446    48.61049   149.45365
    41  H   1.0    0.09    1.11    1.45    64.16712    49.66324   151.48947
    42  H   1.0    0.07    1.04    1.43    60.11108    52.63323   153.78716
    43  H   1.0    0.06    1.01    1.43    61.86345    53.94729   151.22198
    44  N   5.0   -0.20    3.16    1.95    52.00712    58.15177   143.49789
    45  C   4.0    0.03    4.11    3.82    50.92529    60.47197   144.62123
    46  C   4.0    0.09    3.17    3.03    50.31732    62.29368   142.38444
    47  O   6.0   -0.25    1.12    1.80    51.52437    64.14443   141.83831
    48  C   4.0    0.05    4.08    3.76    52.53966    61.68950   146.81192
    49  O   6.0   -0.21    2.02    1.83    54.64217    63.13121   146.05137
    50  H   1.0    0.09    1.03    1.43    50.77054    56.72331   143.33989
    51  H   1.0    0.04    1.05    1.44    49.13954    59.92728   145.50693
    52  H   1.0    0.06    1.02    1.43    51.29880    62.94991   147.84133
    53  H   1.0    0.05    1.02    1.43    53.16501    60.15227   148.00764
    54  H   1.0    0.14    1.02    1.43    55.70271    61.99466   145.03361
    55  N   5.0   -0.12    3.43    2.04    45.62892    72.42760   143.69201
    56  C   4.0    0.03    4.44    4.44    43.38300    73.41478   144.86457
    57  C   4.0    0.11    3.22    3.04    41.64104    74.65890   143.02852
    58  O   6.0   -0.24    1.16    1.80    42.31187    76.17205   141.57288
    59  C   4.0   -0.03    4.37    4.33    44.39654    75.30126   146.77786
    60  C   4.0   -0.04    4.25    4.09    46.68006    73.84311   147.86521
    61  C   4.0   -0.01    4.40    4.38    47.76472    72.59692   145.48982
    62  H   1.0    0.04    1.03    1.43    42.34815    71.86153   145.87727
    63  H   1.0    0.07    1.04    1.43    45.04102    76.98063   145.82623
    64  H   1.0    0.05    1.02    1.43    43.02458    75.75847   148.25145
    65  H   1.0    0.05    1.02    1.43    48.04607    75.07099   148.77118
    66  H   1.0    0.04    1.02    1.43    46.02117    72.43389   149.20921
    67  H   1.0    0.06    1.02    1.43    49.23382    73.77422   144.67157
    68  H   1.0    0.05    1.01    1.43    48.53045    70.70375   145.92545
    69  N   5.0   -0.18    3.22    1.96    38.83727    61.25888   153.06799
    70  C   4.0    0.02    4.33    4.25    40.59311    60.06059   154.81232
    71  C   4.0    0.16    3.46    3.10    42.36527    62.14098   155.85611
    72  O   6.0   -0.29    1.33    1.80    43.06135    63.85539   154.70370
    73  C   4.0   -0.04    4.27    4.14    42.08854    58.01337   153.40463
    74  C   4.0   -0.05    4.19    3.98    43.86486    56.63384   155.01985
    75  C   4.0    0.00    4.19    3.98    44.87598    54.11423   153.92028
    76  N   5.0   -0.13    3.39    2.01    46.26144    54.42231   151.62953
    77  C   4.0    0.10    3.33    3.06    48.66161    55.31610   151.39951
    78  N   5.0   -0.16    3.24    1.97    49.81827    56.46286   153.39780
    79  N   5.0   -0.18    3.22    1.96    49.77652    55.28898   149.18341
    80  H   1.0    0.09    1.01    1.43    39.30448    61.23979   151.16683
    81  H   1.0    0.04    1.07    1.44    39.52029    59.22288   156.30201
    82  H   1.0    0.05    1.03    1.43    40.74462    56.69199   152.55387
    83  H   1.0    0.06    1.01    1.43    43.17359    58.91799   151.82538
    84  H   1.0    0.06    1.02    1.43    45.43560    57.88180   155.60306
    85  H   1.0    0.04    1.02    1.43    42.88204    56.12192   156.81850
    86  H   1.0    0.05    1.01    1.43    46.08197    53.17823   155.35333
    87  H   1.0    0.06    1.05    1.44    43.30090    52.88921   153.56966
    88  H   1.0    0.09    1.08    1.44    45.55233    53.56850   150.12876
    89  H   1.0    0.10    1.04    1.43    49.06085    56.43076   155.11262
    90  H   1.0    0.11    1.03    1.43    51.62937    56.94693   153.29949
    91  H   1.0    0.09    1.03    1.43    49.03794    54.22778   147.78190
    92  H   1.0    0.09    1.03    1.43    51.65463    55.71649   149.02377
    93  N   5.0   -0.14    3.55    2.12    43.05175    61.84344   158.21909
    94  C   4.0    0.03    4.50    4.53    44.91039    63.42892   159.37446
    95  C   4.0    0.16    3.65    3.20    47.23700    63.24636   157.71314
    96  O   6.0   -0.31    1.34    1.80    48.07728    61.19286   157.02910
    97  C   4.0   -0.04    4.34    4.27    45.47507    62.50575   162.01750
    98  C   4.0   -0.02    3.52    3.12    47.59783    63.81694   163.40442
    99  C   4.0   -0.04    3.45    3.10    47.66065    66.41273   163.81527
   100  C   4.0   -0.04    3.45    3.10    49.41943    62.33110   164.62809
   101  C   4.0   -0.03    3.40    3.08    49.52372    67.55044   165.24819
   102  C   4.0   -0.05    3.44    3.09    51.22124    63.43861   166.19377
   103  C   4.0    0.07    3.41    3.08    51.33744    66.04917   166.50716
   104  O   6.0   -0.25    2.10    1.84    53.24660    67.15177   167.92207
   105  H   1.0    0.06    1.04    1.43    42.30915    60.36093   159.32096
   106  H   1.0    0.04    1.08    1.44    44.20513    65.35191   159.39126
   107  H   1.0    0.04    1.02    1.43    43.74281    62.76011   163.18258
   108  H   1.0    0.04    1.04    1.43    45.87004    60.48292   161.98032
   109  H   1.0    0.05    1.03    1.43    46.15755    67.58980   163.11051
   110  H   1.0    0.05    1.03    1.43    49.36500    60.31600   164.48462
   111  H   1.0    0.07    1.03    1.43    49.57132    69.55088   165.54322
   112  H   1.0    0.06    1.03    1.43    52.50513    62.22230   167.22794
   113  H   1.0    0.13    1.05    1.44    53.97385    65.91992   168.96564
   114  N   5.0   -0.10    3.69    2.25    48.35764    65.38217   157.06323
   115  C   4.0    0.04    4.57    4.63    50.47685    65.24786   155.29334
   116  C   4.0    0.15    3.42    3.08    52.53250    63.41287   156.20394
   117  O   6.0   -0.28    1.18    1.80    53.64892    62.03833   154.64256
   118  C   4.0   -0.04    4.30    4.19    51.41108    68.00395   155.03886
   119  C   4.0   -0.04    4.25    4.10    50.06830    69.43692   157.17571
   120  C   4.0   -0.01    4.36    4.31    47.58572    68.00287   157.46104
   121  H   1.0    0.06    1.06    1.44    49.85636    64.50454   153.48884
   122  H   1.0    0.05    1.01    1.43    53.48604    68.12292   155.19033
   123  H   1.0    0.05    1.03    1.43    50.88674    68.74378   153.20801
   124  H   1.0    0.05    1.02    1.43    51.16225    69.31517   158.91404
   125  H   1.0    0.05    1.02    1.43    49.79206    71.41091   156.69859
   126  H   1.0    0.04    1.03    1.43    46.76848    68.28596   159.28940
   127  H   1.0    0.05    1.02    1.43    46.25456    68.52929   155.97267
   128  N   5.0   -0.15    3.44    2.04    53.13652    63.50652   158.77521
   129  C   4.0    0.04    4.36    4.30    55.20410    62.06874   159.79736
   130  C   4.0    0.15    3.45    3.09    54.58608    59.25634   160.30249
   131  O   6.0   -0.30    1.25    1.80    56.23409    57.80618   161.25318
   132  C   4.0   -0.04    4.34    4.27    56.13169    63.18645   162.25804
   133  C   4.0   -0.04    4.16    3.91    58.02265    65.32451   162.07221
   134  C   4.0   -0.00    4.22    4.03    59.18833    65.63957   164.71325
   135  N   5.0   -0.13    3.37    2.01    60.97162    67.71406   164.84911
   136  C   4.0    0.10    3.32    3.06    60.71449    69.95772   165.99215
   137  N   5.0   -0.18    3.23    1.96    58.46100    70.56588   167.17838
   138  N   5.0   -0.17    3.23    1.96    62.58006    71.57961   166.00119
   139  H   1.0    0.08    1.07    1.44    52.07728    64.54497   159.88545
   140  H   1.0    0.06    1.04    1.43    56.73594    62.02217   158.34455
   141  H   1.0    0.05    1.06    1.44    54.50299    63.76161   163.33663
   142  H   1.0    0.06    1.05    1.44    57.06715    61.61792   163.25694
   143  H   1.0    0.05    1.02    1.43    59.50500    64.87648   160.70587
   144  H   1.0    0.05    1.02    1.43    57.10710    67.07707   161.48505
   145  H   1.0    0.05    1.04    1.43    57.72235    65.93210   166.09630
   146  H   1.0    0.05    1.03    1.43    60.23398    63.92850   165.18908
   147  H   1.0    0.09    1.07    1.44    62.64261    67.44996   163.93384
   148  H   1.0    0.10    1.04    1.43    56.96662    69.50793   167.00931
   149  H   1.0    0.10    1.04    1.43    58.37006    72.23689   168.00022
   150  H   1.0    0.10    1.03    1.43    64.27833    71.14210   165.24594
   151  H   1.0    0.10    1.03    1.43    62.44008    73.28610   166.86962
   152  N   5.0   -0.13    3.49    2.07    52.26086    58.42803   159.82565
   153  C   4.0    0.04    4.46    4.48    51.55988    55.94333   160.59297
   154  C   4.0    0.17    3.46    3.10    52.98773    53.94808   159.11768
   155  O   6.0   -0.29    1.29    1.80    53.18627    54.06327   156.88895
   156  C   4.0   -0.04    4.27    4.14    48.64691    55.76775   160.39776
   157  C   4.0   -0.04    4.18    3.97    47.63064    53.06423   160.37730
   158  C   4.0    0.22    3.14    3.03    48.12879    51.72782   162.90311
   159  O   6.0   -0.34    1.32    1.80    48.58547    49.38723   162.81773
   160  O   6.0   -0.33    1.27    1.80    48.08377    53.05990   164.97675
   161  H   1.0    0.11    1.09    1.44    51.02124    59.50359   158.82492
   162  H   1.0    0.06    1.05    1.44    52.08753    55.71739   162.61778
   163  H   1.0    0.05    1.03    1.43    47.83628    56.69798   162.06946
   164  H   1.0    0.05    1.03    1.43    48.01296    56.78684   158.74007
   165  H   1.0    0.04    1.03    1.43    45.58780    53.12353   160.13608
   166  H   1.0    0.06    1.03    1.43    48.47424    51.94483   158.88888
   167  N   5.0   -0.14    3.48    2.06    53.88419    52.01116   160.42810
   168  C   4.0    0.04    4.42    4.42    55.55265    50.14290   159.40048
   169  C   4.0    0.17    3.40    3.08    54.69272    47.32599   159.43260
   170  O   6.0   -0.32    1.30    1.80    55.91446    45.70481   158.48371
   171  C   4.0    0.06    4.24    4.09    58.20933    50.15219   160.72978
   172  O   6.0   -0.25    2.12    1.84    58.25506    48.52807   162.80871
   173  C   4.0   -0.05    4.10    3.81    59.06488    52.84460   161.27193
   174  H   1.0    0.09    1.06    1.44    53.64512    51.97471   162.35345
   175  H   1.0    0.07    1.07    1.44    55.82145    50.63217   157.42601
   176  H   1.0    0.07    1.06    1.44    59.51699    49.27888   159.37269
   177  H   1.0    0.12    1.01    1.43    58.58215    49.58415   164.34213
   178  H   1.0    0.06    1.00    1.43    61.06055    52.78630   161.81885
   179  H   1.0    0.07    1.01    1.43    58.87007    54.01066   159.64342
   180  H   1.0    0.06    1.00    1.43    57.98185    53.67281   162.80877
   181  N   5.0   -0.14    3.50    2.08    52.53458    46.79682   160.70602
   182  C   4.0    0.04    4.45    4.46    51.58277    44.26076   160.88047
   183  C   4.0    0.16    3.47    3.10    49.22391    43.90585   159.25745
   184  O   6.0   -0.29    1.24    1.80    48.92304    42.03673   157.97690
   185  C   4.0   -0.03    4.32    4.24    50.94981    43.55495   163.61594
   186  C   4.0   -0.01    3.57    3.15    49.84949    40.91988   163.80918
   187  C   4.0   -0.04    3.47    3.10    51.21790    38.82761   163.00748
   188  C   4.0   -0.03    3.47    3.10    47.44901    40.53585   164.76237
   189  C   4.0   -0.04    3.38    3.07    50.18236    36.41971   163.12959
   190  C   4.0   -0.04    3.38    3.07    46.44220    38.12848   164.97887
   191  C   4.0   -0.03    3.37    3.07    47.77712    36.06502   164.13130
   192  H   1.0    0.11    1.11    1.45    51.50277    48.16890   161.57288
   193  H   1.0    0.06    1.07    1.44    53.05762    43.00884   160.16005
   194  H   1.0    0.05    1.02    1.43    52.69621    43.66516   164.73300
   195  H   1.0    0.06    1.03    1.43    49.61986    44.93023   164.37327
   196  H   1.0    0.05    1.03    1.43    53.09840    39.06981   162.26587
   197  H   1.0    0.05    1.02    1.43    46.37449    42.14538   165.47026
   198  H   1.0    0.05    1.03    1.43    51.23390    34.81646   162.42981
   199  H   1.0    0.05    1.03    1.43    44.59941    37.88260   165.83044
   200  H   1.0    0.06    1.03    1.43    47.00062    34.19497   164.28832
   201  N   5.0   -0.14    3.53    2.10    47.53129    45.79147   159.36160
   202  C   4.0    0.04    4.49    4.53    45.19682    45.54202   157.95155
   203  C   4.0    0.16    3.51    3.12    45.60844    46.07125   155.13529
   204  O   6.0   -0.28    1.24    1.80    47.09016    47.65576   154.23894
   205  C   4.0   -0.04    4.39    4.36    43.31470    47.49343   158.97152
   206  C   4.0   -0.02    4.19    3.98    42.45357    46.98342   161.66029
   207  C   4.0   -0.07    4.10    3.81    41.72572    49.43086   162.99414
   208  C   4.0   -0.07    4.11    3.82    40.25848    45.12408   161.62803
   209  H   1.0    0.11    1.14    1.45    47.88664    47.29606   160.44315
   210  H   1.0    0.05    1.08    1.44    44.50566    43.63951   158.21433
   211  H   1.0    0.05    1.03    1.43    44.25294    49.34688   158.85737
   212  H   1.0    0.05    1.03    1.43    41.67626    47.58211   157.69366
   213  H   1.0    0.05    1.06    1.44    44.02202    46.12931   162.68301
   214  H   1.0    0.05    1.01    1.43    41.03532    49.07775   164.86949
   215  H   1.0    0.05    1.01    1.43    43.33188    50.69529   163.10335
   216  H   1.0    0.05    0.99    1.43    40.22917    50.40490   161.91572
   217  H   1.0    0.05    0.99    1.43    39.65023    44.70187   163.57950
   218  H   1.0    0.05    0.99    1.43    38.61951    45.93205   160.64992
   219  H   1.0    0.04    1.01    1.43    40.76848    43.37386   160.75101
   220  N   5.0   -0.09    3.61    2.16    44.07397    44.80385   153.69205
   221  C   4.0    0.03    4.40    4.38    43.83366    45.58422   150.90910
   222  C   4.0    0.09    3.19    3.03    42.35839    48.05675   150.67109
   223  O   6.0   -0.29    1.14    1.80    41.40719    49.14933   152.41534
   224  C   4.0   -0.04    4.20    3.99    42.32930    43.38225   149.57148
   225  C   4.0   -0.04    4.18    3.95    40.67031    42.43894   151.79630
   226  C   4.0   -0.02    4.26    4.13    42.33289    42.80964   154.37678
   227  H   1.0    0.06    1.04    1.43    45.77283    45.77140   150.23275
   228  H   1.0    0.05    1.05    1.44    41.30538    43.98760   148.05689
   229  H   1.0    0.05    1.01    1.43    43.69384    41.86239   149.10606
   230  H   1.0    0.05    1.03    1.43    39.02728    43.59599   151.95764
   231  H   1.0    0.05    1.01    1.43    40.16702    40.45502   151.60364
   232  H   1.0    0.04    1.04    1.43    41.10412    43.31406   155.83708
   233  H   1.0    0.05    1.02    1.43    43.36431    41.07319   154.71866
   234  N   5.0   -0.19    3.20    1.96    33.08951    31.73125   159.35165
   235  C   4.0    0.04    4.21    4.01    33.94958    33.13909   161.52103
   236  C   4.0    0.11    3.18    3.03    31.85572    33.58775   163.51451
   237  O   6.0   -0.25    1.13    1.80    30.98900    35.71154   163.93264
   238  C   4.0   -0.03    4.27    4.14    35.06204    35.71460   160.67498
   239  C   4.0   -0.05    4.16    3.92    37.17340    35.54135   158.76939
   240  C   4.0   -0.01    4.17    3.95    39.78731    34.81348   159.81883
   241  N   5.0   -0.14    3.39    2.02    39.84826    32.48676   161.36843
   242  C   4.0    0.10    3.33    3.06    40.15973    30.21923   160.66655
   243  N   5.0   -0.18    3.21    1.96    40.31369    29.45763   158.20194
   244  N   5.0   -0.18    3.23    1.96    40.53302    28.31048   162.50031
   245  H   1.0    0.10    1.03    1.43    32.15781    32.68368   157.98779
   246  H   1.0    0.07    1.07    1.44    35.35924    31.97204   162.48081
   247  H   1.0    0.06    1.03    1.43    33.50420    36.79662   159.89971
   248  H   1.0    0.06    1.02    1.43    35.68859    36.67255   162.40665
   249  H   1.0    0.04    1.03    1.43    36.64835    34.18701   157.30134
   250  H   1.0    0.04    1.04    1.43    37.41616    37.36358   157.90901
   251  H   1.0    0.04    1.02    1.43    41.07939    34.51765   158.23297
   252  H   1.0    0.04    1.04    1.43    40.50687    36.28372   161.01383
   253  H   1.0    0.09    1.13    1.45    39.78813    32.78112   163.26967
   254  H   1.0    0.09    1.03    1.43    39.47377    30.57445   156.90966
   255  H   1.0    0.10    1.03    1.43    40.50698    27.63115   157.79711
   256  H   1.0    0.13    1.10    1.44    40.58034    28.94301   164.31585
   257  H   1.0    0.10    1.04    1.43    40.61125    26.57822   162.03100
   258  N   5.0   -0.17    3.23    1.96    35.49473    33.91863   171.81541
   259  C   4.0    0.03    4.19    3.97    37.33114    35.94773   172.12881
   260  C   4.0    0.09    3.21    3.04    35.85823    38.40925   171.49366
   261  O   6.0   -0.26    1.12    1.80    34.60168    38.66034   169.51383
   262  C   4.0   -0.04    4.21    4.02    39.66643    35.67312   170.40140
   263  C   4.0   -0.03    4.16    3.91    38.95952    35.21022   167.60755
   264  C   4.0    0.23    3.14    3.03    38.44083    32.35735   167.01628
   265  O   6.0   -0.31    1.27    1.80    40.33171    30.94747   166.82232
   266  O   6.0   -0.28    1.17    1.80    36.15983    31.64799   166.62466
   267  H   1.0    0.12    1.03    1.43    34.38655    34.12625   170.23415
   268  H   1.0    0.06    1.05    1.44    37.93535    35.90739   174.08515
   269  H   1.0    0.05    1.03    1.43    40.75329    37.39329   170.53765
   270  H   1.0    0.06    1.03    1.43    40.78463    34.08001   171.06333
   271  H   1.0    0.07    1.03    1.43    37.30039    36.31939   167.08809
   272  H   1.0    0.04    1.03    1.43    40.55109    35.77095   166.42639
   273  N   5.0   -0.16    3.29    1.98    32.69264    67.19072   161.39741
   274  C   4.0    0.04    4.31    4.21    34.97116    65.71184   160.92459
   275  C   4.0    0.09    3.23    3.04    34.64812    63.19869   162.21228
   276  O   6.0   -0.25    1.18    1.80    33.17929    63.09643   163.93533
   277  C   4.0    0.05    4.24    4.08    37.25772    67.21017   161.87731
   278  O   6.0   -0.24    2.12    1.84    37.15375    69.68715   160.83716
   279  C   4.0   -0.08    4.08    3.77    39.73491    65.86771   161.18782
   280  H   1.0    0.12    1.03    1.43    32.27031    67.59398   163.17950
   281  H   1.0    0.05    1.05    1.44    35.16497    65.45351   158.86648
   282  H   1.0    0.06    1.04    1.43    37.15029    67.48131   163.91120
   283  H   1.0    0.12    1.03    1.43    37.33473    69.57867   159.02642
   284  H   1.0    0.05    0.99    1.43    41.27634    67.04811   161.96855
   285  H   1.0    0.04    1.01    1.43    39.81057    64.07400   162.11106
   286  H   1.0    0.05    1.01    1.43    39.90654    65.70310   159.17860
   287  N   5.0   -0.20    3.22    1.96    39.31970    57.20920   165.49049
   288  C   4.0    0.03    4.26    4.12    41.86797    56.66836   166.40398
   289  C   4.0    0.15    3.49    3.11    41.87720    54.43691   168.13215
   290  O   6.0   -0.27    1.28    1.80    40.14057    54.14811   169.61952
   291  C   4.0   -0.06    4.15    3.90    42.89061    58.82950   167.95999
   292  H   1.0    0.11    1.03    1.43    37.93742    57.07518   166.78629
   293  H   1.0    0.04    1.04    1.43    43.08155    56.34056   164.72155
   294  H   1.0    0.05    1.00    1.43    44.85971    58.54178   168.46786
   295  H   1.0    0.04    0.98    1.43    42.82491    60.64875   166.89174
   296  H   1.0    0.07    1.01    1.43    41.79377    59.12066   169.65616
   297  N   5.0   -0.15    3.45    2.04    43.83998    52.90178   168.04509
   298  C   4.0    0.05    4.31    4.22    44.05706    50.89560   169.87862
   299  C   4.0    0.12    3.20    3.04    45.11241    51.74060   172.51497
   300  O   6.0   -0.25    1.13    1.80    45.00226    50.31720   174.24215
   301  C   4.0    0.04    4.17    3.94    45.80920    48.80561   168.91772
   302  O   6.0   -0.23    2.06    1.83    48.36379    49.57723   168.96077
   303  H   1.0    0.11    1.12    1.45    45.34410    53.20657   166.89354
   304  H   1.0    0.07    1.06    1.44    42.19617    50.08598   170.24172
   305  H   1.0    0.06    1.01    1.43    45.69523    47.17451   170.23227
   306  H   1.0    0.05    1.02    1.43    45.27953    48.20056   167.05476
   307  H   1.0    0.16    1.06    1.44    48.62298    50.69319   167.50764
   308  N   5.0   -0.19    3.26    1.97    56.08012    27.72824   166.56269
   309  C   4.0    0.03    4.33    4.25    55.32692    29.25555   164.42089
   310  C   4.0    0.14    3.53    3.13    55.30620    27.43811   162.16560
   311  O   6.0   -0.28    1.27    1.80    57.23651    27.03617   160.96200
   312  C   4.0   -0.03    4.33    4.25    57.23829    31.36978   163.97298
   313  C   4.0   -0.02    3.53    3.13    57.66309    33.15928   166.16445
   314  C   4.0   -0.04    3.45    3.09    56.05678    35.20503   166.62759
   315  C   4.0   -0.03    3.46    3.10    59.84148    32.93751   167.65952
   316  C   4.0   -0.04    3.38    3.07    56.64106    36.98761   168.41377
   317  C   4.0   -0.03    3.37    3.07    60.41642    34.74461   169.45854
   318  C   4.0   -0.03    3.37    3.07    58.84618    36.78852   169.83888
   319  H   1.0    0.10    1.03    1.43    57.74883    26.81930   166.42164
   320  H   1.0    0.04    1.05    1.44    53.44596    30.00440   164.84644
   321  H   1.0    0.06    1.04    1.43    59.02133    30.47697   163.45917
   322  H   1.0    0.04    1.03    1.43    56.54107    32.45374   162.36351
   323  H   1.0    0.05    1.03    1.43    54.35088    35.39378   165.51760
   324  H   1.0    0.06    1.03    1.43    61.08063    31.35621   167.33696
   325  H   1.0    0.05    1.03    1.43    55.36162    38.55397   168.72920
   326  H   1.0    0.06    1.03    1.43    62.14854    34.55876   170.50877
   327  H   1.0    0.06    1.03    1.43    59.28767    38.21738   171.21513
   328  N   5.0   -0.10    3.72    2.30    53.18293    26.21001   161.64004
   329  C   4.0    0.04    4.65    4.71    53.33737    23.82638   160.32842
   330  C   4.0    0.15    3.40    3.08    53.32493    24.00742   157.47652
   331  O   6.0   -0.26    1.21    1.80    54.04627    22.26616   156.11493
   332  C   4.0   -0.03    4.37    4.33    51.05075    22.37982   161.27402
   333  C   4.0   -0.04    4.28    4.15    49.10798    24.47130   161.71151
   334  C   4.0   -0.01    4.37    4.33    50.71651    26.59882   162.79908
   335  H   1.0    0.07    1.06    1.44    55.07014    22.82426   160.83204
   336  H   1.0    0.06    1.01    1.43    50.39922    20.92476   159.93870
   337  H   1.0    0.06    1.03    1.43    51.50766    21.45132   163.05691
   338  H   1.0    0.05    1.02    1.43    48.24191    25.03895   159.93651
   339  H   1.0    0.05    1.02    1.43    47.61504    23.88340   163.01750
   340  H   1.0    0.05    1.02    1.43    49.97132    28.44872   162.30080
   341  H   1.0    0.05    1.02    1.43    50.79953    26.42517   164.86664
   342  N   5.0   -0.14    3.55    2.12    52.48850    26.20935   156.53280
   343  C   4.0    0.05    4.37    4.33    52.06774    26.68701   153.86315
   344  C   4.0    0.16    3.34    3.06    54.06607    28.53423   152.71442
   345  O   6.0   -0.27    1.20    1.80    53.59535    29.82158   150.80536
   346  C   4.0   -0.02    4.30    4.20    49.38588    27.74753   153.46894
   347  C   4.0    0.15    3.23    3.04    48.79927    30.05191   155.14750
   348  O   6.0   -0.31    1.24    1.80    49.71675    30.33089   157.34472
   349  N   5.0   -0.18    3.16    1.95    47.20982    31.66802   154.06947
   350  H   1.0    0.11    1.13    1.45    51.83934    27.57313   157.68993
   351  H   1.0    0.07    1.06    1.44    52.26525    24.92175   152.84780
   352  H   1.0    0.06    1.04    1.43    49.18382    28.29427   151.50464
   353  H   1.0    0.05    1.04    1.43    48.02919    26.30878   153.94119
   354  H   1.0    0.09    1.00    1.43    46.60075    33.20898   155.21934
   355  H   1.0    0.10    1.05    1.44    46.43008    31.43379   152.46657
   356  N   5.0   -0.12    3.48    2.06    56.29121    28.57824   153.93905
   357  C   4.0    0.04    4.26    4.12    58.40371    30.23249   153.34771
   358  C   4.0    0.10    3.18    3.03    60.76364    28.59931   152.71734
   359  O   6.0   -0.24    1.12    1.80    61.06009    26.45117   153.51400
   360  C   4.0   -0.04    4.23    4.07    59.00717    31.92128   155.64362
   361  C   4.0   -0.04    4.16    3.93    56.78147    33.51168   156.54662
   362  C   4.0   -0.04    4.14    3.87    56.45419    36.07697   155.23254
   363  C   4.0   -0.04    4.10    3.80    57.73544    38.25557   156.72888
   364  N   5.0   -0.12    4.02    2.91    56.33454    40.63287   156.30830
   365  H   1.0    0.11    1.08    1.44    56.54702    27.44527   155.45556
   366  H   1.0    0.06    1.05    1.44    57.85892    31.34914   151.70637
   367  H   1.0    0.06    1.03    1.43    59.56313    30.63671   157.17900
   368  H   1.0    0.05    1.03    1.43    60.61800    33.10373   155.17197
   369  H   1.0    0.06    1.03    1.43    55.04737    32.38884   156.27660
   370  H   1.0    0.04    1.03    1.43    56.95782    33.79737   158.57384
   371  H   1.0    0.05    1.03    1.43    57.18416    35.94341   153.31999
   372  H   1.0    0.05    1.03    1.43    54.42784    36.45085   155.13645
   373  H   1.0    0.04    1.03    1.43    57.72678    37.84187   158.70819
   374  H   1.0    0.04    1.02    1.43    59.67711    38.49700   156.06623
   375  H   1.0    0.08    1.04    1.43    56.93554    42.16517   157.32641
   376  H   1.0    0.06    1.01    1.43    56.41953    41.16622   154.38522
   377  H   1.0    0.07    1.02    1.43    54.42445    40.36931   156.67319
   378  H   1.0    0.10    1.07    1.44    68.52869    42.91146   164.04069
   379  H   1.0    0.06    1.05    1.44    58.01870    51.32231   149.58611
   380  H   1.0    0.11    1.08    1.44    52.58205    58.49294   141.93405
   381  H   1.0    0.07    1.05    1.44    48.82427    61.96180   141.27462
   382  H   1.0    0.09    1.25    1.48    45.71226    70.74841   143.94883
   383  H   1.0    0.07    1.06    1.44    39.80672    74.20503   143.00998
   384  H   1.0    0.10    1.07    1.44    37.32361    60.48993   153.16841
   385  H   1.0    0.06    1.05    1.44    42.13714    48.86575   148.97768
   386  H   1.0    0.10    1.08    1.44    34.42334    31.02379   158.56871
   387  H   1.0    0.08    1.04    1.43    31.16774    32.13348   164.50589
   388  H   1.0    0.11    1.07    1.44    36.30922    32.43181   171.67918
   389  H   1.0    0.07    1.04    1.43    35.89546    39.86885   172.69335
   390  H   1.0    0.11    1.08    1.44    32.82122    68.69663   160.61750
   391  H   1.0    0.05    1.05    1.44    35.63798    61.70080   161.62276
   392  H   1.0    0.09    1.08    1.44    39.25771    58.79878   164.88886
   393  H   1.0    0.07    1.04    1.43    45.86630    53.46082   172.72368
   394  H   1.0    0.10    1.08    1.44    56.20609    28.71138   167.94477
   395  H   1.0    0.07    1.04    1.44    62.12826    29.29773   151.61231

  Z AO/shell   Hii/eV     exponent
  1     Wed Apr 25 08:07:45 CEST 2018   EN: 2.200 GM2: 0.406  GM3: 0.0800  RAES: 1.40
     1s    -10.707211    1.230000
  6     Wed Apr 25 08:07:45 CEST 2018   EN: 2.550 GM2: 0.538  GM3: 0.1500  RAES: 3.00
     2s    -13.970922    2.096432
     2p    -10.063292    1.800000
  7     Wed Apr 25 08:07:45 CEST 2018   EN: 3.040 GM2: 0.461  GM3:-0.0640  RAES: 1.90
     2s    -16.686243    2.339881
     2p    -12.523956    2.014332
  8     Wed Apr 25 08:07:45 CEST 2018   EN: 3.440 GM2: 0.452  GM3:-0.0517  RAES: 1.80
     2s    -20.229985    2.439742
     2p    -15.503117    2.137023
 16     Tue Apr 24 11:44:34 CEST 2018   EN: 2.580 GM2: 0.340  GM3:-0.0502  RAES: 3.10
     3s    -20.029654    1.981333
     3p    -11.377694    2.025643
     3d     -0.420282    1.702555
 no old-style atom pair restraining (fixing) potential

molecular fragmentation (1/2 indicates fragments):
111111111111111111111111111111111111111111122222222222222222222222222222
222222222222222222222222222222222222222222222222222222222222222222222222
222222222222222222222222222222222222222222222222222222222222222222222222
222222222222222222222222222222222222222222222222222222222222222222222222
222222222222222222222222222222222222222222222222222222222222222222222222
22222222222222222112222222222222222
# atoms in fragment 1/2:    45   350
 fragment masses (1/2) :      303.42     2393.81
CMA distance (Bohr)    :  15.967
constraining FC (au)   :  0.0500
           ------------------------------------------------- 
          |        Self-Consistent Charge Iterations        |
           ------------------------------------------------- 

 Ncao       : 968
 Nao        : 967
 Nshell     : 585
 Nel        : 1062
 T(el)      :   500.0
 intcut     :    35.0
 scfconv/Eh :  0.100E-06
   qconv/e  :  0.100E-04
 intneglect :  0.100E-08
 broydamp   :      0.400
 iter      E             dE          RMSdq      gap      omega  full diag
   1   -606.3334459 -0.606333E+03  0.464E+00    2.72       0.0  T
   2   -607.7335317 -0.140009E+01  0.218E+00    1.50       1.0  T
   3   -607.8159027 -0.823710E-01  0.120E+00    1.97       1.0  T
   4   -607.9108527 -0.949500E-01  0.262E-01    1.46       1.0  T
   5   -607.9163423 -0.548952E-02  0.129E-01    1.59       1.0  T
   6   -607.9175533 -0.121104E-02  0.592E-02    1.49       1.0  T
   7   -607.9178536 -0.300336E-03  0.295E-02    1.50       1.0  T
   8   -607.9179078 -0.541921E-04  0.152E-02    1.49       1.0  T
   9   -607.9179285 -0.206981E-04  0.731E-03    1.48       1.0  T
  10   -607.9179326 -0.406159E-05  0.345E-03    1.48       1.5  T
  11   -607.9179336 -0.981546E-06  0.157E-03    1.48       3.2  T
  12   -607.9179337 -0.155431E-06  0.713E-04    1.48       7.1  T
  13   -607.9179338 -0.480672E-07  0.336E-04    1.48      15.0  T
  14   -607.9179338 -0.585544E-08  0.157E-04    1.48      32.1  T
  15   -607.9179338 -0.248815E-08  0.685E-05    1.48      73.4  T
  16   -607.9179338 -0.342311E-09  0.318E-05    1.48     158.2  T
speedup  1.96
cpu  time for SCC   19.53 s
wall time for SCC    9.98 s

   *** convergence criteria satisfied after 16 iterations ***

          eigenvalues
 #    :         519        520        521        522        523        524        525        526
 occ. :        2.000      2.000      2.000      2.000      2.000      2.000      2.000      2.000
 eps  :       -10.548    -10.509    -10.414    -10.369    -10.259    -10.145    -10.070    -10.065
 #    :         527        528        529        530        531        532        533        534
 occ. :        2.000      2.000      2.000      2.000      2.000      0.000      0.000      0.000
 eps  :       -10.003     -9.991     -9.923     -9.880     -9.641     -8.162     -7.808     -7.798
 #    :         535        536        537        538        539        540        541        542
 occ. :        0.000      0.000      0.000      0.000      0.000      0.000      0.000      0.000
 eps  :        -7.788     -7.735     -7.708     -7.622     -7.622     -7.202     -6.728     -6.716


   #   Z            q   n(s)   n(p)   n(d)      C6AA      α(0)
   1   7 N     -0.389  1.323  4.066  0.000    30.066     8.144
   2   6 C      0.027  1.060  2.913  0.000    20.126     6.389
   3   6 C      0.274  1.047  2.679  0.000    22.369     7.745
   4   8 O     -0.490  1.759  4.731  0.000    23.568     6.509
   5   6 C     -0.067  1.055  3.012  0.000    21.752     6.634
   6   6 C      0.001  1.056  2.943  0.000    20.572     6.458
   7  16 S     -0.219  1.909  4.261  0.049   150.411    20.642
   8   6 C     -0.075  1.064  3.010  0.000    22.008     6.693
   9   1 H      0.152  0.848  0.000  0.000     1.387     1.845
  10   1 H      0.059  0.941  0.000  0.000     2.212     2.326
  11   1 H      0.029  0.971  0.000  0.000     2.607     2.525
  12   1 H      0.060  0.940  0.000  0.000     2.203     2.321
  13   1 H      0.037  0.963  0.000  0.000     2.488     2.467
  14   1 H      0.033  0.967  0.000  0.000     2.543     2.494
  15   1 H      0.075  0.925  0.000  0.000     2.032     2.229
  16   1 H      0.045  0.955  0.000  0.000     2.384     2.414
  17   1 H      0.089  0.911  0.000  0.000     1.886     2.148
  18   7 N     -0.193  1.246  3.948  0.000    25.192     7.454
  19   6 C      0.018  1.062  2.920  0.000    20.267     6.409
  20   6 C      0.270  1.044  2.687  0.000    22.448     7.759
  21   8 O     -0.517  1.766  4.750  0.000    24.153     6.589
  22   6 C     -0.036  1.059  2.977  0.000    21.165     6.540
  23   6 C     -0.069  1.055  3.014  0.000    21.825     6.652
  24   6 C     -0.145  1.044  3.100  0.000    23.343     6.888
  25   6 C     -0.117  1.038  3.078  0.000    22.805     6.811
  26   1 H      0.213  0.787  0.000  0.000     1.043     1.600
  27   1 H      0.072  0.928  0.000  0.000     2.066     2.248
  28   1 H      0.064  0.936  0.000  0.000     2.153     2.294
  29   1 H      0.059  0.941  0.000  0.000     2.212     2.326
  30   1 H      0.048  0.952  0.000  0.000     2.351     2.398
  31   1 H      0.081  0.919  0.000  0.000     1.970     2.195
  32   1 H      0.062  0.938  0.000  0.000     2.178     2.308
  33   1 H      0.049  0.951  0.000  0.000     2.336     2.390
  34   1 H      0.030  0.970  0.000  0.000     2.592     2.518
  35   1 H      0.038  0.962  0.000  0.000     2.477     2.461
  36   1 H      0.052  0.948  0.000  0.000     2.298     2.370
  37   7 N     -0.154  1.244  3.910  0.000    24.323     7.325
  38   6 C     -0.040  1.059  2.982  0.000    21.364     6.593
  39   6 C      0.195  1.081  2.724  0.000    23.836     7.995
  40   8 O     -0.347  1.741  4.606  0.000    20.656     6.093
  41   1 H      0.222  0.778  0.000  0.000     0.998     1.565
  42   1 H      0.120  0.880  0.000  0.000     1.615     1.988
  43   1 H      0.117  0.883  0.000  0.000     1.638     2.002
  44   7 N     -0.367  1.323  4.044  0.000    29.465     8.062
  45   6 C      0.002  1.078  2.921  0.000    20.588     6.466
  46   6 C      0.196  1.084  2.720  0.000    23.816     7.992
  47   8 O     -0.372  1.760  4.611  0.000    21.126     6.162
  48   6 C      0.067  1.041  2.892  0.000    19.693     6.361
  49   8 O     -0.478  1.739  4.738  0.000    22.422     6.392
  50   1 H      0.188  0.812  0.000  0.000     1.171     1.695
  51   1 H      0.075  0.925  0.000  0.000     2.029     2.228
  52   1 H      0.056  0.944  0.000  0.000     2.250     2.346
  53   1 H      0.062  0.938  0.000  0.000     2.180     2.309
  54   1 H      0.335  0.665  0.000  0.000     0.624     1.241
  55   7 N     -0.332  1.384  3.948  0.000    28.540     7.934
  56   6 C      0.043  1.053  2.903  0.000    19.827     6.336
  57   6 C      0.217  1.065  2.717  0.000    23.408     7.924
  58   8 O     -0.351  1.729  4.622  0.000    20.730     6.104
  59   6 C     -0.058  1.055  3.003  0.000    21.588     6.610
  60   6 C     -0.070  1.055  3.014  0.000    21.813     6.646
  61   6 C      0.008  1.052  2.940  0.000    20.447     6.438
  62   1 H      0.012  0.988  0.000  0.000     2.857     2.644
  63   1 H      0.055  0.945  0.000  0.000     2.264     2.353
  64   1 H      0.042  0.958  0.000  0.000     2.418     2.432
  65   1 H      0.054  0.946  0.000  0.000     2.271     2.356
  66   1 H      0.050  0.950  0.000  0.000     2.324     2.384
  67   1 H      0.044  0.956  0.000  0.000     2.392     2.419
  68   1 H      0.028  0.972  0.000  0.000     2.611     2.527
  69   7 N     -0.391  1.325  4.067  0.000    30.136     8.153
  70   6 C      0.015  1.061  2.923  0.000    20.328     6.421
  71   6 C      0.291  1.027  2.682  0.000    22.074     7.694
  72   8 O     -0.442  1.706  4.736  0.000    22.525     6.364
  73   6 C     -0.070  1.054  3.017  0.000    21.844     6.654
  74   6 C     -0.077  1.054  3.023  0.000    21.974     6.674
  75   6 C     -0.019  1.046  2.973  0.000    21.005     6.541
  76   7 N     -0.139  1.204  3.935  0.000    24.009     7.277
  77   6 C      0.225  1.029  2.747  0.000    23.272     7.898
  78   7 N     -0.223  1.221  4.002  0.000    25.875     7.555
  79   7 N     -0.232  1.238  3.994  0.000    26.080     7.585
  80   1 H      0.160  0.840  0.000  0.000     1.333     1.809
  81   1 H      0.037  0.963  0.000  0.000     2.488     2.466
  82   1 H      0.057  0.943  0.000  0.000     2.232     2.336
  83   1 H      0.050  0.950  0.000  0.000     2.318     2.381
  84   1 H      0.057  0.943  0.000  0.000     2.232     2.337
  85   1 H      0.039  0.961  0.000  0.000     2.466     2.456
  86   1 H      0.060  0.940  0.000  0.000     2.195     2.317
  87   1 H      0.091  0.909  0.000  0.000     1.867     2.137
  88   1 H      0.227  0.773  0.000  0.000     0.979     1.550
  89   1 H      0.219  0.781  0.000  0.000     1.014     1.577
  90   1 H      0.238  0.762  0.000  0.000     0.933     1.513
  91   1 H      0.254  0.746  0.000  0.000     0.866     1.458
  92   1 H      0.256  0.744  0.000  0.000     0.860     1.452
  93   7 N     -0.185  1.245  3.940  0.000    25.005     7.427
  94   6 C      0.023  1.050  2.927  0.000    20.179     6.394
  95   6 C      0.267  1.041  2.692  0.000    22.498     7.769
  96   8 O     -0.507  1.738  4.769  0.000    23.933     6.559
  97   6 C     -0.074  1.055  3.020  0.000    21.912     6.663
  98   6 C     -0.008  1.081  2.927  0.000    28.217     8.713
  99   6 C     -0.043  1.079  2.963  0.000    29.058     8.840
 100   6 C     -0.045  1.085  2.960  0.000    29.129     8.851
 101   6 C     -0.060  1.080  2.980  0.000    29.491     8.905
 102   6 C     -0.074  1.082  2.992  0.000    29.845     8.958
 103   6 C      0.135  1.052  2.813  0.000    25.041     8.200
 104   8 O     -0.427  1.704  4.723  0.000    21.380     6.242
 105   1 H      0.180  0.820  0.000  0.000     1.213     1.725
 106   1 H      0.070  0.930  0.000  0.000     2.090     2.261
 107   1 H      0.056  0.944  0.000  0.000     2.250     2.346
 108   1 H      0.058  0.942  0.000  0.000     2.218     2.329
 109   1 H      0.050  0.950  0.000  0.000     2.322     2.383
 110   1 H      0.035  0.965  0.000  0.000     2.516     2.480
 111   1 H      0.076  0.924  0.000  0.000     2.021     2.223
 112   1 H      0.049  0.951  0.000  0.000     2.334     2.389
 113   1 H      0.344  0.656  0.000  0.000     0.603     1.219
 114   7 N     -0.086  1.240  3.846  0.000    22.918     7.110
 115   6 C      0.016  1.069  2.915  0.000    20.285     6.409
 116   6 C      0.265  1.059  2.676  0.000    22.536     7.773
 117   8 O     -0.470  1.762  4.708  0.000    23.126     6.448
 118   6 C     -0.076  1.059  3.017  0.000    21.940     6.666
 119   6 C     -0.079  1.054  3.025  0.000    21.992     6.673
 120   6 C     -0.020  1.054  2.966  0.000    20.963     6.525
 121   1 H      0.081  0.919  0.000  0.000     1.972     2.196
 122   1 H      0.068  0.932  0.000  0.000     2.104     2.268
 123   1 H      0.072  0.928  0.000  0.000     2.062     2.246
 124   1 H      0.071  0.929  0.000  0.000     2.073     2.252
 125   1 H      0.082  0.918  0.000  0.000     1.961     2.190
 126   1 H      0.077  0.923  0.000  0.000     2.009     2.216
 127   1 H      0.078  0.922  0.000  0.000     1.999     2.211
 128   7 N     -0.186  1.236  3.951  0.000    25.040     7.432
 129   6 C      0.020  1.061  2.919  0.000    20.251     6.410
 130   6 C      0.256  1.057  2.687  0.000    22.686     7.800
 131   8 O     -0.517  1.772  4.745  0.000    24.154     6.589
 132   6 C     -0.084  1.049  3.035  0.000    22.081     6.687
 133   6 C     -0.085  1.055  3.029  0.000    22.114     6.695
 134   6 C     -0.028  1.055  2.973  0.000    21.154     6.561
 135   7 N     -0.137  1.208  3.929  0.000    23.971     7.272
 136   6 C      0.226  1.026  2.747  0.000    23.237     7.892
 137   7 N     -0.263  1.225  4.038  0.000    26.829     7.693
 138   7 N     -0.240  1.230  4.009  0.000    26.265     7.611
 139   1 H      0.202  0.798  0.000  0.000     1.094     1.639
 140   1 H      0.091  0.909  0.000  0.000     1.873     2.140
 141   1 H      0.066  0.934  0.000  0.000     2.132     2.283
 142   1 H      0.073  0.927  0.000  0.000     2.058     2.244
 143   1 H      0.068  0.932  0.000  0.000     2.111     2.272
 144   1 H      0.076  0.924  0.000  0.000     2.021     2.223
 145   1 H      0.090  0.910  0.000  0.000     1.879     2.143
 146   1 H      0.085  0.915  0.000  0.000     1.930     2.173
 147   1 H      0.231  0.769  0.000  0.000     0.960     1.535
 148   1 H      0.242  0.758  0.000  0.000     0.915     1.498
 149   1 H      0.242  0.758  0.000  0.000     0.914     1.497
 150   1 H      0.253  0.747  0.000  0.000     0.872     1.463
 151   1 H      0.259  0.741  0.000  0.000     0.849     1.444
 152   7 N     -0.161  1.237  3.924  0.000    24.487     7.349
 153   6 C      0.032  1.054  2.913  0.000    20.028     6.371
 154   6 C      0.288  1.029  2.684  0.000    22.123     7.702
 155   8 O     -0.451  1.709  4.741  0.000    22.723     6.391
 156   6 C     -0.066  1.056  3.010  0.000    21.762     6.641
 157   6 C     -0.093  1.056  3.037  0.000    22.279     6.720
 158   6 C      0.349  1.040  2.612  0.000    21.080     7.514
 159   8 O     -0.570  1.763  4.807  0.000    25.403     6.757
 160   8 O     -0.623  1.792  4.831  0.000    26.694     6.927
 161   1 H      0.221  0.779  0.000  0.000     1.006     1.571
 162   1 H      0.043  0.957  0.000  0.000     2.410     2.428
 163   1 H      0.056  0.944  0.000  0.000     2.252     2.347
 164   1 H      0.068  0.932  0.000  0.000     2.108     2.270
 165   1 H      0.056  0.944  0.000  0.000     2.246     2.344
 166   1 H      0.045  0.955  0.000  0.000     2.384     2.414
 167   7 N     -0.172  1.237  3.935  0.000    24.726     7.385
 168   6 C     -0.001  1.068  2.934  0.000    20.617     6.467
 169   6 C      0.276  1.044  2.679  0.000    22.323     7.737
 170   8 O     -0.444  1.694  4.750  0.000    22.587     6.372
 171   6 C      0.112  1.047  2.841  0.000    18.841     6.198
 172   8 O     -0.476  1.728  4.748  0.000    22.378     6.386
 173   6 C     -0.126  1.041  3.085  0.000    22.975     6.835
 174   1 H      0.175  0.825  0.000  0.000     1.244     1.747
 175   1 H      0.089  0.911  0.000  0.000     1.886     2.148
 176   1 H      0.068  0.932  0.000  0.000     2.109     2.271
 177   1 H      0.323  0.677  0.000  0.000     0.656     1.273
 178   1 H      0.052  0.948  0.000  0.000     2.290     2.366
 179   1 H      0.066  0.934  0.000  0.000     2.125     2.279
 180   1 H      0.048  0.952  0.000  0.000     2.347     2.396
 181   7 N     -0.199  1.252  3.946  0.000    25.312     7.472
 182   6 C      0.016  1.061  2.923  0.000    20.308     6.416
 183   6 C      0.270  1.041  2.690  0.000    22.443     7.758
 184   8 O     -0.481  1.728  4.753  0.000    23.375     6.482
 185   6 C     -0.075  1.055  3.020  0.000    21.930     6.666
 186   6 C      0.011  1.082  2.906  0.000    27.757     8.642
 187   6 C     -0.040  1.080  2.960  0.000    29.006     8.832
 188   6 C     -0.037  1.080  2.958  0.000    28.925     8.820
 189   6 C     -0.032  1.082  2.950  0.000    28.802     8.801
 190   6 C     -0.030  1.077  2.953  0.000    28.755     8.794
 191   6 C     -0.036  1.079  2.958  0.000    28.906     8.817
 192   1 H      0.207  0.793  0.000  0.000     1.073     1.622
 193   1 H      0.086  0.914  0.000  0.000     1.914     2.164
 194   1 H      0.059  0.941  0.000  0.000     2.208     2.324
 195   1 H      0.050  0.950  0.000  0.000     2.320     2.382
 196   1 H      0.055  0.945  0.000  0.000     2.259     2.350
 197   1 H      0.012  0.988  0.000  0.000     2.851     2.641
 198   1 H      0.056  0.944  0.000  0.000     2.249     2.345
 199   1 H      0.015  0.985  0.000  0.000     2.809     2.621
 200   1 H      0.041  0.959  0.000  0.000     2.442     2.443
 201   7 N     -0.203  1.255  3.948  0.000    25.415     7.487
 202   6 C      0.025  1.059  2.916  0.000    20.153     6.390
 203   6 C      0.264  1.041  2.695  0.000    22.544     7.776
 204   8 O     -0.522  1.751  4.771  0.000    24.273     6.606
 205   6 C     -0.069  1.059  3.010  0.000    21.808     6.647
 206   6 C     -0.007  1.051  2.956  0.000    20.661     6.465
 207   6 C     -0.105  1.038  3.067  0.000    22.561     6.773
 208   6 C     -0.116  1.042  3.074  0.000    22.773     6.804
 209   1 H      0.225  0.775  0.000  0.000     0.988     1.557
 210   1 H      0.067  0.933  0.000  0.000     2.118     2.276
 211   1 H      0.043  0.957  0.000  0.000     2.409     2.427
 212   1 H      0.058  0.942  0.000  0.000     2.225     2.333
 213   1 H      0.030  0.970  0.000  0.000     2.582     2.513
 214   1 H      0.028  0.972  0.000  0.000     2.608     2.526
 215   1 H      0.024  0.976  0.000  0.000     2.681     2.560
 216   1 H      0.042  0.958  0.000  0.000     2.418     2.432
 217   1 H      0.027  0.973  0.000  0.000     2.627     2.535
 218   1 H      0.045  0.955  0.000  0.000     2.385     2.415
 219   1 H      0.051  0.949  0.000  0.000     2.311     2.377
 220   7 N     -0.072  1.235  3.836  0.000    22.634     7.066
 221   6 C      0.002  1.091  2.907  0.000    20.546     6.454
 222   6 C      0.208  1.077  2.715  0.000    23.596     7.955
 223   8 O     -0.360  1.745  4.616  0.000    20.905     6.130
 224   6 C     -0.082  1.060  3.022  0.000    22.060     6.688
 225   6 C     -0.081  1.069  3.013  0.000    22.056     6.687
 226   6 C     -0.031  1.058  2.972  0.000    21.223     6.577
 227   1 H      0.116  0.884  0.000  0.000     1.645     2.006
 228   1 H      0.090  0.910  0.000  0.000     1.879     2.144
 229   1 H      0.088  0.912  0.000  0.000     1.903     2.158
 230   1 H      0.061  0.939  0.000  0.000     2.192     2.315
 231   1 H      0.079  0.921  0.000  0.000     1.986     2.204
 232   1 H      0.071  0.929  0.000  0.000     2.076     2.253
 233   1 H      0.083  0.917  0.000  0.000     1.948     2.183
 234   7 N     -0.390  1.317  4.074  0.000    30.105     8.149
 235   6 C      0.035  1.056  2.909  0.000    20.010     6.373
 236   6 C      0.208  1.095  2.697  0.000    23.579     7.952
 237   8 O     -0.388  1.764  4.624  0.000    21.448     6.209
 238   6 C     -0.072  1.048  3.024  0.000    21.883     6.660
 239   6 C     -0.083  1.050  3.033  0.000    22.082     6.690
 240   6 C     -0.031  1.060  2.971  0.000    21.212     6.573
 241   7 N     -0.111  1.205  3.906  0.000    23.431     7.189
 242   6 C      0.227  1.031  2.742  0.000    23.223     7.890
 243   7 N     -0.266  1.246  4.021  0.000    26.904     7.703
 244   7 N     -0.315  1.262  4.052  0.000    28.102     7.873
 245   1 H      0.170  0.830  0.000  0.000     1.270     1.766
 246   1 H      0.069  0.931  0.000  0.000     2.096     2.264
 247   1 H      0.057  0.943  0.000  0.000     2.231     2.336
 248   1 H      0.031  0.969  0.000  0.000     2.576     2.510
 249   1 H      0.071  0.929  0.000  0.000     2.078     2.254
 250   1 H      0.090  0.910  0.000  0.000     1.882     2.145
 251   1 H      0.109  0.891  0.000  0.000     1.707     2.043
 252   1 H      0.083  0.917  0.000  0.000     1.949     2.183
 253   1 H      0.204  0.796  0.000  0.000     1.086     1.632
 254   1 H      0.244  0.756  0.000  0.000     0.908     1.493
 255   1 H      0.251  0.749  0.000  0.000     0.880     1.469
 256   1 H      0.240  0.760  0.000  0.000     0.923     1.505
 257   1 H      0.238  0.762  0.000  0.000     0.930     1.511
 258   7 N     -0.381  1.327  4.054  0.000    29.845     8.114
 259   6 C      0.039  1.060  2.901  0.000    19.941     6.362
 260   6 C      0.198  1.097  2.705  0.000    23.772     7.985
 261   8 O     -0.376  1.771  4.605  0.000    21.204     6.174
 262   6 C     -0.056  1.053  3.003  0.000    21.580     6.614
 263   6 C     -0.089  1.063  3.026  0.000    22.210     6.711
 264   6 C      0.357  1.033  2.609  0.000    20.938     7.488
 265   8 O     -0.598  1.761  4.837  0.000    26.079     6.847
 266   8 O     -0.640  1.797  4.843  0.000    27.123     6.982
 267   1 H      0.156  0.844  0.000  0.000     1.359     1.826
 268   1 H      0.057  0.943  0.000  0.000     2.231     2.336
 269   1 H      0.043  0.957  0.000  0.000     2.404     2.425
 270   1 H      0.048  0.952  0.000  0.000     2.347     2.396
 271   1 H      0.033  0.967  0.000  0.000     2.550     2.497
 272   1 H      0.033  0.967  0.000  0.000     2.546     2.495
 273   7 N     -0.388  1.311  4.078  0.000    30.049     8.141
 274   6 C      0.019  1.063  2.918  0.000    20.270     6.413
 275   6 C      0.202  1.072  2.726  0.000    23.710     7.975
 276   8 O     -0.360  1.749  4.611  0.000    20.889     6.128
 277   6 C      0.111  1.050  2.840  0.000    18.856     6.199
 278   8 O     -0.482  1.732  4.750  0.000    22.513     6.405
 279   6 C     -0.140  1.047  3.094  0.000    23.266     6.879
 280   1 H      0.161  0.839  0.000  0.000     1.326     1.804
 281   1 H      0.069  0.931  0.000  0.000     2.094     2.263
 282   1 H      0.044  0.956  0.000  0.000     2.392     2.418
 283   1 H      0.335  0.665  0.000  0.000     0.623     1.240
 284   1 H      0.065  0.935  0.000  0.000     2.141     2.288
 285   1 H      0.048  0.952  0.000  0.000     2.344     2.394
 286   1 H      0.067  0.933  0.000  0.000     2.120     2.277
 287   7 N     -0.386  1.316  4.071  0.000    29.998     8.134
 288   6 C      0.039  1.051  2.909  0.000    19.927     6.358
 289   6 C      0.281  1.034  2.685  0.000    22.244     7.725
 290   8 O     -0.520  1.753  4.767  0.000    24.236     6.601
 291   6 C     -0.114  1.043  3.071  0.000    22.713     6.792
 292   1 H      0.159  0.841  0.000  0.000     1.343     1.815
 293   1 H      0.039  0.961  0.000  0.000     2.457     2.452
 294   1 H      0.044  0.956  0.000  0.000     2.395     2.420
 295   1 H      0.051  0.949  0.000  0.000     2.307     2.375
 296   1 H      0.044  0.956  0.000  0.000     2.400     2.422
 297   7 N     -0.196  1.253  3.943  0.000    25.248     7.463
 298   6 C      0.020  1.061  2.920  0.000    20.248     6.407
 299   6 C      0.218  1.081  2.701  0.000    23.403     7.922
 300   8 O     -0.344  1.736  4.607  0.000    20.586     6.083
 301   6 C      0.087  1.034  2.879  0.000    19.342     6.299
 302   8 O     -0.495  1.728  4.767  0.000    22.789     6.444
 303   1 H      0.231  0.769  0.000  0.000     0.962     1.537
 304   1 H      0.080  0.920  0.000  0.000     1.978     2.200
 305   1 H      0.050  0.950  0.000  0.000     2.318     2.381
 306   1 H      0.050  0.950  0.000  0.000     2.317     2.380
 307   1 H      0.337  0.663  0.000  0.000     0.621     1.238
 308   7 N     -0.389  1.313  4.076  0.000    30.075     8.145
 309   6 C      0.034  1.059  2.907  0.000    20.014     6.372
 310   6 C      0.265  1.046  2.689  0.000    22.527     7.774
 311   8 O     -0.509  1.752  4.757  0.000    23.974     6.565
 312   6 C     -0.075  1.053  3.021  0.000    21.921     6.664
 313   6 C      0.009  1.089  2.902  0.000    27.816     8.651
 314   6 C     -0.043  1.081  2.962  0.000    29.077     8.843
 315   6 C     -0.041  1.082  2.959  0.000    29.012     8.833
 316   6 C     -0.030  1.079  2.951  0.000    28.748     8.792
 317   6 C     -0.031  1.077  2.954  0.000    28.783     8.798
 318   6 C     -0.034  1.077  2.957  0.000    28.852     8.808
 319   1 H      0.147  0.853  0.000  0.000     1.420     1.866
 320   1 H      0.050  0.950  0.000  0.000     2.324     2.384
 321   1 H      0.052  0.948  0.000  0.000     2.292     2.367
 322   1 H      0.055  0.945  0.000  0.000     2.253     2.347
 323   1 H      0.052  0.948  0.000  0.000     2.291     2.367
 324   1 H      0.024  0.976  0.000  0.000     2.666     2.553
 325   1 H      0.030  0.970  0.000  0.000     2.583     2.513
 326   1 H      0.021  0.979  0.000  0.000     2.722     2.580
 327   1 H      0.021  0.979  0.000  0.000     2.713     2.576
 328   7 N     -0.089  1.232  3.857  0.000    22.971     7.118
 329   6 C      0.026  1.054  2.920  0.000    20.102     6.377
 330   6 C      0.277  1.041  2.682  0.000    22.314     7.735
 331   8 O     -0.520  1.763  4.757  0.000    24.233     6.600
 332   6 C     -0.067  1.054  3.013  0.000    21.752     6.635
 333   6 C     -0.077  1.053  3.023  0.000    21.937     6.664
 334   6 C     -0.020  1.055  2.965  0.000    20.964     6.525
 335   1 H      0.059  0.941  0.000  0.000     2.206     2.323
 336   1 H      0.055  0.945  0.000  0.000     2.253     2.347
 337   1 H      0.059  0.941  0.000  0.000     2.207     2.323
 338   1 H      0.068  0.932  0.000  0.000     2.107     2.270
 339   1 H      0.072  0.928  0.000  0.000     2.059     2.244
 340   1 H      0.084  0.916  0.000  0.000     1.933     2.174
 341   1 H      0.070  0.930  0.000  0.000     2.090     2.261
 342   7 N     -0.193  1.247  3.946  0.000    25.179     7.453
 343   6 C      0.023  1.059  2.918  0.000    20.209     6.403
 344   6 C      0.260  1.053  2.686  0.000    22.612     7.786
 345   8 O     -0.481  1.751  4.730  0.000    23.359     6.480
 346   6 C     -0.112  1.060  3.053  0.000    22.639     6.773
 347   6 C      0.274  1.047  2.679  0.000    22.365     7.743
 348   8 O     -0.505  1.767  4.738  0.000    23.897     6.554
 349   7 N     -0.260  1.260  3.999  0.000    26.738     7.680
 350   1 H      0.239  0.761  0.000  0.000     0.929     1.510
 351   1 H      0.078  0.922  0.000  0.000     1.999     2.211
 352   1 H      0.098  0.902  0.000  0.000     1.805     2.101
 353   1 H      0.092  0.908  0.000  0.000     1.855     2.130
 354   1 H      0.247  0.753  0.000  0.000     0.897     1.484
 355   1 H      0.248  0.752  0.000  0.000     0.890     1.478
 356   7 N     -0.150  1.230  3.920  0.000    24.241     7.312
 357   6 C      0.017  1.067  2.915  0.000    20.299     6.418
 358   6 C      0.196  1.090  2.714  0.000    23.811     7.991
 359   8 O     -0.375  1.769  4.606  0.000    21.186     6.171
 360   6 C     -0.078  1.058  3.020  0.000    21.984     6.675
 361   6 C     -0.070  1.050  3.020  0.000    21.843     6.654
 362   6 C     -0.101  1.061  3.040  0.000    22.435     6.744
 363   6 C     -0.053  1.061  2.992  0.000    21.622     6.638
 364   7 N     -0.130  1.225  3.905  0.000    23.810     7.247
 365   1 H      0.193  0.807  0.000  0.000     1.145     1.676
 366   1 H      0.112  0.888  0.000  0.000     1.680     2.027
 367   1 H      0.055  0.945  0.000  0.000     2.259     2.350
 368   1 H      0.086  0.914  0.000  0.000     1.920     2.167
 369   1 H      0.051  0.949  0.000  0.000     2.302     2.373
 370   1 H      0.064  0.936  0.000  0.000     2.152     2.294
 371   1 H      0.091  0.909  0.000  0.000     1.868     2.137
 372   1 H      0.088  0.912  0.000  0.000     1.899     2.155
 373   1 H      0.116  0.884  0.000  0.000     1.649     2.008
 374   1 H      0.123  0.877  0.000  0.000     1.590     1.972
 375   1 H      0.287  0.713  0.000  0.000     0.754     1.361
 376   1 H      0.296  0.704  0.000  0.000     0.725     1.334
 377   1 H      0.274  0.726  0.000  0.000     0.796     1.398
 378   1 H      0.177  0.823  0.000  0.000     1.229     1.737
 379   1 H      0.093  0.907  0.000  0.000     1.845     2.124
 380   1 H      0.174  0.826  0.000  0.000     1.246     1.748
 381   1 H      0.063  0.937  0.000  0.000     2.167     2.302
 382   1 H      0.212  0.788  0.000  0.000     1.045     1.600
 383   1 H      0.046  0.954  0.000  0.000     2.372     2.408
 384   1 H      0.179  0.821  0.000  0.000     1.222     1.731
 385   1 H      0.082  0.918  0.000  0.000     1.955     2.186
 386   1 H      0.195  0.805  0.000  0.000     1.130     1.665
 387   1 H      0.060  0.940  0.000  0.000     2.199     2.319
 388   1 H      0.175  0.825  0.000  0.000     1.243     1.746
 389   1 H      0.075  0.925  0.000  0.000     2.028     2.227
 390   1 H      0.188  0.812  0.000  0.000     1.170     1.694
 391   1 H      0.065  0.935  0.000  0.000     2.145     2.290
 392   1 H      0.178  0.822  0.000  0.000     1.226     1.734
 393   1 H      0.070  0.930  0.000  0.000     2.080     2.255
 394   1 H      0.182  0.818  0.000  0.000     1.203     1.718
 395   1 H      0.089  0.911  0.000  0.000     1.889     2.149

 Mol. C6AA /au·bohr⁶  :    1433093.589677
 Mol. C8AA /au·bohr⁸  :   32144965.741521
 Mol. α(0) /au        :       1799.507321

 
molecular dipole:
                 x           y           z       tot (Debye)
 q only:      113.136     116.327     303.597
   full:      112.426     117.021     306.185     880.808
molecular quadrupole (traceless):
                xx          xy          yy          xz          yz          zz
 q only:   -20247.383   10073.474  -19051.685   26210.509   27113.515   39299.068
  q+dip:   -20762.035   10051.448  -19398.422   26267.085   27477.493   40160.457
   full:   -20758.556   10055.350  -19402.952   26266.422   27477.347   40161.507
speedup  1.97
cpu  time for grad   25.42 s
wall time for grad   12.93 s

SCC energy    :    -607.9414411
rep           :       7.6401748
ES            :       1.7993689
AES           :      -0.0647911
AXC           :       0.2231442
disp          :      -0.4732377
XB            :       0.0000000
fix           :       0.0000000
Gborn         :       0.0000000
Gsasa         :       0.0000000
Ghb           :       0.0000000
Gshift        :       0.0000000
Gsolv         :      -0.5267691     -330.55
Etot ala COSMO:    -607.9414411
grad norm     :       0.8231089
total E       :    -600.2675327
atomizationE  :     109.3828646    68638.78
(atE without considering molecular charge,
 total energy contains solvation terms)
H-L gap (eV)  :          1.4794

------------------------------------------------------------------------
 * finished run on 2019/05/12 at 12:15:48.175     
------------------------------------------------------------------------
 total:
 * wall-time:     0 d,  0 h,  0 min, 13.407 sec
 *  cpu-time:     0 d,  0 h,  0 min, 26.290 sec
 * ratio c/w:     1.961 speedup
 SCF:
 * wall-time:     0 d,  0 h,  0 min, 13.200 sec
 *  cpu-time:     0 d,  0 h,  0 min, 25.964 sec
 * ratio c/w:     1.967 speedup

