      -----------------------------------------------------------      
     |                   =====================                   |     
     |                           x T B                           |     
     |                   =====================                   |     
     |                         S. Grimme                         |     
     |          Mulliken Center for Theoretical Chemistry        |     
     |                    University of Bonn                     |     
     |                 Version 6.0.1 (SAW181210)                 |     
      -----------------------------------------------------------      

   This program is distributed in the hope that it will be useful,
   but WITHOUT ANY WARRANTY; without even the implied warranty of
   MERCHANTABILITY or FITNESS FOR A PARTICULAR PURPOSE.
   
   FOR NON-COMMERCIAL, ACADEMIA USE ONLY.
   
   Cite this work as:
   S. Grimme, C. Bannwarth, P. Shushkov, J. Comput. Theory Chem., 2017,
   13, 1989-2009.
   C. Bannwarth, S. Ehlert and S. Grimme., ChemRxiv, 2018, preprint.
   http://doi.org/10.26434/chemrxiv.7246238.v1
   
   for sTDA-xTB:
   S. Grimme and C. Bannwarth, J. Chem. Phys., 2016, 145, 054103.
   
   in the mass-spec context:
   V. Asgeirsson, C. Bauer and S. Grimme, Chem. Sci., 2017, 8, 4879.
   
   if GBSA is used:
   P. Shushkov, F. März and S. Grimme, unpublished.
   
   for ANC optimizer:
   S. Grimme, unpublished.
   Rational Function algorithm used in ANCopt:
   F. Eckert, P. Pulay, H.-J. Werner, J. Comput. Chem., 1997, 18, 1473.
   
   with help from (in alphabetical order)
   C. Bannwarth, F. Bohle, G. Brandenburg, E. Caldeweyher, M. Checinski,
   S. Dohm, S. Ehlert, S. Ehrlich, F. März, H. Neugebauer, J. Pisarek,
   P. Pracht, P. Shushkov, and S. Spicher.
   
 * started run on 2019/02/18 at 08:32:51.658     
========================================================================
 # omp threads = 12
========================================================================
number of atoms            : 474
number of electrons        : 1242
charge                     : 1
spin                       : .0
first test random number   : .0674

########################################################################
# WARNING! Please study the warnings concerning your input carefully
#  - Process number higher than OMP_NUM_THREADS, I hope you know what you are doing.
########################################################################

           ------------------------------------------------- 
          |                 G F N 2 - x T B                 |
          | Geometry, Frequencies, Noncovalent interactions |
          |            JCTC 2018 parametrisation            |
           ------------------------------------------------- 
 
      method parameters     
 k(s)        :  1.8500
 k(p)        :  2.2300
 k(d)        :  2.2300
 k(f)        :  2.0000
 kEN (H0ij)  : -2.0000
 D4 a1       :  0.5200
 D4 a2       :  5.0000
 D4 s6       :  1.0000
 D4 s8       :  2.7000
 D4 s9       :  5.0000
 alphaj      :  2.0000

 Solvent             : h2o
 Using internal parameter file: .param_gbsa2_h2o
 Gsolv ref. state (COSMO-RS): gsolv [1 M gas/solution]
 temperature (mdtemp)       :    298.150000000000     
 dielectric constant        :    80.2000000000000     
 rho                        :    1.00000000000000     
 mass                       :    18.0000000000000     
 surface tension            :    15.5689454083859     
 probe radius               :   0.975313790000000     
 vdW radii scaling          :    1.00000000000000     
 Gshift (Eh)                :   1.857443126794793E-003
 c1                         :    1.55243817000000     
 soset                      :   0.130326360000000     
 HB correction              :  T

            Z     q(EN)     CN     RAES       Cart. coordinates
     1  N   5.0   -0.21    3.23    1.96    50.72979    20.50076    34.54093
     2  C   4.0    0.02    4.33    4.26    48.46980    19.54200    35.75303
     3  C   4.0    0.14    3.46    3.10    49.02218    17.07645    37.14184
     4  O   6.0   -0.33    1.33    1.80    48.29201    16.74420    39.31766
     5  C   4.0   -0.05    4.35    4.30    46.36720    19.20351    33.80630
     6  C   4.0   -0.02    4.18    3.97    43.87450    18.22935    34.92550
     7  C   4.0   -0.08    4.11    3.82    42.92603    19.90362    37.07642
     8  C   4.0   -0.08    4.11    3.81    41.89387    18.09098    32.83046
     9  H   1.0    0.08    1.03    1.43    50.71089    20.64949    32.63167
    10  H   1.0    0.04    1.06    1.44    47.88678    20.90494    37.20421
    11  H   1.0    0.04    1.03    1.43    46.04853    21.02940    32.90125
    12  H   1.0    0.04    1.03    1.43    47.03038    17.88744    32.35970
    13  H   1.0    0.04    1.05    1.44    44.18480    16.31901    35.66332
    14  H   1.0    0.04    1.00    1.43    41.00692    19.36719    37.57700
    15  H   1.0    0.04    1.00    1.43    44.09543    19.68417    38.74851
    16  H   1.0    0.04    1.00    1.43    42.93710    21.87297    36.50133
    17  H   1.0    0.04    1.00    1.43    40.10200    17.42469    33.57805
    18  H   1.0    0.04    1.00    1.43    41.60647    19.94441    31.99305
    19  H   1.0    0.04    1.00    1.43    42.50456    16.79598    31.35750
    20  N   5.0   -0.15    3.50    2.08    50.33904    15.35063    35.86682
    21  C   4.0    0.03    4.43    4.43    51.03148    12.96643    37.01931
    22  C   4.0    0.16    3.50    3.11    52.24782    13.40420    39.60823
    23  O   6.0   -0.30    1.25    1.80    51.65909    12.17176    41.47325
    24  C   4.0   -0.04    4.29    4.18    52.82162    11.55415    35.25570
    25  C   4.0   -0.03    4.19    3.99    53.68796     9.02784    36.32181
    26  C   4.0    0.25    3.11    3.03    53.98027     6.98021    34.28986
    27  O   6.0   -0.27    1.19    1.80    53.33340     7.37769    32.07414
    28  O   6.0   -0.26    1.17    1.80    54.82249     4.88249    35.07106
    29  H   1.0    0.08    1.07    1.44    50.86412    15.62926    34.04623
    30  H   1.0    0.05    1.05    1.44    49.31943    11.83448    37.36008
    31  H   1.0    0.06    1.04    1.43    51.83970    11.22973    33.46562
    32  H   1.0    0.05    1.03    1.43    54.44949    12.74686    34.84288
    33  H   1.0    0.06    1.02    1.43    55.47801     9.19123    37.32909
    34  H   1.0    0.06    1.03    1.43    52.30465     8.28231    37.66593
    35  N   5.0   -0.14    3.42    2.03    54.04538    15.17820    39.62787
    36  C   4.0    0.01    4.26    4.12    55.42906    15.78142    41.90806
    37  C   4.0    0.16    3.38    3.07    53.60916    16.59983    44.00814
    38  O   6.0   -0.31    1.27    1.80    53.65742    15.64168    46.11873
    39  H   1.0    0.08    1.07    1.44    54.57726    15.98550    37.98103
    40  H   1.0    0.06    1.02    1.43    56.48254    14.12927    42.57280
    41  H   1.0    0.04    1.03    1.43    56.72097    17.32435    41.47774
    42  N   5.0   -0.14    3.49    2.07    52.10515    18.50696    43.35334
    43  C   4.0    0.04    4.50    4.53    50.13891    19.48552    45.00068
    44  C   4.0    0.16    3.52    3.13    48.63277    17.32033    46.18206
    45  O   6.0   -0.32    1.28    1.80    48.30382    17.16736    48.47017
    46  C   4.0   -0.03    4.28    4.16    48.41586    21.28570    43.50096
    47  C   4.0   -0.08    4.13    3.87    45.96082    21.79830    44.92704
    48  C   4.0   -0.08    4.11    3.82    49.80768    23.75729    42.97484
    49  H   1.0    0.08    1.07    1.44    52.12187    19.10243    41.52680
    50  H   1.0    0.06    1.05    1.44    51.02119    20.49975    46.58297
    51  H   1.0    0.05    1.06    1.44    47.96684    20.34203    41.71869
    52  H   1.0    0.03    1.00    1.43    44.87419    23.24569    43.95808
    53  H   1.0    0.04    1.00    1.43    44.81059    20.10142    45.05184
    54  H   1.0    0.04    1.00    1.43    46.35913    22.43871    46.83538
    55  H   1.0    0.04    1.00    1.43    48.60101    25.01060    41.88436
    56  H   1.0    0.05    1.00    1.43    50.25526    24.65897    44.76381
    57  H   1.0    0.04    1.00    1.43    51.53314    23.40331    41.91970
    58  N   5.0   -0.14    3.52    2.09    47.65301    15.69134    44.52996
    59  C   4.0    0.04    4.51    4.56    46.09535    13.59833    45.34680
    60  C   4.0    0.17    3.55    3.14    47.42476    12.14202    47.45119
    61  O   6.0   -0.31    1.32    1.80    46.37353    11.74267    49.47777
    62  C   4.0   -0.02    4.27    4.15    45.43234    11.87129    43.11615
    63  C   4.0   -0.07    4.15    3.90    44.19641     9.45188    44.08029
    64  C   4.0   -0.08    4.11    3.82    43.65969    13.22418    41.27966
    65  H   1.0    0.11    1.11    1.45    48.02280    15.85422    42.65754
    66  H   1.0    0.05    1.05    1.44    44.35481    14.35295    46.20112
    67  H   1.0    0.06    1.06    1.44    47.19786    11.39374    42.14950
    68  H   1.0    0.04    1.00    1.43    43.67706     8.27979    42.47932
    69  H   1.0    0.07    1.00    1.43    45.47165     8.37843    45.28565
    70  H   1.0    0.06    1.00    1.43    42.52223     9.90991    45.17932
    71  H   1.0    0.04    1.00    1.43    43.25403    12.00136    39.68071
    72  H   1.0    0.03    1.00    1.43    41.89486    13.70967    42.20885
    73  H   1.0    0.05    1.01    1.43    44.52488    14.94019    40.56356
    74  N   5.0   -0.13    3.49    2.07    49.77513    11.36823    46.95501
    75  C   4.0    0.05    4.42    4.42    51.09240     9.86829    48.82375
    76  C   4.0    0.16    3.50    3.11    51.32249    11.30411    51.32340
    77  O   6.0   -0.30    1.31    1.80    50.92214    10.27783    53.35855
    78  C   4.0    0.04    4.15    3.89    53.70457     9.06420    47.90056
    79  O   6.0   -0.25    2.07    1.83    53.44297     6.81659    46.47815
    80  H   1.0    0.11    1.08    1.44    50.54655    11.58960    45.21784
    81  H   1.0    0.07    1.06    1.44    49.98629     8.15579    49.21741
    82  H   1.0    0.06    1.01    1.43    54.51366    10.59308    46.75691
    83  H   1.0    0.05    1.01    1.43    54.92562     8.72220    49.54658
    84  H   1.0    0.13    1.02    1.43    55.00409     6.45300    45.60662
    85  N   5.0   -0.14    3.52    2.09    52.05165    13.70654    51.13532
    86  C   4.0    0.04    4.44    4.44    52.26576    15.26700    53.38403
    87  C   4.0    0.17    3.49    3.11    49.91310    14.95083    55.05368
    88  O   6.0   -0.31    1.24    1.80    50.06964    14.62049    57.33765
    89  C   4.0   -0.03    4.31    4.21    52.56676    18.04326    52.66442
    90  C   4.0   -0.03    4.23    4.06    55.07841    18.55311    51.33795
    91  C   4.0    0.16    3.22    3.04    55.07031    21.11527    50.05985
    92  O   6.0   -0.31    1.22    1.80    53.62260    22.83039    50.63710
    93  N   5.0   -0.18    3.18    1.95    56.79145    21.40774    48.22962
    94  H   1.0    0.11    1.09    1.44    52.24054    14.52868    49.41523
    95  H   1.0    0.05    1.05    1.44    53.88226    14.61285    54.51062
    96  H   1.0    0.07    1.04    1.43    51.01326    18.54840    51.40717
    97  H   1.0    0.05    1.03    1.43    52.41480    19.19595    54.36760
    98  H   1.0    0.05    1.03    1.43    56.62893    18.49475    52.69602
    99  H   1.0    0.06    1.04    1.43    55.41917    17.11221    49.90616
   100  H   1.0    0.09    1.03    1.43    57.91556    19.96992    47.69878
   101  H   1.0    0.10    1.03    1.43    56.83489    23.06257    47.26594
   102  N   5.0   -0.14    3.53    2.10    47.74088    15.27289    53.81611
   103  C   4.0    0.04    4.51    4.55    45.30133    15.05162    55.03746
   104  C   4.0    0.16    3.53    3.13    45.00072    12.41559    56.16870
   105  O   6.0   -0.31    1.35    1.80    44.41196    12.13277    58.39649
   106  C   4.0   -0.02    4.34    4.28    43.15044    15.65800    53.18363
   107  C   4.0   -0.05    4.19    3.98    43.23421    18.46975    52.49032
   108  C   4.0   -0.06    4.14    3.89    40.62023    14.91970    54.35844
   109  C   4.0   -0.08    4.01    3.64    41.50908    19.12829    50.28194
   110  H   1.0    0.11    1.09    1.44    47.76170    15.48565    51.91395
   111  H   1.0    0.05    1.06    1.44    45.24266    16.37221    56.63891
   112  H   1.0    0.06    1.06    1.44    43.47823    14.52377    51.48531
   113  H   1.0    0.04    1.03    1.43    42.69721    19.57995    54.14194
   114  H   1.0    0.05    1.03    1.43    45.16828    18.97385    51.97857
   115  H   1.0    0.06    1.00    1.43    39.06379    15.39485    53.11287
   116  H   1.0    0.06    1.01    1.43    40.56428    12.89845    54.71422
   117  H   1.0    0.06    1.01    1.43    40.36117    15.89319    56.14695
   118  H   1.0    0.03    1.00    1.43    41.67495    21.12919    49.85194
   119  H   1.0    0.04    1.00    1.43    42.06952    18.06058    48.61810
   120  H   1.0    0.05    1.00    1.43    39.54874    18.70757    50.72151
   121  N   5.0   -0.13    3.52    2.09    45.40783    10.48665    54.61110
   122  C   4.0    0.05    4.44    4.44    45.18513     7.90612    55.48747
   123  C   4.0    0.17    3.51    3.12    46.45365     7.60536    58.06583
   124  O   6.0   -0.30    1.27    1.80    45.40549     6.48130    59.81065
   125  C   4.0   -0.03    4.29    4.18    46.44007     6.07678    53.65560
   126  C   4.0    0.25    3.12    3.03    45.03894     5.74100    51.11026
   127  O   6.0   -0.31    1.27    1.80    42.71045     6.05630    51.03946
   128  O   6.0   -0.32    1.26    1.80    46.35347     5.06182    49.27132
   129  H   1.0    0.12    1.11    1.44    45.88047    10.78864    52.78046
   130  H   1.0    0.07    1.05    1.44    43.17729     7.40638    55.70249
   131  H   1.0    0.07    1.03    1.43    48.37663     6.67945    53.28960
   132  H   1.0    0.05    1.03    1.43    46.51655     4.20410    54.53117
   133  N   5.0   -0.13    3.53    2.10    48.78117     8.54588    58.20297
   134  C   4.0    0.04    4.33    4.26    50.39613     8.25188    60.39725
   135  C   4.0    0.16    3.47    3.10    49.30334     9.66138    62.67148
   136  O   6.0   -0.30    1.30    1.80    49.18513     8.69545    64.77344
   137  C   4.0   -0.06    4.12    3.84    53.02120     9.23461    59.74789
   138  H   1.0    0.11    1.10    1.44    49.57323     9.31832    56.64163
   139  H   1.0    0.07    1.05    1.44    50.46412     6.24779    60.93730
   140  H   1.0    0.05    1.00    1.43    54.28744     8.97771    61.33983
   141  H   1.0    0.06    1.00    1.43    53.74056     8.19923    58.12665
   142  H   1.0    0.06    1.00    1.43    52.90694    11.22840    59.26231
   143  N   5.0   -0.14    3.52    2.09    48.57021    12.03638    62.24749
   144  C   4.0    0.04    4.54    4.59    47.34419    13.43445    64.26090
   145  C   4.0    0.16    3.52    3.13    45.12493    11.87295    65.26996
   146  O   6.0   -0.32    1.29    1.80    44.83006    11.47792    67.53391
   147  C   4.0   -0.02    4.26    4.13    46.48430    16.04967    63.35588
   148  C   4.0   -0.07    4.13    3.86    44.88483    17.32905    65.39336
   149  C   4.0   -0.07    4.11    3.83    48.78075    17.67710    62.71485
   150  H   1.0    0.11    1.08    1.44    48.65539    12.79605    60.49292
   151  H   1.0    0.05    1.05    1.44    48.67923    13.64235    65.83646
   152  H   1.0    0.06    1.05    1.44    45.34405    15.77079    61.65243
   153  H   1.0    0.04    1.00    1.43    44.37247    19.22665    64.80184
   154  H   1.0    0.05    1.00    1.43    43.17054    16.25976    65.76783
   155  H   1.0    0.04    1.00    1.43    45.94375    17.46613    67.14766
   156  H   1.0    0.04    1.00    1.43    48.16413    19.55073    62.13895
   157  H   1.0    0.04    1.00    1.43    50.00225    17.87536    64.35272
   158  H   1.0    0.06    1.00    1.43    49.85822    16.85350    61.17509
   159  N   5.0   -0.14    3.43    2.04    43.54018    11.06349    63.49083
   160  C   4.0    0.02    4.25    4.11    41.32935     9.57925    64.07105
   161  C   4.0    0.16    3.39    3.07    41.93787     7.26081    65.66263
   162  O   6.0   -0.31    1.29    1.80    40.64970     6.69798    67.50897
   163  H   1.0    0.12    1.12    1.45    43.93290    11.39782    61.64724
   164  H   1.0    0.06    1.02    1.43    39.94663    10.71284    65.11805
   165  H   1.0    0.06    1.03    1.43    40.47871     8.96725    62.29726
   166  N   5.0   -0.13    3.50    2.08    43.90357     5.88228    64.89527
   167  C   4.0    0.05    4.40    4.38    44.54807     3.60045    66.25440
   168  C   4.0    0.17    3.48    3.11    45.35844     4.26179    68.94978
   169  O   6.0   -0.31    1.30    1.80    44.60832     3.01464    70.75909
   170  C   4.0    0.04    4.13    3.86    46.55406     2.02101    64.87016
   171  O   6.0   -0.23    2.05    1.83    49.01591     2.97841    65.12295
   172  H   1.0    0.12    1.10    1.44    44.80187     6.26291    63.24060
   173  H   1.0    0.06    1.06    1.44    42.84964     2.41667    66.43032
   174  H   1.0    0.05    1.01    1.43    46.42771     0.07827    65.57947
   175  H   1.0    0.06    1.01    1.43    46.07104     2.01587    62.85128
   176  H   1.0    0.13    1.02    1.43    50.02811     1.82925    66.12903
   177  N   5.0   -0.13    3.51    2.08    46.86079     6.25938    69.18600
   178  C   4.0    0.04    4.44    4.44    47.57651     7.13899    71.68123
   179  C   4.0    0.16    3.48    3.11    45.21801     7.67471    73.27736
   180  O   6.0   -0.29    1.25    1.80    45.06276     6.86370    75.44854
   181  C   4.0   -0.04    4.27    4.14    49.25521     9.48319    71.51877
   182  C   4.0   -0.04    4.18    3.96    51.93991     8.79899    70.69853
   183  C   4.0   -0.05    4.16    3.93    53.58307    11.16188    70.42533
   184  C   4.0   -0.04    4.11    3.82    56.37452    10.51964    70.08144
   185  N   5.0   -0.12    4.01    2.89    57.72297    10.52778    72.56974
   186  H   1.0    0.12    1.09    1.44    47.57759     7.15362    67.64199
   187  H   1.0    0.05    1.05    1.44    48.58000     5.60981    72.66811
   188  H   1.0    0.06    1.03    1.43    48.39374    10.79684    70.18605
   189  H   1.0    0.05    1.03    1.43    49.28501    10.37504    73.37885
   190  H   1.0    0.04    1.03    1.43    52.73057     7.50151    72.09249
   191  H   1.0    0.06    1.03    1.43    51.84670     7.81923    68.88757
   192  H   1.0    0.04    1.03    1.43    52.92558    12.21072    68.78670
   193  H   1.0    0.04    1.03    1.43    53.32540    12.37520    72.07008
   194  H   1.0    0.04    1.03    1.43    56.56368     8.64861    69.24649
   195  H   1.0    0.04    1.02    1.43    57.29937    11.88614    68.85295
   196  H   1.0    0.06    1.02    1.43    59.55636     9.93189    72.35817
   197  H   1.0    0.06    1.02    1.43    57.74262    12.33170    73.30175
   198  H   1.0    0.06    1.02    1.43    56.81576     9.35821    73.84191
   199  N   5.0   -0.14    3.50    2.08    43.43418     9.08350    72.20357
   200  C   4.0    0.04    4.44    4.44    41.15106     9.73227    73.57560
   201  C   4.0    0.16    3.49    3.11    39.79388     7.33966    74.46206
   202  O   6.0   -0.27    1.23    1.80    38.96263     7.11313    76.61973
   203  C   4.0   -0.04    4.36    4.31    39.33157    11.28369    71.95709
   204  C   4.0   -0.02    4.17    3.95    40.35772    13.86169    71.11150
   205  C   4.0   -0.07    4.11    3.82    38.30006    15.22730    69.61399
   206  C   4.0   -0.07    4.11    3.82    41.18145    15.47480    73.35592
   207  H   1.0    0.11    1.10    1.44    43.67723     9.79199    70.43705
   208  H   1.0    0.06    1.05    1.44    41.64199    10.78477    75.29196
   209  H   1.0    0.06    1.03    1.43    38.82333    10.16535    70.29787
   210  H   1.0    0.05    1.03    1.43    37.62560    11.58701    73.07975
   211  H   1.0    0.06    1.06    1.44    41.98597    13.56143    69.87639
   212  H   1.0    0.04    1.00    1.43    39.00784    17.00442    68.86558
   213  H   1.0    0.05    1.00    1.43    37.63425    14.07162    68.04953
   214  H   1.0    0.05    1.00    1.43    36.69648    15.63506    70.83398
   215  H   1.0    0.05    1.00    1.43    41.48736    17.41612    72.75996
   216  H   1.0    0.05    1.00    1.43    39.72877    15.46075    74.81039
   217  H   1.0    0.05    1.00    1.43    42.92869    14.77100    74.17214
   218  N   5.0   -0.13    3.53    2.10    39.55891     5.53980    72.71638
   219  C   4.0    0.04    4.42    4.41    38.30227     3.17039    73.28432
   220  C   4.0    0.17    3.48    3.11    39.63292     1.90992    75.51790
   221  O   6.0   -0.27    1.24    1.80    38.45446     0.94117    77.26623
   222  C   4.0   -0.04    4.25    4.10    38.22593     1.45222    70.94125
   223  C   4.0   -0.05    4.17    3.94    35.53653     0.85406    70.07561
   224  C   4.0   -0.04    4.18    3.96    34.15593    -0.88420    71.92287
   225  C   4.0   -0.03    4.12    3.84    31.36235    -1.12363    71.24660
   226  N   5.0   -0.11    3.98    2.81    29.98000    -2.37398    73.33823
   227  H   1.0    0.11    1.10    1.44    40.14819     5.85428    70.91897
   228  H   1.0    0.06    1.06    1.44    36.37864     3.58963    73.94376
   229  H   1.0    0.06    1.04    1.43    39.21741     2.42288    69.41853
   230  H   1.0    0.06    1.03    1.43    39.23504    -0.30441    71.30900
   231  H   1.0    0.05    1.03    1.43    34.49531     2.62080    69.86747
   232  H   1.0    0.05    1.03    1.43    35.63254    -0.05041    68.22782
   233  H   1.0    0.05    1.03    1.43    35.05332    -2.73753    71.90488
   234  H   1.0    0.05    1.03    1.43    34.29348    -0.11988    73.83134
   235  H   1.0    0.05    1.02    1.43    30.55959     0.75740    70.98617
   236  H   1.0    0.05    1.02    1.43    31.12423    -2.19724    69.50061
   237  H   1.0    0.06    1.02    1.43    28.07452    -2.32939    73.05920
   238  H   1.0    0.06    1.02    1.43    30.56668    -4.20053    73.54793
   239  H   1.0    0.06    0.96    1.43    30.41170    -1.34102    75.11426
   240  N   5.0   -0.13    3.48    2.06    42.15177     1.86205    75.39922
   241  C   4.0    0.05    4.33    4.25    43.62519     0.87924    77.48690
   242  C   4.0    0.11    3.24    3.04    42.94668     2.23874    79.95701
   243  O   6.0   -0.26    1.11    1.80    42.48833     1.01478    81.87303
   244  C   4.0   -0.04    4.30    4.21    46.46848     1.08125    76.98035
   245  C   4.0   -0.03    4.02    3.66    47.65315    -1.32895    75.92019
   246  S   6.0   -0.02    2.46    3.10    49.08711    -3.33038    78.34745
   247  C   4.0   -0.05    3.87    3.42    46.33551    -4.72117    79.86826
   248  H   1.0    0.12    1.10    1.44    43.06729     2.58460    73.87391
   249  H   1.0    0.06    1.06    1.44    43.08276    -1.09969    77.79892
   250  H   1.0    0.07    1.04    1.43    46.74559     2.64581    75.67104
   251  H   1.0    0.05    1.05    1.44    47.43465     1.56216    78.73698
   252  H   1.0    0.06    1.06    1.44    46.32256    -2.46613    74.83763
   253  H   1.0    0.05    1.08    1.44    49.23517    -0.87807    74.68896
   254  H   1.0    0.06    1.05    1.44    47.06298    -6.03576    81.26446
   255  H   1.0    0.06    1.03    1.43    45.22336    -3.27366    80.80561
   256  H   1.0    0.05    1.04    1.43    45.23116    -5.73735    78.46756
   257  O   6.0   -0.29    1.92    1.82    53.55027     4.68864    54.16429
   258  H   1.0    0.13    0.97    1.43    54.63500     3.29399    54.58701
   259  H   1.0    0.15    1.01    1.43    52.56582     4.13465    52.70807
   260  O   6.0   -0.32    1.97    1.82    39.43976    17.69657    60.11260
   261  H   1.0    0.12    0.97    1.43    40.31306    17.77278    61.70321
   262  H   1.0    0.13    0.97    1.43    38.42193    19.19100    59.98397
   263  O   6.0   -0.29    1.92    1.82    36.37142    13.33915    60.50146
   264  H   1.0    0.14    1.01    1.43    37.47405    14.79247    60.28324
   265  H   1.0    0.13    0.97    1.43    35.99879    12.76872    58.81972
   266  O   6.0   -0.31    1.98    1.82    51.00655     3.12158    49.84331
   267  H   1.0    0.15    0.99    1.43    51.93767     4.05842    48.57692
   268  H   1.0    0.16    1.03    1.43    49.26520     3.76371    49.68987
   269  O   6.0   -0.31    1.97    1.82    37.72669    12.07609    47.26748
   270  H   1.0    0.15    1.02    1.43    37.11527    13.02083    48.72401
   271  H   1.0    0.12    0.97    1.43    38.88494    13.19019    46.42682
   272  O   6.0   -0.28    1.92    1.82    53.55027    -4.68864    63.57697
   273  H   1.0    0.14    0.97    1.43    54.63500    -3.29399    63.15425
   274  H   1.0    0.15    1.01    1.43    52.56582    -4.13465    65.03319
   275  O   6.0   -0.32    1.97    1.82    49.09826    25.30755    60.11260
   276  H   1.0    0.13    0.97    1.43    48.59562    26.02575    61.70321
   277  H   1.0    0.12    0.97    1.43    48.31297    23.67887    59.98397
   278  O   6.0   -0.28    1.92    1.82    54.40608    24.82900    60.50146
   279  H   1.0    0.15    1.01    1.43    52.59615    25.05724    60.28324
   280  H   1.0    0.13    0.97    1.43    55.08640    24.79151    58.81972
   281  O   6.0   -0.31    1.97    1.82    51.00655    -3.12158    67.89796
   282  H   1.0    0.14    0.97    1.43    51.93767    -4.05842    69.16434
   283  H   1.0    0.16    1.03    1.43    49.26520    -3.76371    68.05139
   284  N   5.0   -0.20    3.21    1.96    31.92041    14.68922    32.04339
   285  C   4.0    0.03    4.30    4.20    33.38942    14.24992    34.31968
   286  C   4.0    0.08    3.22    3.04    33.63687    16.69466    35.84616
   287  O   6.0   -0.31    1.14    1.80    33.21138    16.75640    38.12308
   288  C   4.0   -0.03    4.26    4.11    35.98697    13.13367    33.64425
   289  C   4.0   -0.08    4.12    3.85    37.62528    12.89502    36.01004
   290  C   4.0   -0.07    4.11    3.83    35.66481    10.55298    32.38819
   291  H   1.0    0.08    1.02    1.43    32.80986    14.55855    30.34918
   292  H   1.0    0.05    1.05    1.44    32.32874    12.92927    35.51745
   293  H   1.0    0.04    1.05    1.44    36.87664    14.43255    32.30332
   294  H   1.0    0.04    1.00    1.43    39.46167    12.14029    35.49519
   295  H   1.0    0.04    1.00    1.43    37.89394    14.72079    36.90901
   296  H   1.0    0.04    1.00    1.43    36.72019    11.63897    37.35623
   297  H   1.0    0.05    1.00    1.43    37.50277     9.74600    31.95742
   298  H   1.0    0.04    1.00    1.43    34.65437     9.27382    33.63558
   299  H   1.0    0.05    1.00    1.43    34.61228    10.71493    30.63294
   300  N   5.0   -0.20    3.21    1.96    32.04684    18.49283    43.35334
   301  C   4.0    0.03    4.30    4.20    33.87741    19.70637    45.00068
   302  C   4.0    0.08    3.24    3.04    32.75538    22.09331    46.18206
   303  O   6.0   -0.32    1.15    1.80    32.78738    22.45468    48.47017
   304  C   4.0   -0.02    4.27    4.13    36.29794    20.29847    43.50096
   305  C   4.0   -0.08    4.13    3.87    37.96938    22.16831    44.92704
   306  C   4.0   -0.08    4.11    3.82    37.74249    17.85733    42.97484
   307  H   1.0    0.11    1.05    1.44    32.55417    18.18062    41.52680
   308  H   1.0    0.05    1.05    1.44    34.31463    18.43517    46.58297
   309  H   1.0    0.05    1.06    1.44    35.70521    21.15918    41.71869
   310  H   1.0    0.03    1.00    1.43    39.76618    22.38566    43.95808
   311  H   1.0    0.04    1.00    1.43    37.07496    24.01287    45.05184
   312  H   1.0    0.04    1.00    1.43    38.32484    21.50315    46.83538
   313  H   1.0    0.03    1.00    1.43    39.43122    18.27569    41.88436
   314  H   1.0    0.04    1.00    1.43    38.29957    17.01887    44.76381
   315  H   1.0    0.05    1.00    1.43    36.57320    16.54003    41.91970
   316  N   5.0   -0.20    3.24    1.97    27.91630    20.93937    51.13532
   317  C   4.0    0.03    4.32    4.24    29.16064    19.97371    53.38403
   318  C   4.0    0.16    3.42    3.08    30.06317    22.16927    55.05368
   319  O   6.0   -0.27    1.21    1.80    29.69881    22.19887    57.33765
   320  C   4.0   -0.03    4.31    4.21    31.41445    18.32491    52.66442
   321  C   4.0   -0.03    4.23    4.05    30.60017    15.89484    51.33795
   322  C   4.0    0.15    3.23    3.04    32.82312    14.62077    50.05985
   323  O   6.0   -0.32    1.27    1.80    35.03231    15.01696    50.63710
   324  N   5.0   -0.19    3.19    1.95    32.21583    12.98399    48.22962
   325  H   1.0    0.09    1.02    1.43    28.53385    20.36472    49.41523
   326  H   1.0    0.05    1.05    1.44    27.78588    18.90086    54.51062
   327  H   1.0    0.07    1.04    1.43    32.62867    19.41771    51.40717
   328  H   1.0    0.06    1.03    1.43    32.48870    17.88017    54.36760
   329  H   1.0    0.05    1.03    1.43    29.77437    14.58122    52.69602
   330  H   1.0    0.04    1.03    1.43    29.18193    16.32018    49.90616
   331  H   1.0    0.08    1.03    1.43    30.40859    12.72939    47.69878
   332  H   1.0    0.10    1.04    1.43    33.62724    12.11895    47.26594
   333  N   5.0   -0.14    3.49    2.07    31.42818    23.88943    53.81611
   334  C   4.0    0.04    4.41    4.40    32.45633    26.11278    55.03746
   335  C   4.0    0.09    3.28    3.05    30.32377    27.69113    56.16870
   336  O   6.0   -0.26    1.12    1.80    30.37322    28.34242    58.39649
   337  C   4.0   -0.03    4.33    4.26    34.05692    27.67231    53.18363
   338  C   4.0   -0.05    4.19    3.98    36.45008    26.19389    52.49032
   339  C   4.0   -0.07    4.14    3.88    34.68264    30.23269    54.35844
   340  C   4.0   -0.08    4.01    3.64    37.88295    27.35863    50.28194
   341  H   1.0    0.10    1.09    1.44    31.60203    23.76502    51.91395
   342  H   1.0    0.06    1.06    1.44    33.62933    25.50330    56.63891
   343  H   1.0    0.05    1.05    1.44    32.91075    27.95556    51.48531
   344  H   1.0    0.04    1.03    1.43    37.68004    26.10385    54.14194
   345  H   1.0    0.05    1.03    1.43    35.91961    24.26689    51.97857
   346  H   1.0    0.04    1.00    1.43    35.87235    31.34303    53.11287
   347  H   1.0    0.06    1.01    1.43    32.96016    31.29177    54.71422
   348  H   1.0    0.05    1.00    1.43    35.65523    29.97030    56.14695
   349  H   1.0    0.03    1.00    1.43    39.53285    26.21454    49.85194
   350  H   1.0    0.05    1.00    1.43    36.67808    27.40713    48.61810
   351  H   1.0    0.04    1.00    1.43    38.49877    29.26669    50.72151
   352  N   5.0   -0.20    3.21    1.96    47.04668    33.70837    53.81611
   353  C   4.0    0.03    4.32    4.23    48.45808    31.70630    55.03746
   354  C   4.0    0.09    3.25    3.04    50.89125    32.76397    56.16870
   355  O   6.0   -0.27    1.11    1.80    51.43056    32.39550    58.39649
   356  C   4.0   -0.02    4.33    4.26    49.00838    29.54038    53.18363
   357  C   4.0   -0.05    4.19    3.98    46.53145    28.20705    52.49032
   358  C   4.0   -0.06    4.14    3.89    50.91287    27.71830    54.35844
   359  C   4.0   -0.08    4.01    3.64    46.82370    26.38378    50.28194
   360  H   1.0    0.08    1.03    1.43    46.85201    33.62002    51.91395
   361  H   1.0    0.05    1.05    1.44    47.34375    30.99519    56.63891
   362  H   1.0    0.04    1.05    1.44    49.82676    30.39137    51.48531
   363  H   1.0    0.04    1.03    1.43    45.83849    27.18689    54.14194
   364  H   1.0    0.04    1.03    1.43    45.12786    29.62995    51.97857
   365  H   1.0    0.06    1.00    1.43    51.27960    26.13281    53.11287
   366  H   1.0    0.06    1.01    1.43    52.69130    28.68047    54.71422
   367  H   1.0    0.06    1.01    1.43    50.19934    27.00721    56.14695
   368  H   1.0    0.03    1.00    1.43    45.00794    25.52697    49.85194
   369  H   1.0    0.04    1.00    1.43    47.46815    27.40298    48.61810
   370  H   1.0    0.05    1.00    1.43    48.16823    24.89643    50.72151
   371  N   5.0   -0.20    3.20    1.96    45.40783   -10.48665    63.13017
   372  C   4.0    0.04    4.22    4.03    45.18513    -7.90612    62.25379
   373  C   4.0    0.09    3.22    3.04    46.45365    -7.60536    59.67544
   374  O   6.0   -0.30    1.17    1.80    45.40549    -6.48130    57.93061
   375  C   4.0   -0.03    4.27    4.14    46.44007    -6.07678    64.08567
   376  C   4.0    0.25    3.10    3.02    45.03894    -5.74100    66.63100
   377  O   6.0   -0.28    1.18    1.80    42.71045    -6.05630    66.70181
   378  O   6.0   -0.30    1.25    1.80    46.35347    -5.06182    68.46994
   379  H   1.0    0.10    1.02    1.43    45.88047   -10.78864    64.96080
   380  H   1.0    0.07    1.05    1.44    43.17729    -7.40638    62.03877
   381  H   1.0    0.06    1.03    1.43    48.37663    -6.67945    64.45167
   382  H   1.0    0.05    1.03    1.43    46.51655    -4.20410    63.21010
   383  N   5.0   -0.20    3.21    1.96    43.90357    -5.88228    52.84600
   384  C   4.0    0.04    4.18    3.96    44.54807    -3.60045    51.48686
   385  C   4.0    0.09    3.21    3.04    45.35844    -4.26179    48.79148
   386  O   6.0   -0.31    1.17    1.80    44.60832    -3.01464    46.98218
   387  C   4.0    0.04    4.12    3.85    46.55406    -2.02101    52.87110
   388  O   6.0   -0.23    2.04    1.83    49.01591    -2.97841    52.61832
   389  H   1.0    0.13    1.06    1.44    44.80187    -6.26291    54.50066
   390  H   1.0    0.05    1.05    1.44    42.84964    -2.41667    51.31094
   391  H   1.0    0.05    1.01    1.43    46.42771    -0.07827    52.16179
   392  H   1.0    0.06    1.01    1.43    46.07104    -2.01587    54.88998
   393  H   1.0    0.13    1.02    1.43    50.02811    -1.82925    51.61223
   394  N   5.0   -0.20    3.24    1.97    39.55891    -5.53980    45.02488
   395  C   4.0    0.03    4.31    4.22    38.30227    -3.17039    44.45694
   396  C   4.0    0.15    3.43    3.09    39.63292    -1.90992    42.22336
   397  O   6.0   -0.32    1.29    1.80    38.45446    -0.94117    40.47504
   398  C   4.0   -0.04    4.25    4.10    38.22593    -1.45222    46.80001
   399  C   4.0   -0.05    4.17    3.94    35.53653    -0.85406    47.66565
   400  C   4.0   -0.05    4.18    3.96    34.15593     0.88420    45.81840
   401  C   4.0   -0.04    4.12    3.84    31.36235     1.12363    46.49466
   402  N   5.0   -0.12    3.98    2.81    29.98000     2.37398    44.40303
   403  H   1.0    0.09    1.02    1.43    40.14819    -5.85428    46.82230
   404  H   1.0    0.05    1.06    1.44    36.37864    -3.58963    43.79750
   405  H   1.0    0.05    1.04    1.43    39.21741    -2.42288    48.32274
   406  H   1.0    0.05    1.04    1.43    39.23504     0.30441    46.43226
   407  H   1.0    0.04    1.03    1.43    34.49531    -2.62080    47.87379
   408  H   1.0    0.04    1.03    1.43    35.63254     0.05041    49.51344
   409  H   1.0    0.05    1.03    1.43    35.05332     2.73753    45.83638
   410  H   1.0    0.05    1.03    1.43    34.29348     0.11988    43.90992
   411  H   1.0    0.04    1.02    1.43    30.55959    -0.75740    46.75510
   412  H   1.0    0.04    1.02    1.43    31.12423     2.19724    48.24066
   413  H   1.0    0.06    1.02    1.43    28.07452     2.32939    44.68206
   414  H   1.0    0.06    1.02    1.43    30.56668     4.20053    44.19333
   415  H   1.0    0.05    0.96    1.43    30.41170     1.34102    42.62701
   416  N   5.0   -0.14    3.47    2.06    42.15177    -1.86205    42.34205
   417  C   4.0    0.04    4.33    4.25    43.62519    -0.87924    40.25436
   418  C   4.0    0.09    3.25    3.04    42.94668    -2.23874    37.78426
   419  O   6.0   -0.28    1.12    1.80    42.48833    -1.01478    35.86823
   420  C   4.0   -0.04    4.30    4.20    46.46848    -1.08125    40.76091
   421  C   4.0   -0.03    4.02    3.66    47.65315     1.32895    41.82108
   422  S   6.0   -0.01    2.46    3.10    49.08711     3.33038    39.39381
   423  C   4.0   -0.06    3.87    3.42    46.33551     4.72117    37.87301
   424  H   1.0    0.11    1.10    1.44    43.06729    -2.58460    43.86736
   425  H   1.0    0.05    1.06    1.44    43.08276     1.09969    39.94235
   426  H   1.0    0.06    1.03    1.43    46.74559    -2.64581    42.07023
   427  H   1.0    0.06    1.05    1.44    47.43465    -1.56216    39.00429
   428  H   1.0    0.05    1.06    1.44    46.32256     2.46613    42.90363
   429  H   1.0    0.06    1.08    1.44    49.23517     0.87807    43.05230
   430  H   1.0    0.05    1.05    1.44    47.06298     6.03576    36.47680
   431  H   1.0    0.06    1.03    1.43    45.22336     3.27366    36.93565
   432  H   1.0    0.04    1.04    1.43    45.23116     5.73735    39.27371
   433  N   5.0   -0.19    3.22    1.96    37.06016     0.09018    35.28503
   434  C   4.0    0.04    4.22    4.04    37.36393     2.64273    34.35957
   435  C   4.0    0.09    3.19    3.03    38.72173     2.73249    31.79602
   436  O   6.0   -0.28    1.11    1.80    38.40336     4.54284    30.37453
   437  C   4.0   -0.04    4.25    4.10    38.74204     4.26056    36.32322
   438  C   4.0   -0.05    4.17    3.94    37.05000     4.80430    38.61098
   439  C   4.0   -0.01    4.17    3.94    38.25071     6.62007    40.52766
   440  N   5.0   -0.14    3.38    2.01    39.73900     5.30737    42.42593
   441  C   4.0    0.09    3.34    3.06    39.68266     5.59352    44.93524
   442  N   5.0   -0.18    3.27    1.97    37.91772     6.97827    46.08162
   443  N   5.0   -0.18    3.27    1.97    41.26809     4.29438    46.38937
   444  H   1.0    0.12    1.06    1.44    37.76748    -0.34092    37.01526
   445  H   1.0    0.05    1.05    1.44    35.47974     3.44307    33.99600
   446  H   1.0    0.06    1.03    1.43    40.44964     3.24406    36.86693
   447  H   1.0    0.04    1.03    1.43    39.27976     6.03101    35.41209
   448  H   1.0    0.04    1.03    1.43    35.30663     5.64930    37.91469
   449  H   1.0    0.06    1.03    1.43    36.55705     3.03641    39.54560
   450  H   1.0    0.03    1.02    1.43    39.47969     7.95446    39.53257
   451  H   1.0    0.04    1.03    1.43    36.76517     7.68900    41.46620
   452  H   1.0    0.08    1.07    1.44    40.95491     4.01064    41.73298
   453  H   1.0    0.09    1.04    1.43    36.96819     8.34848    45.16380
   454  H   1.0    0.10    1.04    1.43    38.17962     7.32349    47.94613
   455  H   1.0    0.09    1.03    1.43    42.72162     3.33721    45.61828
   456  H   1.0    0.13    1.10    1.44    41.64776     4.93622    48.22142
   457  H   1.0    0.09    1.07    1.44    51.05826    22.06895    35.11143
   458  H   1.0    0.08    1.04    1.43    42.87713     4.12649    80.00823
   459  H   1.0    0.11    1.07    1.44    43.92017   -11.28555    62.92718
   460  H   1.0    0.07    1.05    1.44    48.17327    -8.33032    59.37813
   461  H   1.0    0.10    1.07    1.44    42.25252    -5.85343    53.25312
   462  H   1.0    0.07    1.04    1.44    46.51333    -5.72568    48.48437
   463  H   1.0    0.10    1.07    1.44    38.51222    -6.83481    44.67854
   464  H   1.0    0.06    1.04    1.43    42.87713    -4.12649    37.73303
   465  H   1.0    0.10    1.07    1.44    35.40413    -0.28411    35.38511
   466  H   1.0    0.07    1.04    1.43    39.86518     1.31835    31.28241
   467  H   1.0    0.10    1.07    1.44    30.65188    13.55947    31.95950
   468  H   1.0    0.05    1.05    1.44    34.15730    18.29584    34.98800
   469  H   1.0    0.10    1.07    1.44    31.65384    16.95887    43.97390
   470  H   1.0    0.06    1.05    1.44    31.96772    23.41191    45.08117
   471  H   1.0    0.10    1.07    1.44    26.27217    20.50523    51.16554
   472  H   1.0    0.06    1.04    1.44    28.85915    28.20976    55.09307
   473  H   1.0    0.10    1.07    1.44    45.46026    33.73968    54.42837
   474  H   1.0    0.06    1.04    1.44    52.07271    33.77306    55.09307

  Z AO/shell   Hii/eV     exponent
  1     Wed Apr 25 08:07:45 CEST 2018   EN: 2.200 GM2: 0.406  GM3: 0.0800  RAES: 1.40
     1s    -10.707211    1.230000
  6     Wed Apr 25 08:07:45 CEST 2018   EN: 2.550 GM2: 0.538  GM3: 0.1500  RAES: 3.00
     2s    -13.970922    2.096432
     2p    -10.063292    1.800000
  7     Wed Apr 25 08:07:45 CEST 2018   EN: 3.040 GM2: 0.461  GM3:-0.0640  RAES: 1.90
     2s    -16.686243    2.339881
     2p    -12.523956    2.014332
  8     Wed Apr 25 08:07:45 CEST 2018   EN: 3.440 GM2: 0.452  GM3:-0.0517  RAES: 1.80
     2s    -20.229985    2.439742
     2p    -15.503117    2.137023
 16     Tue Apr 24 11:44:34 CEST 2018   EN: 2.580 GM2: 0.340  GM3:-0.0502  RAES: 3.10
     3s    -20.029654    1.981333
     3p    -11.377694    2.025643
     3d     -0.420282    1.702555
 no old-style atom pair restraining (fixing) potential

molecular fragmentation (1/2 indicates fragments):
111111111111111111111111111111111111111111111111111111111111111111111111
111111111111111111111111111111111111111111111111111111111111111111111111
111111111111111111111111111111111111111111111111111111111111111111111111
111111111111111111111111111111111111111122222222222222222222222222222222
222222222222222222222222222222222222222222222222222222222222222222222222
222222222222222222222222222222222222222222222222222222222222222222222222
222222222222222222222222112222222222222222
# atoms in fragment 1/2:   258   216
 fragment masses (1/2) :     1758.10     1349.70
CMA distance (Bohr)    :  10.837
constraining FC (au)   :  0.0500
           ------------------------------------------------- 
          |        Self-Consistent Charge Iterations        |
           ------------------------------------------------- 

 Ncao       : 1122
 Nao        : 1120
 Nshell     : 688
 Nel        : 1242
 T(el)      :   500.0
 intcut     :    35.0
 scfconv/Eh :  0.100E-06
   qconv/e  :  0.100E-04
 intneglect :  0.100E-08
 broydamp   :      0.400
 iter      E             dE          RMSdq      gap      omega  full diag
   1   -714.0218090 -0.714022E+03  0.460E+00    2.95       0.0  T
   2   -715.6186568 -0.159685E+01  0.218E+00    1.77       1.0  T
   3   -715.7226417 -0.103985E+00  0.120E+00    2.00       1.0  T
   4   -715.8460946 -0.123453E+00  0.272E-01    1.46       1.0  T
   5   -715.8515362 -0.544161E-02  0.125E-01    1.59       1.0  T
   6   -715.8527358 -0.119961E-02  0.486E-02    1.50       1.0  T
   7   -715.8529281 -0.192299E-03  0.233E-02    1.47       1.0  T
   8   -715.8529617 -0.336504E-04  0.826E-03    1.44       1.0  T
   9   -715.8529681 -0.633476E-05  0.364E-03    1.44       1.3  T
  10   -715.8529689 -0.813096E-06  0.150E-03    1.44       3.1  T
  11   -715.8529691 -0.190023E-06  0.665E-04    1.44       6.9  T
  12   -715.8529691 -0.400906E-07  0.303E-04    1.44      15.2  T
  13   -715.8529691 -0.603177E-08  0.155E-04    1.44      29.7  T
  14   -715.8529691 -0.227647E-08  0.648E-05    1.44      70.9  T
  15   -715.8529691 -0.292061E-09  0.303E-05    1.44     151.5  T
speedup  9.70
cpu  time for SCC   27.47 s
wall time for SCC    2.83 s

   *** convergence criteria satisfied after 15 iterations ***

          eigenvalues
 #    :         609        610        611        612        613        614        615        616
 occ. :        2.000      2.000      2.000      2.000      2.000      2.000      2.000      2.000
 eps  :       -10.313    -10.181    -10.109     -9.996     -9.995     -9.869     -9.863     -9.859
 #    :         617        618        619        620        621        622        623        624
 occ. :        2.000      2.000      2.000      2.000      2.000      0.000      0.000      0.000
 eps  :        -9.832     -9.749     -9.741     -9.660     -9.454     -8.018     -7.884     -7.865
 #    :         625        626        627        628        629        630        631        632
 occ. :        0.000      0.000      0.000      0.000      0.000      0.000      0.000      0.000
 eps  :        -7.785     -7.726     -7.704     -7.666     -7.504     -7.490     -6.864     -6.742


   #   Z            q   n(s)   n(p)   n(d)      C6AA      α(0)
   1   7 N     -0.402  1.316  4.087  0.000    30.442     8.194
   2   6 C      0.026  1.058  2.916  0.000    20.146     6.393
   3   6 C      0.268  1.049  2.683  0.000    22.482     7.765
   4   8 O     -0.488  1.732  4.756  0.000    23.517     6.502
   5   6 C     -0.074  1.062  3.012  0.000    21.909     6.663
   6   6 C     -0.012  1.057  2.956  0.000    20.763     6.481
   7   6 C     -0.118  1.040  3.078  0.000    22.808     6.810
   8   6 C     -0.116  1.041  3.074  0.000    22.769     6.803
   9   1 H      0.162  0.838  0.000  0.000     1.319     1.799
  10   1 H      0.058  0.942  0.000  0.000     2.227     2.334
  11   1 H      0.053  0.947  0.000  0.000     2.279     2.361
  12   1 H      0.034  0.966  0.000  0.000     2.527     2.486
  13   1 H      0.026  0.974  0.000  0.000     2.640     2.541
  14   1 H      0.050  0.950  0.000  0.000     2.318     2.381
  15   1 H      0.040  0.960  0.000  0.000     2.444     2.445
  16   1 H      0.045  0.955  0.000  0.000     2.379     2.412
  17   1 H      0.049  0.951  0.000  0.000     2.328     2.386
  18   1 H      0.042  0.958  0.000  0.000     2.417     2.431
  19   1 H      0.032  0.968  0.000  0.000     2.562     2.503
  20   7 N     -0.173  1.244  3.929  0.000    24.749     7.389
  21   6 C      0.024  1.062  2.914  0.000    20.169     6.394
  22   6 C      0.283  1.039  2.677  0.000    22.204     7.716
  23   8 O     -0.481  1.741  4.740  0.000    23.359     6.480
  24   6 C     -0.063  1.052  3.011  0.000    21.703     6.632
  25   6 C     -0.084  1.059  3.025  0.000    22.103     6.694
  26   6 C      0.370  1.024  2.606  0.000    20.733     7.452
  27   8 O     -0.636  1.767  4.869  0.000    27.033     6.971
  28   8 O     -0.678  1.787  4.891  0.000    28.111     7.108
  29   1 H      0.214  0.786  0.000  0.000     1.037     1.595
  30   1 H      0.067  0.933  0.000  0.000     2.115     2.275
  31   1 H      0.062  0.938  0.000  0.000     2.172     2.305
  32   1 H      0.043  0.957  0.000  0.000     2.410     2.428
  33   1 H      0.019  0.981  0.000  0.000     2.747     2.592
  34   1 H      0.033  0.967  0.000  0.000     2.549     2.497
  35   7 N     -0.179  1.237  3.942  0.000    24.878     7.408
  36   6 C     -0.036  1.054  2.982  0.000    21.276     6.579
  37   6 C      0.276  1.037  2.686  0.000    22.324     7.737
  38   8 O     -0.488  1.741  4.748  0.000    23.528     6.503
  39   1 H      0.217  0.783  0.000  0.000     1.024     1.585
  40   1 H      0.084  0.916  0.000  0.000     1.942     2.179
  41   1 H      0.103  0.897  0.000  0.000     1.756     2.072
  42   7 N     -0.170  1.247  3.923  0.000    24.679     7.378
  43   6 C      0.015  1.068  2.917  0.000    20.321     6.418
  44   6 C      0.282  1.039  2.679  0.000    22.229     7.721
  45   8 O     -0.493  1.740  4.753  0.000    23.623     6.517
  46   6 C     -0.026  1.064  2.962  0.000    21.003     6.518
  47   6 C     -0.121  1.039  3.083  0.000    22.881     6.820
  48   6 C     -0.127  1.043  3.084  0.000    22.987     6.836
  49   1 H      0.210  0.790  0.000  0.000     1.055     1.609
  50   1 H      0.074  0.926  0.000  0.000     2.046     2.237
  51   1 H      0.057  0.943  0.000  0.000     2.235     2.338
  52   1 H      0.065  0.935  0.000  0.000     2.147     2.291
  53   1 H      0.042  0.958  0.000  0.000     2.418     2.432
  54   1 H      0.054  0.946  0.000  0.000     2.274     2.358
  55   1 H      0.063  0.937  0.000  0.000     2.163     2.300
  56   1 H      0.056  0.944  0.000  0.000     2.252     2.347
  57   1 H      0.044  0.956  0.000  0.000     2.400     2.423
  58   7 N     -0.191  1.250  3.941  0.000    25.134     7.446
  59   6 C      0.027  1.062  2.911  0.000    20.120     6.386
  60   6 C      0.289  1.039  2.672  0.000    22.104     7.700
  61   8 O     -0.494  1.736  4.757  0.000    23.644     6.519
  62   6 C     -0.022  1.060  2.962  0.000    20.938     6.508
  63   6 C     -0.121  1.040  3.081  0.000    22.863     6.817
  64   6 C     -0.130  1.043  3.087  0.000    23.042     6.844
  65   1 H      0.234  0.766  0.000  0.000     0.948     1.526
  66   1 H      0.070  0.930  0.000  0.000     2.086     2.259
  67   1 H      0.042  0.958  0.000  0.000     2.429     2.437
  68   1 H      0.056  0.944  0.000  0.000     2.242     2.341
  69   1 H      0.027  0.973  0.000  0.000     2.634     2.538
  70   1 H      0.063  0.937  0.000  0.000     2.162     2.300
  71   1 H      0.057  0.943  0.000  0.000     2.237     2.339
  72   1 H      0.067  0.933  0.000  0.000     2.123     2.279
  73   1 H      0.058  0.942  0.000  0.000     2.225     2.333
  74   7 N     -0.185  1.248  3.937  0.000    25.017     7.429
  75   6 C      0.030  1.055  2.915  0.000    20.074     6.379
  76   6 C      0.276  1.040  2.684  0.000    22.341     7.740
  77   8 O     -0.488  1.738  4.750  0.000    23.518     6.502
  78   6 C      0.074  1.038  2.888  0.000    19.560     6.336
  79   8 O     -0.480  1.721  4.759  0.000    22.467     6.399
  80   1 H      0.221  0.779  0.000  0.000     1.006     1.571
  81   1 H      0.083  0.917  0.000  0.000     1.948     2.183
  82   1 H      0.051  0.949  0.000  0.000     2.313     2.379
  83   1 H      0.045  0.955  0.000  0.000     2.381     2.413
  84   1 H      0.349  0.651  0.000  0.000     0.591     1.208
  85   7 N     -0.184  1.250  3.934  0.000    24.991     7.425
  86   6 C      0.021  1.064  2.916  0.000    20.228     6.403
  87   6 C      0.278  1.041  2.681  0.000    22.297     7.732
  88   8 O     -0.491  1.732  4.759  0.000    23.578     6.510
  89   6 C     -0.070  1.050  3.020  0.000    21.839     6.652
  90   6 C     -0.107  1.058  3.049  0.000    22.531     6.757
  91   6 C      0.287  1.038  2.675  0.000    22.137     7.704
  92   8 O     -0.491  1.747  4.744  0.000    23.578     6.510
  93   7 N     -0.291  1.266  4.025  0.000    27.503     7.789
  94   1 H      0.227  0.773  0.000  0.000     0.979     1.550
  95   1 H      0.070  0.930  0.000  0.000     2.082     2.256
  96   1 H      0.077  0.923  0.000  0.000     2.008     2.216
  97   1 H      0.071  0.929  0.000  0.000     2.072     2.251
  98   1 H      0.080  0.920  0.000  0.000     1.978     2.199
  99   1 H      0.072  0.928  0.000  0.000     2.066     2.248
 100   1 H      0.216  0.784  0.000  0.000     1.027     1.587
 101   1 H      0.235  0.765  0.000  0.000     0.944     1.522
 102   7 N     -0.183  1.248  3.935  0.000    24.975     7.422
 103   6 C      0.023  1.064  2.913  0.000    20.190     6.397
 104   6 C      0.283  1.042  2.676  0.000    22.212     7.718
 105   8 O     -0.499  1.730  4.768  0.000    23.753     6.534
 106   6 C     -0.023  1.065  2.958  0.000    20.939     6.508
 107   6 C     -0.069  1.051  3.018  0.000    21.822     6.650
 108   6 C     -0.128  1.038  3.089  0.000    23.003     6.838
 109   6 C     -0.108  1.037  3.071  0.000    22.627     6.783
 110   1 H      0.222  0.778  0.000  0.000     1.000     1.566
 111   1 H      0.073  0.927  0.000  0.000     2.055     2.242
 112   1 H      0.049  0.951  0.000  0.000     2.334     2.389
 113   1 H      0.049  0.951  0.000  0.000     2.326     2.385
 114   1 H      0.040  0.960  0.000  0.000     2.448     2.447
 115   1 H      0.078  0.922  0.000  0.000     1.996     2.209
 116   1 H      0.024  0.976  0.000  0.000     2.669     2.555
 117   1 H      0.063  0.937  0.000  0.000     2.164     2.300
 118   1 H      0.046  0.954  0.000  0.000     2.368     2.406
 119   1 H      0.033  0.967  0.000  0.000     2.546     2.495
 120   1 H      0.055  0.945  0.000  0.000     2.258     2.350
 121   7 N     -0.187  1.250  3.936  0.000    25.043     7.432
 122   6 C      0.042  1.053  2.904  0.000    19.862     6.345
 123   6 C      0.280  1.042  2.678  0.000    22.270     7.728
 124   8 O     -0.516  1.738  4.777  0.000    24.133     6.586
 125   6 C     -0.102  1.065  3.037  0.000    22.437     6.743
 126   6 C      0.368  1.022  2.609  0.000    20.753     7.455
 127   8 O     -0.564  1.745  4.819  0.000    25.248     6.737
 128   8 O     -0.604  1.762  4.842  0.000    26.214     6.864
 129   1 H      0.228  0.772  0.000  0.000     0.975     1.547
 130   1 H      0.061  0.939  0.000  0.000     2.187     2.313
 131   1 H      0.056  0.944  0.000  0.000     2.251     2.346
 132   1 H      0.032  0.968  0.000  0.000     2.556     2.500
 133   7 N     -0.184  1.249  3.935  0.000    24.976     7.422
 134   6 C      0.027  1.057  2.916  0.000    20.121     6.388
 135   6 C      0.271  1.043  2.685  0.000    22.419     7.754
 136   8 O     -0.479  1.730  4.749  0.000    23.331     6.476
 137   6 C     -0.138  1.044  3.094  0.000    23.207     6.868
 138   1 H      0.224  0.776  0.000  0.000     0.990     1.559
 139   1 H      0.067  0.933  0.000  0.000     2.113     2.273
 140   1 H      0.082  0.918  0.000  0.000     1.957     2.188
 141   1 H      0.070  0.930  0.000  0.000     2.080     2.256
 142   1 H      0.070  0.930  0.000  0.000     2.089     2.260
 143   7 N     -0.174  1.245  3.929  0.000    24.768     7.391
 144   6 C      0.017  1.067  2.916  0.000    20.290     6.412
 145   6 C      0.279  1.041  2.680  0.000    22.285     7.730
 146   8 O     -0.485  1.730  4.755  0.000    23.458     6.494
 147   6 C     -0.022  1.061  2.961  0.000    20.931     6.507
 148   6 C     -0.124  1.041  3.083  0.000    22.931     6.828
 149   6 C     -0.129  1.043  3.087  0.000    23.036     6.843
 150   1 H      0.218  0.782  0.000  0.000     1.020     1.582
 151   1 H      0.081  0.919  0.000  0.000     1.971     2.196
 152   1 H      0.048  0.952  0.000  0.000     2.341     2.393
 153   1 H      0.061  0.939  0.000  0.000     2.192     2.315
 154   1 H      0.037  0.963  0.000  0.000     2.494     2.470
 155   1 H      0.059  0.941  0.000  0.000     2.211     2.325
 156   1 H      0.051  0.949  0.000  0.000     2.306     2.375
 157   1 H      0.060  0.940  0.000  0.000     2.200     2.320
 158   1 H      0.057  0.943  0.000  0.000     2.237     2.339
 159   7 N     -0.181  1.243  3.938  0.000    24.916     7.414
 160   6 C     -0.025  1.048  2.977  0.000    21.090     6.550
 161   6 C      0.280  1.040  2.680  0.000    22.259     7.726
 162   8 O     -0.496  1.733  4.763  0.000    23.690     6.526
 163   1 H      0.234  0.766  0.000  0.000     0.948     1.525
 164   1 H      0.092  0.908  0.000  0.000     1.863     2.134
 165   1 H      0.090  0.910  0.000  0.000     1.880     2.144
 166   7 N     -0.185  1.251  3.934  0.000    25.018     7.429
 167   6 C      0.025  1.059  2.916  0.000    20.158     6.392
 168   6 C      0.281  1.037  2.682  0.000    22.252     7.725
 169   8 O     -0.509  1.742  4.767  0.000    23.988     6.567
 170   6 C      0.079  1.034  2.887  0.000    19.478     6.324
 171   8 O     -0.453  1.704  4.749  0.000    21.901     6.318
 172   1 H      0.231  0.769  0.000  0.000     0.961     1.536
 173   1 H      0.055  0.945  0.000  0.000     2.262     2.352
 174   1 H      0.028  0.972  0.000  0.000     2.619     2.531
 175   1 H      0.049  0.951  0.000  0.000     2.334     2.389
 176   1 H      0.338  0.662  0.000  0.000     0.616     1.233
 177   7 N     -0.173  1.250  3.923  0.000    24.749     7.389
 178   6 C      0.022  1.063  2.915  0.000    20.202     6.399
 179   6 C      0.275  1.041  2.684  0.000    22.352     7.742
 180   8 O     -0.513  1.753  4.759  0.000    24.067     6.577
 181   6 C     -0.084  1.057  3.027  0.000    22.101     6.692
 182   6 C     -0.084  1.055  3.029  0.000    22.098     6.693
 183   6 C     -0.094  1.053  3.041  0.000    22.282     6.720
 184   6 C     -0.053  1.062  2.991  0.000    21.630     6.639
 185   7 N     -0.149  1.232  3.917  0.000    24.214     7.308
 186   1 H      0.244  0.756  0.000  0.000     0.908     1.493
 187   1 H      0.064  0.936  0.000  0.000     2.152     2.294
 188   1 H      0.074  0.926  0.000  0.000     2.044     2.236
 189   1 H      0.065  0.935  0.000  0.000     2.137     2.286
 190   1 H      0.061  0.939  0.000  0.000     2.182     2.310
 191   1 H      0.062  0.938  0.000  0.000     2.172     2.305
 192   1 H      0.078  0.922  0.000  0.000     2.005     2.214
 193   1 H      0.088  0.912  0.000  0.000     1.897     2.154
 194   1 H      0.118  0.882  0.000  0.000     1.627     1.994
 195   1 H      0.124  0.876  0.000  0.000     1.581     1.966
 196   1 H      0.302  0.698  0.000  0.000     0.706     1.316
 197   1 H      0.301  0.699  0.000  0.000     0.712     1.321
 198   1 H      0.294  0.706  0.000  0.000     0.730     1.339
 199   7 N     -0.188  1.251  3.937  0.000    25.065     7.436
 200   6 C      0.026  1.059  2.914  0.000    20.134     6.389
 201   6 C      0.281  1.041  2.678  0.000    22.245     7.724
 202   8 O     -0.518  1.755  4.762  0.000    24.177     6.592
 203   6 C     -0.077  1.060  3.017  0.000    21.952     6.669
 204   6 C     -0.016  1.057  2.959  0.000    20.829     6.492
 205   6 C     -0.118  1.043  3.075  0.000    22.810     6.809
 206   6 C     -0.120  1.041  3.078  0.000    22.845     6.815
 207   1 H      0.234  0.766  0.000  0.000     0.950     1.526
 208   1 H      0.067  0.933  0.000  0.000     2.121     2.277
 209   1 H      0.054  0.946  0.000  0.000     2.273     2.358
 210   1 H      0.052  0.948  0.000  0.000     2.295     2.369
 211   1 H      0.051  0.949  0.000  0.000     2.311     2.377
 212   1 H      0.049  0.951  0.000  0.000     2.335     2.390
 213   1 H      0.037  0.963  0.000  0.000     2.491     2.468
 214   1 H      0.044  0.956  0.000  0.000     2.395     2.420
 215   1 H      0.054  0.946  0.000  0.000     2.267     2.355
 216   1 H      0.038  0.962  0.000  0.000     2.476     2.461
 217   1 H      0.037  0.963  0.000  0.000     2.495     2.470
 218   7 N     -0.193  1.254  3.939  0.000    25.181     7.453
 219   6 C      0.023  1.064  2.913  0.000    20.199     6.399
 220   6 C      0.281  1.042  2.677  0.000    22.241     7.723
 221   8 O     -0.504  1.745  4.759  0.000    23.879     6.552
 222   6 C     -0.070  1.053  3.017  0.000    21.838     6.653
 223   6 C     -0.076  1.053  3.023  0.000    21.957     6.671
 224   6 C     -0.091  1.054  3.037  0.000    22.239     6.714
 225   6 C     -0.051  1.059  2.992  0.000    21.589     6.632
 226   7 N     -0.147  1.240  3.907  0.000    24.161     7.301
 227   1 H      0.224  0.776  0.000  0.000     0.993     1.561
 228   1 H      0.083  0.917  0.000  0.000     1.951     2.184
 229   1 H      0.056  0.944  0.000  0.000     2.250     2.346
 230   1 H      0.043  0.957  0.000  0.000     2.411     2.428
 231   1 H      0.068  0.932  0.000  0.000     2.109     2.271
 232   1 H      0.063  0.937  0.000  0.000     2.161     2.299
 233   1 H      0.068  0.932  0.000  0.000     2.103     2.268
 234   1 H      0.068  0.932  0.000  0.000     2.103     2.268
 235   1 H      0.121  0.879  0.000  0.000     1.605     1.981
 236   1 H      0.124  0.876  0.000  0.000     1.581     1.966
 237   1 H      0.309  0.691  0.000  0.000     0.688     1.300
 238   1 H      0.295  0.705  0.000  0.000     0.727     1.336
 239   1 H      0.301  0.699  0.000  0.000     0.713     1.324
 240   7 N     -0.188  1.253  3.935  0.000    25.070     7.436
 241   6 C      0.042  1.056  2.902  0.000    19.880     6.349
 242   6 C      0.216  1.085  2.699  0.000    23.443     7.929
 243   8 O     -0.366  1.750  4.616  0.000    21.013     6.146
 244   6 C     -0.066  1.054  3.012  0.000    21.741     6.635
 245   6 C     -0.008  1.065  2.944  0.000    20.732     6.484
 246  16 S     -0.223  1.912  4.263  0.048   150.588    20.654
 247   6 C     -0.058  1.053  3.005  0.000    21.698     6.645
 248   1 H      0.225  0.775  0.000  0.000     0.987     1.556
 249   1 H      0.074  0.926  0.000  0.000     2.047     2.238
 250   1 H      0.079  0.921  0.000  0.000     1.994     2.208
 251   1 H      0.072  0.928  0.000  0.000     2.068     2.249
 252   1 H      0.045  0.955  0.000  0.000     2.382     2.414
 253   1 H      0.068  0.932  0.000  0.000     2.103     2.268
 254   1 H      0.071  0.929  0.000  0.000     2.074     2.252
 255   1 H      0.059  0.941  0.000  0.000     2.210     2.325
 256   1 H      0.047  0.953  0.000  0.000     2.354     2.399
 257   8 O     -0.660  1.771  4.889  0.000    26.670     6.970
 258   1 H      0.321  0.679  0.000  0.000     0.661     1.277
 259   1 H      0.305  0.695  0.000  0.000     0.707     1.321
 260   8 O     -0.626  1.757  4.869  0.000    25.824     6.859
 261   1 H      0.313  0.687  0.000  0.000     0.684     1.299
 262   1 H      0.343  0.657  0.000  0.000     0.606     1.222
 263   8 O     -0.658  1.772  4.886  0.000    26.617     6.963
 264   1 H      0.318  0.682  0.000  0.000     0.671     1.286
 265   1 H      0.313  0.687  0.000  0.000     0.682     1.297
 266   8 O     -0.653  1.763  4.890  0.000    26.492     6.947
 267   1 H      0.311  0.689  0.000  0.000     0.688     1.303
 268   1 H      0.311  0.689  0.000  0.000     0.690     1.305
 269   8 O     -0.621  1.738  4.883  0.000    25.697     6.842
 270   1 H      0.319  0.681  0.000  0.000     0.667     1.283
 271   1 H      0.282  0.718  0.000  0.000     0.779     1.386
 272   8 O     -0.673  1.778  4.895  0.000    27.000     7.013
 273   1 H      0.328  0.672  0.000  0.000     0.641     1.258
 274   1 H      0.311  0.689  0.000  0.000     0.690     1.305
 275   8 O     -0.632  1.763  4.869  0.000    25.958     6.876
 276   1 H      0.338  0.662  0.000  0.000     0.616     1.233
 277   1 H      0.323  0.677  0.000  0.000     0.657     1.273
 278   8 O     -0.659  1.772  4.887  0.000    26.653     6.968
 279   1 H      0.322  0.678  0.000  0.000     0.660     1.276
 280   1 H      0.311  0.689  0.000  0.000     0.690     1.305
 281   8 O     -0.647  1.763  4.885  0.000    26.345     6.927
 282   1 H      0.326  0.674  0.000  0.000     0.649     1.265
 283   1 H      0.305  0.695  0.000  0.000     0.707     1.321
 284   7 N     -0.392  1.314  4.078  0.000    30.158     8.156
 285   6 C      0.031  1.062  2.906  0.000    20.060     6.380
 286   6 C      0.201  1.094  2.705  0.000    23.724     7.977
 287   8 O     -0.365  1.742  4.623  0.000    20.989     6.142
 288   6 C     -0.017  1.064  2.953  0.000    20.839     6.493
 289   6 C     -0.122  1.041  3.081  0.000    22.901     6.823
 290   6 C     -0.113  1.039  3.074  0.000    22.715     6.795
 291   1 H      0.156  0.844  0.000  0.000     1.360     1.827
 292   1 H      0.067  0.933  0.000  0.000     2.124     2.279
 293   1 H      0.033  0.967  0.000  0.000     2.545     2.495
 294   1 H      0.044  0.956  0.000  0.000     2.397     2.421
 295   1 H      0.038  0.962  0.000  0.000     2.481     2.463
 296   1 H      0.066  0.934  0.000  0.000     2.128     2.281
 297   1 H      0.044  0.956  0.000  0.000     2.391     2.418
 298   1 H      0.055  0.945  0.000  0.000     2.255     2.348
 299   1 H      0.035  0.965  0.000  0.000     2.519     2.482
 300   7 N     -0.401  1.316  4.085  0.000    30.401     8.189
 301   6 C      0.034  1.060  2.906  0.000    20.009     6.371
 302   6 C      0.197  1.094  2.709  0.000    23.792     7.988
 303   8 O     -0.372  1.747  4.625  0.000    21.127     6.163
 304   6 C     -0.018  1.065  2.954  0.000    20.868     6.497
 305   6 C     -0.121  1.040  3.081  0.000    22.877     6.820
 306   6 C     -0.119  1.041  3.079  0.000    22.842     6.814
 307   1 H      0.186  0.814  0.000  0.000     1.180     1.702
 308   1 H      0.046  0.954  0.000  0.000     2.365     2.405
 309   1 H      0.045  0.955  0.000  0.000     2.382     2.413
 310   1 H      0.049  0.951  0.000  0.000     2.326     2.385
 311   1 H      0.031  0.969  0.000  0.000     2.573     2.508
 312   1 H      0.049  0.951  0.000  0.000     2.333     2.389
 313   1 H      0.045  0.955  0.000  0.000     2.378     2.411
 314   1 H      0.044  0.956  0.000  0.000     2.392     2.419
 315   1 H      0.060  0.940  0.000  0.000     2.200     2.319
 316   7 N     -0.397  1.315  4.081  0.000    30.280     8.173
 317   6 C      0.030  1.061  2.910  0.000    20.087     6.383
 318   6 C      0.270  1.047  2.683  0.000    22.435     7.756
 319   8 O     -0.519  1.761  4.759  0.000    24.213     6.597
 320   6 C     -0.068  1.050  3.018  0.000    21.786     6.644
 321   6 C     -0.099  1.056  3.043  0.000    22.380     6.734
 322   6 C      0.283  1.040  2.677  0.000    22.203     7.715
 323   8 O     -0.498  1.752  4.746  0.000    23.741     6.533
 324   7 N     -0.288  1.266  4.022  0.000    27.427     7.778
 325   1 H      0.164  0.836  0.000  0.000     1.307     1.791
 326   1 H      0.032  0.968  0.000  0.000     2.558     2.501
 327   1 H      0.073  0.927  0.000  0.000     2.057     2.243
 328   1 H      0.044  0.956  0.000  0.000     2.400     2.423
 329   1 H      0.076  0.924  0.000  0.000     2.022     2.224
 330   1 H      0.067  0.933  0.000  0.000     2.123     2.278
 331   1 H      0.232  0.768  0.000  0.000     0.957     1.532
 332   1 H      0.248  0.752  0.000  0.000     0.893     1.480
 333   7 N     -0.174  1.246  3.928  0.000    24.773     7.392
 334   6 C      0.024  1.062  2.914  0.000    20.180     6.396
 335   6 C      0.210  1.084  2.707  0.000    23.559     7.949
 336   8 O     -0.379  1.763  4.616  0.000    21.257     6.181
 337   6 C     -0.023  1.068  2.955  0.000    20.955     6.511
 338   6 C     -0.069  1.052  3.017  0.000    21.818     6.650
 339   6 C     -0.116  1.038  3.079  0.000    22.779     6.805
 340   6 C     -0.110  1.037  3.073  0.000    22.670     6.790
 341   1 H      0.239  0.761  0.000  0.000     0.928     1.509
 342   1 H      0.078  0.922  0.000  0.000     1.999     2.211
 343   1 H      0.057  0.943  0.000  0.000     2.230     2.335
 344   1 H      0.048  0.952  0.000  0.000     2.350     2.397
 345   1 H      0.055  0.945  0.000  0.000     2.264     2.353
 346   1 H      0.064  0.936  0.000  0.000     2.155     2.296
 347   1 H      0.031  0.969  0.000  0.000     2.569     2.507
 348   1 H      0.047  0.953  0.000  0.000     2.353     2.399
 349   1 H      0.047  0.953  0.000  0.000     2.358     2.401
 350   1 H      0.040  0.960  0.000  0.000     2.454     2.450
 351   1 H      0.043  0.957  0.000  0.000     2.407     2.426
 352   7 N     -0.396  1.318  4.077  0.000    30.249     8.168
 353   6 C      0.035  1.060  2.905  0.000    19.997     6.369
 354   6 C      0.204  1.090  2.706  0.000    23.663     7.966
 355   8 O     -0.385  1.762  4.624  0.000    21.393     6.201
 356   6 C     -0.020  1.068  2.952  0.000    20.897     6.502
 357   6 C     -0.062  1.051  3.011  0.000    21.690     6.630
 358   6 C     -0.122  1.038  3.083  0.000    22.884     6.821
 359   6 C     -0.109  1.037  3.073  0.000    22.649     6.787
 360   1 H      0.168  0.832  0.000  0.000     1.287     1.777
 361   1 H      0.051  0.949  0.000  0.000     2.305     2.374
 362   1 H      0.038  0.962  0.000  0.000     2.482     2.464
 363   1 H      0.044  0.956  0.000  0.000     2.398     2.422
 364   1 H      0.038  0.962  0.000  0.000     2.470     2.458
 365   1 H      0.063  0.937  0.000  0.000     2.166     2.301
 366   1 H      0.020  0.980  0.000  0.000     2.741     2.589
 367   1 H      0.057  0.943  0.000  0.000     2.230     2.335
 368   1 H      0.044  0.956  0.000  0.000     2.403     2.424
 369   1 H      0.039  0.961  0.000  0.000     2.463     2.454
 370   1 H      0.041  0.959  0.000  0.000     2.432     2.439
 371   7 N     -0.387  1.305  4.082  0.000    30.002     8.135
 372   6 C      0.054  1.050  2.896  0.000    19.690     6.321
 373   6 C      0.195  1.098  2.707  0.000    23.843     7.997
 374   8 O     -0.380  1.744  4.636  0.000    21.295     6.187
 375   6 C     -0.091  1.072  3.019  0.000    22.233     6.712
 376   6 C      0.374  1.020  2.605  0.000    20.657     7.438
 377   8 O     -0.615  1.766  4.849  0.000    26.480     6.899
 378   8 O     -0.621  1.766  4.855  0.000    26.640     6.920
 379   1 H      0.155  0.845  0.000  0.000     1.366     1.831
 380   1 H      0.042  0.958  0.000  0.000     2.425     2.435
 381   1 H      0.050  0.950  0.000  0.000     2.326     2.385
 382   1 H      0.027  0.973  0.000  0.000     2.634     2.538
 383   7 N     -0.400  1.308  4.092  0.000    30.371     8.185
 384   6 C      0.035  1.057  2.908  0.000    20.013     6.373
 385   6 C      0.200  1.095  2.705  0.000    23.749     7.981
 386   8 O     -0.355  1.733  4.622  0.000    20.804     6.115
 387   6 C      0.085  1.036  2.879  0.000    19.380     6.308
 388   8 O     -0.472  1.716  4.756  0.000    22.308     6.376
 389   1 H      0.184  0.816  0.000  0.000     1.192     1.710
 390   1 H      0.055  0.945  0.000  0.000     2.253     2.347
 391   1 H      0.025  0.975  0.000  0.000     2.660     2.550
 392   1 H      0.046  0.954  0.000  0.000     2.374     2.410
 393   1 H      0.332  0.668  0.000  0.000     0.632     1.249
 394   7 N     -0.399  1.317  4.082  0.000    30.349     8.182
 395   6 C      0.022  1.064  2.914  0.000    20.213     6.404
 396   6 C      0.260  1.053  2.687  0.000    22.618     7.788
 397   8 O     -0.481  1.730  4.751  0.000    23.378     6.483
 398   6 C     -0.081  1.058  3.022  0.000    22.036     6.683
 399   6 C     -0.078  1.053  3.025  0.000    21.987     6.676
 400   6 C     -0.104  1.057  3.047  0.000    22.475     6.749
 401   6 C     -0.055  1.060  2.995  0.000    21.657     6.643
 402   7 N     -0.148  1.240  3.908  0.000    24.200     7.306
 403   1 H      0.146  0.854  0.000  0.000     1.432     1.874
 404   1 H      0.064  0.936  0.000  0.000     2.149     2.292
 405   1 H      0.040  0.960  0.000  0.000     2.449     2.447
 406   1 H      0.054  0.946  0.000  0.000     2.269     2.356
 407   1 H      0.057  0.943  0.000  0.000     2.240     2.341
 408   1 H      0.060  0.940  0.000  0.000     2.197     2.318
 409   1 H      0.084  0.916  0.000  0.000     1.941     2.179
 410   1 H      0.078  0.922  0.000  0.000     2.003     2.213
 411   1 H      0.112  0.888  0.000  0.000     1.676     2.025
 412   1 H      0.125  0.875  0.000  0.000     1.577     1.964
 413   1 H      0.301  0.699  0.000  0.000     0.711     1.321
 414   1 H      0.303  0.697  0.000  0.000     0.703     1.314
 415   1 H      0.301  0.699  0.000  0.000     0.712     1.323
 416   7 N     -0.181  1.249  3.932  0.000    24.913     7.413
 417   6 C      0.029  1.060  2.911  0.000    20.087     6.382
 418   6 C      0.202  1.084  2.714  0.000    23.695     7.972
 419   8 O     -0.349  1.756  4.593  0.000    20.691     6.099
 420   6 C     -0.074  1.056  3.018  0.000    21.890     6.658
 421   6 C     -0.012  1.064  2.947  0.000    20.791     6.493
 422  16 S     -0.258  1.943  4.249  0.066   152.155    20.761
 423   6 C     -0.057  1.051  3.007  0.000    21.681     6.642
 424   1 H      0.234  0.766  0.000  0.000     0.949     1.526
 425   1 H      0.080  0.920  0.000  0.000     1.976     2.198
 426   1 H      0.080  0.920  0.000  0.000     1.974     2.197
 427   1 H      0.061  0.939  0.000  0.000     2.189     2.314
 428   1 H      0.067  0.933  0.000  0.000     2.121     2.278
 429   1 H      0.065  0.935  0.000  0.000     2.145     2.290
 430   1 H      0.048  0.952  0.000  0.000     2.350     2.397
 431   1 H      0.070  0.930  0.000  0.000     2.087     2.259
 432   1 H      0.072  0.928  0.000  0.000     2.064     2.247
 433   7 N     -0.412  1.322  4.090  0.000    30.717     8.231
 434   6 C      0.042  1.057  2.901  0.000    19.893     6.354
 435   6 C      0.199  1.096  2.705  0.000    23.763     7.983
 436   8 O     -0.396  1.760  4.636  0.000    21.602     6.231
 437   6 C     -0.069  1.055  3.014  0.000    21.824     6.651
 438   6 C     -0.091  1.057  3.035  0.000    22.242     6.714
 439   6 C     -0.030  1.056  2.974  0.000    21.201     6.571
 440   7 N     -0.138  1.203  3.935  0.000    23.990     7.274
 441   6 C      0.226  1.024  2.750  0.000    23.239     7.892
 442   7 N     -0.236  1.239  3.997  0.000    26.170     7.598
 443   7 N     -0.266  1.265  4.000  0.000    26.882     7.700
 444   1 H      0.188  0.812  0.000  0.000     1.167     1.692
 445   1 H      0.060  0.940  0.000  0.000     2.194     2.316
 446   1 H      0.048  0.952  0.000  0.000     2.346     2.395
 447   1 H      0.045  0.955  0.000  0.000     2.380     2.413
 448   1 H      0.084  0.916  0.000  0.000     1.940     2.178
 449   1 H      0.095  0.905  0.000  0.000     1.835     2.118
 450   1 H      0.076  0.924  0.000  0.000     2.022     2.224
 451   1 H      0.107  0.893  0.000  0.000     1.723     2.053
 452   1 H      0.192  0.808  0.000  0.000     1.147     1.678
 453   1 H      0.255  0.745  0.000  0.000     0.864     1.456
 454   1 H      0.242  0.758  0.000  0.000     0.917     1.500
 455   1 H      0.191  0.809  0.000  0.000     1.153     1.682
 456   1 H      0.256  0.744  0.000  0.000     0.862     1.455
 457   1 H      0.189  0.811  0.000  0.000     1.166     1.691
 458   1 H      0.069  0.931  0.000  0.000     2.098     2.265
 459   1 H      0.188  0.812  0.000  0.000     1.166     1.692
 460   1 H      0.076  0.924  0.000  0.000     2.023     2.224
 461   1 H      0.187  0.813  0.000  0.000     1.175     1.698
 462   1 H      0.081  0.919  0.000  0.000     1.965     2.192
 463   1 H      0.183  0.817  0.000  0.000     1.198     1.714
 464   1 H      0.074  0.926  0.000  0.000     2.039     2.233
 465   1 H      0.184  0.816  0.000  0.000     1.190     1.709
 466   1 H      0.060  0.940  0.000  0.000     2.204     2.321
 467   1 H      0.186  0.814  0.000  0.000     1.179     1.701
 468   1 H      0.065  0.935  0.000  0.000     2.146     2.290
 469   1 H      0.182  0.818  0.000  0.000     1.205     1.719
 470   1 H      0.067  0.933  0.000  0.000     2.123     2.278
 471   1 H      0.180  0.820  0.000  0.000     1.213     1.725
 472   1 H      0.069  0.931  0.000  0.000     2.095     2.263
 473   1 H      0.186  0.814  0.000  0.000     1.182     1.703
 474   1 H      0.065  0.935  0.000  0.000     2.140     2.287

 Mol. C6AA /au·bohr⁶  :    1897366.704095
 Mol. C8AA /au·bohr⁸  :   41722743.830773
 Mol. α(0) /au        :       2048.270364

 
 Wiberg/Mayer (AO) data. WBOs > 0.1 written file <wbo>
 largest (>0.05) Wiberg bond orders for each atom
           total WBO             WBO to atom ...
     1  N   2.990    C    2 1.011    H    9 0.955    H  457 0.954
     2  C   3.982    N    1 1.011    C    5 0.975    H   10 0.957    C    3 0.943
     3  C   3.935    O    4 1.594    N   20 1.308    C    2 0.943
     4  O   1.969    C    3 1.594    N   20 0.188
     5  C   3.991    C    6 0.993    C    2 0.975    H   12 0.974    H   11 0.971
     6  C   3.995    C    7 1.009    C    8 1.008    C    5 0.993    H   13 0.968
     7  C   3.995    C    6 1.009    H   16 0.986    H   15 0.983    H   14 0.982
     8  C   3.995    C    6 1.008    H   19 0.987    H   18 0.986    H   17 0.981
     9  H   0.973    N    1 0.955
    10  H   0.996    C    2 0.957
    11  H   0.997    C    5 0.971
    12  H   0.999    C    5 0.974
    13  H   0.999    C    6 0.968
    14  H   0.997    C    7 0.982
    15  H   0.998    C    7 0.983
    16  H   0.998    C    7 0.986
    17  H   0.997    C    8 0.981
    18  H   0.998    C    8 0.986
    19  H   0.999    C    8 0.987
    20  N   3.475    C    3 1.308    C   21 0.981    H   29 0.919    O    4 0.188
    21  C   3.971    N   20 0.981    C   24 0.981    H   30 0.951    C   22 0.937
    22  C   3.948    O   23 1.635    N   35 1.290    C   21 0.937
    23  O   1.972    C   22 1.635    N   35 0.190
    24  C   3.991    C   25 1.010    C   21 0.981    H   32 0.974    H   31 0.963
    25  C   3.990    C   24 1.010    H   33 0.973    H   34 0.964    C   26 0.928    O   27 0.054
    26  C   3.933    O   27 1.511    O   28 1.472    C   25 0.928
    27  O   1.808    C   26 1.511    O   28 0.214    C   25 0.054
    28  O   1.756    C   26 1.472    O   27 0.214
    29  H   0.954    N   20 0.919
    30  H   0.995    C   21 0.951
    31  H   0.996    C   24 0.963
    32  H   0.998    C   24 0.974
    33  H   1.000    C   25 0.973
    34  H   0.999    C   25 0.964
    35  N   3.455    C   22 1.290    C   36 0.989    H   39 0.922    O   23 0.190
    36  C   3.960    N   35 0.989    H   40 0.962    H   41 0.956    C   37 0.945    O   38 0.051
    37  C   3.953    O   38 1.612    N   42 1.322    C   36 0.945
    38  O   1.967    C   37 1.612    N   42 0.199    C   36 0.051
    39  H   0.953    N   35 0.922
    40  H   0.993    C   36 0.962
    41  H   0.989    C   36 0.956
    42  N   3.481    C   37 1.322    C   43 0.968    H   49 0.917    O   38 0.199
    43  C   3.953    N   42 0.968    C   46 0.964    H   50 0.950    C   44 0.936
    44  C   3.949    O   45 1.606    N   58 1.321    C   43 0.936
    45  O   1.963    C   44 1.606    N   58 0.197
    46  C   3.985    C   48 1.008    C   47 1.007    C   43 0.964    H   51 0.954
    47  C   3.991    C   46 1.007    H   53 0.983    H   52 0.982    H   54 0.982
    48  C   3.992    C   46 1.008    H   56 0.984    H   57 0.984    H   55 0.982
    49  H   0.956    N   42 0.917
    50  H   0.994    C   43 0.950
    51  H   0.997    C   46 0.954
    52  H   0.995    C   47 0.982
    53  H   0.998    C   47 0.983
    54  H   0.997    C   47 0.982
    55  H   0.995    C   48 0.982
    56  H   0.997    C   48 0.984
    57  H   0.998    C   48 0.984
    58  N   3.474    C   44 1.321    C   59 0.978    H   65 0.879    O   45 0.197
    59  C   3.964    N   58 0.978    C   62 0.967    H   66 0.949    C   60 0.940
    60  C   3.939    O   61 1.601    N   74 1.306    C   59 0.940
    61  O   1.967    C   60 1.601    N   74 0.189
    62  C   3.986    C   63 1.007    C   64 1.006    C   59 0.967    H   67 0.961
    63  C   3.992    C   62 1.007    H   69 0.983    H   70 0.981    H   68 0.978
    64  C   3.989    C   62 1.006    H   71 0.982    H   72 0.982    H   73 0.976
    65  H   0.945    N   58 0.879
    66  H   0.995    C   59 0.949
    67  H   0.998    C   62 0.961
    68  H   0.996    C   63 0.978
    69  H   0.999    C   63 0.983
    70  H   0.996    C   63 0.981
    71  H   0.996    C   64 0.982
    72  H   0.995    C   64 0.982
    73  H   0.997    C   64 0.976
    74  N   3.468    C   60 1.306    C   75 0.984    H   80 0.904    O   61 0.189
    75  C   3.969    N   74 0.984    C   78 0.982    H   81 0.940    C   76 0.933
    76  C   3.953    O   77 1.608    N   85 1.325    C   75 0.933
    77  O   1.970    C   76 1.608    N   85 0.199
    78  C   3.957    O   79 0.996    C   75 0.982    H   83 0.966    H   82 0.966
    79  O   1.942    C   78 0.996    H   84 0.864
    80  H   0.951    N   74 0.904
    81  H   0.993    C   75 0.940
    82  H   0.997    C   78 0.966
    83  H   0.997    C   78 0.966
    84  H   0.878    O   79 0.864
    85  N   3.476    C   76 1.325    C   86 0.971    H   94 0.891    O   77 0.199
    86  C   3.958    C   89 0.983    N   85 0.971    H   95 0.953    C   87 0.931    O   88 0.050
    87  C   3.951    O   88 1.608    N  102 1.322    C   86 0.931
    88  O   1.950    C   87 1.608    N  102 0.195    C   86 0.050
    89  C   3.984    C   90 1.004    C   86 0.983    H   97 0.971    H   96 0.961
    90  C   3.994    C   89 1.004    C   91 0.974    H   99 0.956    H   98 0.951    O   92 0.054
    91  C   3.947    O   92 1.644    N   93 1.299    C   90 0.974
    92  O   1.947    C   91 1.644    N   93 0.197    C   90 0.054
    93  N   3.386    C   91 1.299    H  100 0.934    H  101 0.923    O   92 0.197
    94  H   0.948    N   85 0.891
    95  H   0.995    C   86 0.953
    96  H   0.994    C   89 0.961
    97  H   0.994    C   89 0.971
    98  H   0.993    C   90 0.951
    99  H   0.995    C   90 0.956
   100  H   0.953    N   93 0.934
   101  H   0.944    N   93 0.923
   102  N   3.479    C   87 1.322    C  103 0.974    H  110 0.896    O   88 0.195
   103  C   3.957    N  102 0.974    C  106 0.963    H  111 0.951    C  104 0.938
   104  C   3.942    O  105 1.581    N  121 1.331    C  103 0.938
   105  O   1.960    C  104 1.581    N  121 0.193
   106  C   3.983    C  108 1.007    C  107 0.994    C  103 0.963    H  112 0.958
[...]
   118  H   0.997    C  109 0.983
   119  H   0.999    C  109 0.985
   120  H   0.997    C  109 0.982
   121  N   3.483    C  104 1.331    C  122 0.981    H  129 0.883    O  105 0.193
   122  C   3.970    C  125 0.984    N  121 0.981    H  130 0.951    C  123 0.938
   123  C   3.948    O  124 1.579    N  133 1.334    C  122 0.938
   124  O   1.933    C  123 1.579    N  133 0.191
   125  C   3.979    C  122 0.984    H  131 0.961    H  132 0.957    C  126 0.924
   126  C   3.940    O  127 1.500    O  128 1.481    C  125 0.924
   127  O   1.905    C  126 1.500    O  128 0.208    H  456 0.080
   128  O   1.865    C  126 1.481    O  127 0.208    H  268 0.066
   129  H   0.948    N  121 0.883
   130  H   0.996    C  122 0.951
   131  H   0.997    C  125 0.961
   132  H   0.998    C  125 0.957
   133  N   3.483    C  123 1.334    C  134 0.971    H  138 0.895    O  124 0.191
   134  C   3.960    C  137 0.995    N  133 0.971    H  139 0.954    C  135 0.937
   135  C   3.953    O  136 1.610    N  143 1.322    C  134 0.937
   136  O   1.964    C  135 1.610    N  143 0.199
   137  C   3.983    C  134 0.995    H  140 0.980    H  142 0.979    H  141 0.979
   138  H   0.950    N  133 0.895
   139  H   0.995    C  134 0.954
   140  H   0.993    C  137 0.980
   141  H   0.995    C  137 0.979
   142  H   0.995    C  137 0.979
   143  N   3.482    C  135 1.322    C  144 0.974    H  150 0.900    O  136 0.199
   144  C   3.957    N  143 0.974    C  147 0.968    H  151 0.949    C  145 0.934
   145  C   3.946    O  146 1.597    N  159 1.322    C  144 0.934
   146  O   1.968    C  145 1.597    N  159 0.193
   147  C   3.987    C  149 1.007    C  148 1.007    C  144 0.968    H  152 0.962
   148  C   3.992    C  147 1.007    H  155 0.984    H  153 0.983    H  154 0.983
   149  C   3.991    C  147 1.007    H  157 0.984    H  156 0.982    H  158 0.979
   150  H   0.952    N  143 0.900
   151  H   0.993    C  144 0.949
   152  H   0.998    C  147 0.962
   153  H   0.996    C  148 0.983
   154  H   0.999    C  148 0.983
   155  H   0.996    C  148 0.984
   156  H   0.997    C  149 0.982
   157  H   0.996    C  149 0.984
   158  H   0.997    C  149 0.979
   159  N   3.479    C  145 1.322    C  160 0.997    H  163 0.880    O  146 0.193
   160  C   3.969    N  159 0.997    H  164 0.956    C  161 0.955    H  165 0.953
   161  C   3.947    O  162 1.595    N  166 1.321    C  160 0.955
   162  O   1.950    C  161 1.595    N  166 0.193
   163  H   0.945    N  159 0.880
   164  H   0.991    C  160 0.956
   165  H   0.992    C  160 0.953
   166  N   3.477    C  161 1.321    C  167 0.986    H  172 0.879    O  162 0.193
   167  C   3.972    N  166 0.986    C  170 0.968    H  173 0.951    C  168 0.935
   168  C   3.955    O  169 1.586    N  177 1.349    C  167 0.935
   169  O   1.947    C  168 1.586    N  177 0.201
   170  C   3.966    O  171 1.015    H  174 0.974    C  167 0.968    H  175 0.963
   171  O   1.952    C  170 1.015    H  176 0.875
   172  H   0.946    N  166 0.879
   173  H   0.997    C  167 0.951
   174  H   0.999    C  170 0.974
   175  H   0.997    C  170 0.963
   176  H   0.886    O  171 0.875
   177  N   3.493    C  168 1.349    C  178 0.973    H  186 0.881    O  169 0.201
   178  C   3.957    C  181 0.980    N  177 0.973    H  187 0.950    C  179 0.933
   179  C   3.948    O  180 1.610    N  199 1.325    C  178 0.933
   180  O   1.933    C  179 1.610    N  199 0.198
   181  C   3.981    C  182 1.004    C  178 0.980    H  189 0.971    H  188 0.965
   182  C   3.989    C  183 1.006    C  181 1.004    H  190 0.973    H  191 0.973
   183  C   3.985    C  184 1.012    C  182 1.006    H  192 0.970    H  193 0.965
   184  C   3.913    C  183 1.012    H  195 0.965    H  194 0.964    N  185 0.953
   185  N   3.664    C  184 0.953    H  198 0.898    H  196 0.896    H  197 0.895
   186  H   0.940    N  177 0.881
   187  H   0.995    C  178 0.950
   188  H   0.994    C  181 0.965
   189  H   0.995    C  181 0.971
   190  H   0.996    C  182 0.973
   191  H   0.996    C  182 0.973
   192  H   0.994    C  183 0.970
   193  H   0.992    C  183 0.965
   194  H   0.986    C  184 0.964
   195  H   0.984    C  184 0.965
   196  H   0.908    N  185 0.896
   197  H   0.910    N  185 0.895
   198  H   0.913    N  185 0.898
   199  N   3.477    C  179 1.325    C  200 0.978    H  207 0.882    O  180 0.198
   200  C   3.965    C  203 0.980    N  199 0.978    H  208 0.950    C  201 0.936
   201  C   3.945    O  202 1.615    N  218 1.315    C  200 0.936
   202  O   1.927    C  201 1.615    N  218 0.195
   203  C   3.986    C  204 0.991    C  200 0.980    H  210 0.971    H  209 0.970
   204  C   3.992    C  206 1.010    C  205 1.007    C  203 0.991    H  211 0.958
   205  C   3.994    C  204 1.007    H  214 0.986    H  213 0.985    H  212 0.985
   206  C   3.995    C  204 1.010    H  216 0.986    H  217 0.986    H  215 0.984
   207  H   0.945    N  199 0.882
   208  H   0.995    C  200 0.950
   209  H   0.997    C  203 0.970
   210  H   0.996    C  203 0.971
   211  H   0.997    C  204 0.958
   212  H   0.997    C  205 0.985
   213  H   0.999    C  205 0.985
   214  H   0.998    C  205 0.986
   215  H   0.997    C  206 0.984
   216  H   0.998    C  206 0.986
   217  H   0.999    C  206 0.986
   218  N   3.468    C  201 1.315    C  219 0.978    H  227 0.885    O  202 0.195
   219  C   3.963    C  222 0.978    N  218 0.978    H  228 0.947    C  220 0.938
   220  C   3.945    O  221 1.617    N  240 1.312    C  219 0.938
   221  O   1.935    C  220 1.617    N  240 0.195
   222  C   3.986    C  223 1.006    C  219 0.978    H  230 0.975    H  229 0.963
   223  C   3.990    C  222 1.006    C  224 1.005    H  232 0.974    H  231 0.973
   224  C   3.990    C  225 1.011    C  223 1.005    H  233 0.974    H  234 0.966
   225  C   3.918    C  224 1.011    N  226 0.964    H  235 0.963    H  236 0.961
   226  N   3.665    C  225 0.964    H  238 0.899    H  237 0.893    H  239 0.888
   227  H   0.950    N  218 0.885
   228  H   0.993    C  219 0.947
   229  H   0.996    C  222 0.963
   230  H   0.998    C  222 0.975
   231  H   0.995    C  223 0.973
   232  H   0.996    C  223 0.974
   233  H   0.995    C  224 0.974
   234  H   0.995    C  224 0.966
   235  H   0.985    C  225 0.963
   236  H   0.985    C  225 0.961
   237  H   0.904    N  226 0.893
   238  H   0.913    N  226 0.899
   239  H   0.910    N  226 0.888
   240  N   3.472    C  220 1.312    C  241 0.982    H  248 0.883    O  221 0.195
   241  C   3.969    N  240 0.982    C  244 0.969    C  242 0.969    H  249 0.947    O  243 0.055
   242  C   3.898    O  243 1.896    C  241 0.969    H  458 0.955
   243  O   2.037    C  242 1.896    C  241 0.055
   244  C   3.986    C  245 1.010    C  241 0.969    H  251 0.967    H  250 0.956
   245  C   3.980    C  244 1.010    S  246 0.993    H  252 0.974    H  253 0.968
   246  S   2.083    C  247 1.010    C  245 0.993
   247  C   3.977    S  246 1.010    H  256 0.985    H  255 0.981    H  254 0.978
   248  H   0.949    N  240 0.883
   249  H   0.994    C  241 0.947
   250  H   0.994    C  244 0.956
   251  H   0.994    C  244 0.967
   252  H   0.998    C  245 0.974
   253  H   0.994    C  245 0.968
   254  H   0.995    C  247 0.978
   255  H   0.997    C  247 0.981
   256  H   0.998    C  247 0.985
   257  O   1.783    H  258 0.896    H  259 0.859
   258  H   0.897    O  257 0.896
   259  H   0.907    O  257 0.859
   260  O   1.843    H  261 0.899    H  262 0.881
   261  H   0.902    O  260 0.899
   262  H   0.883    O  260 0.881
   263  O   1.783    H  265 0.901    H  264 0.862
   264  H   0.899    O  263 0.862
   265  H   0.902    O  263 0.901
   266  O   1.832    H  267 0.880    H  268 0.830
   267  H   0.903    O  266 0.880
   268  H   0.903    O  266 0.830    O  128 0.066
   269  O   1.822    H  271 0.912    H  270 0.850
   270  H   0.898    O  269 0.850
   271  H   0.921    O  269 0.912
   272  O   1.774    H  273 0.892    H  274 0.857
   273  H   0.892    O  272 0.892
   274  H   0.904    O  272 0.857
   275  O   1.840    H  277 0.892    H  276 0.884
   276  H   0.886    O  275 0.884
   277  H   0.896    O  275 0.892
   278  O   1.782    H  280 0.903    H  279 0.859
   279  H   0.897    O  278 0.859
   280  H   0.904    O  278 0.903
   281  O   1.835    H  282 0.893    H  283 0.836
   282  H   0.894    O  281 0.893
   283  H   0.907    O  281 0.836    O  378 0.065
   284  N   2.999    C  285 1.009    H  291 0.954    H  467 0.954
   285  C   3.980    N  284 1.009    C  286 0.978    H  292 0.959    C  288 0.948    O  287 0.054
   286  C   3.892    O  287 1.881    C  285 0.978    H  468 0.956
   287  O   2.043    C  286 1.881    C  285 0.054
   288  C   3.992    C  289 1.008    C  290 1.007    H  293 0.965    C  285 0.948
   289  C   3.994    C  288 1.008    H  294 0.985    H  296 0.983    H  295 0.981
   290  C   3.994    C  288 1.007    H  298 0.984    H  299 0.983    H  297 0.981
   291  H   0.976    N  284 0.954
   292  H   0.996    C  285 0.959
   293  H   0.999    C  288 0.965
   294  H   0.998    C  289 0.985
   295  H   0.999    C  289 0.981
   296  H   0.996    C  289 0.983
   297  H   0.996    C  290 0.981
   298  H   0.997    C  290 0.984
   299  H   0.999    C  290 0.983
   300  N   2.994    C  301 1.012    H  469 0.956    H  307 0.929
   301  C   3.985    N  300 1.012    C  302 0.976    H  308 0.959    C  304 0.950    O  303 0.054
   302  C   3.888    O  303 1.872    C  301 0.976    H  470 0.955
   303  O   2.049    C  302 1.872    C  301 0.054
   304  C   3.992    C  305 1.008    C  306 1.008    H  309 0.965    C  301 0.950
   305  C   3.994    C  304 1.008    H  310 0.984    H  312 0.982    H  311 0.981
   306  C   3.994    C  304 1.008    H  314 0.981    H  315 0.981    H  313 0.981
   307  H   0.965    N  300 0.929
   308  H   0.998    C  301 0.959
   309  H   0.998    C  304 0.965
   310  H   0.998    C  305 0.984
   311  H   0.999    C  305 0.981
   312  H   0.998    C  305 0.982
   313  H   0.996    C  306 0.981
   314  H   0.998    C  306 0.981
   315  H   0.996    C  306 0.981
   316  N   2.995    C  317 1.013    H  471 0.958    H  325 0.949
   317  C   3.984    N  316 1.013    C  320 0.979    H  326 0.965    C  318 0.930    O  319 0.051
   318  C   3.939    O  319 1.627    N  333 1.306    C  317 0.930
   319  O   1.938    C  318 1.627    N  333 0.196    C  317 0.051
   320  C   3.990    C  321 1.005    C  317 0.979    H  328 0.976    H  327 0.962
   321  C   3.995    C  320 1.005    C  322 0.976    H  330 0.959    H  329 0.951
   322  C   3.946    O  323 1.614    N  324 1.324    C  321 0.976
   323  O   1.972    C  322 1.614    N  324 0.197
   324  N   3.398    C  322 1.324    H  331 0.928    H  332 0.903    O  323 0.197
   325  H   0.973    N  316 0.949
   326  H   0.998    C  317 0.965
   327  H   0.995    C  320 0.962
   328  H   0.998    C  320 0.976
   329  H   0.994    C  321 0.951
   330  H   0.996    C  321 0.959
   331  H   0.946    N  324 0.928
   332  H   0.938    N  324 0.903
   333  N   3.470    C  318 1.306    C  334 0.979    H  341 0.892    O  319 0.196
   334  C   3.966    N  333 0.979    C  335 0.973    C  337 0.953    H  342 0.950    O  336 0.053
   335  C   3.896    O  336 1.890    C  334 0.973    H  472 0.954
   336  O   2.031    C  335 1.890    C  334 0.053
   337  C   3.984    C  339 1.008    C  338 0.993    H  343 0.962    C  334 0.953
   338  C   3.993    C  340 1.018    C  337 0.993    H  344 0.976    H  345 0.971
   339  C   3.993    C  337 1.008    H  348 0.985    H  347 0.981    H  346 0.979
   340  C   3.994    C  338 1.018    H  350 0.986    H  349 0.985    H  351 0.984
   341  H   0.943    N  333 0.892
   342  H   0.994    C  334 0.950
   343  H   0.997    C  337 0.962
   344  H   0.998    C  338 0.976
   345  H   0.997    C  338 0.971
   346  H   0.996    C  339 0.979
   347  H   0.999    C  339 0.981
   348  H   0.998    C  339 0.985
   349  H   0.997    C  340 0.985
   350  H   0.998    C  340 0.986
   351  H   0.998    C  340 0.984
   352  N   3.000    C  353 1.009    H  473 0.955    H  360 0.951
   353  C   3.982    N  352 1.009    C  354 0.976    H  361 0.962    C  356 0.949    O  355 0.053
   354  C   3.890    O  355 1.887    C  353 0.976    H  474 0.955
   355  O   2.023    C  354 1.887    C  353 0.053
   356  C   3.991    C  358 1.009    C  357 0.995    H  362 0.965    C  353 0.949
   357  C   3.996    C  359 1.017    C  356 0.995    H  363 0.977    H  364 0.973
   358  C   3.992    C  356 1.009    H  366 0.981    H  367 0.980    H  365 0.978
   359  C   3.995    C  357 1.017    H  369 0.987    H  370 0.983    H  368 0.983
   360  H   0.972    N  352 0.951
   361  H   0.997    C  353 0.962
   362  H   0.998    C  356 0.965
   363  H   0.998    C  357 0.977
   364  H   0.999    C  357 0.973
   365  H   0.996    C  358 0.978
   366  H   1.000    C  358 0.981
   367  H   0.997    C  358 0.980
   368  H   0.997    C  359 0.983
   369  H   0.998    C  359 0.987
   370  H   0.998    C  359 0.983
   371  N   2.996    C  372 1.013    H  379 0.957    H  459 0.954
   372  C   3.986    N  371 1.013    C  373 0.979    C  375 0.965    H  380 0.957    O  374 0.054
   373  C   3.894    O  374 1.852    C  372 0.979    H  460 0.954
   374  O   2.032    C  373 1.852    C  372 0.054
   375  C   3.983    H  381 0.971    C  372 0.965    H  382 0.958    C  376 0.909    O  377 0.051
   376  C   3.937    O  377 1.530    O  378 1.463    C  375 0.909
   377  O   1.829    C  376 1.530    O  378 0.211    C  375 0.051
   378  O   1.844    C  376 1.463    O  377 0.211    H  283 0.065
   379  H   0.976    N  371 0.957
   380  H   0.998    C  372 0.957
   381  H   0.998    C  375 0.971
   382  H   0.999    C  375 0.958
   383  N   2.996    C  384 1.020    H  461 0.953    H  389 0.920
   384  C   3.989    N  383 1.020    C  385 0.981    H  390 0.955    C  387 0.946    O  386 0.054
   385  C   3.894    O  386 1.875    C  384 0.981    H  462 0.954
   386  O   2.055    C  385 1.875    C  384 0.054
   387  C   3.959    O  388 1.007    H  391 0.975    H  392 0.963    C  384 0.946
   388  O   1.944    C  387 1.007    H  393 0.878
   389  H   0.966    N  383 0.920
   390  H   0.997    C  384 0.955
   391  H   0.999    C  387 0.975
   392  H   0.998    C  387 0.963
   393  H   0.890    O  388 0.878
   394  N   2.994    C  395 1.011    H  463 0.956    H  403 0.955
   395  C   3.979    N  394 1.011    C  398 0.974    H  404 0.957    C  396 0.940
   396  C   3.941    O  397 1.605    N  416 1.308    C  395 0.940
   397  O   1.957    C  396 1.605    N  416 0.192
   398  C   3.989    C  399 1.007    C  395 0.974    H  406 0.967    H  405 0.966
   399  C   3.992    C  398 1.007    C  400 1.005    H  408 0.974    H  407 0.974
   400  C   3.986    C  401 1.010    C  399 1.005    H  409 0.970    H  410 0.964
   401  C   3.918    C  400 1.010    H  411 0.965    N  402 0.964    H  412 0.961
   402  N   3.664    C  401 0.964    H  413 0.897    H  414 0.895    H  415 0.888
   403  H   0.979    N  394 0.955
   404  H   0.995    C  395 0.957
   405  H   0.998    C  398 0.966
   406  H   0.997    C  398 0.967
   407  H   0.997    C  399 0.974
   408  H   0.996    C  399 0.974
   409  H   0.993    C  400 0.970
   410  H   0.994    C  400 0.964
   411  H   0.987    C  401 0.965
   412  H   0.984    C  401 0.961
   413  H   0.909    N  402 0.897
   414  H   0.908    N  402 0.895
   415  H   0.909    N  402 0.888
   416  N   3.472    C  396 1.308    C  417 0.989    H  424 0.883    O  397 0.192
   417  C   3.976    N  416 0.989    C  420 0.973    C  418 0.965    H  425 0.937    O  419 0.055
   418  C   3.905    O  419 1.905    C  417 0.965    H  464 0.954
   419  O   2.054    C  418 1.905    C  417 0.055
   420  C   3.988    C  421 1.008    C  417 0.973    H  427 0.968    H  426 0.962
   421  C   3.976    C  420 1.008    S  422 0.992    H  428 0.968    H  429 0.967
   422  S   2.083    C  423 1.007    C  421 0.992
   423  C   3.974    S  422 1.007    H  430 0.981    H  431 0.978    H  432 0.977
   424  H   0.945    N  416 0.883
   425  H   0.993    C  417 0.937
   426  H   0.993    C  420 0.962
   427  H   0.996    C  420 0.968
   428  H   0.996    C  421 0.968
   429  H   0.994    C  421 0.967
   430  H   0.998    C  423 0.981
   431  H   0.995    C  423 0.978
   432  H   0.995    C  423 0.977
   433  N   2.994    C  434 1.026    H  465 0.955    H  444 0.921
   434  C   3.986    N  433 1.026    C  435 0.975    C  437 0.960    H  445 0.945    O  436 0.060
   435  C   3.883    O  436 1.878    C  434 0.975    H  466 0.957
   436  O   2.017    C  435 1.878    C  434 0.060
   437  C   3.989    C  438 1.004    H  447 0.973    H  446 0.968    C  434 0.960
   438  C   3.984    C  437 1.004    C  439 0.998    H  448 0.969    H  449 0.963
   439  C   3.944    C  438 0.998    N  440 0.976    H  450 0.959    H  451 0.958
   440  N   3.463    C  441 1.300    C  439 0.976    H  452 0.922    N  443 0.102    N  442 0.095
   441  C   3.975    N  443 1.323    N  442 1.307    N  440 1.300
   442  N   3.373    C  441 1.307    H  454 0.917    H  453 0.900    N  443 0.097    N  440 0.095
   443  N   3.384    C  441 1.323    H  455 0.936    H  456 0.827    N  440 0.102    N  442 0.097
   444  H   0.964    N  433 0.921
   445  H   0.996    C  434 0.945
   446  H   0.998    C  437 0.968
   447  H   0.998    C  437 0.973
   448  H   0.992    C  438 0.969
   449  H   0.991    C  438 0.963
   450  H   0.994    C  439 0.959
   451  H   0.988    C  439 0.958
   452  H   0.963    N  440 0.922
   453  H   0.935    N  442 0.900
   454  H   0.942    N  442 0.917
   455  H   0.963    N  443 0.936
   456  H   0.934    N  443 0.827    O  127 0.080
   457  H   0.964    N    1 0.954
   458  H   0.995    C  242 0.955
   459  H   0.964    N  371 0.954
   460  H   0.994    C  373 0.954
   461  H   0.965    N  383 0.953
   462  H   0.993    C  385 0.954
   463  H   0.967    N  394 0.956
   464  H   0.994    C  418 0.954
   465  H   0.966    N  433 0.955
   466  H   0.996    C  435 0.957
   467  H   0.965    N  284 0.954
   468  H   0.996    C  286 0.956
   469  H   0.967    N  300 0.956
   470  H   0.996    C  302 0.955
   471  H   0.967    N  316 0.958
   472  H   0.995    C  335 0.954
   473  H   0.966    N  352 0.955
   474  H   0.996    C  354 0.955
 
molecular dipole:
                 x           y           z       tot (Debye)
 q only:       21.139      16.882      54.941
   full:       22.588      16.604      50.904     147.712
molecular quadrupole (traceless):
                xx          xy          yy          xz          yz          zz
 q only:    -1178.595    1339.201   -1509.384    2321.477    1205.340    2687.979
  q+dip:     -811.552    1349.683   -1369.613    2117.705    1088.097    2181.165
   full:     -802.943    1352.765   -1368.577    2120.808    1088.092    2171.520
speedup  9.95
cpu  time for grad   31.72 s
wall time for grad    3.19 s

SCC energy    :    -715.8745296
rep           :       8.2474610
ES            :       2.5193541
AES           :      -0.1576603
AXC           :       0.2297260
disp          :      -0.5758809
XB            :       0.0000000
fix           :       0.0000000
Gborn         :       0.0000000
Gsasa         :       0.0000000
Ghb           :       0.0000000
Gshift        :       0.0000000
Gsolv         :      -0.6889447     -432.32
Etot ala COSMO:    -715.8745296
grad norm     :       0.6714378
total E       :    -707.5755115
atomizationE  :     124.8992339    78375.45
(atE without considering molecular charge,
 total energy contains solvation terms)
H-L gap (eV)  :          1.4357

------------------------------------------------------------------------
 * finished run on 2019/02/18 at 08:32:55.525     
------------------------------------------------------------------------
 total:
 * wall-time:     0 d,  0 h,  0 min,  3.866 sec
 *  cpu-time:     0 d,  0 h,  0 min, 34.773 sec
 * ratio c/w:     8.995 speedup
 SCF:
 * wall-time:     0 d,  0 h,  0 min,  3.597 sec
 *  cpu-time:     0 d,  0 h,  0 min, 33.583 sec
 * ratio c/w:     9.337 speedup

