      -----------------------------------------------------------      
     |                   =====================                   |     
     |                           x T B                           |     
     |                   =====================                   |     
     |                         S. Grimme                         |     
     |          Mulliken Center for Theoretical Chemistry        |     
     |                    University of Bonn                     |     
     |                 Version 6.0.1 (SAW181210)                 |     
      -----------------------------------------------------------      

   This program is distributed in the hope that it will be useful,
   but WITHOUT ANY WARRANTY; without even the implied warranty of
   MERCHANTABILITY or FITNESS FOR A PARTICULAR PURPOSE.
   
   FOR NON-COMMERCIAL, ACADEMIA USE ONLY.
   
   Cite this work as:
   S. Grimme, C. Bannwarth, P. Shushkov, J. Comput. Theory Chem., 2017,
   13, 1989-2009.
   C. Bannwarth, S. Ehlert and S. Grimme., ChemRxiv, 2018, preprint.
   http://doi.org/10.26434/chemrxiv.7246238.v1
   
   for sTDA-xTB:
   S. Grimme and C. Bannwarth, J. Chem. Phys., 2016, 145, 054103.
   
   in the mass-spec context:
   V. Asgeirsson, C. Bauer and S. Grimme, Chem. Sci., 2017, 8, 4879.
   
   if GBSA is used:
   P. Shushkov, F. März and S. Grimme, unpublished.
   
   for ANC optimizer:
   S. Grimme, unpublished.
   Rational Function algorithm used in ANCopt:
   F. Eckert, P. Pulay, H.-J. Werner, J. Comput. Chem., 1997, 18, 1473.
   
   with help from (in alphabetical order)
   C. Bannwarth, F. Bohle, G. Brandenburg, E. Caldeweyher, M. Checinski,
   S. Dohm, S. Ehlert, S. Ehrlich, F. März, H. Neugebauer, J. Pisarek,
   P. Pracht, P. Shushkov, and S. Spicher.
   
 * started run on 2019/02/12 at 02:59:44.505     
========================================================================
 # omp threads = 12
========================================================================
number of atoms            : 569
number of electrons        : 1532
charge                     : 0
spin                       : .0
first test random number   : .1446

########################################################################
# WARNING! Please study the warnings concerning your input carefully
#  - Process number higher than OMP_NUM_THREADS, I hope you know what you are doing.
########################################################################

           ------------------------------------------------- 
          |                 G F N 2 - x T B                 |
          | Geometry, Frequencies, Noncovalent interactions |
          |            JCTC 2018 parametrisation            |
           ------------------------------------------------- 
 
      method parameters     
 k(s)        :  1.8500
 k(p)        :  2.2300
 k(d)        :  2.2300
 k(f)        :  2.0000
 kEN (H0ij)  : -2.0000
 D4 a1       :  0.5200
 D4 a2       :  5.0000
 D4 s6       :  1.0000
 D4 s8       :  2.7000
 D4 s9       :  5.0000
 alphaj      :  2.0000

 Solvent             : h2o
 Using internal parameter file: .param_gbsa2_h2o
 Gsolv ref. state (COSMO-RS): gsolv [1 M gas/solution]
 temperature (mdtemp)       :    298.150000000000     
 dielectric constant        :    80.2000000000000     
 rho                        :    1.00000000000000     
 mass                       :    18.0000000000000     
 surface tension            :    15.5689454083859     
 probe radius               :   0.975313790000000     
 vdW radii scaling          :    1.00000000000000     
 Gshift (Eh)                :   1.857443126794793E-003
 c1                         :    1.55243817000000     
 soset                      :   0.130326360000000     
 HB correction              :  T

            Z     q(EN)     CN     RAES       Cart. coordinates
     1  N   5.0   -0.20    3.25    1.97    42.79636    30.88189   -16.56906
     2  C   4.0    0.03    4.42    4.41    44.30746    30.80389   -14.28900
     3  C   4.0    0.15    3.43    3.09    46.88051    29.65441   -14.92657
     4  O   6.0   -0.30    1.23    1.80    47.03746    27.74029   -16.22377
     5  C   4.0   -0.02    4.27    4.13    43.01169    29.20806   -12.22280
     6  C   4.0   -0.07    4.12    3.83    44.49972    29.38929    -9.75980
     7  C   4.0   -0.08    4.13    3.86    40.29965    30.10320   -11.84269
     8  H   1.0    0.10    1.03    1.43    42.54265    29.21961   -17.46826
     9  H   1.0    0.05    1.05    1.44    44.53671    32.75085   -13.63194
    10  H   1.0    0.05    1.05    1.44    42.99871    27.24009   -12.87031
    11  H   1.0    0.04    1.00    1.43    43.58544    28.29313    -8.28363
    12  H   1.0    0.05    1.00    1.43    46.42171    28.70623   -10.00891
    13  H   1.0    0.05    1.00    1.43    44.60161    31.34535    -9.12880
    14  H   1.0    0.04    1.00    1.43    39.41911    29.03424   -10.33023
    15  H   1.0    0.04    1.00    1.43    40.29266    32.09488   -11.33220
    16  H   1.0    0.04    1.00    1.43    39.18861    29.85150   -13.55349
    17  N   5.0   -0.15    3.47    2.06    48.85670    30.89139   -13.96500
    18  C   4.0    0.04    4.39    4.36    51.42956    30.15554   -14.45214
    19  C   4.0    0.16    3.49    3.11    52.42741    28.27869   -12.49638
    20  O   6.0   -0.32    1.30    1.80    52.01626    28.46840   -10.21950
    21  C   4.0    0.04    4.18    3.95    53.09736    32.53163   -14.30082
    22  O   6.0   -0.26    2.10    1.84    55.68121    31.86795   -14.07599
    23  H   1.0    0.11    1.12    1.45    48.56424    32.46304   -12.85133
    24  H   1.0    0.06    1.06    1.44    51.52565    29.28858   -16.33127
    25  H   1.0    0.04    1.01    1.43    52.76649    33.64626   -16.00730
    26  H   1.0    0.06    1.01    1.43    52.49177    33.64648   -12.66107
    27  H   1.0    0.11    1.02    1.43    56.65006    33.37713   -14.44679
    28  N   5.0   -0.14    3.41    2.03    54.04835    26.58670   -13.43424
    29  C   4.0    0.02    4.27    4.13    55.33176    24.84069   -11.76912
    30  C   4.0    0.17    3.40    3.08    56.63395    26.21084    -9.60102
    31  O   6.0   -0.31    1.29    1.80    56.77795    25.28876    -7.48969
    32  H   1.0    0.11    1.09    1.44    54.14648    26.29916   -15.32778
    33  H   1.0    0.05    1.02    1.43    54.02547    23.45279   -10.96401
    34  H   1.0    0.07    1.04    1.43    56.78767    23.84815   -12.85168
    35  N   5.0   -0.14    3.48    2.06    57.80435    28.38694   -10.23083
    36  C   4.0    0.04    4.43    4.42    59.19298    29.80335    -8.32360
    37  C   4.0    0.16    3.49    3.11    57.52742    30.46238    -6.06775
    38  O   6.0   -0.32    1.27    1.80    58.17040    30.04283    -3.88330
    39  C   4.0   -0.04    4.28    4.17    60.28969    32.23119    -9.45998
    40  C   4.0   -0.03    4.19    3.97    61.79989    33.74732    -7.52595
    41  C   4.0    0.25    3.10    3.02    64.42281    32.50467    -6.95304
    42  O   6.0   -0.32    1.24    1.80    65.38299    31.25309    -8.70762
    43  O   6.0   -0.30    1.16    1.80    65.34186    32.89124    -4.82422
    44  H   1.0    0.10    1.10    1.44    57.17520    29.36198   -11.76578
    45  H   1.0    0.07    1.05    1.44    60.72361    28.61112    -7.59735
    46  H   1.0    0.06    1.04    1.43    61.60784    31.74278   -10.96648
    47  H   1.0    0.04    1.03    1.43    58.74551    33.37744   -10.20105
    48  H   1.0    0.04    1.02    1.43    62.20148    35.63449    -8.26174
    49  H   1.0    0.05    1.03    1.43    60.78827    33.97739    -5.74382
    50  N   5.0   -0.14    3.51    2.09    55.36140    31.65038    -6.62974
    51  C   4.0    0.03    4.42    4.42    53.74453    32.58739    -4.63525
    52  C   4.0    0.15    3.43    3.09    52.48578    30.42758    -3.18528
    53  O   6.0   -0.32    1.27    1.80    52.06851    30.61403    -0.91768
    54  C   4.0   -0.04    4.26    4.12    51.86341    34.53140    -5.66128
    55  C   4.0   -0.03    4.18    3.96    49.76243    33.39914    -7.27188
    56  C   4.0    0.24    3.10    3.02    48.42692    35.54210    -8.79834
    57  O   6.0   -0.29    1.17    1.80    47.62119    37.38575    -7.60037
    58  O   6.0   -0.32    1.24    1.80    48.30729    35.24577   -11.14902
    59  H   1.0    0.09    1.07    1.44    54.71240    31.74743    -8.41941
    60  H   1.0    0.05    1.06    1.44    54.97468    33.52999    -3.25116
    61  H   1.0    0.05    1.03    1.43    51.00812    35.54931    -4.08684
    62  H   1.0    0.05    1.03    1.43    52.92289    35.91344    -6.77522
    63  H   1.0    0.06    1.03    1.43    50.46704    31.99981    -8.60695
    64  H   1.0    0.05    1.03    1.43    48.34572    32.49911    -6.07183
    65  N   5.0   -0.14    3.51    2.08    51.98661    28.34138    -4.51161
    66  C   4.0    0.04    4.44    4.45    50.91716    26.11783    -3.32775
    67  C   4.0    0.16    3.48    3.11    52.82686    24.92755    -1.51995
    68  O   6.0   -0.32    1.33    1.80    52.21171    24.31014     0.63359
    69  C   4.0   -0.04    4.34    4.27    50.09134    24.22901    -5.35160
    70  C   4.0   -0.01    3.57    3.15    48.91494    21.91527    -4.20363
    71  C   4.0   -0.05    3.47    3.10    46.44314    21.98911    -3.32067
    72  C   4.0   -0.03    3.47    3.10    50.28434    19.69008    -3.97265
    73  C   4.0   -0.05    3.37    3.07    45.36625    19.87737    -2.21882
    74  C   4.0   -0.03    3.37    3.07    49.19088    17.55685    -2.93126
    75  C   4.0   -0.04    3.38    3.07    46.73004    17.65138    -2.04356
    76  H   1.0    0.11    1.09    1.44    52.15653    28.33615    -6.41786
    77  H   1.0    0.05    1.05    1.44    49.29069    26.68024    -2.16916
    78  H   1.0    0.04    1.03    1.43    48.73825    25.18687    -6.58048
    79  H   1.0    0.05    1.03    1.43    51.73695    23.70449    -6.47997
    80  H   1.0    0.04    1.03    1.43    45.36746    23.71494    -3.50827
    81  H   1.0    0.06    1.03    1.43    52.20333    19.60384    -4.66637
    82  H   1.0    0.04    1.03    1.43    43.46306    19.96386    -1.49115
    83  H   1.0    0.06    1.03    1.43    50.26076    15.82329    -2.83766
    84  H   1.0    0.06    1.03    1.43    45.87718    15.99037    -1.22054
    85  N   5.0   -0.14    3.51    2.09    55.15763    24.63850    -2.40164
    86  C   4.0    0.04    4.43    4.43    57.19901    23.78276    -0.78218
    87  C   4.0    0.16    3.53    3.13    57.32199    25.43609     1.59711
    88  O   6.0   -0.31    1.27    1.80    57.48551    24.53202     3.71751
    89  C   4.0   -0.03    4.34    4.27    59.70356    23.93461    -2.23217
    90  C   4.0   -0.01    3.58    3.16    61.96701    23.93406    -0.51486
    91  C   4.0   -0.04    3.46    3.10    62.92037    21.70314     0.49534
    92  C   4.0   -0.03    3.47    3.10    63.16766    26.19510     0.07091
    93  C   4.0   -0.03    3.43    3.09    65.04934    21.71803     2.00676
    94  C   4.0   -0.04    3.43    3.09    65.29186    26.23284     1.59285
    95  C   4.0    0.07    3.45    3.09    66.27280    23.98869     2.53691
    96  O   6.0   -0.24    2.12    1.84    68.39212    23.91975     3.99875
    97  H   1.0    0.11    1.11    1.45    55.59998    25.07196    -4.21583
    98  H   1.0    0.05    1.05    1.44    56.82856    21.84260    -0.14720
    99  H   1.0    0.05    1.03    1.43    59.79908    22.35705    -3.55517
   100  H   1.0    0.07    1.04    1.43    59.69792    25.69263    -3.31202
   101  H   1.0    0.05    1.03    1.43    61.99331    19.93713     0.06513
   102  H   1.0    0.07    1.03    1.43    62.47233    27.96650    -0.68397
   103  H   1.0    0.06    1.03    1.43    65.81929    19.98846     2.75520
   104  H   1.0    0.07    1.03    1.43    66.18629    28.01320     2.04734
   105  H   1.0    0.12    1.03    1.43    69.15769    25.56937     4.15432
   106  N   5.0   -0.13    3.53    2.10    57.20696    27.91831     1.15713
   107  C   4.0    0.04    4.43    4.43    57.53049    29.72184     3.19069
   108  C   4.0    0.16    3.47    3.10    55.47060    29.29041     5.18685
   109  O   6.0   -0.31    1.25    1.80    55.93670    29.11635     7.44819
   110  C   4.0   -0.04    4.35    4.29    57.42935    32.42030     2.15469
   111  C   4.0   -0.03    4.05    3.71    59.03865    34.20138     3.73508
   112  S   6.0   -0.05    2.50    3.10    58.25481    37.50053     3.18285
   113  C   4.0   -0.07    3.89    3.45    58.46740    37.70021    -0.22559
   114  H   1.0    0.11    1.10    1.44    57.31951    28.57297    -0.63759
   115  H   1.0    0.06    1.05    1.44    59.37542    29.40199     4.09844
   116  H   1.0    0.06    1.03    1.43    58.14154    32.38492     0.21642
   117  H   1.0    0.05    1.04    1.43    55.46912    33.06947     2.11015
   118  H   1.0    0.05    1.08    1.44    58.68676    33.90922     5.74391
   119  H   1.0    0.06    1.06    1.44    61.05383    33.92232     3.37915
   120  H   1.0    0.04    1.04    1.44    58.48342    39.68754    -0.72734
   121  H   1.0    0.05    1.04    1.43    60.20690    36.80523    -0.85376
   122  H   1.0    0.04    1.04    1.43    56.84053    36.78489    -1.08000
   123  N   5.0   -0.14    3.52    2.09    53.13206    29.12647     4.25941
   124  C   4.0    0.04    4.44    4.44    50.99634    28.76609     5.94007
   125  C   4.0    0.16    3.49    3.11    51.29388    26.28138     7.39368
   126  O   6.0   -0.32    1.28    1.80    50.84374    26.13859     9.66265
   127  C   4.0   -0.05    4.34    4.28    48.50830    28.81343     4.46936
   128  C   4.0   -0.03    4.18    3.96    46.17776    28.80349     6.20363
   129  C   4.0   -0.07    4.11    3.82    45.98996    31.23982     7.73901
   130  C   4.0   -0.08    4.10    3.81    43.78909    28.46563     4.61959
   131  H   1.0    0.11    1.10    1.44    52.78804    29.35937     2.39025
   132  H   1.0    0.05    1.06    1.44    51.02886    30.28934     7.34489
   133  H   1.0    0.05    1.03    1.43    48.47848    30.50288     3.28709
   134  H   1.0    0.05    1.03    1.43    48.45979    27.16392     3.22741
   135  H   1.0    0.04    1.05    1.44    46.33926    27.19788     7.50033
   136  H   1.0    0.04    1.00    1.43    44.25054    31.23967     8.82826
   137  H   1.0    0.04    1.00    1.43    47.55806    31.42135     9.04854
   138  H   1.0    0.05    1.00    1.43    45.97331    32.85534     6.47047
   139  H   1.0    0.04    1.00    1.43    42.13651    28.33669     5.83397
   140  H   1.0    0.05    1.00    1.43    43.54557    30.06332     3.34788
   141  H   1.0    0.04    1.00    1.43    43.89780    26.74779     3.49745
   142  N   5.0   -0.14    3.52    2.09    52.05584    24.32426     6.00617
   143  C   4.0    0.04    4.46    4.48    52.47661    21.85767     7.10937
   144  C   4.0    0.16    3.50    3.12    54.19566    22.05301     9.42006
   145  O   6.0   -0.32    1.28    1.80    53.76135    20.83171    11.33986
   146  C   4.0    0.06    4.23    4.06    53.61232    20.01014     5.14368
   147  O   6.0   -0.26    2.12    1.84    51.86420    19.51774     3.18861
   148  C   4.0   -0.06    4.11    3.81    54.21564    17.47393     6.37012
   149  H   1.0    0.12    1.11    1.45    52.37680    24.55557     4.13583
   150  H   1.0    0.05    1.05    1.44    50.66130    21.08147     7.75366
   151  H   1.0    0.06    1.04    1.43    55.33686    20.87981     4.37986
   152  H   1.0    0.15    1.05    1.44    51.63716    21.02673     2.18542
   153  H   1.0    0.05    1.00    1.43    54.77223    16.15741     4.89745
   154  H   1.0    0.05    1.00    1.43    55.72843    17.67783     7.73713
   155  H   1.0    0.05    1.00    1.43    52.51938    16.78092     7.29405
   156  N   5.0   -0.14    3.51    2.08    56.20937    23.55001     9.17683
   157  C   4.0    0.04    4.42    4.42    57.97927    23.85170    11.24082
   158  C   4.0    0.16    3.48    3.11    56.67751    24.97031    13.58184
   159  O   6.0   -0.31    1.30    1.80    57.14529    24.18289    15.71004
   160  C   4.0   -0.04    4.28    4.16    60.15284    25.60439    10.53087
   161  C   4.0   -0.04    4.18    3.97    61.76208    24.66079     8.30793
   162  C   4.0   -0.00    4.22    4.04    64.54254    24.44240     9.00321
   163  N   5.0   -0.14    3.40    2.02    65.00042    22.12209    10.39814
   164  C   4.0    0.10    3.34    3.06    67.14752    21.58774    11.60153
   165  N   5.0   -0.18    3.26    1.97    68.84902    23.36444    12.10012
   166  N   5.0   -0.19    3.24    1.96    67.58879    19.19585    12.28454
   167  H   1.0    0.11    1.09    1.44    56.56221    24.46982     7.53833
   168  H   1.0    0.05    1.05    1.44    58.68981    21.98380    11.79825
   169  H   1.0    0.06    1.03    1.43    59.36367    27.44958    10.06544
   170  H   1.0    0.05    1.04    1.43    61.33034    25.82726    12.20613
   171  H   1.0    0.05    1.03    1.43    61.06946    22.85042     7.60905
   172  H   1.0    0.06    1.03    1.43    61.59878    25.98037     6.73355
   173  H   1.0    0.06    1.04    1.43    65.68486    24.43458     7.28653
   174  H   1.0    0.05    1.03    1.43    65.07806    26.08500    10.12683
   175  H   1.0    0.07    1.07    1.44    63.86209    20.66616     9.90344
   176  H   1.0    0.10    1.06    1.44    68.45276    25.25353    12.03357
   177  H   1.0    0.09    1.04    1.43    70.31763    22.88853    13.20859
   178  H   1.0    0.08    1.03    1.43    66.35360    17.81561    11.85351
   179  H   1.0    0.09    1.03    1.43    69.09599    18.71557    13.34251
   180  N   5.0   -0.14    3.53    2.10    55.11103    26.89056    13.14264
   181  C   4.0    0.04    4.44    4.44    53.77370    28.07926    15.22004
   182  C   4.0    0.16    3.46    3.10    52.18856    26.09646    16.60892
   183  O   6.0   -0.29    1.23    1.80    52.10206    26.03027    18.93153
   184  C   4.0   -0.05    4.27    4.13    52.20232    30.29912    14.23995
   185  C   4.0   -0.05    4.20    4.00    53.95471    32.49026    13.50503
   186  C   4.0   -0.01    4.22    4.04    52.60238    34.55888    12.04062
   187  N   5.0   -0.14    3.41    2.03    50.54847    35.62584    13.50300
   188  C   4.0    0.09    3.35    3.06    48.69700    36.99012    12.52317
   189  N   5.0   -0.19    3.27    1.97    48.47366    37.26479    10.01487
   190  N   5.0   -0.18    3.23    1.96    46.95309    37.98008    14.03450
   191  H   1.0    0.11    1.07    1.44    54.78874    27.52446    11.36432
   192  H   1.0    0.05    1.06    1.44    55.15560    28.77057    16.60584
   193  H   1.0    0.06    1.03    1.43    51.10908    29.65262    12.61539
   194  H   1.0    0.05    1.03    1.43    50.89800    30.91282    15.71094
   195  H   1.0    0.04    1.03    1.43    54.76611    33.28017    15.22687
   196  H   1.0    0.05    1.03    1.43    55.48940    31.78548    12.32684
   197  H   1.0    0.05    1.02    1.43    53.96415    36.03921    11.55419
   198  H   1.0    0.05    1.03    1.43    51.84428    33.76377    10.29068
   199  H   1.0    0.08    1.06    1.44    50.63472    35.46015    15.43274
   200  H   1.0    0.10    1.07    1.44    49.97932    36.97103     8.85600
   201  H   1.0    0.08    1.04    1.43    47.15043    38.47943     9.38618
   202  H   1.0    0.09    1.02    1.43    47.13732    37.91883    15.97274
   203  H   1.0    0.09    1.03    1.43    45.53262    39.00973    13.30856
   204  N   5.0   -0.14    3.51    2.09    50.94521    24.46801    15.14330
   205  C   4.0    0.04    4.50    4.54    49.43457    22.44442    16.21531
   206  C   4.0    0.16    3.47    3.10    51.08974    20.67984    17.81275
   207  O   6.0   -0.27    1.23    1.80    50.39998    19.98996    19.92273
   208  C   4.0   -0.02    4.26    4.12    48.00918    21.02042    14.12715
   209  C   4.0   -0.07    4.12    3.84    46.66325    18.69287    15.18402
   210  C   4.0   -0.08    4.12    3.84    46.10245    22.79426    12.88527
   211  H   1.0    0.11    1.09    1.44    51.01202    24.66005    13.23577
   212  H   1.0    0.06    1.06    1.44    48.06911    23.26408    17.54888
   213  H   1.0    0.06    1.06    1.44    49.41897    20.40037    12.74608
   214  H   1.0    0.04    1.00    1.43    45.68173    17.70411    13.67825
   215  H   1.0    0.05    1.00    1.43    47.98172    17.38786    16.07120
   216  H   1.0    0.05    1.00    1.43    45.28219    19.24230    16.60228
   217  H   1.0    0.04    1.00    1.43    44.94820    21.75962    11.54107
   218  H   1.0    0.04    1.00    1.43    44.85914    23.59410    14.31054
   219  H   1.0    0.05    1.00    1.43    47.05375    24.33314    11.91468
   220  N   5.0   -0.13    3.49    2.07    53.28933    20.00500    16.78214
   221  C   4.0    0.04    4.43    4.43    55.05214    18.39126    18.14376
   222  C   4.0    0.16    3.50    3.12    55.74793    19.56757    20.69253
   223  O   6.0   -0.27    1.23    1.80    55.74673    18.33151    22.66892
   224  C   4.0   -0.05    4.37    4.32    57.44866    18.02962    16.58349
   225  C   4.0   -0.02    4.19    3.99    59.49828    16.48592    17.93553
   226  C   4.0   -0.07    4.11    3.81    58.52206    13.91620    18.82080
   227  C   4.0   -0.08    4.10    3.81    61.75061    16.14356    16.15928
   228  H   1.0    0.11    1.09    1.44    53.69738    20.48331    14.96561
   229  H   1.0    0.05    1.05    1.44    54.13006    16.57809    18.55639
   230  H   1.0    0.04    1.03    1.43    56.92766    17.07860    14.82784
   231  H   1.0    0.06    1.04    1.43    58.19844    19.90159    16.15202
   232  H   1.0    0.05    1.06    1.44    60.14136    17.53849    19.59671
   233  H   1.0    0.05    1.00    1.43    60.05317    12.83856    19.66782
   234  H   1.0    0.06    1.00    1.43    57.06048    14.11274    20.25025
   235  H   1.0    0.04    1.00    1.43    57.74439    12.83624    17.25377
   236  H   1.0    0.04    1.00    1.43    63.22629    15.09064    17.11972
   237  H   1.0    0.04    1.00    1.43    61.17621    15.10367    14.48367
   238  H   1.0    0.05    1.00    1.43    62.49243    17.98476    15.64074
   239  N   5.0   -0.13    3.49    2.07    56.40473    21.99542    20.61389
   240  C   4.0    0.05    4.35    4.29    57.17126    23.31029    22.88617
   241  C   4.0    0.11    3.26    3.05    55.03315    23.20474    24.82193
   242  O   6.0   -0.26    1.11    1.80    55.44366    22.74369    27.06609
   243  C   4.0   -0.03    4.28    4.16    57.90415    26.03956    22.27848
   244  C   4.0   -0.03    4.23    4.06    58.98410    27.42319    24.56587
   245  C   4.0    0.16    3.23    3.04    61.44351    26.24820    25.45815
   246  O   6.0   -0.28    1.22    1.80    62.72976    24.84977    24.12709
   247  N   5.0   -0.18    3.18    1.95    62.10684    26.80507    27.83115
   248  H   1.0    0.12    1.10    1.44    56.50046    22.92768    18.93628
   249  H   1.0    0.08    1.06    1.44    58.78643    22.31442    23.72861
   250  H   1.0    0.06    1.03    1.43    59.33834    25.97898    20.79919
   251  H   1.0    0.06    1.03    1.43    56.25061    27.05375    21.58870
   252  H   1.0    0.04    1.03    1.43    59.32127    29.39543    24.06419
   253  H   1.0    0.06    1.03    1.43    57.64920    27.41084    26.13372
   254  H   1.0    0.09    1.02    1.43    61.28174    28.23693    28.80161
   255  H   1.0    0.10    1.03    1.43    63.76734    26.14358    28.48939
   256  O   6.0   -0.32    1.97    1.82    52.29218    36.78573     6.17808
   257  H   1.0    0.13    1.00    1.43    54.01643    37.32202     5.98590
   258  H   1.0    0.12    0.97    1.43    51.44132    37.34052     4.67340
   259  O   6.0   -0.31    1.97    1.82    68.69625    28.74266    12.31187
   260  H   1.0    0.13    0.97    1.43    70.35265    28.86855    11.56974
   261  H   1.0    0.16    1.01    1.43    67.61907    29.68754    11.16567
   262  O   6.0   -0.31    1.97    1.82    66.97574    27.74933   -12.31187
   263  H   1.0    0.13    0.97    1.43    66.03852    26.37779   -11.56974
   264  H   1.0    0.16    1.01    1.43    66.69604    29.15463   -11.16567
   265  N   5.0   -0.11    4.01    2.88    61.40845    29.01388   -16.08463
   266  C   4.0   -0.02    4.15    3.90    62.26122    26.79881   -17.59333
   267  C   4.0    0.15    3.30    3.05    60.23242    24.70530   -17.55234
   268  O   6.0   -0.30    1.23    1.80    59.69539    23.62853   -15.57979
   269  H   1.0    0.07    1.02    1.43    60.88500    28.40401   -14.30064
   270  H   1.0    0.06    1.02    1.43    62.86822    30.30240   -15.90259
   271  H   1.0    0.06    1.02    1.43    59.85893    29.85239   -16.92153
   272  H   1.0    0.04    1.02    1.43    62.66590    27.35799   -19.53375
   273  H   1.0    0.06    1.02    1.43    63.96363    26.03956   -16.70071
   274  N   5.0   -0.13    3.35    2.00    59.17512    24.22166   -19.78641
   275  C   4.0    0.02    4.15    3.89    57.37197    22.20922   -20.11884
   276  C   4.0    0.08    3.11    3.02    54.63215    23.03888   -19.66394
   277  O   6.0   -0.29    1.17    1.80    54.08209    25.05533   -18.68231
   278  H   1.0    0.08    1.05    1.44    59.67456    25.17744   -21.38402
   279  H   1.0    0.05    1.02    1.43    57.55566    21.45362   -22.02735
   280  H   1.0    0.06    1.03    1.43    57.76617    20.71874   -18.73157
   281  N   5.0   -0.19    3.25    1.97    47.41824    20.36701   -16.56906
   282  C   4.0    0.04    4.31    4.22    46.59514    19.09736   -14.28900
   283  C   4.0    0.09    3.23    3.04    44.31313    17.44377   -14.92657
   284  O   6.0   -0.28    1.13    1.80    42.57698    18.26491   -16.22377
   285  C   4.0   -0.02    4.26    4.13    45.86100    21.01745   -12.22280
   286  C   4.0   -0.07    4.11    3.83    45.27393    19.63816    -9.75980
   287  C   4.0   -0.07    4.13    3.87    47.99223    22.91857   -11.84269
   288  H   1.0    0.10    1.03    1.43    46.10552    21.41787   -17.46826
   289  H   1.0    0.06    1.05    1.44    48.16663    17.92535   -13.63194
   290  H   1.0    0.05    1.05    1.44    44.16317    22.01267   -12.87031
   291  H   1.0    0.04    1.00    1.43    44.78176    20.97803    -8.28363
   292  H   1.0    0.04    1.00    1.43    43.72138    18.31520   -10.00891
   293  H   1.0    0.05    1.00    1.43    46.91698    18.57189    -9.12880
   294  H   1.0    0.04    1.00    1.43    47.50674    24.21562   -10.33023
   295  H   1.0    0.05    1.00    1.43    49.72057    21.92878   -11.33220
   296  H   1.0    0.06    1.00    1.43    48.32977    24.00661   -13.55349
   297  N   5.0   -0.21    3.24    1.97    41.80125     9.10112    -6.62974
   298  C   4.0    0.03    4.31    4.21    43.42115    10.03287    -4.63525
   299  C   4.0    0.15    3.41    3.08    42.18009    12.20289    -3.18528
   300  O   6.0   -0.32    1.27    1.80    42.55019    12.47102    -0.91768
   301  C   4.0   -0.04    4.26    4.12    46.04528    10.68996    -5.66128
   302  C   4.0   -0.03    4.18    3.96    46.11521    13.07559    -7.27188
   303  C   4.0    0.24    3.10    3.02    48.63882    13.16070    -8.79834
   304  O   6.0   -0.29    1.17    1.80    50.63833    12.93665    -7.60037
   305  O   6.0   -0.29    1.16    1.80    48.44200    13.41246   -11.14902
   306  H   1.0    0.08    1.03    1.43    42.20980     9.61465    -8.41941
   307  H   1.0    0.05    1.06    1.44    43.62240     8.49623    -3.25116
   308  H   1.0    0.05    1.03    1.43    47.35446    10.92171    -4.08684
   309  H   1.0    0.05    1.03    1.43    46.71242     9.08141    -6.77522
   310  H   1.0    0.05    1.02    1.43    44.55104    13.16505    -8.60695
   311  H   1.0    0.04    1.03    1.43    46.04411    14.75252    -6.07183
   312  N   5.0   -0.15    3.47    2.06    40.62297    13.67828    -4.51161
   313  C   4.0    0.03    4.34    4.28    39.23204    15.71623    -3.32775
   314  C   4.0    0.09    3.25    3.04    37.24638    14.65751    -1.51995
   315  O   6.0   -0.29    1.12    1.80    37.01926    15.49895     0.63359
   316  C   4.0   -0.04    4.33    4.26    38.00918    17.37581    -5.35160
   317  C   4.0   -0.01    3.57    3.15    36.59362    19.55148    -4.20363
   318  C   4.0   -0.04    3.47    3.10    37.89347    21.65520    -3.32067
   319  C   4.0   -0.03    3.47    3.10    33.98185    19.47814    -3.97265
   320  C   4.0   -0.05    3.37    3.07    36.60310    23.64368    -2.21882
   321  C   4.0   -0.04    3.37    3.07    32.68115    21.49171    -2.93126
   322  C   4.0   -0.04    3.37    3.07    33.99344    23.57560    -2.04356
   323  H   1.0    0.07    1.07    1.44    40.53347    13.53374    -6.41786
   324  H   1.0    0.05    1.05    1.44    40.53234    16.84358    -2.16916
   325  H   1.0    0.04    1.03    1.43    39.51526    18.06869    -6.58048
   326  H   1.0    0.04    1.03    1.43    36.73213    16.21293    -6.47997
   327  H   1.0    0.04    1.03    1.43    39.92592    21.72385    -3.50827
   328  H   1.0    0.05    1.03    1.43    32.94767    17.85936    -4.66637
   329  H   1.0    0.04    1.03    1.43    37.62960    25.24865    -1.49115
   330  H   1.0    0.05    1.03    1.43    30.64490    21.43195    -2.83766
   331  H   1.0    0.04    1.03    1.43    32.98139    25.14471    -1.22054
   332  N   5.0   -0.20    3.21    1.96    40.73015    12.29374     4.25941
   333  C   4.0    0.03    4.22    4.04    41.48591    14.32352     5.94007
   334  C   4.0    0.08    3.21    3.04    39.18531    15.30820     7.39368
   335  O   6.0   -0.31    1.13    1.80    39.28673    15.76942     9.66265
   336  C   4.0   -0.04    4.34    4.27    42.77092    16.45456     4.46936
   337  C   4.0   -0.02    4.18    3.96    43.92759    18.47784     6.20363
   338  C   4.0   -0.07    4.11    3.82    46.13141    17.42231     7.73901
   339  C   4.0   -0.08    4.10    3.81    44.82932    20.71542     4.61959
   340  H   1.0    0.12    1.06    1.44    41.10385    12.47523     2.39025
   341  H   1.0    0.04    1.05    1.44    42.78882    13.53374     7.34489
   342  H   1.0    0.05    1.03    1.43    44.24894    15.63566     3.28709
   343  H   1.0    0.05    1.03    1.43    41.36667    17.32132     3.22741
   344  H   1.0    0.05    1.05    1.44    42.45634    19.14077     7.50033
   345  H   1.0    0.04    1.00    1.43    47.00099    18.92877     8.82826
   346  H   1.0    0.04    1.00    1.43    45.50457    15.97353     9.04854
   347  H   1.0    0.04    1.00    1.43    47.53882    16.62897     6.47047
   348  H   1.0    0.04    1.00    1.43    45.54395    22.21106     5.83397
   349  H   1.0    0.05    1.00    1.43    46.33473    20.12746     3.34788
   350  H   1.0    0.04    1.00    1.43    43.28728    21.48018     3.49745
   351  N   5.0   -0.19    3.22    1.96    37.80431    11.69786    13.14264
   352  C   4.0    0.04    4.22    4.05    39.50241    12.26167    15.22004
   353  C   4.0    0.09    3.19    3.03    38.57784    14.62584    16.60892
   354  O   6.0   -0.28    1.11    1.80    38.56376    14.73385    18.93153
   355  C   4.0   -0.04    4.26    4.12    42.21056    12.51260    14.23995
   356  C   4.0   -0.05    4.20    4.00    43.23195     9.89941    13.50503
   357  C   4.0   -0.01    4.22    4.04    45.69959    10.03625    12.04062
   358  N   5.0   -0.14    3.41    2.03    47.65056    11.28151    13.50300
   359  C   4.0    0.09    3.35    3.06    49.75780    12.20280    12.52317
   360  N   5.0   -0.19    3.26    1.97    50.10734    12.25888    10.01487
   361  N   5.0   -0.19    3.23    1.96    51.48709    13.21808    14.03450
   362  H   1.0    0.10    1.03    1.43    38.51443    11.66002    11.36432
   363  H   1.0    0.05    1.05    1.44    39.41016    10.71926    16.60584
   364  H   1.0    0.06    1.03    1.43    42.19729    13.78262    12.61539
   365  H   1.0    0.05    1.03    1.43    43.39420    13.33532    15.71094
   366  H   1.0    0.04    1.03    1.43    43.51033     8.80177    15.22687
   367  H   1.0    0.04    1.03    1.43    41.85425     8.92273    12.32684
   368  H   1.0    0.04    1.02    1.43    46.30071     8.11676    11.55419
   369  H   1.0    0.04    1.03    1.43    45.39005    11.09034    10.29068
   370  H   1.0    0.08    1.06    1.44    47.46394    11.28966    15.43274
   371  H   1.0    0.08    1.03    1.43    49.10010    11.10181     8.85600
   372  H   1.0    0.08    1.04    1.43    51.82086    12.79750     9.38618
   373  H   1.0    0.08    1.02    1.43    51.34192    13.08916    15.97274
   374  H   1.0    0.08    1.03    1.43    53.08902    13.93343    13.30856
   375  N   5.0   -0.21    3.20    1.96    33.60617    30.85103    -4.51161
   376  C   4.0    0.03    4.24    4.08    36.06655    31.03664    -3.32775
   377  C   4.0    0.08    3.23    3.04    36.14250    33.28563    -1.51995
   378  O   6.0   -0.32    1.20    1.80    36.98477    33.06160     0.63359
   379  C   4.0   -0.04    4.33    4.26    38.11521    31.26587    -5.35160
   380  C   4.0   -0.01    3.57    3.15    40.70718    31.40395    -4.20363
   381  C   4.0   -0.05    3.47    3.10    41.87913    29.22638    -3.32067
   382  C   4.0   -0.03    3.47    3.10    41.94955    33.70248    -3.97265
   383  C   4.0   -0.05    3.37    3.07    44.24639    29.34964    -2.21882
   384  C   4.0   -0.03    3.37    3.07    44.34371    33.82213    -2.93126
   385  C   4.0   -0.04    3.38    3.07    45.49226    31.64371    -2.04356
   386  H   1.0    0.08    1.03    1.43    33.52574    31.00081    -6.41786
   387  H   1.0    0.04    1.05    1.44    36.39272    29.34687    -2.16916
   388  H   1.0    0.03    1.03    1.43    37.96223    29.61513    -6.58048
   389  H   1.0    0.04    1.03    1.43    37.74666    32.95327    -6.47997
   390  H   1.0    0.04    1.03    1.43    40.92236    27.43190    -3.50827
   391  H   1.0    0.06    1.03    1.43    41.06474    35.40749    -4.66637
   392  H   1.0    0.04    1.03    1.43    45.12308    27.65818    -1.49115
   393  H   1.0    0.06    1.03    1.43    45.31008    35.61545    -2.83766
   394  H   1.0    0.06    1.03    1.43    47.35718    31.73562    -1.22054
   395  N   5.0   -0.20    3.24    1.96    32.35353    31.45048     4.25941
   396  C   4.0    0.03    4.33    4.25    33.73349    29.78108     5.94007
   397  C   4.0    0.15    3.44    3.09    35.73655    31.28111     7.39368
   398  O   6.0   -0.32    1.26    1.80    36.08527    30.96268     9.66265
   399  C   4.0   -0.05    4.34    4.28    34.93652    27.60271     4.46936
   400  C   4.0   -0.02    4.18    3.96    36.11040    25.58937     6.20363
   401  C   4.0   -0.07    4.11    3.81    34.09437    24.20857     7.73901
   402  C   4.0   -0.08    4.10    3.81    37.59733    23.68965     4.61959
   403  H   1.0    0.09    1.02    1.43    32.32385    31.03610     2.39025
   404  H   1.0    0.05    1.05    1.44    32.39806    29.04762     7.34489
   405  H   1.0    0.04    1.03    1.43    33.48832    26.73215     3.28709
   406  H   1.0    0.05    1.03    1.43    36.38929    28.38545     3.22741
   407  H   1.0    0.05    1.05    1.44    37.42014    26.53203     7.50033
   408  H   1.0    0.05    1.00    1.43    34.96421    22.70226     8.82826
   409  H   1.0    0.05    1.00    1.43    33.15311    25.47581     9.04854
   410  H   1.0    0.04    1.00    1.43    32.70361    23.38638     6.47047
   411  H   1.0    0.04    1.00    1.43    38.53528    22.32295     5.83397
   412  H   1.0    0.05    1.00    1.43    36.33544    22.67991     3.34788
   413  H   1.0    0.04    1.00    1.43    39.03066    24.64272     3.49745
   414  N   5.0   -0.15    3.48    2.06    37.05048    32.91955     6.00617
   415  C   4.0    0.04    4.37    4.32    38.97623    34.51724     7.10937
   416  C   4.0    0.09    3.28    3.05    37.94753    35.90831     9.42006
   417  O   6.0   -0.30    1.12    1.80    39.22237    36.14284    11.33986
   418  C   4.0    0.05    4.22    4.05    40.00838    36.42456     5.14368
   419  O   6.0   -0.26    2.12    1.84    41.30887    35.15684     3.18861
   420  C   4.0   -0.06    4.11    3.81    41.90314    38.21515     6.37012
   421  H   1.0    0.11    1.11    1.45    36.68969    33.08185     4.13583
   422  H   1.0    0.05    1.05    1.44    40.55609    33.33324     7.75366
   423  H   1.0    0.05    1.03    1.43    38.39296    37.48322     4.37986
   424  H   1.0    0.15    1.05    1.44    40.11557    34.20573     2.18542
   425  H   1.0    0.05    1.00    1.43    42.76498    39.35544     4.89745
   426  H   1.0    0.05    1.00    1.43    40.97017    39.42332     7.73713
   427  H   1.0    0.05    1.00    1.43    43.35144    37.09266     7.29405
   428  N   5.0   -0.19    3.21    1.96    37.48131    31.88585    15.14330
   429  C   4.0    0.04    4.30    4.20    39.98911    31.58938    16.21531
   430  C   4.0    0.09    3.22    3.04    40.68970    33.90509    17.81275
   431  O   6.0   -0.28    1.11    1.80    41.63203    33.65268    19.92273
   432  C   4.0   -0.02    4.25    4.11    41.93502    31.06696    14.12715
   433  C   4.0   -0.07    4.12    3.84    44.62371    31.06513    15.18402
   434  C   4.0   -0.08    4.12    3.84    41.35219    28.52876    12.88527
   435  H   1.0    0.12    1.04    1.44    37.28158    31.84768    13.23577
   436  H   1.0    0.05    1.05    1.44    39.96199    29.99703    17.54888
   437  H   1.0    0.06    1.06    1.44    41.76710    32.59790    12.74608
   438  H   1.0    0.04    1.00    1.43    45.97075    30.70948    13.67825
   439  H   1.0    0.06    1.00    1.43    45.09464    32.85946    16.07120
   440  H   1.0    0.05    1.00    1.43    44.83842    29.59438    16.60228
   441  H   1.0    0.04    1.00    1.43    42.82535    28.04648    11.54107
   442  H   1.0    0.04    1.00    1.43    41.28117    27.05211    14.31054
   443  H   1.0    0.05    1.00    1.43    39.54384    28.58317    11.91468
   444  N   5.0   -0.21    3.18    1.95    72.72975    37.00413    10.23083
   445  C   4.0    0.03    4.22    4.04    70.80879    36.50974     8.32360
   446  C   4.0    0.07    3.23    3.04    71.07084    38.28168     6.06775
   447  O   6.0   -0.32    1.15    1.80    71.11269    37.51506     3.88330
   448  C   4.0   -0.04    4.27    4.14    68.15787    36.77389     9.45998
   449  C   4.0   -0.03    4.19    3.97    66.08976    36.22407     7.52595
   450  C   4.0    0.25    3.10    3.02    65.85447    33.33124     6.95304
   451  O   6.0   -0.32    1.24    1.80    66.45828    31.87390     8.70762
   452  O   6.0   -0.30    1.16    1.80    65.06016    32.72860     4.82422
   453  H   1.0    0.08    1.02    1.43    72.19992    38.03651    11.76578
   454  H   1.0    0.06    1.05    1.44    71.07598    34.58806     7.59735
   455  H   1.0    0.06    1.04    1.43    67.92177    35.38813    10.96648
   456  H   1.0    0.04    1.03    1.43    67.93728    38.68431    10.20105
   457  H   1.0    0.04    1.02    1.43    64.25464    36.81988     8.26174
   458  H   1.0    0.05    1.03    1.43    66.39632    37.21520     5.74382
   459  N   5.0   -0.20    3.23    1.96    77.29936    37.42204     2.40164
   460  C   4.0    0.03    4.32    4.24    77.01976    35.22627     0.78218
   461  C   4.0    0.16    3.47    3.10    75.52645    35.94643    -1.59711
   462  O   6.0   -0.31    1.26    1.80    76.22763    35.35279    -3.71751
   463  C   4.0   -0.03    4.34    4.27    75.63598    33.13320     2.23217
   464  C   4.0   -0.01    3.58    3.16    74.50473    31.17271     0.51486
   465  C   4.0   -0.04    3.46    3.10    75.96009    29.23163    -0.49534
   466  C   4.0   -0.03    3.47    3.10    71.94629    31.26344    -0.07091
   467  C   4.0   -0.03    3.43    3.09    74.88271    27.39533    -2.00676
   468  C   4.0   -0.04    3.43    3.09    70.85151    29.44271    -1.59285
   469  C   4.0    0.07    3.45    3.09    72.30453    27.47111    -2.53691
   470  O   6.0   -0.24    2.12    1.84    71.30457    25.60126    -3.99875
   471  H   1.0    0.09    1.03    1.43    76.70280    37.25567     4.21583
   472  H   1.0    0.05    1.05    1.44    78.88521    34.57702     0.14720
   473  H   1.0    0.04    1.03    1.43    76.95443    32.26169     3.55517
   474  H   1.0    0.06    1.04    1.43    74.11631    34.01709     3.31202
   475  H   1.0    0.05    1.03    1.43    77.95303    29.15147    -0.06513
   476  H   1.0    0.07    1.03    1.43    70.75988    32.75132     0.68397
   477  H   1.0    0.06    1.03    1.43    75.99558    25.86375    -2.75520
   478  H   1.0    0.07    1.03    1.43    68.86245    29.55828    -2.04734
   479  H   1.0    0.12    1.03    1.43    69.49317    25.76306    -4.15432
   480  N   5.0   -0.14    3.49    2.07    73.43430    37.28716    -1.15713
   481  C   4.0    0.04    4.32    4.24    71.71063    37.90875    -3.19069
   482  C   4.0    0.09    3.24    3.04    73.11421    39.47695    -5.18685
   483  O   6.0   -0.29    1.12    1.80    73.03189    38.98626    -7.44819
   484  C   4.0   -0.04    4.34    4.27    69.42427    39.34557    -2.15469
   485  C   4.0   -0.03    4.05    3.71    67.07715    38.84241    -3.73508
   486  S   6.0   -0.04    2.47    3.10    64.61192    41.17081    -3.18285
   487  C   4.0   -0.07    3.89    3.45    64.33270    41.08655     0.22559
   488  H   1.0    0.11    1.10    1.44    72.81107    37.51703     0.63759
   489  H   1.0    0.06    1.05    1.44    71.06516    36.15106    -4.09844
   490  H   1.0    0.06    1.03    1.43    69.09881    38.71110    -0.21642
   491  H   1.0    0.05    1.04    1.43    69.84218    41.36776    -2.11015
   492  H   1.0    0.06    1.08    1.44    67.50612    39.00108    -5.74391
   493  H   1.0    0.06    1.06    1.44    66.31123    36.95768    -3.37915
   494  H   1.0    0.04    1.04    1.44    62.60361    42.06633     0.72734
   495  H   1.0    0.05    1.04    1.43    64.23803    39.13260     0.85376
   496  H   1.0    0.04    1.04    1.43    65.93883    42.03780     1.08000
   497  N   5.0   -0.19    3.21    1.96    77.71615    35.96696    -9.17683
   498  C   4.0    0.04    4.21    4.02    76.56993    34.58502   -11.24082
   499  C   4.0    0.09    3.21    3.04    76.25206    36.27168   -13.58184
   500  O   6.0   -0.28    1.11    1.80    76.70010    35.47286   -15.71004
   501  C   4.0   -0.04    4.27    4.15    73.96527    33.57900   -10.53087
   502  C   4.0   -0.04    4.18    3.97    73.97783    31.71356    -8.30793
   503  C   4.0   -0.00    4.22    4.04    72.77673    29.19641    -9.00321
   504  N   5.0   -0.14    3.40    2.02    74.55724    27.63972   -10.39814
   505  C   4.0    0.10    3.34    3.06    73.94645    25.51311   -11.60153
   506  N   5.0   -0.18    3.26    1.97    71.55703    24.92791   -12.10012
   507  N   5.0   -0.18    3.24    1.96    75.79725    23.93501   -12.28454
   508  H   1.0    0.12    1.05    1.44    76.74315    36.12129    -7.53833
   509  H   1.0    0.05    1.05    1.44    77.83231    33.03572   -11.79825
   510  H   1.0    0.07    1.03    1.43    72.76187    35.18504   -10.06544
   511  H   1.0    0.05    1.04    1.43    73.18350    32.67069   -12.20613
   512  H   1.0    0.05    1.03    1.43    75.89197    31.40820    -7.60905
   513  H   1.0    0.06    1.03    1.43    72.91669    32.51476    -6.73355
   514  H   1.0    0.06    1.04    1.43    72.21235    28.20322    -7.28653
   515  H   1.0    0.05    1.03    1.43    71.08644    29.55394   -10.12683
   516  H   1.0    0.08    1.07    1.44    76.38728    27.89758    -9.90344
   517  H   1.0    0.11    1.06    1.44    70.11917    26.21563   -12.03357
   518  H   1.0    0.09    1.04    1.43    71.23488    23.41811   -13.20859
   519  H   1.0    0.09    1.03    1.43    77.61017    24.31459   -11.85351
   520  H   1.0    0.09    1.03    1.43    75.45959    22.38960   -13.34251
   521  N   5.0   -0.19    3.25    1.97    59.05293    28.96603   -27.57398
   522  C   4.0    0.03    4.28    4.16    56.79691    27.53414   -28.11244
   523  C   4.0    0.25    3.17    3.03    57.40233    25.47863   -30.15599
   524  O   6.0   -0.27    1.19    1.80    59.64783    25.02908   -30.62696
   525  C   4.0   -0.03    4.29    4.18    54.67493    29.27444   -29.03145
   526  C   4.0   -0.02    3.69    3.23    54.11218    31.39115   -27.25718
   527  C   4.0   -0.01    3.62    3.18    55.10637    33.76714   -27.41113
   528  C   4.0    0.01    3.88    3.43    52.46620    31.38783   -25.11640
   529  N   5.0   -0.12    3.49    2.07    54.17027    35.26336   -25.52814
   530  C   4.0    0.04    3.90    3.46    52.56849    33.85799   -24.07851
   531  C   4.0   -0.04    3.40    3.08    50.91177    29.58151   -23.98556
   532  C   4.0   -0.05    3.40    3.08    51.16675    34.52432   -21.96017
   533  C   4.0   -0.03    3.37    3.07    49.53926    30.25043   -21.87583
   534  C   4.0   -0.03    3.38    3.07    49.66442    32.69380   -20.87726
   535  O   6.0   -0.28    1.18    1.80    55.51720    24.44296   -31.16291
   536  H   1.0    0.09    1.03    1.43    59.61728    30.13382   -28.98481
   537  H   1.0    0.05    1.05    1.44    56.24726    26.54154   -26.37794
   538  H   1.0    0.05    1.03    1.43    55.27754    30.05176   -30.84957
   539  H   1.0    0.06    1.03    1.43    52.99767    28.11528   -29.35111
   540  H   1.0    0.05    1.02    1.43    56.43926    34.46819   -28.76534
   541  H   1.0    0.08    1.05    1.44    54.67295    37.06537   -25.19233
   542  H   1.0    0.06    1.03    1.43    50.75708    27.70440   -24.76998
   543  H   1.0    0.05    1.03    1.43    51.24385    36.41266   -21.19640
   544  H   1.0    0.07    1.03    1.43    48.33879    28.87444   -20.95951
   545  H   1.0    0.06    1.03    1.43    48.53245    33.14571   -19.23725
   546  H   1.0    0.09    1.08    1.44    41.23914    31.45674   -16.19872
   547  H   1.0    0.08    1.05    1.44    53.25000    23.51386    24.27799
   548  H   1.0    0.09    1.08    1.44    58.79337    29.94078   -26.20465
   549  H   1.0    0.06    1.05    1.44    53.20566    21.91099   -20.17783
   550  H   1.0    0.10    1.08    1.44    48.69469    21.42818   -16.19872
   551  H   1.0    0.06    1.04    1.43    44.22328    15.66897   -14.28386
   552  H   1.0    0.10    1.07    1.44    41.83103     7.40065    -6.63752
   553  H   1.0    0.06    1.04    1.44    36.10672    13.25889    -2.08217
   554  H   1.0    0.09    1.07    1.44    41.50841    10.85404     4.72214
   555  H   1.0    0.06    1.05    1.44    37.54827    15.59030     6.49281
   556  H   1.0    0.09    1.07    1.44    37.12231    10.15640    13.36920
   557  H   1.0    0.06    1.04    1.44    37.96974    16.12144    15.62684
   558  H   1.0    0.09    1.07    1.44    32.91584    29.33880    -4.15222
   559  H   1.0    0.05    1.04    1.44    35.50109    34.97191    -2.08217
   560  H   1.0    0.09    1.07    1.44    30.71758    31.49633     4.72214
   561  H   1.0    0.06    1.05    1.44    36.20789    36.64538     9.38223
   562  H   1.0    0.10    1.07    1.44    36.47236    30.63742    15.70547
   563  H   1.0    0.07    1.04    1.43    40.38136    35.64442    17.14139
   564  H   1.0    0.10    1.07    1.44    73.30503    35.52941    10.85278
   565  H   1.0    0.05    1.05    1.44    71.21647    40.14567     6.34231
   566  H   1.0    0.09    1.07    1.44    78.94295    37.84750     2.50250
   567  H   1.0    0.06    1.05    1.44    74.14904    40.96807    -4.66079
   568  H   1.0    0.10    1.07    1.44    79.18492    35.22656    -8.74431
   569  H   1.0    0.07    1.04    1.44    75.66939    38.05872   -13.38679

  Z AO/shell   Hii/eV     exponent
  1     Wed Apr 25 08:07:45 CEST 2018   EN: 2.200 GM2: 0.406  GM3: 0.0800  RAES: 1.40
     1s    -10.707211    1.230000
  6     Wed Apr 25 08:07:45 CEST 2018   EN: 2.550 GM2: 0.538  GM3: 0.1500  RAES: 3.00
     2s    -13.970922    2.096432
     2p    -10.063292    1.800000
  7     Wed Apr 25 08:07:45 CEST 2018   EN: 3.040 GM2: 0.461  GM3:-0.0640  RAES: 1.90
     2s    -16.686243    2.339881
     2p    -12.523956    2.014332
  8     Wed Apr 25 08:07:45 CEST 2018   EN: 3.440 GM2: 0.452  GM3:-0.0517  RAES: 1.80
     2s    -20.229985    2.439742
     2p    -15.503117    2.137023
 16     Tue Apr 24 11:44:34 CEST 2018   EN: 2.580 GM2: 0.340  GM3:-0.0502  RAES: 3.10
     3s    -20.029654    1.981333
     3p    -11.377694    2.025643
     3d     -0.420282    1.702555
 no old-style atom pair restraining (fixing) potential

molecular fragmentation (1/2 indicates fragments):
111111111111111111111111111111111111111111111111111111111111111111111111
111111111111111111111111111111111111111111111111111111111111111111111111
111111111111111111111111111111111111111111111111111111111111111111111111
111111111111111111111111111111111111111222222222222222222222222222222222
222222222222222222222222222222222222222222222222222222222222222222222222
222222222222222222222222222222222222222222222222222222222222222222222222
222222222222222222222222222222222222222222222222222222222222222222222222
22222222222222222222222222222222222222222112222222222222222222222
# atoms in fragment 1/2:   257   312
 fragment masses (1/2) :     1812.11     2079.56
CMA distance (Bohr)    :   7.239
constraining FC (au)   :  0.0500
           ------------------------------------------------- 
          |        Self-Consistent Charge Iterations        |
           ------------------------------------------------- 

 Ncao       : 1397
 Nao        : 1395
 Nshell     : 843
 Nel        : 1532
 T(el)      :   500.0
 intcut     :    35.0
 scfconv/Eh :  0.100E-06
   qconv/e  :  0.100E-04
 intneglect :  0.100E-08
 broydamp   :      0.400
 iter      E             dE          RMSdq      gap      omega  full diag
   1   -874.6650257 -0.874665E+03  0.469E+00    2.68       0.0  T
   2   -876.6146043 -0.194958E+01  0.225E+00    1.56       1.0  T
   3   -876.7286259 -0.114022E+00  0.126E+00    1.71       1.0  T
   4   -876.8900920 -0.161466E+00  0.276E-01    0.88       1.0  T
   5   -876.8978034 -0.771135E-02  0.147E-01    0.99       1.0  T
   6   -876.9005565 -0.275309E-02  0.701E-02    1.00       1.0  T
   7   -876.9013806 -0.824108E-03  0.318E-02    0.99       1.0  T
   8   -876.9015021 -0.121553E-03  0.156E-02    1.00       1.0  T
   9   -876.9015360 -0.339037E-04  0.744E-03    1.00       1.0  T
  10   -876.9015430 -0.693274E-05  0.381E-03    0.99       1.1  T
  11   -876.9015453 -0.231610E-05  0.183E-03    0.99       2.3  T
  12   -876.9015458 -0.493389E-06  0.875E-04    0.99       4.8  T
  13   -876.9015459 -0.102892E-06  0.395E-04    0.99      10.6  T
  14   -876.9015459 -0.149446E-07  0.183E-04    0.99      22.9  T
  15   -876.9015459 -0.550278E-08  0.739E-05    0.99      56.7  T
  16   -876.9015459 -0.713158E-09  0.371E-05    0.99     113.0  T
speedup  8.81
cpu  time for SCC   54.37 s
wall time for SCC    6.17 s

   *** convergence criteria satisfied after 16 iterations ***

          eigenvalues
 #    :         754        755        756        757        758        759        760        761
 occ. :        2.000      2.000      2.000      2.000      2.000      2.000      2.000      2.000
 eps  :       -10.112    -10.097    -10.007    -10.004     -9.989     -9.935     -9.911     -9.699
 #    :         762        763        764        765        766        767        768        769
 occ. :        2.000      2.000      2.000      2.000      2.000      0.000      0.000      0.000
 eps  :        -9.696     -9.668     -9.545     -9.413     -9.279     -8.290     -8.278     -8.198
 #    :         770        771        772        773        774        775        776        777
 occ. :        0.000      0.000      0.000      0.000      0.000      0.000      0.000      0.000
 eps  :        -8.004     -7.973     -7.943     -7.629     -7.549     -7.515     -7.450     -7.347


   #   Z            q   n(s)   n(p)   n(d)      C6AA      α(0)
   1   7 N     -0.395  1.322  4.073  0.000    30.226     8.165
   2   6 C      0.034  1.060  2.906  0.000    20.009     6.370
   3   6 C      0.278  1.044  2.678  0.000    22.303     7.734
   4   8 O     -0.504  1.745  4.759  0.000    23.872     6.551
   5   6 C     -0.015  1.062  2.953  0.000    20.799     6.487
   6   6 C     -0.100  1.036  3.064  0.000    22.461     6.757
   7   6 C     -0.112  1.040  3.072  0.000    22.693     6.792
   8   1 H      0.156  0.844  0.000  0.000     1.361     1.828
   9   1 H      0.031  0.969  0.000  0.000     2.573     2.509
  10   1 H      0.026  0.974  0.000  0.000     2.647     2.544
  11   1 H      0.047  0.953  0.000  0.000     2.356     2.400
  12   1 H      0.019  0.981  0.000  0.000     2.741     2.589
  13   1 H      0.025  0.975  0.000  0.000     2.654     2.548
  14   1 H      0.052  0.948  0.000  0.000     2.294     2.369
  15   1 H      0.038  0.962  0.000  0.000     2.469     2.457
  16   1 H      0.044  0.956  0.000  0.000     2.391     2.418
  17   7 N     -0.208  1.263  3.945  0.000    25.526     7.504
  18   6 C      0.024  1.056  2.920  0.000    20.170     6.395
  19   6 C      0.275  1.045  2.679  0.000    22.346     7.741
  20   8 O     -0.498  1.739  4.759  0.000    23.740     6.533
  21   6 C      0.068  1.041  2.891  0.000    19.644     6.347
  22   8 O     -0.475  1.707  4.767  0.000    22.351     6.382
  23   1 H      0.228  0.772  0.000  0.000     0.972     1.545
  24   1 H      0.076  0.924  0.000  0.000     2.017     2.221
  25   1 H      0.057  0.943  0.000  0.000     2.238     2.339
  26   1 H      0.042  0.958  0.000  0.000     2.424     2.435
  27   1 H      0.364  0.636  0.000  0.000     0.557     1.172
  28   7 N     -0.171  1.247  3.924  0.000    24.703     7.382
  29   6 C     -0.039  1.052  2.988  0.000    21.343     6.589
  30   6 C      0.285  1.040  2.675  0.000    22.167     7.710
  31   8 O     -0.481  1.737  4.745  0.000    23.375     6.482
  32   1 H      0.235  0.765  0.000  0.000     0.943     1.521
  33   1 H      0.074  0.926  0.000  0.000     2.046     2.237
  34   1 H      0.139  0.861  0.000  0.000     1.470     1.896
  35   7 N     -0.203  1.260  3.944  0.000    25.423     7.489
  36   6 C      0.024  1.059  2.916  0.000    20.169     6.394
  37   6 C      0.285  1.043  2.672  0.000    22.175     7.712
  38   8 O     -0.497  1.742  4.756  0.000    23.723     6.530
  39   6 C     -0.080  1.060  3.021  0.000    22.031     6.682
  40   6 C     -0.088  1.060  3.028  0.000    22.174     6.705
  41   6 C      0.366  1.026  2.608  0.000    20.785     7.461
  42   8 O     -0.611  1.741  4.870  0.000    26.391     6.888
  43   8 O     -0.641  1.780  4.861  0.000    27.157     6.987
  44   1 H      0.224  0.776  0.000  0.000     0.991     1.559
  45   1 H      0.079  0.921  0.000  0.000     1.985     2.204
  46   1 H      0.093  0.907  0.000  0.000     1.846     2.125
  47   1 H      0.050  0.950  0.000  0.000     2.324     2.384
  48   1 H      0.031  0.969  0.000  0.000     2.569     2.506
  49   1 H     -0.005  1.005  0.000  0.000     3.138     2.770
  50   7 N     -0.186  1.245  3.941  0.000    25.037     7.432
  51   6 C      0.033  1.059  2.908  0.000    20.018     6.370
  52   6 C      0.276  1.042  2.682  0.000    22.327     7.738
  53   8 O     -0.480  1.727  4.752  0.000    23.341     6.477
  54   6 C     -0.050  1.049  3.001  0.000    21.473     6.597
  55   6 C     -0.099  1.062  3.037  0.000    22.397     6.739
  56   6 C      0.370  1.024  2.606  0.000    20.720     7.449
  57   8 O     -0.616  1.770  4.846  0.000    26.507     6.903
  58   8 O     -0.630  1.766  4.863  0.000    26.855     6.948
  59   1 H      0.203  0.797  0.000  0.000     1.092     1.637
  60   1 H      0.061  0.939  0.000  0.000     2.190     2.314
  61   1 H      0.059  0.941  0.000  0.000     2.216     2.328
  62   1 H      0.039  0.961  0.000  0.000     2.461     2.453
  63   1 H      0.035  0.965  0.000  0.000     2.513     2.479
  64   1 H      0.022  0.978  0.000  0.000     2.707     2.573
  65   7 N     -0.188  1.250  3.938  0.000    25.068     7.436
  66   6 C      0.034  1.058  2.908  0.000    20.001     6.368
  67   6 C      0.276  1.042  2.682  0.000    22.334     7.739
  68   8 O     -0.493  1.727  4.767  0.000    23.635     6.518
  69   6 C     -0.067  1.052  3.015  0.000    21.779     6.642
  70   6 C      0.007  1.078  2.915  0.000    27.852     8.657
  71   6 C     -0.043  1.078  2.965  0.000    29.066     8.841
  72   6 C     -0.036  1.079  2.957  0.000    28.890     8.815
  73   6 C     -0.031  1.078  2.952  0.000    28.770     8.796
  74   6 C     -0.020  1.080  2.940  0.000    28.515     8.757
  75   6 C     -0.029  1.080  2.949  0.000    28.722     8.789
  76   1 H      0.216  0.784  0.000  0.000     1.027     1.588
  77   1 H      0.077  0.923  0.000  0.000     2.015     2.220
  78   1 H      0.054  0.946  0.000  0.000     2.266     2.354
  79   1 H      0.046  0.954  0.000  0.000     2.372     2.409
  80   1 H      0.039  0.961  0.000  0.000     2.456     2.451
  81   1 H      0.021  0.979  0.000  0.000     2.719     2.579
  82   1 H      0.050  0.950  0.000  0.000     2.323     2.383
  83   1 H      0.036  0.964  0.000  0.000     2.508     2.477
  84   1 H      0.044  0.956  0.000  0.000     2.394     2.420
  85   7 N     -0.183  1.253  3.931  0.000    24.968     7.421
  86   6 C      0.029  1.062  2.909  0.000    20.082     6.381
  87   6 C      0.283  1.040  2.677  0.000    22.215     7.718
  88   8 O     -0.472  1.727  4.745  0.000    23.179     6.455
  89   6 C     -0.078  1.054  3.024  0.000    21.976     6.672
  90   6 C     -0.004  1.076  2.928  0.000    28.120     8.698
  91   6 C     -0.044  1.084  2.960  0.000    29.084     8.844
  92   6 C     -0.034  1.079  2.955  0.000    28.857     8.809
  93   6 C     -0.063  1.076  2.987  0.000    29.566     8.917
  94   6 C     -0.066  1.075  2.991  0.000    29.640     8.928
  95   6 C      0.143  1.044  2.812  0.000    24.877     8.174
  96   8 O     -0.405  1.696  4.709  0.000    20.951     6.179
  97   1 H      0.226  0.774  0.000  0.000     0.984     1.554
  98   1 H      0.076  0.924  0.000  0.000     2.023     2.224
  99   1 H      0.072  0.928  0.000  0.000     2.069     2.249
 100   1 H      0.054  0.946  0.000  0.000     2.269     2.355
 101   1 H      0.061  0.939  0.000  0.000     2.183     2.310
 102   1 H      0.006  0.994  0.000  0.000     2.961     2.691
 103   1 H      0.087  0.913  0.000  0.000     1.906     2.159
 104   1 H      0.024  0.976  0.000  0.000     2.680     2.560
 105   1 H      0.333  0.667  0.000  0.000     0.630     1.246
 106   7 N     -0.194  1.255  3.939  0.000    25.209     7.457
 107   6 C      0.038  1.057  2.905  0.000    19.934     6.357
 108   6 C      0.274  1.041  2.685  0.000    22.366     7.745
 109   8 O     -0.478  1.729  4.749  0.000    23.298     6.471
 110   6 C     -0.056  1.050  3.006  0.000    21.552     6.605
 111   6 C     -0.005  1.062  2.943  0.000    20.667     6.473
 112  16 S     -0.194  1.899  4.249  0.047   149.310    20.566
 113   6 C     -0.047  1.047  2.999  0.000    21.481     6.611
 114   1 H      0.210  0.790  0.000  0.000     1.058     1.611
 115   1 H      0.051  0.949  0.000  0.000     2.307     2.376
 116   1 H      0.040  0.960  0.000  0.000     2.454     2.450
 117   1 H      0.062  0.938  0.000  0.000     2.177     2.307
 118   1 H      0.060  0.940  0.000  0.000     2.197     2.318
 119   1 H      0.041  0.959  0.000  0.000     2.431     2.438
 120   1 H      0.073  0.927  0.000  0.000     2.050     2.239
 121   1 H      0.031  0.969  0.000  0.000     2.569     2.506
 122   1 H      0.041  0.959  0.000  0.000     2.438     2.442
 123   7 N     -0.182  1.249  3.933  0.000    24.944     7.418
 124   6 C      0.020  1.063  2.917  0.000    20.241     6.406
 125   6 C      0.274  1.042  2.684  0.000    22.368     7.745
 126   8 O     -0.480  1.728  4.752  0.000    23.339     6.477
 127   6 C     -0.075  1.059  3.016  0.000    21.920     6.665
 128   6 C     -0.011  1.056  2.955  0.000    20.735     6.477
 129   6 C     -0.130  1.044  3.087  0.000    23.052     6.846
 130   6 C     -0.114  1.040  3.074  0.000    22.739     6.799
 131   1 H      0.214  0.786  0.000  0.000     1.038     1.596
 132   1 H      0.086  0.914  0.000  0.000     1.923     2.168
 133   1 H      0.061  0.939  0.000  0.000     2.183     2.311
 134   1 H      0.040  0.960  0.000  0.000     2.448     2.447
 135   1 H      0.035  0.965  0.000  0.000     2.523     2.484
 136   1 H      0.056  0.944  0.000  0.000     2.241     2.341
 137   1 H      0.048  0.952  0.000  0.000     2.344     2.394
 138   1 H      0.058  0.942  0.000  0.000     2.218     2.329
 139   1 H      0.046  0.954  0.000  0.000     2.365     2.405
 140   1 H      0.045  0.955  0.000  0.000     2.380     2.413
 141   1 H      0.031  0.969  0.000  0.000     2.573     2.508
 142   7 N     -0.184  1.245  3.939  0.000    24.997     7.426
 143   6 C      0.005  1.069  2.926  0.000    20.500     6.447
 144   6 C      0.268  1.043  2.690  0.000    22.483     7.765
 145   8 O     -0.469  1.722  4.746  0.000    23.105     6.445
 146   6 C      0.112  1.046  2.842  0.000    18.848     6.199
 147   8 O     -0.459  1.709  4.750  0.000    22.028     6.336
 148   6 C     -0.141  1.045  3.096  0.000    23.272     6.879
 149   1 H      0.213  0.787  0.000  0.000     1.044     1.601
 150   1 H      0.089  0.911  0.000  0.000     1.888     2.149
 151   1 H      0.029  0.971  0.000  0.000     2.596     2.520
 152   1 H      0.299  0.701  0.000  0.000     0.724     1.337
 153   1 H      0.076  0.924  0.000  0.000     2.017     2.221
 154   1 H      0.065  0.935  0.000  0.000     2.141     2.288
 155   1 H      0.079  0.921  0.000  0.000     1.985     2.203
 156   7 N     -0.173  1.240  3.933  0.000    24.747     7.388
 157   6 C      0.013  1.064  2.923  0.000    20.363     6.425
 158   6 C      0.269  1.042  2.688  0.000    22.451     7.760
 159   8 O     -0.481  1.734  4.747  0.000    23.359     6.480
 160   6 C     -0.085  1.056  3.029  0.000    22.109     6.693
 161   6 C     -0.072  1.049  3.023  0.000    21.869     6.658
 162   6 C     -0.024  1.051  2.972  0.000    21.072     6.549
 163   7 N     -0.146  1.223  3.923  0.000    24.153     7.299
 164   6 C      0.232  1.020  2.748  0.000    23.129     7.874
 165   7 N     -0.258  1.249  4.008  0.000    26.692     7.673
 166   7 N     -0.256  1.232  4.025  0.000    26.659     7.668
 167   1 H      0.212  0.788  0.000  0.000     1.047     1.603
 168   1 H      0.091  0.909  0.000  0.000     1.867     2.137
 169   1 H      0.062  0.938  0.000  0.000     2.178     2.308
 170   1 H      0.081  0.919  0.000  0.000     1.968     2.194
 171   1 H      0.071  0.929  0.000  0.000     2.079     2.255
 172   1 H      0.041  0.959  0.000  0.000     2.440     2.443
 173   1 H      0.074  0.926  0.000  0.000     2.041     2.234
 174   1 H      0.085  0.915  0.000  0.000     1.927     2.171
 175   1 H      0.228  0.772  0.000  0.000     0.973     1.545
 176   1 H      0.248  0.752  0.000  0.000     0.892     1.479
 177   1 H      0.246  0.754  0.000  0.000     0.899     1.485
 178   1 H      0.245  0.755  0.000  0.000     0.904     1.489
 179   1 H      0.255  0.745  0.000  0.000     0.864     1.456
 180   7 N     -0.170  1.243  3.927  0.000    24.678     7.378
 181   6 C      0.014  1.065  2.921  0.000    20.343     6.421
 182   6 C      0.274  1.040  2.686  0.000    22.361     7.744
 183   8 O     -0.505  1.756  4.749  0.000    23.886     6.553
 184   6 C     -0.089  1.058  3.031  0.000    22.195     6.707
 185   6 C     -0.087  1.053  3.034  0.000    22.153     6.700
 186   6 C     -0.027  1.052  2.975  0.000    21.125     6.557
 187   7 N     -0.134  1.210  3.924  0.000    23.914     7.263
 188   6 C      0.226  1.020  2.754  0.000    23.250     7.895
 189   7 N     -0.253  1.247  4.006  0.000    26.583     7.657
 190   7 N     -0.248  1.233  4.015  0.000    26.459     7.640
 191   1 H      0.218  0.782  0.000  0.000     1.020     1.582
 192   1 H      0.080  0.920  0.000  0.000     1.977     2.199
 193   1 H      0.077  0.923  0.000  0.000     2.012     2.218
 194   1 H      0.075  0.925  0.000  0.000     2.033     2.230
 195   1 H      0.073  0.927  0.000  0.000     2.049     2.238
 196   1 H      0.068  0.932  0.000  0.000     2.104     2.269
 197   1 H      0.085  0.915  0.000  0.000     1.924     2.169
 198   1 H      0.085  0.915  0.000  0.000     1.928     2.171
 199   1 H      0.229  0.771  0.000  0.000     0.968     1.541
 200   1 H      0.253  0.747  0.000  0.000     0.871     1.462
 201   1 H      0.231  0.769  0.000  0.000     0.960     1.535
 202   1 H      0.241  0.759  0.000  0.000     0.921     1.503
 203   1 H      0.247  0.753  0.000  0.000     0.895     1.482
 204   7 N     -0.179  1.246  3.932  0.000    24.867     7.406
 205   6 C      0.018  1.067  2.915  0.000    20.267     6.410
 206   6 C      0.281  1.041  2.679  0.000    22.248     7.724
 207   8 O     -0.514  1.761  4.753  0.000    24.092     6.581
 208   6 C     -0.027  1.064  2.963  0.000    21.021     6.521
 209   6 C     -0.123  1.041  3.083  0.000    22.921     6.826
 210   6 C     -0.122  1.041  3.082  0.000    22.900     6.823
 211   1 H      0.224  0.776  0.000  0.000     0.990     1.559
 212   1 H      0.064  0.936  0.000  0.000     2.154     2.295
 213   1 H      0.062  0.938  0.000  0.000     2.170     2.304
 214   1 H      0.069  0.931  0.000  0.000     2.101     2.267
 215   1 H      0.041  0.959  0.000  0.000     2.432     2.439
 216   1 H      0.042  0.958  0.000  0.000     2.424     2.435
 217   1 H      0.059  0.941  0.000  0.000     2.208     2.324
 218   1 H      0.044  0.956  0.000  0.000     2.400     2.423
 219   1 H      0.050  0.950  0.000  0.000     2.320     2.382
 220   7 N     -0.189  1.251  3.938  0.000    25.105     7.442
 221   6 C      0.021  1.063  2.916  0.000    20.222     6.403
 222   6 C      0.286  1.040  2.674  0.000    22.146     7.707
 223   8 O     -0.520  1.760  4.759  0.000    24.225     6.599
 224   6 C     -0.093  1.065  3.029  0.000    22.267     6.717
 225   6 C     -0.010  1.055  2.956  0.000    20.730     6.476
 226   6 C     -0.122  1.041  3.081  0.000    22.894     6.823
 227   6 C     -0.133  1.046  3.087  0.000    23.109     6.854
 228   1 H      0.233  0.767  0.000  0.000     0.952     1.528
 229   1 H      0.070  0.930  0.000  0.000     2.083     2.257
 230   1 H      0.073  0.927  0.000  0.000     2.055     2.242
 231   1 H      0.069  0.931  0.000  0.000     2.096     2.264
 232   1 H      0.020  0.980  0.000  0.000     2.729     2.583
 233   1 H      0.043  0.957  0.000  0.000     2.413     2.429
 234   1 H      0.031  0.969  0.000  0.000     2.567     2.505
 235   1 H      0.055  0.945  0.000  0.000     2.260     2.351
 236   1 H      0.052  0.948  0.000  0.000     2.294     2.369
 237   1 H      0.061  0.939  0.000  0.000     2.192     2.315
 238   1 H      0.050  0.950  0.000  0.000     2.314     2.379
 239   7 N     -0.182  1.249  3.933  0.000    24.938     7.417
 240   6 C      0.040  1.054  2.907  0.000    19.912     6.354
 241   6 C      0.215  1.085  2.700  0.000    23.462     7.933
 242   8 O     -0.382  1.757  4.625  0.000    21.319     6.191
 243   6 C     -0.067  1.051  3.016  0.000    21.787     6.645
 244   6 C     -0.103  1.056  3.047  0.000    22.462     6.747
 245   6 C      0.290  1.038  2.672  0.000    22.081     7.694
 246   8 O     -0.499  1.752  4.747  0.000    23.768     6.536
 247   7 N     -0.293  1.274  4.019  0.000    27.558     7.797
 248   1 H      0.236  0.764  0.000  0.000     0.941     1.520
 249   1 H      0.079  0.921  0.000  0.000     1.991     2.206
 250   1 H      0.088  0.912  0.000  0.000     1.903     2.157
 251   1 H      0.070  0.930  0.000  0.000     2.082     2.257
 252   1 H      0.090  0.910  0.000  0.000     1.883     2.146
 253   1 H      0.061  0.939  0.000  0.000     2.183     2.310
 254   1 H      0.226  0.774  0.000  0.000     0.981     1.551
 255   1 H      0.231  0.769  0.000  0.000     0.961     1.536
 256   8 O     -0.612  1.736  4.876  0.000    25.467     6.811
 257   1 H      0.306  0.694  0.000  0.000     0.704     1.318
 258   1 H      0.328  0.672  0.000  0.000     0.641     1.258
 259   8 O     -0.622  1.751  4.871  0.000    25.722     6.845
 260   1 H      0.324  0.676  0.000  0.000     0.652     1.269
 261   1 H      0.317  0.683  0.000  0.000     0.673     1.289
 262   8 O     -0.617  1.743  4.873  0.000    25.592     6.828
 263   1 H      0.321  0.679  0.000  0.000     0.661     1.277
 264   1 H      0.316  0.684  0.000  0.000     0.674     1.289
 265   7 N     -0.121  1.216  3.905  0.000    23.626     7.219
 266   6 C     -0.097  1.070  3.027  0.000    22.445     6.762
 267   6 C      0.267  1.030  2.703  0.000    22.493     7.766
 268   8 O     -0.456  1.746  4.711  0.000    22.839     6.407
 269   1 H      0.278  0.722  0.000  0.000     0.782     1.386
 270   1 H      0.318  0.682  0.000  0.000     0.662     1.274
 271   1 H      0.292  0.708  0.000  0.000     0.737     1.345
 272   1 H      0.144  0.856  0.000  0.000     1.434     1.873
 273   1 H      0.172  0.828  0.000  0.000     1.252     1.750
 274   7 N     -0.132  1.227  3.906  0.000    23.873     7.257
 275   6 C     -0.040  1.051  2.989  0.000    21.364     6.594
 276   6 C      0.201  1.087  2.713  0.000    23.727     7.977
 277   8 O     -0.363  1.740  4.623  0.000    20.962     6.138
 278   1 H      0.227  0.773  0.000  0.000     0.978     1.549
 279   1 H      0.111  0.889  0.000  0.000     1.688     2.032
 280   1 H      0.140  0.860  0.000  0.000     1.458     1.888
 281   7 N     -0.383  1.316  4.067  0.000    29.895     8.120
 282   6 C      0.040  1.057  2.903  0.000    19.914     6.356
 283   6 C      0.210  1.086  2.704  0.000    23.553     7.948
 284   8 O     -0.371  1.750  4.621  0.000    21.119     6.161
 285   6 C     -0.008  1.062  2.946  0.000    20.679     6.468
 286   6 C     -0.103  1.038  3.066  0.000    22.527     6.767
 287   6 C     -0.099  1.035  3.064  0.000    22.443     6.755
 288   1 H      0.161  0.839  0.000  0.000     1.327     1.804
 289   1 H      0.051  0.949  0.000  0.000     2.302     2.373
 290   1 H      0.033  0.967  0.000  0.000     2.541     2.493
 291   1 H      0.052  0.948  0.000  0.000     2.293     2.368
 292   1 H      0.028  0.972  0.000  0.000     2.621     2.532
 293   1 H      0.030  0.970  0.000  0.000     2.582     2.513
 294   1 H      0.041  0.959  0.000  0.000     2.439     2.442
 295   1 H      0.032  0.968  0.000  0.000     2.563     2.504
 296   1 H      0.043  0.957  0.000  0.000     2.413     2.429
 297   7 N     -0.394  1.308  4.086  0.000    30.209     8.163
 298   6 C      0.030  1.060  2.910  0.000    20.093     6.385
 299   6 C      0.271  1.048  2.681  0.000    22.429     7.755
 300   8 O     -0.480  1.734  4.746  0.000    23.341     6.477
 301   6 C     -0.044  1.049  2.994  0.000    21.349     6.578
 302   6 C     -0.087  1.062  3.025  0.000    22.169     6.704
 303   6 C      0.369  1.026  2.605  0.000    20.746     7.454
 304   8 O     -0.635  1.767  4.868  0.000    26.999     6.967
 305   8 O     -0.663  1.779  4.884  0.000    27.723     7.059
 306   1 H      0.149  0.851  0.000  0.000     1.405     1.857
 307   1 H      0.053  0.947  0.000  0.000     2.285     2.364
 308   1 H      0.038  0.962  0.000  0.000     2.481     2.463
 309   1 H      0.021  0.979  0.000  0.000     2.721     2.580
 310   1 H      0.007  0.993  0.000  0.000     2.940     2.681
 311   1 H      0.016  0.984  0.000  0.000     2.793     2.613
 312   7 N     -0.167  1.241  3.926  0.000    24.612     7.368
 313   6 C      0.035  1.057  2.908  0.000    19.998     6.368
 314   6 C      0.203  1.084  2.713  0.000    23.692     7.971
 315   8 O     -0.340  1.753  4.587  0.000    20.519     6.073
 316   6 C     -0.075  1.054  3.021  0.000    21.924     6.664
 317   6 C      0.011  1.079  2.910  0.000    27.773     8.644
 318   6 C     -0.039  1.080  2.959  0.000    28.968     8.826
 319   6 C     -0.040  1.082  2.958  0.000    28.985     8.829
 320   6 C     -0.031  1.078  2.953  0.000    28.779     8.797
 321   6 C     -0.032  1.081  2.951  0.000    28.803     8.801
 322   6 C     -0.034  1.078  2.956  0.000    28.847     8.808
 323   1 H      0.203  0.797  0.000  0.000     1.091     1.636
 324   1 H      0.084  0.916  0.000  0.000     1.939     2.178
 325   1 H      0.061  0.939  0.000  0.000     2.188     2.313
 326   1 H      0.063  0.937  0.000  0.000     2.169     2.303
 327   1 H      0.037  0.963  0.000  0.000     2.491     2.468
 328   1 H      0.036  0.964  0.000  0.000     2.497     2.471
 329   1 H      0.044  0.956  0.000  0.000     2.401     2.423
 330   1 H      0.043  0.957  0.000  0.000     2.404     2.424
 331   1 H      0.037  0.963  0.000  0.000     2.488     2.466
 332   7 N     -0.405  1.315  4.089  0.000    30.509     8.203
 333   6 C      0.043  1.057  2.900  0.000    19.869     6.350
 334   6 C      0.197  1.094  2.709  0.000    23.795     7.989
 335   8 O     -0.364  1.749  4.615  0.000    20.976     6.141
 336   6 C     -0.067  1.060  3.007  0.000    21.772     6.642
 337   6 C     -0.012  1.057  2.956  0.000    20.760     6.481
 338   6 C     -0.127  1.043  3.083  0.000    22.983     6.835
 339   6 C     -0.111  1.040  3.071  0.000    22.669     6.788
 340   1 H      0.167  0.833  0.000  0.000     1.288     1.778
 341   1 H      0.051  0.949  0.000  0.000     2.308     2.376
 342   1 H      0.053  0.947  0.000  0.000     2.284     2.363
 343   1 H      0.037  0.963  0.000  0.000     2.495     2.470
 344   1 H      0.026  0.974  0.000  0.000     2.643     2.542
 345   1 H      0.050  0.950  0.000  0.000     2.319     2.381
 346   1 H      0.049  0.951  0.000  0.000     2.334     2.389
 347   1 H      0.053  0.947  0.000  0.000     2.277     2.360
 348   1 H      0.040  0.960  0.000  0.000     2.449     2.447
 349   1 H      0.039  0.961  0.000  0.000     2.468     2.457
 350   1 H      0.028  0.972  0.000  0.000     2.621     2.532
 351   7 N     -0.386  1.313  4.073  0.000    29.977     8.131
 352   6 C      0.040  1.056  2.904  0.000    19.920     6.357
 353   6 C      0.202  1.094  2.704  0.000    23.708     7.974
 354   8 O     -0.392  1.765  4.628  0.000    21.525     6.220
 355   6 C     -0.080  1.058  3.023  0.000    22.033     6.682
 356   6 C     -0.080  1.052  3.028  0.000    22.019     6.680
 357   6 C     -0.025  1.051  2.974  0.000    21.092     6.552
 358   7 N     -0.130  1.210  3.920  0.000    23.823     7.249
 359   6 C      0.226  1.019  2.755  0.000    23.244     7.894
 360   7 N     -0.244  1.240  4.004  0.000    26.357     7.625
 361   7 N     -0.234  1.226  4.008  0.000    26.127     7.591
 362   1 H      0.163  0.837  0.000  0.000     1.319     1.799
 363   1 H      0.053  0.947  0.000  0.000     2.280     2.362
 364   1 H      0.076  0.924  0.000  0.000     2.025     2.225
 365   1 H      0.056  0.944  0.000  0.000     2.243     2.342
 366   1 H      0.068  0.932  0.000  0.000     2.105     2.269
 367   1 H      0.068  0.932  0.000  0.000     2.113     2.273
 368   1 H      0.089  0.911  0.000  0.000     1.892     2.151
 369   1 H      0.079  0.921  0.000  0.000     1.987     2.204
 370   1 H      0.230  0.770  0.000  0.000     0.964     1.538
 371   1 H      0.244  0.756  0.000  0.000     0.907     1.492
 372   1 H      0.240  0.760  0.000  0.000     0.923     1.505
 373   1 H      0.233  0.767  0.000  0.000     0.951     1.528
 374   1 H      0.243  0.757  0.000  0.000     0.912     1.496
 375   7 N     -0.384  1.309  4.076  0.000    29.935     8.126
 376   6 C      0.044  1.054  2.902  0.000    19.849     6.346
 377   6 C      0.200  1.098  2.701  0.000    23.733     7.978
 378   8 O     -0.369  1.738  4.631  0.000    21.064     6.153
 379   6 C     -0.070  1.057  3.013  0.000    21.822     6.649
 380   6 C      0.006  1.081  2.912  0.000    27.874     8.660
 381   6 C     -0.043  1.079  2.965  0.000    29.076     8.843
 382   6 C     -0.038  1.080  2.958  0.000    28.949     8.824
 383   6 C     -0.033  1.078  2.955  0.000    28.826     8.804
 384   6 C     -0.023  1.080  2.943  0.000    28.576     8.766
 385   6 C     -0.033  1.078  2.955  0.000    28.815     8.803
 386   1 H      0.169  0.831  0.000  0.000     1.276     1.769
 387   1 H      0.058  0.942  0.000  0.000     2.218     2.329
 388   1 H      0.059  0.941  0.000  0.000     2.209     2.324
 389   1 H      0.051  0.949  0.000  0.000     2.307     2.375
 390   1 H      0.043  0.957  0.000  0.000     2.408     2.427
 391   1 H      0.024  0.976  0.000  0.000     2.670     2.555
 392   1 H      0.037  0.963  0.000  0.000     2.488     2.467
 393   1 H      0.029  0.971  0.000  0.000     2.594     2.519
 394   1 H      0.031  0.969  0.000  0.000     2.573     2.508
 395   7 N     -0.396  1.313  4.084  0.000    30.275     8.172
 396   6 C      0.032  1.058  2.910  0.000    20.047     6.377
 397   6 C      0.270  1.048  2.682  0.000    22.441     7.757
 398   8 O     -0.500  1.746  4.754  0.000    23.782     6.538
 399   6 C     -0.070  1.061  3.008  0.000    21.827     6.651
 400   6 C     -0.008  1.056  2.952  0.000    20.692     6.470
 401   6 C     -0.113  1.039  3.074  0.000    22.712     6.795
 402   6 C     -0.110  1.040  3.070  0.000    22.656     6.786
 403   1 H      0.152  0.848  0.000  0.000     1.385     1.844
 404   1 H      0.037  0.963  0.000  0.000     2.494     2.469
 405   1 H      0.041  0.959  0.000  0.000     2.432     2.439
 406   1 H      0.042  0.958  0.000  0.000     2.419     2.432
 407   1 H      0.029  0.971  0.000  0.000     2.602     2.523
 408   1 H      0.045  0.955  0.000  0.000     2.386     2.416
 409   1 H      0.033  0.967  0.000  0.000     2.539     2.492
 410   1 H      0.039  0.961  0.000  0.000     2.467     2.456
 411   1 H      0.042  0.958  0.000  0.000     2.421     2.433
 412   1 H      0.037  0.963  0.000  0.000     2.496     2.471
 413   1 H      0.037  0.963  0.000  0.000     2.486     2.466
 414   7 N     -0.176  1.242  3.934  0.000    24.817     7.399
 415   6 C      0.011  1.067  2.923  0.000    20.407     6.433
 416   6 C      0.200  1.082  2.718  0.000    23.742     7.980
 417   8 O     -0.342  1.743  4.599  0.000    20.562     6.080
 418   6 C      0.117  1.046  2.837  0.000    18.770     6.186
 419   8 O     -0.452  1.712  4.740  0.000    21.887     6.315
 420   6 C     -0.139  1.043  3.095  0.000    23.232     6.873
 421   1 H      0.230  0.770  0.000  0.000     0.964     1.538
 422   1 H      0.096  0.904  0.000  0.000     1.819     2.109
 423   1 H      0.030  0.970  0.000  0.000     2.594     2.519
 424   1 H      0.309  0.691  0.000  0.000     0.694     1.309
 425   1 H      0.076  0.924  0.000  0.000     2.019     2.222
 426   1 H      0.059  0.941  0.000  0.000     2.216     2.328
 427   1 H      0.082  0.918  0.000  0.000     1.961     2.190
 428   7 N     -0.395  1.310  4.085  0.000    30.239     8.167
 429   6 C      0.040  1.060  2.900  0.000    19.919     6.357
 430   6 C      0.200  1.096  2.704  0.000    23.737     7.979
 431   8 O     -0.390  1.761  4.629  0.000    21.485     6.214
 432   6 C     -0.019  1.065  2.955  0.000    20.882     6.500
 433   6 C     -0.124  1.042  3.082  0.000    22.938     6.829
 434   6 C     -0.112  1.038  3.074  0.000    22.688     6.791
 435   1 H      0.173  0.827  0.000  0.000     1.256     1.756
 436   1 H      0.037  0.963  0.000  0.000     2.493     2.469
 437   1 H      0.058  0.942  0.000  0.000     2.219     2.329
 438   1 H      0.061  0.939  0.000  0.000     2.185     2.311
 439   1 H      0.040  0.960  0.000  0.000     2.451     2.448
 440   1 H      0.039  0.961  0.000  0.000     2.456     2.451
 441   1 H      0.054  0.946  0.000  0.000     2.274     2.358
 442   1 H      0.035  0.965  0.000  0.000     2.518     2.481
 443   1 H      0.042  0.958  0.000  0.000     2.428     2.437
 444   7 N     -0.394  1.320  4.074  0.000    30.203     8.162
 445   6 C      0.048  1.052  2.901  0.000    19.795     6.338
 446   6 C      0.203  1.094  2.702  0.000    23.675     7.969
 447   8 O     -0.387  1.749  4.637  0.000    21.418     6.205
 448   6 C     -0.061  1.056  3.004  0.000    21.661     6.626
 449   6 C     -0.088  1.063  3.025  0.000    22.184     6.707
 450   6 C      0.369  1.026  2.605  0.000    20.741     7.453
 451   8 O     -0.620  1.750  4.871  0.000    26.618     6.917
 452   8 O     -0.646  1.778  4.867  0.000    27.271     7.001
 453   1 H      0.173  0.827  0.000  0.000     1.253     1.754
 454   1 H      0.043  0.957  0.000  0.000     2.406     2.426
[...]
   228  H   0.946    N  220 0.886
   229  H   0.995    C  221 0.950
   230  H   0.994    C  224 0.968
   231  H   0.995    C  224 0.964
   232  H   1.000    C  225 0.969
   233  H   0.998    C  226 0.985
   234  H   0.999    C  226 0.984
   235  H   0.997    C  226 0.985
   236  H   0.997    C  227 0.985
   237  H   0.996    C  227 0.985
   238  H   0.997    C  227 0.986
   239  N   3.473    C  222 1.316    C  240 0.982    H  248 0.881    O  223 0.195
   240  C   3.969    N  239 0.982    C  241 0.977    C  243 0.966    H  249 0.946    O  242 0.054
   241  C   3.895    O  242 1.884    C  240 0.977    H  547 0.956
   242  O   2.025    C  241 1.884    C  240 0.054
   243  C   3.985    C  244 1.009    H  251 0.971    C  240 0.966    H  250 0.964
   244  C   3.995    C  243 1.009    C  245 0.972    H  253 0.964    H  252 0.950    O  246 0.054
   245  C   3.945    O  246 1.641    N  247 1.303    C  244 0.972
   246  O   1.942    C  245 1.641    N  247 0.194    C  244 0.054
   247  N   3.384    C  245 1.303    H  254 0.929    H  255 0.925    O  246 0.194
   248  H   0.944    N  239 0.881
   249  H   0.994    C  240 0.946
   250  H   0.992    C  243 0.964
   251  H   0.995    C  243 0.971
   252  H   0.992    C  244 0.950
   253  H   0.996    C  244 0.964
   254  H   0.949    N  247 0.929
   255  H   0.946    N  247 0.925
   256  O   1.844    H  257 0.896    H  258 0.890
   257  H   0.906    O  256 0.896
   258  H   0.892    O  256 0.890
   259  O   1.854    H  260 0.893    H  261 0.870
   260  H   0.895    O  259 0.893
   261  H   0.900    O  259 0.870
   262  O   1.859    H  263 0.895    H  264 0.870
   263  H   0.897    O  262 0.895
   264  H   0.900    O  262 0.870
   265  N   3.676    C  266 0.964    H  269 0.901    H  271 0.900    H  270 0.885
   266  C   3.903    N  265 0.964    H  272 0.958    C  267 0.946    H  273 0.941    O  268 0.060
   267  C   3.956    O  268 1.644    N  274 1.312    C  266 0.946
   268  O   1.994    C  267 1.644    N  274 0.212    C  266 0.060
   269  H   0.923    N  265 0.901
   270  H   0.898    N  265 0.885
   271  H   0.915    N  265 0.900
   272  H   0.979    C  266 0.958
   273  H   0.970    C  266 0.941
   274  N   3.508    C  267 1.312    C  275 1.012    H  278 0.919    O  268 0.212
   275  C   3.970    N  274 1.012    C  276 1.000    H  279 0.943    H  280 0.914    O  277 0.072
   276  C   3.898    O  277 1.869    C  275 1.000    H  549 0.954
   277  O   2.057    C  276 1.869    C  275 0.072
   278  H   0.948    N  274 0.919
   279  H   0.987    C  275 0.943
   280  H   0.980    C  275 0.914
   281  N   2.996    C  282 1.016    H  288 0.956    H  550 0.946
   282  C   3.985    N  281 1.016    C  283 0.987    H  289 0.959    C  285 0.936    O  284 0.058
   283  C   3.898    O  284 1.891    C  282 0.987    H  551 0.957
   284  O   2.033    C  283 1.891    C  282 0.058
   285  C   3.994    C  286 1.009    C  287 1.008    H  290 0.968    C  282 0.936
   286  C   3.996    C  285 1.009    H  293 0.985    H  292 0.984    H  291 0.983
   287  C   3.996    C  285 1.008    H  295 0.984    H  296 0.977    H  294 0.975
   288  H   0.974    N  281 0.956
   289  H   0.997    C  282 0.959
   290  H   0.999    C  285 0.968
   291  H   0.997    C  286 0.983
   292  H   0.999    C  286 0.984
   293  H   0.999    C  286 0.985
   294  H   0.998    C  287 0.975
   295  H   0.999    C  287 0.984
   296  H   0.998    C  287 0.977
   297  N   2.993    C  298 1.017    H  306 0.956    H  552 0.953
   298  C   3.984    N  297 1.017    C  301 0.969    H  307 0.959    C  299 0.943
   299  C   3.946    O  300 1.622    N  312 1.298    C  298 0.943
   300  O   1.958    C  299 1.622    N  312 0.191
   301  C   3.995    C  302 1.006    H  308 0.977    H  309 0.974    C  298 0.969
   302  C   3.991    C  301 1.006    H  310 0.976    H  311 0.966    C  303 0.911    O  304 0.055    O  305 0.051
   303  C   3.933    O  304 1.516    O  305 1.484    C  302 0.911
   304  O   1.807    C  303 1.516    O  305 0.217    C  302 0.055
   305  O   1.775    C  303 1.484    O  304 0.217    C  302 0.051
   306  H   0.978    N  297 0.956
   307  H   0.996    C  298 0.959
   308  H   0.999    C  301 0.977
   309  H   0.999    C  301 0.974
   310  H   1.000    C  302 0.976
   311  H   1.000    C  302 0.966
   312  N   3.470    C  299 1.298    C  313 0.974    H  323 0.922    O  300 0.191
   313  C   3.964    N  312 0.974    C  314 0.971    C  316 0.958    H  324 0.945    O  315 0.053
   314  C   3.906    O  315 1.916    C  313 0.971    H  553 0.953
   315  O   2.054    C  314 1.916    C  313 0.053
   316  C   3.987    C  317 1.007    H  326 0.970    H  325 0.962    C  313 0.958
   317  C   3.987    C  319 1.417    C  318 1.412    C  316 1.007    C  322 0.110
   318  C   3.991    C  320 1.446    C  317 1.412    H  327 0.966    C  321 0.112
   319  C   3.991    C  321 1.444    C  317 1.417    H  328 0.968    C  320 0.110
   320  C   3.991    C  318 1.446    C  322 1.437    H  329 0.963    C  319 0.110
   321  C   3.991    C  319 1.444    C  322 1.439    H  330 0.970    C  318 0.112
   322  C   3.992    C  321 1.439    C  320 1.437    H  331 0.969    C  317 0.110
   323  H   0.959    N  312 0.922
   324  H   0.993    C  313 0.945
   325  H   0.996    C  316 0.962
   326  H   0.996    C  316 0.970
   327  H   0.999    C  318 0.966
   328  H   0.999    C  319 0.968
   329  H   0.998    C  320 0.963
   330  H   0.998    C  321 0.970
   331  H   0.998    C  322 0.969
   332  N   2.994    C  333 1.012    H  554 0.956    H  340 0.932
   333  C   3.985    N  332 1.012    C  334 0.976    C  336 0.963    H  341 0.952    O  335 0.056
   334  C   3.895    O  335 1.889    C  333 0.976    H  555 0.956
   335  O   2.038    C  334 1.889    C  333 0.056
   336  C   3.990    C  337 0.993    H  343 0.974    H  342 0.967    C  333 0.963
   337  C   3.995    C  338 1.010    C  339 1.008    C  336 0.993    H  344 0.968
   338  C   3.994    C  337 1.010    H  347 0.984    H  346 0.979    H  345 0.977
   339  C   3.996    C  337 1.008    H  349 0.985    H  350 0.985    H  348 0.985
   340  H   0.972    N  332 0.932
   341  H   0.997    C  333 0.952
   342  H   0.997    C  336 0.967
   343  H   0.999    C  336 0.974
   344  H   0.999    C  337 0.968
   345  H   0.997    C  338 0.977
   346  H   0.998    C  338 0.979
   347  H   0.997    C  338 0.984
   348  H   0.998    C  339 0.985
   349  H   0.998    C  339 0.985
   350  H   0.999    C  339 0.985
   351  N   3.006    C  352 1.012    H  556 0.957    H  362 0.949
   352  C   3.983    N  351 1.012    C  353 0.975    C  355 0.964    H  363 0.957    O  354 0.056
   353  C   3.883    O  354 1.886    C  352 0.975    H  557 0.954
   354  O   2.020    C  353 1.886    C  352 0.056
   355  C   3.988    C  356 1.003    H  365 0.973    H  364 0.966    C  352 0.964
   356  C   3.990    C  357 1.008    C  355 1.003    H  366 0.972    H  367 0.967
   357  C   3.955    C  356 1.008    N  358 0.983    H  369 0.957    H  368 0.957
   358  N   3.484    C  359 1.331    C  357 0.983    H  370 0.911    N  361 0.107    N  360 0.099
   359  C   3.978    N  358 1.331    N  361 1.316    N  360 1.299
   360  N   3.377    C  359 1.299    H  372 0.920    H  371 0.915    N  358 0.099    N  361 0.097
   361  N   3.404    C  359 1.316    H  373 0.923    H  374 0.921    N  358 0.107    N  360 0.097
   362  H   0.974    N  351 0.949
   363  H   0.997    C  352 0.957
   364  H   0.994    C  355 0.966
   365  H   0.997    C  355 0.973
   366  H   0.995    C  356 0.972
   367  H   0.995    C  356 0.967
   368  H   0.991    C  357 0.957
   369  H   0.994    C  357 0.957
   370  H   0.947    N  358 0.911
   371  H   0.940    N  360 0.915
   372  H   0.942    N  360 0.920
   373  H   0.946    N  361 0.923
   374  H   0.941    N  361 0.921
   375  N   3.001    C  376 1.011    H  558 0.954    H  386 0.953
   376  C   3.985    N  375 1.011    C  377 0.980    H  387 0.955    C  379 0.947    O  378 0.052
   377  C   3.882    O  378 1.856    C  376 0.980    H  559 0.953
   378  O   2.055    C  377 1.856    C  376 0.052
   379  C   3.992    C  380 1.010    H  389 0.972    H  388 0.957    C  376 0.947
   380  C   3.989    C  382 1.416    C  381 1.409    C  379 1.010    C  385 0.109
   381  C   3.991    C  383 1.446    C  380 1.409    H  390 0.965    C  384 0.112
   382  C   3.992    C  384 1.442    C  380 1.416    H  391 0.969    C  383 0.110
   383  C   3.992    C  381 1.446    C  385 1.435    H  392 0.963    C  382 0.110
   384  C   3.992    C  382 1.442    C  385 1.437    H  393 0.971    C  381 0.112
   385  C   3.991    C  384 1.437    C  383 1.435    H  394 0.968    C  380 0.109
   386  H   0.971    N  375 0.953
   387  H   0.997    C  376 0.955
   388  H   0.996    C  379 0.957
   389  H   0.997    C  379 0.972
   390  H   0.998    C  381 0.965
   391  H   0.999    C  382 0.969
   392  H   0.998    C  383 0.963
   393  H   0.999    C  384 0.971
   394  H   0.998    C  385 0.968
   395  N   2.992    C  396 1.010    H  403 0.957    H  560 0.957
   396  C   3.982    N  395 1.010    C  399 0.979    H  404 0.960    C  397 0.937
   397  C   3.944    O  398 1.610    N  414 1.316    C  396 0.937
   398  O   1.954    C  397 1.610    N  414 0.196
   399  C   3.993    C  400 0.994    C  396 0.979    H  406 0.973    H  405 0.970
   400  C   3.996    C  401 1.010    C  402 1.008    C  399 0.994    H  407 0.968
   401  C   3.996    C  400 1.010    H  410 0.986    H  408 0.985    H  409 0.983
   402  C   3.996    C  400 1.008    H  412 0.986    H  411 0.985    H  413 0.985
   403  H   0.977    N  395 0.957
   404  H   0.998    C  396 0.960
   405  H   0.998    C  399 0.970
   406  H   0.998    C  399 0.973
   407  H   0.999    C  400 0.968
   408  H   0.998    C  401 0.985
   409  H   0.999    C  401 0.983
   410  H   0.998    C  401 0.986
   411  H   0.998    C  402 0.985
   412  H   0.999    C  402 0.986
   413  H   0.999    C  402 0.985
   414  N   3.474    C  397 1.316    C  415 0.982    H  421 0.885    O  398 0.196
   415  C   3.965    N  414 0.982    C  416 0.979    H  422 0.939    C  418 0.934    O  417 0.057
   416  C   3.914    O  417 1.893    C  415 0.979    H  561 0.955
   417  O   2.052    C  416 1.893    C  415 0.057
   418  C   3.953    C  420 1.004    O  419 1.000    H  423 0.961    C  415 0.934
   419  O   1.970    C  418 1.000    H  424 0.868
   420  C   3.984    C  418 1.004    H  426 0.982    H  425 0.981    H  427 0.978
   421  H   0.947    N  414 0.885
   422  H   0.991    C  415 0.939
   423  H   0.999    C  418 0.961
   424  H   0.904    O  419 0.868
   425  H   0.994    C  420 0.981
   426  H   0.996    C  420 0.982
   427  H   0.993    C  420 0.978
   428  N   2.998    C  429 1.011    H  562 0.959    H  435 0.935
   429  C   3.983    N  428 1.011    C  430 0.977    H  436 0.960    C  432 0.948    O  431 0.055
   430  C   3.887    O  431 1.882    C  429 0.977    H  563 0.953
   431  O   2.020    C  430 1.882    C  429 0.055
   432  C   3.990    C  433 1.008    C  434 1.008    H  437 0.959    C  429 0.948
   433  C   3.994    C  432 1.008    H  440 0.986    H  439 0.983    H  438 0.982
   434  C   3.995    C  432 1.008    H  442 0.985    H  443 0.981    H  441 0.979
   435  H   0.970    N  428 0.935
   436  H   0.998    C  429 0.960
   437  H   0.997    C  432 0.959
   438  H   0.996    C  433 0.982
   439  H   0.998    C  433 0.983
   440  H   0.998    C  433 0.986
   441  H   0.996    C  434 0.979
   442  H   0.999    C  434 0.985
   443  H   0.998    C  434 0.981
   444  N   2.990    C  445 1.010    H  453 0.953    H  564 0.951
   445  C   3.986    N  444 1.010    C  446 0.984    H  454 0.963    C  448 0.956    O  447 0.053
   446  C   3.881    O  447 1.861    C  445 0.984    H  565 0.953
   447  O   2.041    C  446 1.861    C  445 0.053
   448  C   3.993    C  449 1.009    H  456 0.975    H  455 0.964    C  445 0.956
   449  C   3.987    C  448 1.009    H  458 0.976    H  457 0.965    C  450 0.911    O  451 0.053    O  452 0.052
   450  C   3.935    O  452 1.509    O  451 1.484    C  449 0.911
   451  O   1.813    C  450 1.484    O  452 0.214    C  449 0.053
   452  O   1.807    C  450 1.509    O  451 0.214    C  449 0.052
   453  H   0.970    N  444 0.953
   454  H   0.998    C  445 0.963
   455  H   0.995    C  448 0.964
   456  H   0.998    C  448 0.975
   457  H   0.999    C  449 0.965
   458  H   1.000    C  449 0.976
   459  N   2.993    C  460 1.013    H  471 0.955    H  566 0.954
   460  C   3.983    N  459 1.013    C  463 0.965    H  472 0.965    C  461 0.933
   461  C   3.939    O  462 1.628    N  480 1.300    C  460 0.933
   462  O   1.961    C  461 1.628    N  480 0.192
   463  C   3.993    C  464 1.008    H  473 0.968    H  474 0.966    C  460 0.965
   464  C   3.988    C  466 1.411    C  465 1.403    C  463 1.008    C  469 0.095
   465  C   3.990    C  467 1.461    C  464 1.403    H  475 0.968    C  468 0.105
   466  C   3.992    C  468 1.448    C  464 1.411    H  476 0.969    C  467 0.107
   467  C   3.984    C  465 1.461    C  469 1.362    H  477 0.965    C  466 0.107
   468  C   3.989    C  466 1.448    C  469 1.377    H  478 0.967    C  465 0.105    O  470 0.060
   469  C   3.942    C  468 1.377    C  467 1.362    O  470 1.069    C  464 0.095
   470  O   2.107    C  469 1.069    H  479 0.869    C  468 0.060
   471  H   0.974    N  459 0.955
   472  H   0.998    C  460 0.965
   473  H   0.995    C  463 0.968
   474  H   0.998    C  463 0.966
   475  H   0.997    C  465 0.968
   476  H   1.000    C  466 0.969
   477  H   0.994    C  467 0.965
   478  H   0.999    C  468 0.967
   479  H   0.890    O  470 0.869
   480  N   3.460    C  461 1.300    C  481 0.982    H  488 0.889    O  462 0.192
   481  C   3.975    N  480 0.982    C  482 0.970    C  484 0.966    H  489 0.950    O  483 0.055
   482  C   3.905    O  483 1.902    C  481 0.970    H  567 0.952
   483  O   2.051    C  482 1.902    C  481 0.055
   484  C   3.990    C  485 1.013    H  491 0.972    C  481 0.966    H  490 0.963
   485  C   3.980    C  484 1.013    S  486 0.989    H  492 0.971    H  493 0.971
   486  S   2.082    C  487 1.011    C  485 0.989
   487  C   3.977    S  486 1.011    H  495 0.984    H  496 0.983    H  494 0.977
   488  H   0.948    N  480 0.889
   489  H   0.996    C  481 0.950
   490  H   0.996    C  484 0.963
   491  H   0.996    C  484 0.972
   492  H   0.998    C  485 0.971
   493  H   0.998    C  485 0.971
   494  H   0.994    C  487 0.977
   495  H   0.999    C  487 0.984
   496  H   0.996    C  487 0.983
   497  N   3.001    C  498 1.017    H  568 0.955    H  508 0.939
   498  C   3.985    N  497 1.017    C  499 0.971    C  501 0.964    H  509 0.957    O  500 0.057
   499  C   3.889    O  500 1.890    C  498 0.971    H  569 0.956
   500  O   2.026    C  499 1.890    C  498 0.057
   501  C   3.990    C  502 0.996    H  510 0.974    H  511 0.972    C  498 0.964
   502  C   3.993    C  503 1.010    C  501 0.996    H  513 0.974    H  512 0.968
   503  C   3.961    C  502 1.010    N  504 0.984    H  515 0.956    H  514 0.953
   504  N   3.457    C  505 1.304    C  503 0.984    H  516 0.916    N  506 0.100    N  507 0.097
   505  C   3.977    N  506 1.337    N  507 1.304    N  504 1.304
   506  N   3.392    C  505 1.337    H  518 0.918    H  517 0.865    N  507 0.103    N  504 0.100
   507  N   3.381    C  505 1.304    H  519 0.921    H  520 0.916    N  506 0.103    N  504 0.097
   508  H   0.972    N  497 0.939
   509  H   0.996    C  498 0.957
   510  H   0.997    C  501 0.974
   511  H   0.996    C  501 0.972
   512  H   0.996    C  502 0.968
   513  H   0.998    C  502 0.974
   514  H   0.994    C  503 0.953
   515  H   0.992    C  503 0.956
   516  H   0.951    N  504 0.916
   517  H   0.936    N  506 0.865
   518  H   0.938    N  506 0.918
   519  H   0.940    N  507 0.921
   520  H   0.935    N  507 0.916
   521  N   2.999    C  522 1.023    H  536 0.965    H  548 0.953
   522  C   3.977    N  521 1.023    C  525 0.963    H  537 0.959    C  523 0.894    O  524 0.056    O  535 0.050
   523  C   3.930    O  524 1.526    O  535 1.474    C  522 0.894
   524  O   1.820    C  523 1.526    O  535 0.218    C  522 0.056
   525  C   3.995    C  526 1.017    H  538 0.973    H  539 0.969    C  522 0.963
   526  C   3.979    C  527 1.576    C  528 1.208    C  525 1.017    N  529 0.080
   527  C   3.952    C  526 1.576    N  529 1.199    H  540 0.969    C  530 0.060
   528  C   3.985    C  531 1.331    C  530 1.242    C  526 1.208    C  534 0.076
   529  N   3.543    C  527 1.199    C  530 1.186    H  541 0.931    C  526 0.080
   530  C   3.963    C  532 1.337    C  528 1.242    N  529 1.186    C  533 0.072    C  527 0.060
   531  C   3.993    C  533 1.504    C  528 1.331    H  542 0.970    C  532 0.112
   532  C   3.988    C  534 1.493    C  530 1.337    H  543 0.968    C  531 0.112
   533  C   3.991    C  531 1.504    C  534 1.369    H  544 0.971    C  530 0.072
   534  C   3.991    C  532 1.493    C  533 1.369    H  545 0.972    C  528 0.076
   535  O   1.764    C  523 1.474    O  524 0.218    C  522 0.050
   536  H   0.981    N  521 0.965
   537  H   1.000    C  522 0.959
   538  H   0.999    C  525 0.973
   539  H   0.999    C  525 0.969
   540  H   0.998    C  527 0.969
   541  H   0.958    N  529 0.931
   542  H   0.999    C  531 0.970
   543  H   0.998    C  532 0.968
   544  H   0.999    C  533 0.971
   545  H   0.999    C  534 0.972
   546  H   0.964    N    1 0.945
   547  H   0.996    C  241 0.956
   548  H   0.965    N  521 0.953
   549  H   0.993    C  276 0.954
   550  H   0.967    N  281 0.946
   551  H   0.997    C  283 0.957
   552  H   0.965    N  297 0.953
   553  H   0.994    C  314 0.953
   554  H   0.967    N  332 0.956
   555  H   0.996    C  334 0.956
   556  H   0.968    N  351 0.957
   557  H   0.994    C  353 0.954
   558  H   0.966    N  375 0.954
   559  H   0.993    C  377 0.953
   560  H   0.967    N  395 0.957
   561  H   0.996    C  416 0.955
   562  H   0.971    N  428 0.959
   563  H   0.994    C  430 0.953
   564  H   0.962    N  444 0.951
   565  H   0.994    C  446 0.953
   566  H   0.964    N  459 0.954
   567  H   0.993    C  482 0.952
   568  H   0.967    N  497 0.955
   569  H   0.996    C  499 0.956
 
molecular dipole:
                 x           y           z       tot (Debye)
 q only:       16.538      -4.229      32.010
   full:       15.427      -3.070      27.381      80.262
molecular quadrupole (traceless):
                xx          xy          yy          xz          yz          zz
 q only:     2548.266      60.333    -797.471    2516.524    1148.519   -1750.795
  q+dip:     2416.866     138.804    -631.331    2234.453     982.687   -1785.535
   full:     2420.266     141.186    -636.292    2234.336     981.093   -1783.974
speedup  9.05
cpu  time for grad    1 m  0.8 s
wall time for grad    0 m  6.7 s

SCC energy    :    -876.9298144
rep           :      10.9790179
ES            :       2.7075417
AES           :      -0.1546939
AXC           :       0.3175296
disp          :      -0.7504658
XB            :       0.0000000
fix           :       0.0000000
Gborn         :       0.0000000
Gsasa         :       0.0000000
Ghb           :       0.0000000
Gshift        :       0.0000000
Gsolv         :      -0.7035408     -441.48
Etot ala COSMO:    -876.9298144
grad norm     :       0.7716490
total E       :    -865.8739635
atomizationE  :     158.6892252    99578.99
(atE without considering molecular charge,
 total energy contains solvation terms)
H-L gap (eV)  :          0.9894

------------------------------------------------------------------------
 * finished run on 2019/02/12 at 02:59:51.953     
------------------------------------------------------------------------
 total:
 * wall-time:     0 d,  0 h,  0 min,  7.447 sec
 *  cpu-time:     0 d,  0 h,  1 min,  8.011 sec
 * ratio c/w:     9.133 speedup
 SCF:
 * wall-time:     0 d,  0 h,  0 min,  7.104 sec
 *  cpu-time:     0 d,  0 h,  1 min,  4.614 sec
 * ratio c/w:     9.096 speedup

