      -----------------------------------------------------------      
     |                   =====================                   |     
     |                           x T B                           |     
     |                   =====================                   |     
     |                         S. Grimme                         |     
     |          Mulliken Center for Theoretical Chemistry        |     
     |                    University of Bonn                     |     
     |                 Version 6.0.1 (SAW181210)                 |     
      -----------------------------------------------------------      

   This program is distributed in the hope that it will be useful,
   but WITHOUT ANY WARRANTY; without even the implied warranty of
   MERCHANTABILITY or FITNESS FOR A PARTICULAR PURPOSE.
   
   FOR NON-COMMERCIAL, ACADEMIA USE ONLY.
   
   Cite this work as:
   S. Grimme, C. Bannwarth, P. Shushkov, J. Comput. Theory Chem., 2017,
   13, 1989-2009.
   C. Bannwarth, S. Ehlert and S. Grimme., ChemRxiv, 2018, preprint.
   http://doi.org/10.26434/chemrxiv.7246238.v1
   
   for sTDA-xTB:
   S. Grimme and C. Bannwarth, J. Chem. Phys., 2016, 145, 054103.
   
   in the mass-spec context:
   V. Asgeirsson, C. Bauer and S. Grimme, Chem. Sci., 2017, 8, 4879.
   
   if GBSA is used:
   P. Shushkov, F. März and S. Grimme, unpublished.
   
   for ANC optimizer:
   S. Grimme, unpublished.
   Rational Function algorithm used in ANCopt:
   F. Eckert, P. Pulay, H.-J. Werner, J. Comput. Chem., 1997, 18, 1473.
   
   with help from (in alphabetical order)
   C. Bannwarth, F. Bohle, G. Brandenburg, E. Caldeweyher, M. Checinski,
   S. Dohm, S. Ehlert, S. Ehrlich, F. März, H. Neugebauer, J. Pisarek,
   P. Pracht, P. Shushkov, and S. Spicher.
   
 * started run on 2019/05/04 at 18:23:08.377     
========================================================================
 # omp threads = 2
========================================================================
number of atoms            : 869
number of electrons        : 2354
charge                     : -5
spin                       : .0
first test random number   : .0729

########################################################################
# WARNING! Please study the warnings concerning your input carefully
#  - Process number higher than OMP_NUM_THREADS, I hope you know what you are doing.
########################################################################

           ------------------------------------------------- 
          |                 G F N 2 - x T B                 |
          | Geometry, Frequencies, Noncovalent interactions |
          |            JCTC 2018 parametrisation            |
           ------------------------------------------------- 
 
      method parameters     
 k(s)        :  1.8500
 k(p)        :  2.2300
 k(d)        :  2.2300
 k(f)        :  2.0000
 kEN (H0ij)  : -2.0000
 D4 a1       :  0.5200
 D4 a2       :  5.0000
 D4 s6       :  1.0000
 D4 s8       :  2.7000
 D4 s9       :  5.0000
 alphaj      :  2.0000

 Solvent             : h2o
 Using internal parameter file: .param_gbsa2_h2o
 Gsolv ref. state (COSMO-RS): gsolv [1 M gas/solution]
 temperature (mdtemp)       :    298.150000000000     
 dielectric constant        :    80.2000000000000     
 rho                        :    1.00000000000000     
 mass                       :    18.0000000000000     
 surface tension            :    15.5689454083859     
 probe radius               :   0.975313790000000     
 vdW radii scaling          :    1.00000000000000     
 Gshift (Eh)                :   1.857443126794793E-003
 c1                         :    1.55243817000000     
 soset                      :   0.130326360000000     
 HB correction              :  T

            Z     q(EN)     CN     RAES       Cart. coordinates
     1  N   5.0   -0.23    3.26    1.97     4.77912   171.49452     6.85215
     2  C   4.0    0.02    4.33    4.25     4.45597   168.77520     6.81813
     3  C   4.0    0.14    3.42    3.08     6.75955   167.46751     7.93874
     4  O   6.0   -0.31    1.23    1.80     6.82191   165.14504     8.09748
     5  C   4.0   -0.05    4.38    4.35     3.96465   167.79822     4.14795
     6  C   4.0   -0.03    4.21    4.01     1.83114   165.84424     4.03079
     7  C   4.0   -0.09    4.13    3.86    -0.40440   167.13303     2.78546
     8  C   4.0   -0.08    4.09    3.79     2.56625   163.44807     2.60593
     9  H   1.0    0.06    1.03    1.43     5.04557   172.29198     5.11738
    10  H   1.0    0.03    1.07    1.44     2.77979   168.28199     7.90850
    11  H   1.0    0.03    1.05    1.44     3.44119   169.38559     2.94230
    12  H   1.0    0.04    1.04    1.43     5.68241   166.91004     3.43741
    13  H   1.0    0.04    1.07    1.44     1.36249   165.20173     5.92996
    14  H   1.0    0.03    1.00    1.43    -1.96909   165.79700     2.66829
    15  H   1.0    0.03    1.00    1.43    -0.95620   168.76198     3.91929
    16  H   1.0    0.02    1.00    1.43     0.14173   167.74341     0.89573
    17  H   1.0    0.03    1.00    1.43     0.96376   162.15360     2.60026
    18  H   1.0    0.03    1.00    1.43     3.07458   163.94695     0.67274
    19  H   1.0    0.05    1.00    1.43     4.17440   162.57312     3.55080
    20  N   5.0   -0.15    3.52    2.09     8.65306   168.95095     8.67951
    21  C   4.0    0.04    4.47    4.49    10.73175   167.94939    10.14405
    22  C   4.0    0.15    3.47    3.10    10.24798   168.10813    12.98242
    23  O   6.0   -0.30    1.31    1.80    11.65583   167.03099    14.48853
    24  C   4.0   -0.04    4.35    4.30    13.18273   169.28354     9.51099
    25  C   4.0    0.16    3.30    3.05    15.34646   168.30466    11.06435
    26  O   6.0   -0.27    1.24    1.80    15.57134   166.02376    11.47064
    27  N   5.0   -0.19    3.18    1.95    16.92817   170.01297    11.99598
    28  H   1.0    0.07    1.07    1.44     8.78345   170.83501     8.29023
    29  H   1.0    0.07    1.07    1.44    10.99254   165.97085     9.63760
    30  H   1.0    0.04    1.03    1.43    13.62681   168.98118     7.52300
    31  H   1.0    0.03    1.04    1.43    12.97675   171.29799     9.88894
    32  H   1.0    0.09    1.02    1.43    18.43050   169.45362    13.06557
    33  H   1.0    0.06    1.03    1.43    16.64093   171.88569    11.64260
    34  N   5.0   -0.15    3.47    2.06     8.25621   169.42716    13.73264
    35  C   4.0    0.04    4.52    4.56     7.86693   169.79755    16.41038
    36  C   4.0    0.16    3.45    3.09     5.44808   168.77142    17.50453
    37  O   6.0   -0.31    1.31    1.80     3.36749   169.58401    16.85069
    38  C   4.0   -0.04    4.35    4.28     8.19952   172.54332    17.13226
    39  C   4.0    0.14    3.25    3.04     8.82691   172.83811    19.88370
    40  O   6.0   -0.31    1.22    1.80     7.34725   172.09923    21.53343
    41  N   5.0   -0.20    3.18    1.95    11.05679   173.87179    20.41471
    42  H   1.0    0.08    1.06    1.44     6.94096   170.22462    12.57046
    43  H   1.0    0.06    1.12    1.45     9.29934   168.59946    17.27965
    44  H   1.0    0.03    1.04    1.43     9.73776   173.35401    16.02866
    45  H   1.0    0.05    1.03    1.43     6.44963   173.56188    16.75620
    46  H   1.0    0.08    1.02    1.43    11.58969   174.12124    22.24963
    47  H   1.0    0.06    1.03    1.43    12.23220   174.41415    18.98608
    48  N   5.0   -0.14    3.50    2.08     5.80524   166.99319    19.24308
    49  C   4.0    0.03    4.51    4.56     3.75111   165.53810    20.32589
    50  C   4.0    0.15    3.50    3.11     1.66863   167.23130    21.30099
    51  O   6.0   -0.32    1.44    1.80    -0.32125   167.40893    20.14070
    52  C   4.0   -0.03    4.36    4.30     4.66951   163.68617    22.39703
    53  C   4.0   -0.05    4.25    4.11     6.95797   164.75387    23.81622
    54  C   4.0   -0.08    4.13    3.86     5.34603   161.17851    21.21973
    55  C   4.0   -0.08    4.00    3.62     7.67418   163.27421    26.19538
    56  H   1.0    0.07    1.09    1.44     7.53434   166.51320    19.94795
    57  H   1.0    0.05    1.07    1.44     2.94608   164.42694    18.78955
    58  H   1.0    0.04    1.06    1.44     3.13695   163.42917    23.74819
    59  H   1.0    0.04    1.04    1.43     8.58502   164.73119    22.55388
    60  H   1.0    0.04    1.04    1.43     6.53467   166.68706    24.38691
    61  H   1.0    0.05    1.00    1.43     5.98854   159.89538    22.69750
    62  H   1.0    0.04    1.00    1.43     3.67930   160.40183    20.29188
    63  H   1.0    0.04    1.00    1.43     6.84648   161.46952    19.84023
    64  H   1.0    0.04    1.00    1.43     9.31068   164.16616    27.07221
    65  H   1.0    0.04    1.00    1.43     6.08114   163.29122    27.50118
    66  H   1.0    0.05    1.00    1.43     8.12960   161.33535    25.66815
    67  N   5.0   -0.14    3.48    2.06     2.16185   168.53143    23.38725
    68  C   4.0    0.03    4.35    4.28     0.22866   170.04510    24.60801
    69  C   4.0    0.09    3.31    3.06    -1.17919   171.60601    22.67671
    70  O   6.0   -0.31    1.12    1.80    -3.48088   171.85357    22.81277
    71  C   4.0   -0.06    4.30    4.19     1.37572   171.77609    26.59978
    72  C   4.0   -0.06    4.17    3.94     2.05413   170.48352    29.06965
    73  C   4.0   -0.02    4.21    4.02     2.98010   172.42615    31.00284
    74  N   5.0   -0.15    3.38    2.01     4.30291   171.26775    33.14201
    75  C   4.0    0.08    3.33    3.06     5.54068   172.54521    34.92591
    76  N   5.0   -0.21    3.25    1.97     5.64839   175.06421    34.87111
    77  N   5.0   -0.20    3.23    1.96     6.67829   171.29610    36.77974
    78  H   1.0    0.08    1.07    1.44     3.87394   168.57489    24.27353
    79  H   1.0    0.04    1.06    1.44    -1.08470   168.77898    25.56421
    80  H   1.0    0.04    1.03    1.43     3.10293   172.59812    25.83633
    81  H   1.0    0.03    1.04    1.43     0.01890   173.26519    27.03253
    82  H   1.0    0.03    1.03    1.43     0.39117   169.53676    29.83310
    83  H   1.0    0.04    1.03    1.43     3.55646   169.11346    28.74273
    84  H   1.0    0.03    1.03    1.43     4.28401   173.72440    30.07688
    85  H   1.0    0.03    1.03    1.43     1.36060   173.46172    31.74173
    86  H   1.0    0.07    1.06    1.44     4.27456   169.34590    33.27618
    87  H   1.0    0.06    1.03    1.43     4.77723   176.03553    33.45193
    88  H   1.0    0.06    1.02    1.43     6.60270   176.01852    36.24872
    89  H   1.0    0.07    1.02    1.43     6.60270   169.37047    36.83265
    90  H   1.0    0.06    1.02    1.43     7.62882   172.26175    38.15168
    91  N   5.0   -0.18    3.33    1.99    -1.69130   170.30588    16.86580
    92  C   4.0    0.03    4.38    4.35    -3.12939   168.61458    15.32379
    93  C   4.0    0.15    3.50    3.11    -5.57847   167.98341    16.66549
    94  O   6.0   -0.32    1.38    1.80    -7.57024   168.90560    15.88882
    95  C   4.0   -0.04    4.37    4.32    -1.60627   166.25998    14.65860
    96  C   4.0   -0.03    4.17    3.94    -2.48688   164.82946    12.28700
    97  C   4.0   -0.08    4.12    3.84    -4.62038   166.15982    10.79222
    98  C   4.0   -0.08    4.11    3.82    -0.24566   164.34758    10.55223
    99  H   1.0    0.14    1.13    1.45    -0.03024   169.59912    17.54422
   100  H   1.0    0.04    1.08    1.44    -3.59237   169.50086    13.52288
   101  H   1.0    0.06    1.04    1.43     0.34960   166.82312    14.34491
   102  H   1.0    0.05    1.04    1.43    -1.71776   164.94851    16.24408
   103  H   1.0    0.03    1.06    1.44    -3.29379   163.05122    12.94462
   104  H   1.0    0.03    1.00    1.43    -5.11171   165.00898     9.15572
   105  H   1.0    0.05    1.00    1.43    -6.26255   166.37525    12.01677
   106  H   1.0    0.03    1.00    1.43    -3.95520   168.00986    10.17617
   107  H   1.0    0.03    1.00    1.43    -0.89762   163.33468     8.88171
   108  H   1.0    0.04    1.00    1.43     0.57826   166.15415    10.00232
   109  H   1.0    0.04    1.00    1.43     1.15084   163.21752    11.55945
   110  N   5.0   -0.14    3.53    2.10    -5.39517   166.46407    18.68183
   111  C   4.0    0.03    4.45    4.46    -7.56079   165.60424    20.18794
   112  C   4.0    0.16    3.56    3.14    -9.63004   167.51476    19.97251
   113  O   6.0   -0.32    1.28    1.80   -11.80890   166.83635    19.57945
   114  C   4.0   -0.05    4.34    4.26    -6.85404   165.31512    22.96395
   115  C   4.0   -0.04    4.28    4.16    -4.57314   163.72775    23.34189
   116  C   4.0   -0.01    4.24    4.07    -3.93819   163.38382    26.08389
   117  N   5.0   -0.13    3.41    2.03    -1.82170   161.62448    26.29554
   118  C   4.0    0.11    3.35    3.07    -1.41163   160.06357    28.22873
   119  N   5.0   -0.16    3.27    1.97    -2.97821   159.96530    30.19782
   120  N   5.0   -0.17    3.25    1.97     0.58204   158.55746    28.18148
   121  H   1.0    0.09    1.09    1.44    -3.71898   165.77432    19.33946
   122  H   1.0    0.04    1.06    1.44    -8.18440   163.76743    19.49630
   123  H   1.0    0.05    1.04    1.43    -6.47420   167.17839    23.75574
   124  H   1.0    0.04    1.03    1.43    -8.42062   164.42883    23.96550
   125  H   1.0    0.06    1.05    1.44    -4.90384   161.86637    22.52364
   126  H   1.0    0.05    1.05    1.44    -2.96498   164.62726    22.42160
   127  H   1.0    0.03    1.03    1.43    -3.39584   165.19039    26.91159
   128  H   1.0    0.05    1.03    1.43    -5.55957   162.60714    27.08922
   129  H   1.0    0.07    1.06    1.44    -0.55369   161.58858    24.84423
   130  H   1.0    0.08    1.03    1.43    -4.53345   161.10103    30.24884
   131  H   1.0    0.09    1.02    1.43    -2.62105   158.75399    31.65291
   132  H   1.0    0.09    1.03    1.43     1.78579   158.59903    26.67726
   133  H   1.0    0.10    1.03    1.43     0.91652   157.35370    29.64980
   134  N   5.0   -0.12    3.60    2.15    -8.88549   169.91471    20.19739
   135  C   4.0    0.03    4.26    4.12   -10.57302   172.06711    19.95929
   136  C   4.0    0.08    3.37    3.07   -11.81268   172.04443    17.39115
   137  O   6.0   -0.31    1.25    1.80   -14.00665   171.33956    17.12848
   138  C   4.0   -0.09    4.11    3.83    -9.12549   174.51430    20.35991
   139  H   1.0    0.10    1.08    1.44    -7.06380   170.43438    20.55644
   140  H   1.0    0.04    1.06    1.44   -12.04511   171.96506    21.39737
   141  H   1.0    0.02    1.00    1.43   -10.42562   176.10167    20.17471
   142  H   1.0    0.04    1.00    1.43    -8.29779   174.50296    22.24585
   143  H   1.0    0.04    1.00    1.43    -7.64016   174.65414    18.94072
   144  N   5.0   -0.18    3.40    2.02   -12.47408   168.58245    13.84980
   145  C   4.0    0.03    4.30    4.20   -13.52666   166.10691    13.34713
   146  C   4.0    0.15    3.48    3.11   -16.23842   166.05211    14.16539
   147  O   6.0   -0.31    1.26    1.80   -17.87681   165.16583    12.78211
   148  C   4.0   -0.07    4.15    3.90   -12.03944   164.09813    14.70396
   149  H   1.0    0.13    1.11    1.45   -11.44040   168.67316    15.47497
   150  H   1.0    0.04    1.06    1.44   -13.40572   165.69684    11.33269
   151  H   1.0    0.04    1.00    1.43   -12.86903   162.25754    14.29389
   152  H   1.0    0.04    1.00    1.43   -10.08736   164.15104    14.04822
   153  H   1.0    0.07    1.03    1.43   -12.10936   164.46474    16.72974
   154  N   5.0   -0.13    3.53    2.10   -16.69006   167.02154    16.43306
   155  C   4.0    0.04    4.33    4.25   -19.21851   167.21996    17.46674
   156  C   4.0    0.09    3.31    3.06   -20.95139   168.17238    15.39938
   157  O   6.0   -0.32    1.12    1.80   -23.23985   167.85302    15.50331
   158  C   4.0   -0.05    4.30    4.19   -19.26954   169.08134    19.69094
   159  C   4.0   -0.05    4.18    3.95   -18.02043   168.20262    22.14003
   160  C   4.0   -0.01    4.24    4.08   -19.36780   165.93306    23.19261
   161  N   5.0   -0.15    3.38    2.01   -20.07834   166.24864    25.84956
   162  C   4.0    0.08    3.33    3.06   -19.38670   164.71607    27.73740
   163  N   5.0   -0.18    3.25    1.97   -17.91460   162.71674    27.29331
   164  N   5.0   -0.20    3.22    1.96   -20.17660   165.18095    30.09389
   165  H   1.0    0.11    1.10    1.44   -15.32001   167.69428    17.61225
   166  H   1.0    0.05    1.05    1.44   -19.85157   165.38693    18.16216
   167  H   1.0    0.05    1.03    1.43   -18.30200   170.80288    19.10513
   168  H   1.0    0.04    1.03    1.43   -21.23863   169.49519    20.13314
   169  H   1.0    0.06    1.03    1.43   -16.06078   167.68672    21.76775
   170  H   1.0    0.03    1.03    1.43   -18.09791   169.71629    23.53465
   171  H   1.0    0.04    1.04    1.43   -21.08745   165.60991    22.10790
   172  H   1.0    0.04    1.05    1.44   -18.13003   164.29277    23.05466
   173  H   1.0    0.06    1.06    1.44   -21.18950   167.75853    26.29554
   174  H   1.0    0.08    1.04    1.43   -17.30611   162.34636    25.50185
   175  H   1.0    0.09    1.02    1.43   -17.39682   161.55834    28.74462
   176  H   1.0    0.06    1.02    1.43   -21.30477   166.70217    30.44915
   177  H   1.0    0.07    1.02    1.43   -19.65126   164.01309    31.53386
   178  N   5.0   -0.23    3.22    1.96   -23.59890   155.07091     9.39194
   179  C   4.0    0.02    4.24    4.08   -21.94728   152.96576     8.84959
   180  C   4.0    0.06    3.26    3.05   -21.98129   152.41207     6.05468
   181  O   6.0   -0.33    1.23    1.80   -20.06511   152.69175     4.79046
   182  C   4.0   -0.06    4.36    4.32   -22.85435   150.59415    10.22342
   183  C   4.0   -0.03    4.19    3.97   -21.07044   148.31514     9.98531
   184  C   4.0   -0.08    4.08    3.76   -19.54733   147.95798    12.45140
   185  C   4.0   -0.08    4.09    3.78   -22.49908   145.90952     9.29745
   186  H   1.0    0.08    1.03    1.43   -24.31699   155.05957    11.18151
   187  H   1.0    0.04    1.05    1.44   -20.04054   153.43819     9.47131
   188  H   1.0    0.03    1.04    1.43   -23.04710   151.03068    12.22653
   189  H   1.0    0.03    1.04    1.43   -24.67982   150.04235     9.44485
   190  H   1.0    0.04    1.06    1.44   -19.74575   148.68175     8.45085
   191  H   1.0    0.04    1.00    1.43   -18.29822   146.33471    12.23787
   192  H   1.0    0.04    1.00    1.43   -18.43806   149.65685    12.80667
   193  H   1.0    0.04    1.00    1.43   -20.85691   147.63673    14.00854
   194  H   1.0    0.05    1.00    1.43   -21.15926   144.35239     9.15005
   195  H   1.0    0.03    1.00    1.43   -23.88425   145.50890    10.76766
   196  H   1.0    0.03    1.00    1.43   -23.45150   146.18920     7.49276
   197  N   5.0   -0.19    3.34    2.00   -17.24186   155.88916     2.46798
   198  C   4.0    0.02    4.37    4.32   -14.71152   155.50933     3.42229
   199  C   4.0    0.15    3.45    3.10   -13.86870   152.89395     2.68341
   200  O   6.0   -0.34    1.41    1.80   -12.05078   152.60482     1.27368
   201  C   4.0   -0.05    4.38    4.35   -14.65294   155.85137     6.28523
   202  C   4.0   -0.03    4.25    4.10   -16.46518   157.84314     7.36237
   203  C   4.0   -0.08    4.10    3.81   -16.09858   158.30423    10.17239
   204  C   4.0   -0.08    4.16    3.91   -16.20818   160.30923     5.96209
   205  H   1.0    0.08    1.07    1.44   -18.42294   156.67907     3.77000
   206  H   1.0    0.03    1.06    1.44   -13.42461   156.91339     2.63995
   207  H   1.0    0.04    1.04    1.43   -15.13859   154.05046     7.15828
   208  H   1.0    0.03    1.03    1.43   -12.74431   156.40506     6.82758
   209  H   1.0    0.04    1.07    1.44   -18.36814   157.09670     7.11104
   210  H   1.0    0.04    1.00    1.43   -17.44406   159.73287    10.79789
   211  H   1.0    0.04    1.00    1.43   -16.42172   156.54301    11.18907
   212  H   1.0    0.04    1.00    1.43   -14.17294   158.95997    10.49932
   213  H   1.0    0.04    1.00    1.43   -17.51776   161.67928     6.77089
   214  H   1.0    0.03    1.00    1.43   -14.27310   160.98953     6.15295
   215  H   1.0    0.03    1.02    1.43   -16.65227   160.00121     3.97409
   216  N   5.0   -0.15    3.49    2.07   -15.28032   151.00800     3.54324
   217  C   4.0    0.03    4.31    4.22   -14.71152   148.37183     3.01222
   218  C   4.0    0.08    3.29    3.05   -14.19373   147.96743     0.22299
   219  O   6.0   -0.31    1.12    1.80   -12.36637   146.69565    -0.46676
   220  C   4.0   -0.05    4.24    4.08   -16.90927   146.68809     3.86071
   221  C   4.0   -0.04    4.14    3.88   -16.59935   143.81570     3.36182
   222  C   4.0    0.23    3.09    3.02   -16.22519   142.19243     5.76933
   223  O   6.0   -0.31    1.15    1.80   -17.98830   140.65608     6.35515
   224  O   6.0   -0.31    1.17    1.80   -14.18428   142.43431     7.02033
   225  H   1.0    0.10    1.10    1.44   -16.85447   151.24611     4.62983
   226  H   1.0    0.05    1.06    1.44   -13.03155   147.84082     4.07803
   227  H   1.0    0.04    1.03    1.43   -17.15682   146.92808     5.89217
   228  H   1.0    0.04    1.03    1.43   -18.60813   147.29847     2.86671
   229  H   1.0    0.04    1.03    1.43   -18.29066   143.12973     2.40751
   230  H   1.0    0.05    1.03    1.43   -14.94962   143.53224     2.16185
   231  N   5.0   -0.20    3.30    1.98   -13.02399   152.21365    -4.05724
   232  C   4.0    0.02    4.39    4.36   -11.09836   153.84637    -4.98888
   233  C   4.0    0.15    3.56    3.14    -8.48109   153.09237    -4.00055
   234  O   6.0   -0.32    1.31    1.80    -6.55735   153.70086    -5.14005
   235  C   4.0   -0.05    4.50    4.53   -11.77677   156.51277    -4.27645
   236  C   4.0   -0.04    4.18    3.96   -10.70341   157.26866    -1.79713
   237  S   6.0   -0.04    2.73    3.11    -7.76299   158.79178    -2.44342
   238  C   4.0   -0.09    3.90    3.46    -8.96486   161.82479    -3.35426
   239  H   1.0    0.09    1.04    1.43   -14.04822   152.93552    -2.59270
   240  H   1.0    0.03    1.06    1.44   -11.00009   153.77834    -7.04490
   241  H   1.0    0.03    1.09    1.44   -11.04545   157.79779    -5.70886
   242  H   1.0    0.02    1.04    1.43   -13.82712   156.67718    -4.16307
   243  H   1.0    0.03    1.07    1.44   -11.96574   158.58202    -0.83526
   244  H   1.0    0.06    1.11    1.45   -10.37837   155.61137    -0.61794
   245  H   1.0    0.02    1.04    1.43    -7.38505   163.05500    -3.83425
   246  H   1.0    0.02    1.04    1.43   -10.19696   161.59425    -4.98888
   247  H   1.0    0.03    1.04    1.43   -10.02689   162.62604    -1.78012
   248  N   5.0   -0.14    3.54    2.11    -8.39227   151.76200    -1.89351
   249  C   4.0    0.04    4.36    4.31    -6.03389   150.60738    -1.12628
   250  C   4.0    0.08    3.33    3.06    -5.20808   148.67986    -3.06891
   251  O   6.0   -0.31    1.19    1.80    -3.14639   148.88584    -4.09504
   252  C   4.0   -0.05    4.37    4.33    -6.31357   149.31859     1.42296
   253  C   4.0   -0.02    4.20    4.01    -5.15895   146.68620     1.80847
   254  C   4.0   -0.08    4.06    3.72    -2.22232   146.51423     1.56658
   255  C   4.0   -0.07    4.11    3.82    -6.05468   145.75078     4.35771
   256  H   1.0    0.12    1.15    1.45    -9.87949   151.45587    -0.70676
   257  H   1.0    0.05    1.06    1.44    -4.61282   152.08892    -0.95053
   258  H   1.0    0.03    1.05    1.44    -5.44619   150.54502     2.83270
   259  H   1.0    0.06    1.05    1.44    -8.32991   149.12961     1.79902
   260  H   1.0    0.04    1.07    1.44    -5.79579   145.47488     0.26834
   261  H   1.0    0.04    1.00    1.43    -1.63650   144.56404     1.87650
   262  H   1.0    0.05    1.01    1.43    -1.66863   147.12083    -0.32125
   263  H   1.0    0.04    1.00    1.43    -1.36060   147.74066     2.98010
   264  H   1.0    0.05    1.00    1.43    -5.26856   143.87806     4.69786
   265  H   1.0    0.04    1.00    1.43    -5.41218   147.05847     5.81469
   266  H   1.0    0.05    1.00    1.43    -8.11259   145.65819     4.35393
   267  N   5.0   -0.19    3.30    1.98    -1.78390   151.80735    -7.59481
   268  C   4.0    0.03    4.37    4.32     0.76723   152.47632    -6.97120
   269  C   4.0    0.08    3.34    3.06     2.34326   150.17463    -7.18663
   270  O   6.0   -0.32    1.13    1.80     4.03268   150.00456    -8.73998
   271  C   4.0   -0.05    4.44    4.44     0.98077   153.32291    -4.28590
   272  C   4.0   -0.03    4.25    4.10     3.55457   154.60415    -4.03456
   273  C   4.0   -0.09    4.14    3.89     3.59237   156.93796    -5.73343
   274  C   4.0   -0.09    4.07    3.74     4.17818   155.33169    -1.26990
   275  H   1.0    0.12    1.06    1.44    -3.15773   152.47254    -6.41562
   276  H   1.0    0.03    1.09    1.44     1.36249   154.00511    -8.21653
   277  H   1.0    0.04    1.03    1.43    -0.51212   154.66840    -3.83425
   278  H   1.0    0.05    1.04    1.43     0.88250   151.70720    -3.01222
   279  H   1.0    0.04    1.06    1.44     5.02100   153.28134    -4.61849
   280  H   1.0    0.03    1.00    1.43     5.42540   157.86204    -5.56335
   281  H   1.0    0.03    1.01    1.43     3.27867   156.35215    -7.68363
   282  H   1.0    0.03    1.00    1.43     2.09949   158.22486    -5.13816
   283  H   1.0    0.03    1.00    1.43     6.02823   156.23498    -1.21509
   284  H   1.0    0.03    1.00    1.43     2.74010   156.63560    -0.57826
   285  H   1.0    0.03    1.00    1.43     4.19330   153.62716    -0.11527
   286  N   5.0   -0.23    3.23    1.96    17.10391   153.74621    -0.40629
   287  C   4.0    0.03    4.38    4.34    17.05667   151.49933     1.15651
   288  C   4.0    0.15    3.45    3.09    16.26109   152.12483     3.83236
   289  O   6.0   -0.30    1.24    1.80    14.63215   150.90596     4.93785
   290  C   4.0   -0.05    4.30    4.20    19.67961   150.25778     1.21509
   291  C   4.0   -0.04    4.19    3.99    19.63803   147.54791     2.13350
   292  C   4.0    0.24    3.17    3.03    17.48374   146.06637     0.92975
   293  O   6.0   -0.32    1.16    1.80    17.92594   144.92497    -1.10927
   294  O   6.0   -0.29    1.17    1.80    15.34646   146.07582     2.01445
   295  H   1.0    0.07    1.03    1.43    18.44373   153.70464    -1.79146
   296  H   1.0    0.06    1.07    1.44    15.69795   150.17652     0.35338
   297  H   1.0    0.03    1.03    1.43    20.46195   150.26723    -0.68975
   298  H   1.0    0.04    1.03    1.43    20.89659   151.33492     2.48121
   299  H   1.0    0.04    1.03    1.43    21.41437   146.63140     1.63650
   300  H   1.0    0.05    1.03    1.43    19.38103   147.52335     4.17629
   301  N   5.0   -0.15    3.56    2.12    17.44028   154.07125     4.85093
   302  C   4.0    0.03    4.48    4.50    17.19084   154.66651     7.49087
   303  C   4.0    0.15    3.57    3.15    14.72663   155.95530     8.03700
   304  O   6.0   -0.33    1.33    1.80    13.80256   155.82302    10.12137
   305  C   4.0   -0.04    4.32    4.24    19.42827   156.28412     8.32424
   306  C   4.0   -0.02    4.27    4.14    18.77821   158.43084    10.05523
   307  C   4.0    0.24    3.15    3.03    20.15582   160.81190     9.29745
   308  O   6.0   -0.30    1.16    1.80    22.39892   161.11992    10.03444
   309  O   6.0   -0.29    1.17    1.80    18.98419   162.36903     7.93874
   310  H   1.0    0.07    1.07    1.44    18.59112   155.27689     3.88339
   311  H   1.0    0.06    1.07    1.44    17.23430   152.93741     8.60959
   312  H   1.0    0.05    1.03    1.43    20.77187   155.07658     9.31635
   313  H   1.0    0.04    1.05    1.44    20.31077   157.08914     6.64617
   314  H   1.0    0.07    1.08    1.44    16.75242   158.79367     9.96641
   315  H   1.0    0.06    1.03    1.43    19.32434   157.94707    11.98086
   316  N   5.0   -0.14    3.55    2.12    13.64382   157.20252     6.18129
   317  C   4.0    0.04    4.50    4.54    11.34780   158.54990     6.71609
   318  C   4.0    0.15    3.51    3.12     9.02722   156.92284     6.34192
   319  O   6.0   -0.32    1.32    1.80     7.07324   157.37449     7.48709
   320  C   4.0   -0.04    4.39    4.37    11.19285   160.98008     5.21375
   321  C   4.0   -0.04    4.08    3.77    10.48420   160.68151     2.47743
   322  S   6.0   -0.07    2.49    3.10    10.40294   163.72586     0.90707
   323  C   4.0   -0.08    3.87    3.43    13.68917   164.62915     0.87683
   324  H   1.0    0.07    1.06    1.44    14.28822   157.30835     4.36716
   325  H   1.0    0.06    1.08    1.44    11.37615   159.15272     8.68518
   326  H   1.0    0.06    1.05    1.44     9.77366   162.19140     6.08681
   327  H   1.0    0.05    1.05    1.44    13.03533   161.89849     5.27423
   328  H   1.0    0.03    1.07    1.44    11.87693   159.49287     1.53257
   329  H   1.0    0.04    1.07    1.44     8.61715   159.82357     2.33948
   330  H   1.0    0.02    1.04    1.43    13.87248   166.46596    -0.03968
   331  H   1.0    0.04    1.04    1.43    14.37137   164.74064     2.81758
   332  H   1.0    0.03    1.04    1.43    14.76443   163.21374    -0.16441
   333  N   5.0   -0.14    3.59    2.14     9.24454   155.02745     4.73754
   334  C   4.0    0.03    4.50    4.53     7.32647   153.12071     4.62794
   335  C   4.0    0.16    3.69    3.23     7.21686   152.00200     7.21686
   336  O   6.0   -0.31    1.50    1.80     5.21753   151.88483     8.29779
   337  C   4.0   -0.06    4.40    4.37     8.02567   151.09304     2.74388
   338  C   4.0   -0.02    4.20    3.99     7.21497   148.38884     3.36938
   339  C   4.0   -0.07    4.05    3.71     4.49566   147.73311     2.45853
   340  C   4.0   -0.06    4.06    3.73     9.22375   146.51801     2.32247
   341  H   1.0    0.07    1.07    1.44    10.71097   154.77422     3.51111
   342  H   1.0    0.04    1.06    1.44     5.51800   153.89928     4.02134
   343  H   1.0    0.03    1.04    1.43     7.16017   151.57870     0.93919
   344  H   1.0    0.05    1.05    1.44    10.07791   151.07792     2.56058
   345  H   1.0    0.06    1.09    1.44     7.11671   148.19231     5.41784
   346  H   1.0    0.06    1.01    1.43     4.06669   145.78480     2.97443
   347  H   1.0    0.04    1.00    1.43     3.15773   149.01056     3.36560
   348  H   1.0    0.04    1.00    1.43     4.40117   147.95609     0.41385
   349  H   1.0    0.05    1.00    1.43     8.64361   144.59238     2.77034
   350  H   1.0    0.04    1.00    1.43     9.35981   146.75423     0.28157
   351  H   1.0    0.07    1.00    1.43    11.04167   146.92619     3.19931
   352  N   5.0   -0.14    3.57    2.13     9.38438   151.22532     8.22598
   353  C   4.0    0.03    4.45    4.47     9.51099   150.24077    10.78845
   354  C   4.0    0.17    3.66    3.21     7.56646   151.71476    12.21708
   355  O   6.0   -0.30    1.34    1.80     5.63894   150.71698    13.03155
   356  C   4.0   -0.04    4.35    4.29    12.06968   150.77367    12.02811
   357  C   4.0   -0.03    4.15    3.90    14.35436   149.36016    11.01521
   358  C   4.0    0.24    3.10    3.02    16.38581   148.95198    13.08635
   359  O   6.0   -0.31    1.26    1.80    15.65449   148.36238    15.25765
   360  O   6.0   -0.27    1.15    1.80    18.71018   149.18819    12.59502
   361  H   1.0    0.10    1.07    1.44    11.08135   151.25555     7.31324
   362  H   1.0    0.05    1.05    1.44     9.22942   148.19987    10.80923
   363  H   1.0    0.07    1.07    1.44    12.47030   152.78245    11.81079
   364  H   1.0    0.06    1.05    1.44    11.91472   150.29746    14.02555
   365  H   1.0    0.05    1.03    1.43    13.75909   147.51390    10.32168
   366  H   1.0    0.06    1.03    1.43    15.20285   150.44675     9.48453
   367  N   5.0   -0.13    3.57    2.13     8.08992   154.16195    12.39471
   368  C   4.0    0.03    4.39    4.37     6.56869   155.95908    13.79689
   369  C   4.0    0.17    3.54    3.14     3.78512   155.46586    13.27155
   370  O   6.0   -0.32    1.37    1.80     2.36972   154.56258    14.88537
   371  C   4.0   -0.05    4.26    4.11     7.31513   158.69163    13.08824
   372  C   4.0   -0.04    4.17    3.93    10.07791   159.47397    13.64382
   373  C   4.0   -0.05    4.15    3.91    10.38782   161.15583    15.96629
   374  C   4.0   -0.02    4.13    3.86    13.18273   161.73409    16.38770
   375  N   5.0   -0.11    3.98    2.82    13.65894   163.46507    18.57790
   376  H   1.0    0.09    1.08    1.44     9.61682   154.98398    11.55378
   377  H   1.0    0.05    1.06    1.44     6.89372   155.75121    15.82079
   378  H   1.0    0.07    1.05    1.44     7.01466   158.93351    11.06435
   379  H   1.0    0.04    1.03    1.43     6.10004   159.98042    14.13893
   380  H   1.0    0.05    1.03    1.43    11.19663   157.77133    13.95374
   381  H   1.0    0.05    1.03    1.43    10.80923   160.51143    12.02244
   382  H   1.0    0.05    1.03    1.43     9.38060   162.93028    15.68095
   383  H   1.0    0.04    1.03    1.43     9.65272   160.18829    17.62925
   384  H   1.0    0.05    1.02    1.43    14.18050   159.96908    16.75053
   385  H   1.0    0.07    1.02    1.43    13.93862   162.63548    14.69640
   386  H   1.0    0.06    1.01    1.43    15.55433   163.38949    19.09379
   387  H   1.0    0.07    1.02    1.43    13.20352   165.31323    18.08657
   388  H   1.0    0.06    1.01    1.43    12.55723   162.92461    20.11424
   389  N   5.0   -0.13    3.55    2.12     3.01411   155.98176    10.96797
   390  C   4.0    0.04    4.55    4.60     0.41007   155.63216    10.35381
   391  C   4.0    0.17    3.80    3.33    -0.48566   153.04513    11.11726
   392  O   6.0   -0.32    1.55    1.80    -2.15996   152.76923    12.65172
   393  C   4.0   -0.05    4.52    4.57     0.02646   155.94396     7.56457
   394  C   4.0   -0.03    4.30    4.19    -2.63806   155.31091     6.81057
   395  C   4.0   -0.09    4.11    3.83    -3.53946   157.02678     4.68841
   396  C   4.0   -0.08    4.26    4.13    -2.50389   152.59726     6.02445
   397  H   1.0    0.11    1.09    1.44     4.12716   156.62616     9.53367
   398  H   1.0    0.04    1.06    1.44    -0.68219   157.05890    11.36103
   399  H   1.0    0.04    1.04    1.43     0.40440   157.89983     7.03923
   400  H   1.0    0.05    1.05    1.44     1.30580   154.68352     6.55735
   401  H   1.0    0.04    1.06    1.44    -4.01189   155.58870     8.32046
   402  H   1.0    0.04    1.00    1.43    -5.47265   156.51655     4.18952
   403  H   1.0    0.03    1.00    1.43    -3.47332   158.98264     5.33281
   404  H   1.0    0.04    1.00    1.43    -2.30547   156.78300     3.05758
   405  H   1.0    0.03    1.01    1.43    -4.37850   151.97365     5.44241
   406  H   1.0    0.03    1.01    1.43    -1.18486   152.41963     4.45219
   407  H   1.0    0.05    1.14    1.45    -1.85193   151.46909     7.61938
   408  N   5.0   -0.15    3.75    2.34     0.60849   151.11194    10.04767
   409  C   4.0    0.04    4.58    4.64    -0.52723   148.74411    10.44452
   410  C   4.0    0.17    3.62    3.18    -1.09604   148.32459    13.19785
   411  O   6.0   -0.29    1.29    1.80    -2.88561   147.02068    13.77232
   412  C   4.0   -0.04    4.37    4.32     1.03746   146.63517     9.31824
   413  C   4.0   -0.02    4.25    4.09     3.72276   146.38573    10.24042
   414  C   4.0    0.24    3.15    3.03     5.10226   144.39585     8.76077
   415  O   6.0   -0.32    1.24    1.80     4.21220   143.82893     6.65561
   416  O   6.0   -0.31    1.18    1.80     7.02600   143.38674     9.68485
   417  H   1.0    0.12    1.14    1.45     2.19775   151.14973     8.95730
   418  H   1.0    0.04    1.08    1.44    -2.32247   148.68175     9.43540
   419  H   1.0    0.06    1.04    1.43     0.09260   144.85127     9.73209
   420  H   1.0    0.05    1.04    1.43     1.12817   146.92808     7.28111
   421  H   1.0    0.08    1.06    1.44     4.70353   148.18097    10.00043
   422  H   1.0    0.05    1.03    1.43     3.72087   145.84338    12.22842
   423  N   5.0   -0.13    3.67    2.23     0.30047   149.45654    14.93261
   424  C   4.0    0.04    4.58    4.64    -0.38550   148.98410    17.56500
   425  C   4.0    0.16    3.58    3.15    -2.85349   150.28046    18.15649
   426  O   6.0   -0.32    1.30    1.80    -4.52589   149.22977    19.40749
   427  C   4.0   -0.03    4.28    4.17     1.62138   149.84582    19.47930
   428  C   4.0   -0.06    4.20    4.00     4.09126   150.47699    18.15649
   429  C   4.0   -0.07    4.19    3.98     0.69731   152.07759    21.07989
   430  H   1.0    0.11    1.11    1.45     1.80280   150.62250    14.61514
   431  H   1.0    0.05    1.07    1.44    -0.54046   146.93753    17.74075
   432  H   1.0    0.04    1.06    1.44     1.97098   148.28113    20.77376
   433  H   1.0    0.05    1.00    1.43     5.47076   151.07981    19.56244
   434  H   1.0    0.05    1.00    1.43     4.77534   148.79891    17.17572
   435  H   1.0    0.08    1.06    1.44     3.75866   151.99444    16.80344
   436  H   1.0    0.05    1.00    1.43     2.18263   152.61427    22.40270
   437  H   1.0    0.05    1.01    1.43     0.25889   153.65929    19.83456
   438  H   1.0    0.05    1.01    1.43    -0.99211   151.50878    22.11357
   439  N   5.0   -0.14    3.67    2.24    -3.03490   152.58214    17.18517
   440  C   4.0    0.04    4.59    4.66    -5.11927   154.26589    17.68217
   441  C   4.0    0.16    3.65    3.20    -7.57591   153.06969    16.96407
   442  O   6.0   -0.32    1.33    1.80    -9.46375   153.38339    18.25475
   443  C   4.0   -0.02    4.36    4.31    -4.77345   156.67907    16.21007
   444  C   4.0   -0.07    4.23    4.06    -6.80679   156.94174    14.19373
   445  C   4.0   -0.07    4.12    3.84    -4.66762   158.89005    18.02232
   446  H   1.0    0.12    1.13    1.45    -1.71776   153.35315    16.00787
   447  H   1.0    0.05    1.08    1.44    -5.14005   154.66840    19.70228
   448  H   1.0    0.05    1.08    1.44    -2.98577   156.65450    15.18773
   449  H   1.0    0.03    1.00    1.43    -6.50633   158.70107    13.16383
   450  H   1.0    0.05    1.02    1.43    -6.68207   155.34114    12.90305
   451  H   1.0    0.05    1.02    1.43    -8.65494   156.96820    15.10458
   452  H   1.0    0.04    1.00    1.43    -4.41629   160.62860    16.94517
   453  H   1.0    0.05    1.00    1.43    -6.43074   158.97131    19.08623
   454  H   1.0    0.05    1.00    1.43    -3.08214   158.62738    19.30922
   455  N   5.0   -0.14    3.74    2.32    -7.51733   151.66563    14.90994
   456  C   4.0    0.04    4.65    4.72    -9.68485   150.30124    14.12192
   457  C   4.0    0.16    3.58    3.16   -10.43696   148.33593    16.06645
   458  O   6.0   -0.34    1.46    1.80   -12.66494   148.06570    16.66549
   459  C   4.0   -0.02    4.40    4.38    -9.17273   149.06536    11.68607
   460  C   4.0   -0.07    4.13    3.86   -11.66339   148.47010    10.34814
   461  C   4.0   -0.07    4.26    4.12    -7.53623   150.78879    10.13460
   462  H   1.0    0.09    1.14    1.45    -5.98098   151.45209    13.76665
   463  H   1.0    0.05    1.07    1.44   -11.23442   151.64295    13.91972
   464  H   1.0    0.06    1.07    1.44    -8.18251   147.27957    11.95441
   465  H   1.0    0.05    1.00    1.43   -11.25521   147.55547     8.54723
   466  H   1.0    0.05    1.00    1.43   -12.78022   147.21343    11.53867
   467  H   1.0    0.04    1.00    1.43   -12.68951   150.22754    10.02689
   468  H   1.0    0.04    1.00    1.43    -7.14505   149.89117     8.32235
   469  H   1.0    0.04    1.00    1.43    -8.53022   152.56891     9.83602
   470  H   1.0    0.06    1.05    1.44    -5.77311   151.12894    11.14560
   471  N   5.0   -0.12    3.59    2.15    -8.64172   146.97722    17.11903
   472  C   4.0    0.05    4.63    4.70    -9.43351   145.34827    19.11269
   473  C   4.0    0.16    3.61    3.17   -10.48987   146.77690    21.28398
   474  O   6.0   -0.29    1.37    1.80   -12.40794   146.02857    22.35357
   475  C   4.0   -0.03    4.40    4.38    -7.36048   143.60783    19.90826
   476  C   4.0    0.14    3.28    3.05    -7.04301   141.55937    18.06578
   477  O   6.0   -0.28    1.22    1.80    -6.79356   142.09794    15.77543
   478  N   5.0   -0.19    3.16    1.95    -7.19230   139.15942    18.95962
   479  H   1.0    0.12    1.07    1.44    -6.77089   146.97533    16.65604
   480  H   1.0    0.06    1.10    1.44   -10.94529   144.15396    18.38325
   481  H   1.0    0.06    1.04    1.43    -5.59170   144.65663    20.03487
   482  H   1.0    0.05    1.05    1.44    -7.82158   142.78013    21.73752
   483  H   1.0    0.09    1.02    1.43    -6.98443   137.66843    17.75587
   484  H   1.0    0.09    1.02    1.43    -7.51166   138.84761    20.83423
   485  N   5.0   -0.13    3.57    2.13    -9.28989   148.89907    21.86980
   486  C   4.0    0.04    4.44    4.45   -10.23854   150.56392    23.82755
   487  C   4.0    0.17    3.54    3.13   -13.10336   150.57903    23.64614
   488  O   6.0   -0.27    1.23    1.80   -14.43184   150.45998    25.55665
   489  C   4.0   -0.04    4.30    4.20    -9.14438   153.22654    23.54032
   490  C   4.0   -0.03    4.21    4.01    -6.35515   153.40417    24.22629
   491  C   4.0    0.24    3.13    3.03    -5.64461   155.97609    25.25052
   492  O   6.0   -0.31    1.19    1.80    -5.63516   157.80346    23.74819
   493  O   6.0   -0.29    1.21    1.80    -5.10793   156.15372    27.56165
   494  H   1.0    0.11    1.10    1.44    -7.66851   149.50756    21.02509
   495  H   1.0    0.06    1.06    1.44    -9.66595   149.91574    25.69649
   496  H   1.0    0.08    1.09    1.44    -9.35036   153.81991    21.57878
   497  H   1.0    0.06    1.04    1.43   -10.17995   154.50777    24.77620
   498  H   1.0    0.05    1.03    1.43    -5.92618   152.00011    25.67004
   499  H   1.0    0.05    1.04    1.43    -5.22320   153.05079    22.54254
   500  N   5.0   -0.12    3.61    2.17   -14.02177   150.62250    21.31044
   501  C   4.0    0.04    4.47    4.50   -16.69195   150.45053    20.81722
   502  C   4.0    0.16    3.50    3.11   -17.50831   147.72744    20.82667
   503  O   6.0   -0.29    1.43    1.80   -18.95017   146.99044    22.48585
   504  C   4.0   -0.05    4.29    4.17   -17.35713   151.76011    18.34546
   505  C   4.0   -0.05    4.19    3.98   -17.00375   154.62116    18.54766
   506  C   4.0   -0.01    4.19    3.97   -19.48874   156.11404    18.78766
   507  N   5.0   -0.14    3.40    2.02   -20.03676   157.41417    16.40660
   508  C   4.0    0.09    3.33    3.06   -22.33467   157.88282    15.49764
   509  N   5.0   -0.19    3.24    1.97   -24.39447   157.17229    16.77132
   510  N   5.0   -0.19    3.24    1.97   -22.55199   159.05445    13.28855
   511  H   1.0    0.11    1.09    1.44   -12.94273   150.77745    19.72118
   512  H   1.0    0.06    1.07    1.44   -17.73319   151.44264    22.29310
   513  H   1.0    0.05    1.03    1.43   -16.13070   151.05713    16.84880
   514  H   1.0    0.04    1.03    1.43   -19.32623   151.37839    17.87870
   515  H   1.0    0.05    1.04    1.43   -15.86803   155.02934    20.21629
   516  H   1.0    0.04    1.03    1.43   -16.03621   155.28823    16.85636
   517  H   1.0    0.04    1.03    1.43   -21.03832   154.82336    19.20906
   518  H   1.0    0.05    1.02    1.43   -19.31489   157.51811    20.28432
   519  H   1.0    0.07    1.06    1.44   -18.53254   158.00944    15.35780
   520  H   1.0    0.08    1.03    1.43   -24.21684   156.25955    18.46073
   521  H   1.0    0.07    1.02    1.43   -26.14625   157.54267    16.05511
   522  H   1.0    0.08    1.03    1.43   -20.97218   159.57980    12.31723
   523  H   1.0    0.07    1.02    1.43   -24.29810   159.42862    12.56290
   524  N   5.0   -0.14    3.49    2.07   -16.54455   146.22510    19.04844
   525  C   4.0    0.03    4.37    4.34   -17.30422   143.56437    18.79710
   526  C   4.0    0.17    3.51    3.12   -18.43617   142.48912    21.24619
   527  O   6.0   -0.29    1.24    1.80   -20.42605   141.28347    21.21973
   528  C   4.0   -0.05    4.24    4.08   -15.10836   141.89574    17.90137
   529  C   4.0   -0.05    4.12    3.85   -14.15972   142.33227    15.17261
   530  C   4.0   -0.01    4.17    3.94   -15.78299   141.08505    13.09580
   531  N   5.0   -0.14    3.37    2.01   -16.24408   138.36573    13.42083
   532  C   4.0    0.09    3.33    3.06   -15.78299   136.58939    11.68607
   533  N   5.0   -0.17    3.27    1.97   -14.81734   137.18466     9.44674
   534  N   5.0   -0.19    3.23    1.96   -16.30267   134.18944    12.18684
   535  H   1.0    0.12    1.16    1.45   -15.23497   146.78635    17.75020
   536  H   1.0    0.04    1.06    1.44   -18.77632   143.50579    17.35713
   537  H   1.0    0.05    1.04    1.43   -13.50776   142.22077    19.15615
   538  H   1.0    0.04    1.04    1.43   -15.70929   139.93043    18.02232
   539  H   1.0    0.05    1.03    1.43   -14.13704   144.35805    14.80411
   540  H   1.0    0.06    1.03    1.43   -12.25487   141.56504    15.01009
   541  H   1.0    0.04    1.02    1.43   -17.61980   142.01857    13.05801
   542  H   1.0    0.06    1.05    1.44   -14.82868   141.33260    11.28733
   543  H   1.0    0.07    1.06    1.44   -16.97541   137.78748    15.10836
   544  H   1.0    0.11    1.06    1.44   -14.41483   139.02336     9.02911
   545  H   1.0    0.08    1.03    1.43   -14.47719   135.80327     8.14661
   546  H   1.0    0.07    1.03    1.43   -17.05289   133.70189    13.89327
   547  H   1.0    0.07    1.03    1.43   -15.95118   132.83073    10.86403
   548  N   5.0   -0.12    3.56    2.12   -17.17572   142.95588    23.36079
   549  C   4.0    0.04    4.46    4.47   -18.20940   142.21322    25.78720
   550  C   4.0    0.16    3.45    3.10   -20.70951   143.54169    26.34089
   551  O   6.0   -0.28    1.28    1.80   -22.70128   142.37195    26.12735
   552  C   4.0   -0.05    4.29    4.18   -16.26676   142.58738    27.87724
   553  C   4.0   -0.03    4.21    4.02   -14.68128   140.22711    28.29109
   554  C   4.0    0.25    3.13    3.03   -11.87126   140.74301    28.49140
   555  O   6.0   -0.28    1.18    1.80   -11.04923   141.98834    30.31498
   556  O   6.0   -0.27    1.20    1.80   -10.46530   139.84917    26.83600
   557  H   1.0    0.11    1.08    1.44   -15.46174   143.83271    23.44961
   558  H   1.0    0.05    1.07    1.44   -18.64593   140.20066    25.74185
   559  H   1.0    0.07    1.04    1.43   -15.00442   144.13318    27.36323
   560  H   1.0    0.04    1.03    1.43   -17.23997   143.02958    29.63846
   561  H   1.0    0.04    1.03    1.43   -15.28032   139.32571    30.04286
   562  H   1.0    0.05    1.04    1.43   -14.97230   138.94588    26.70372
   563  N   5.0   -0.13    3.48    2.06   -20.60557   145.97944    26.95505
   564  C   4.0    0.03    4.32    4.23   -22.85813   147.48177    27.52008
   565  C   4.0    0.10    3.30    3.05   -25.13147   146.59171    26.02909
   566  O   6.0   -0.31    1.12    1.80   -27.15347   146.22510    27.09678
   567  C   4.0   -0.04    4.27    4.14   -22.41215   150.28424    26.97584
   568  C   4.0   -0.03    4.18    3.97   -20.25975   151.46153    28.48951
   569  C   4.0    0.24    3.11    3.02   -19.47741   154.08258    27.53520
   570  O   6.0   -0.31    1.17    1.80   -21.15170   155.73798    27.29520
   571  O   6.0   -0.27    1.17    1.80   -17.18706   154.50021    27.06843
   572  H   1.0    0.09    1.07    1.44   -18.96718   146.98666    27.07977
   573  H   1.0    0.04    1.06    1.44   -23.25875   147.25123    29.52697
   574  H   1.0    0.06    1.03    1.43   -21.96051   150.50155    24.97840
   575  H   1.0    0.05    1.03    1.43   -24.13180   151.32358    27.42748
   576  H   1.0    0.04    1.03    1.43   -20.85502   151.65618    30.45104
   577  H   1.0    0.06    1.04    1.43   -18.61191   150.22943    28.37235
   578  N   5.0   -0.23    3.22    1.96    15.20963   151.13045    38.22664
   579  C   4.0    0.02    4.31    4.22    12.64224   151.95593    37.69562
   580  C   4.0    0.14    3.45    3.09    12.03312   151.70972    34.90639
   581  O   6.0   -0.32    1.24    1.80    10.01804   150.76306    34.21664
   582  C   4.0   -0.05    4.25    4.09    12.28295   154.70111    38.54411
   583  C   4.0   -0.03    4.14    3.88     9.64043   155.86891    38.04522
   584  C   4.0    0.23    3.08    3.02     8.04755   156.35651    40.45273
   585  O   6.0   -0.31    1.15    1.80     7.59859   158.65158    41.03855
   586  O   6.0   -0.31    1.14    1.80     7.23658   154.46809    41.70373
   587  H   1.0    0.06    1.03    1.43    16.20291   152.37464    39.31323
   588  H   1.0    0.04    1.06    1.44    11.34238   150.76654    38.76143
   589  H   1.0    0.04    1.03    1.43    12.61457   154.79550    40.57557
   590  H   1.0    0.03    1.03    1.43    13.66098   155.86718    37.55011
   591  H   1.0    0.05    1.03    1.43     9.89202   157.67661    37.09091
   592  H   1.0    0.06    1.03    1.43     8.57008   154.58193    36.84525
   593  N   5.0   -0.15    3.47    2.06    13.77677   152.54905    33.30579
   594  C   4.0    0.03    4.36    4.31    13.24129   152.62691    30.61104
   595  C   4.0    0.09    3.29    3.05    13.36485   150.00255    29.61704
   596  O   6.0   -0.31    1.15    1.80    11.87646   149.26897    28.03345
   597  C   4.0   -0.05    4.28    4.15    15.07782   154.32254    29.14650
   598  C   4.0   -0.03    4.18    3.96    13.73588   156.00068    27.17363
   599  C   4.0    0.24    3.11    3.03    15.33098   156.53738    24.85116
   600  O   6.0   -0.30    1.19    1.80    17.59584   155.83419    24.82092
   601  O   6.0   -0.29    1.17    1.80    14.30629   157.66140    23.03891
   602  H   1.0    0.07    1.06    1.44    15.53117   153.17270    33.80468
   603  H   1.0    0.06    1.07    1.44    11.38064   153.46331    30.32002
   604  H   1.0    0.04    1.03    1.43    16.05441   155.55673    30.47498
   605  H   1.0    0.06    1.04    1.43    16.43999   153.13677    28.15440
   606  H   1.0    0.07    1.03    1.43    12.01776   155.05060    26.55191
   607  H   1.0    0.04    1.03    1.43    13.26599   157.80597    28.04668
   608  N   5.0   -0.20    3.23    1.96    12.41859   144.78822    32.78989
   609  C   4.0    0.02    4.33    4.25    10.23947   143.32312    33.55712
   610  C   4.0    0.15    3.57    3.15     8.15728   143.57170    31.61449
   611  O   6.0   -0.32    1.44    1.80     7.30482   141.68324    30.58836
   612  C   4.0   -0.05    4.39    4.36     9.26318   144.20972    36.10636
   613  C   4.0   -0.02    4.22    4.05     6.40615   144.52598    36.49187
   614  C   4.0   -0.08    4.06    3.72     4.78891   142.06877    36.24998
   615  C   4.0   -0.08    4.11    3.82     6.04392   145.76942    39.04111
   616  H   1.0    0.08    1.03    1.43    12.89707   146.22925    33.97664
   617  H   1.0    0.03    1.06    1.44    10.81198   141.35166    33.73287
   618  H   1.0    0.02    1.03    1.43     9.89161   142.84533    37.51610
   619  H   1.0    0.04    1.05    1.44    10.10769   146.05041    36.48242
   620  H   1.0    0.05    1.09    1.44     5.67554   145.68316    34.95174
   621  H   1.0    0.04    1.00    1.43     2.80708   142.53653    36.55990
   622  H   1.0    0.05    1.01    1.43     5.03740   141.28596    34.36215
   623  H   1.0    0.03    1.00    1.43     5.42017   140.70928    37.66350
   624  H   1.0    0.03    1.00    1.43     4.02904   146.02497    39.38126
   625  H   1.0    0.03    1.00    1.43     6.85516   144.55914    40.49809
   626  H   1.0    0.04    1.00    1.43     6.99269   147.59792    39.03733
   627  N   5.0   -0.14    3.58    2.14     7.33186   145.91393    31.16662
   628  C   4.0    0.03    4.44    4.44     5.41938   146.47913    29.29579
   629  C   4.0    0.17    3.58    3.16     5.77442   144.62232    27.15284
   630  O   6.0   -0.31    1.28    1.80     4.01314   143.34803    26.34971
   631  C   4.0   -0.04    4.36    4.31     5.82937   149.12056    28.25077
   632  C   4.0   -0.03    4.16    3.91     5.17497   151.33569    29.94775
   633  C   4.0    0.24    3.11    3.02     5.70240   153.87441    28.60415
   634  O   6.0   -0.29    1.19    1.80     6.83648   153.83935    26.50845
   635  O   6.0   -0.30    1.17    1.80     5.00714   155.91673    29.62460
   636  H   1.0    0.09    1.07    1.44     7.97426   147.47635    32.09637
   637  H   1.0    0.04    1.05    1.44     3.53060   146.36729    30.11026
   638  H   1.0    0.08    1.05    1.44     7.82419   149.30646    27.77456
   639  H   1.0    0.05    1.04    1.43     4.67841   149.31156    26.55380
   640  H   1.0    0.05    1.03    1.43     3.17477   151.25763    30.43530
   641  H   1.0    0.06    1.03    1.43     6.32055   151.25253    31.65795
   642  N   5.0   -0.13    3.56    2.12     8.12477   144.48294    26.27790
   643  C   4.0    0.03    4.41    4.39     8.93325   142.70474    24.35983
   644  C   4.0    0.16    3.56    3.14     8.11328   140.05997    25.05714
   645  O   6.0   -0.31    1.42    1.80     6.50597   138.93899    23.79480
   646  C   4.0   -0.06    4.27    4.14    11.81313   142.78333    23.99133
   647  C   4.0   -0.05    4.16    3.91    12.84336   145.22160    22.78380
   648  C   4.0   -0.05    4.14    3.89    15.75196   145.32725    22.72521
   649  C   4.0   -0.03    4.11    3.83    16.74659   148.03265    22.54569
   650  N   5.0   -0.10    4.03    2.95    16.22828   149.22873    20.03424
   651  H   1.0    0.09    1.07    1.44     9.55612   145.62041    26.88828
   652  H   1.0    0.05    1.06    1.44     8.06223   143.22944    22.56837
   653  H   1.0    0.04    1.03    1.43    12.71044   142.58385    25.83570
   654  H   1.0    0.04    1.03    1.43    12.35486   141.21587    22.77057
   655  H   1.0    0.04    1.03    1.43    12.16581   145.34439    20.84305
   656  H   1.0    0.06    1.03    1.43    12.17340   146.83909    23.86661
   657  H   1.0    0.04    1.03    1.43    16.49476   144.48598    24.45242
   658  H   1.0    0.05    1.03    1.43    16.43268   144.28398    21.08493
   659  H   1.0    0.05    1.02    1.43    15.83756   149.17937    23.99511
   660  H   1.0    0.06    1.02    1.43    18.78528   148.01865    22.83482
   661  H   1.0    0.08    1.01    1.43    16.93775   151.06228    20.00401
   662  H   1.0    0.11    1.05    1.44    17.08528   148.18842    18.60372
   663  H   1.0    0.07    1.02    1.43    14.29058   149.28916    19.70543
   664  N   5.0   -0.13    3.60    2.15     9.15368   139.04253    27.08859
   665  C   4.0    0.04    4.65    4.71     8.45745   136.49870    27.71220
   666  C   4.0    0.17    3.71    3.25     5.67612   136.28466    27.49677
   667  O   6.0   -0.31    1.37    1.80     4.68412   134.90662    25.94342
   668  C   4.0   -0.05    4.49    4.52     9.08386   135.89047    30.39750
   669  C   4.0   -0.03    4.25    4.10     8.90654   133.02087    30.64884
   670  C   4.0   -0.09    4.14    3.89    10.90878   131.82124    28.94997
   671  C   4.0   -0.10    4.06    3.74     9.22480   132.11704    33.41350
   672  H   1.0    0.08    1.06    1.44    10.41666   139.89971    28.26778
   673  H   1.0    0.04    1.09    1.44     9.48379   135.21879    26.46687
   674  H   1.0    0.03    1.03    1.43    10.99552   136.51060    30.84915
   675  H   1.0    0.04    1.05    1.44     7.73374   136.78343    31.67118
   676  H   1.0    0.04    1.06    1.44     7.02774   132.41231    30.06491
   677  H   1.0    0.02    1.00    1.43    10.79254   129.77174    29.12005
   678  H   1.0    0.03    1.01    1.43    10.55830   132.38581    26.99977
   679  H   1.0    0.03    1.00    1.43    12.76971   132.47066    29.54524
   680  H   1.0    0.02    1.00    1.43     9.08205   130.06321    33.46831
   681  H   1.0    0.02    1.00    1.43    11.07306   132.71050    34.10514
   682  H   1.0    0.03    1.00    1.43     7.74108   132.95621    34.56813
   683  N   5.0   -0.14    3.59    2.15     4.44000   137.72278    29.11249
   684  C   4.0    0.04    4.42    4.41     1.71896   137.83615    29.23154
   685  C   4.0    0.17    3.54    3.13     0.38217   137.51255    26.68419
   686  O   6.0   -0.28    1.30    1.80    -1.47805   136.12736    26.48955
   687  C   4.0   -0.04    4.25    4.10     0.90478   140.28099    30.57325
   688  C   4.0   -0.03    4.17    3.93    -1.96316   140.72575    30.72820
   689  C   4.0    0.25    3.12    3.03    -3.48317   138.36514    31.47465
   690  O   6.0   -0.24    1.17    1.80    -5.22892   137.63176    30.03845
   691  O   6.0   -0.30    1.17    1.80    -2.91416   137.23798    33.47776
   692  H   1.0    0.10    1.12    1.45     5.30110   138.86654    30.40317
   693  H   1.0    0.06    1.07    1.44     1.08145   136.21417    30.33136
   694  H   1.0    0.04    1.03    1.43     1.62227   140.23115    32.50266
   695  H   1.0    0.07    1.04    1.43     1.72031   141.87874    29.56035
   696  H   1.0    0.05    1.03    1.43    -2.33219   142.18040    32.13983
   697  H   1.0    0.06    1.03    1.43    -2.63710   141.34615    28.88383
   698  N   5.0   -0.13    3.56    2.13     1.28837   138.73064    24.71132
   699  C   4.0    0.04    4.63    4.70    -0.05580   138.32621    22.36995
   700  C   4.0    0.16    3.59    3.16     0.39033   135.65963    21.44209
   701  O   6.0   -0.31    1.41    1.80    -1.39674   134.28021    20.86950
   702  C   4.0   -0.02    4.33    4.25     0.55630   140.24434    20.31203
   703  C   4.0   -0.07    4.16    3.92     0.36714   142.87602    21.33816
   704  C   4.0   -0.07    4.22    4.05     3.12865   139.74113    19.22733
   705  H   1.0    0.12    1.09    1.44     2.81436   139.90730    24.67541
   706  H   1.0    0.06    1.08    1.44    -2.04902   138.60416    22.80647
   707  H   1.0    0.05    1.06    1.44    -0.81242   140.06573    18.78325
   708  H   1.0    0.04    1.00    1.43     0.81236   144.21407    19.83771
   709  H   1.0    0.05    1.00    1.43    -1.55159   143.19607    22.01657
   710  H   1.0    0.06    1.02    1.43     1.70578   143.08945    22.88962
   711  H   1.0    0.04    1.00    1.43     3.52301   141.13472    17.76279
   712  H   1.0    0.07    1.03    1.43     4.53003   139.88560    20.72966
   713  H   1.0    0.05    1.03    1.43     3.15631   137.84640    18.42042
   714  N   5.0   -0.13    3.62    2.18     2.77033   134.91397    21.33249
   715  C   4.0    0.04    4.62    4.69     3.30187   132.37265    20.54258
   716  C   4.0    0.17    3.71    3.24     1.38839   130.60798    21.76145
   717  O   6.0   -0.29    1.46    1.80    -0.06384   129.36255    20.46132
   718  C   4.0   -0.02    4.37    4.32     5.94124   131.60380    21.24367
   719  C   4.0   -0.08    4.19    3.98     6.19108   128.75598    21.18131
   720  C   4.0   -0.08    4.16    3.92     7.75374   132.80052    19.42008
   721  H   1.0    0.10    1.08    1.44     4.30434   135.99871    21.76523
   722  H   1.0    0.05    1.07    1.44     3.11712   132.25674    18.49412
   723  H   1.0    0.06    1.07    1.44     6.38119   132.23354    23.15418
   724  H   1.0    0.03    1.00    1.43     8.11762   128.24158    21.69531
   725  H   1.0    0.04    1.02    1.43     4.86263   127.93659    22.52490
   726  H   1.0    0.04    1.00    1.43     5.76830   128.08796    19.28024
   727  H   1.0    0.04    1.00    1.43     9.67378   132.24841    19.92275
   728  H   1.0    0.04    1.00    1.43     7.31278   132.15391    17.51524
   729  H   1.0    0.04    1.00    1.43     7.56081   134.84740    19.52969
   730  N   5.0   -0.14    3.57    2.13     1.35947   130.53521    24.25211
   731  C   4.0    0.04    4.62    4.68    -0.57850   129.16654    25.52768
   732  C   4.0    0.17    3.66    3.20    -3.04967   129.28185    24.08015
   733  O   6.0   -0.28    1.38    1.80    -3.64764   127.48648    22.80269
   734  C   4.0   -0.02    4.36    4.31    -0.87497   130.12325    28.16007
   735  C   4.0   -0.08    4.14    3.88    -3.06708   128.79439    29.48476
   736  C   4.0   -0.08    4.15    3.90     1.61261   129.74535    29.56980
   737  H   1.0    0.09    1.09    1.44     2.64404   131.39956    25.39918
   738  H   1.0    0.04    1.07    1.44    -0.04168   127.17860    25.58815
   739  H   1.0    0.07    1.07    1.44    -1.32496   132.13307    28.14495
   740  H   1.0    0.04    1.00    1.43    -3.23796   129.53021    31.40095
   741  H   1.0    0.05    1.01    1.43    -4.80209   129.15675    28.43597
   742  H   1.0    0.03    1.00    1.43    -2.68911   126.76942    29.53957
   743  H   1.0    0.03    1.00    1.43     1.40382   130.44196    31.49732
   744  H   1.0    0.03    1.00    1.43     2.07035   127.73760    29.59437
   745  H   1.0    0.04    1.01    1.43     3.09864   130.79233    28.60037
   746  N   5.0   -0.13    3.49    2.07    -4.48234   131.32441    24.17463
   747  C   4.0    0.05    4.57    4.63    -6.87128   131.27223    22.79135
   748  C   4.0    0.16    3.57    3.15    -6.75135   130.09668    20.21188
   749  O   6.0   -0.29    1.25    1.80    -8.40756   128.62643    19.47489
   750  C   4.0   -0.03    4.42    4.41    -7.98810   133.86561    22.51357
   751  C   4.0    0.16    3.29    3.05    -9.86856   134.35778    24.47321
   752  O   6.0   -0.28    1.24    1.80    -9.60098   133.44175    26.61238
   753  N   5.0   -0.17    3.21    1.96   -11.83215   135.76421    23.80803
   754  H   1.0    0.11    1.06    1.44    -4.07663   132.94930    25.12895
   755  H   1.0    0.06    1.08    1.44    -8.08841   130.07872    23.94787
   756  H   1.0    0.06    1.04    1.43    -6.49390   135.27447    22.67608
   757  H   1.0    0.04    1.05    1.44    -8.90670   134.02065    20.67675
   758  H   1.0    0.10    1.03    1.43   -13.20716   136.17185    25.09682
   759  H   1.0    0.08    1.03    1.43   -11.96861   136.43870    22.00712
   760  N   5.0   -0.13    3.57    2.13    -4.77178   130.80417    18.84750
   761  C   4.0    0.05    4.37    4.32    -4.29383   129.81032    16.36440
   762  C   4.0    0.10    3.29    3.05    -4.77332   126.98426    16.34928
   763  O   6.0   -0.30    1.12    1.80    -5.69987   125.93502    14.50680
   764  C   4.0   -0.04    4.34    4.27    -1.60465   130.43543    15.56882
   765  C   4.0   -0.03    4.22    4.04    -1.29820   133.14319    14.77514
   766  C   4.0    0.24    3.14    3.03     0.01979   133.35109    12.24101
   767  O   6.0   -0.31    1.19    1.80     2.37293   133.46976    12.23913
   768  O   6.0   -0.29    1.17    1.80    -1.27747   133.37562    10.24924
   769  H   1.0    0.12    1.13    1.45    -3.45465   132.08396    19.43520
   770  H   1.0    0.06    1.06    1.44    -5.55550   130.66749    14.98112
   771  H   1.0    0.08    1.09    1.44    -0.33860   130.08852    17.15619
   772  H   1.0    0.05    1.04    1.43    -1.08118   129.24074    13.97578
   773  H   1.0    0.05    1.04    1.43    -3.15468   134.02083    14.61451
   774  H   1.0    0.06    1.03    1.43    -0.16820   134.14043    16.17731
   775  N   5.0   -0.23    3.30    1.98    23.45963   140.92523    23.02001
   776  C   4.0    0.03    4.35    4.29    22.74487   143.43268    22.26223
   777  C   4.0    0.15    3.44    3.09    21.59325   143.31639    19.62795
   778  O   6.0   -0.28    1.25    1.80    20.48190   145.14071    18.71900
   779  C   4.0   -0.04    4.34    4.27    25.05736   145.15901    22.30947
   780  C   4.0    0.15    3.24    3.04    24.39422   147.83523    22.99545
   781  O   6.0   -0.28    1.20    1.80    24.47301   149.52884    21.39863
   782  N   5.0   -0.20    3.18    1.95    23.68767   148.23661    25.37272
   783  H   1.0    0.07    1.03    1.43    25.18299   140.36884    22.35861
   784  H   1.0    0.04    1.06    1.44    21.39248   144.28768    23.56047
   785  H   1.0    0.02    1.04    1.43    26.39752   144.45291    23.70598
   786  H   1.0    0.06    1.04    1.43    25.92773   145.17365    20.44243
   787  H   1.0    0.09    1.02    1.43    23.21437   150.01331    25.95098
   788  H   1.0    0.06    1.03    1.43    23.61807   146.76680    26.61805
   789  N   5.0   -0.14    3.52    2.09    21.83392   141.14811    18.40152
   790  C   4.0    0.04    4.56    4.62    21.04862   140.97089    15.79181
   791  C   4.0    0.14    3.51    3.12    19.01605   139.09823    15.38741
   792  O   6.0   -0.30    1.33    1.80    19.46579   136.87253    14.97923
   793  C   4.0   -0.03    4.38    4.34    23.28396   140.48114    14.09106
   794  C   4.0    0.14    3.26    3.04    24.93621   142.74576    13.83405
   795  O   6.0   -0.27    1.24    1.80    24.10071   144.87778    14.23846
   796  N   5.0   -0.20    3.18    1.95    27.32160   142.31557    13.16509
   797  H   1.0    0.08    1.07    1.44    22.55192   139.52690    19.15741
   798  H   1.0    0.08    1.11    1.45    20.18312   142.78638    15.34583
   799  H   1.0    0.04    1.04    1.43    24.41114   138.94881    14.88096
   800  H   1.0    0.04    1.04    1.43    22.60778   139.96379    12.21645
   801  H   1.0    0.08    1.02    1.43    28.54631   143.79055    12.95911
   802  H   1.0    0.06    1.03    1.43    27.92697   140.51062    12.85896
   803  N   5.0   -0.15    3.53    2.10    16.72973   140.03637    15.45922
   804  C   4.0    0.03    4.42    4.41    14.58280   138.43049    15.05104
   805  C   4.0    0.09    3.34    3.06    15.13507   136.33325    13.10840
   806  O   6.0   -0.32    1.25    1.80    14.79591   134.12443    13.69232
   807  C   4.0   -0.03    4.33    4.25    12.13105   140.01185    14.53892
   808  C   4.0   -0.04    4.26    4.11    10.49539   138.84177    12.47345
   809  C   4.0   -0.07    4.19    3.99    12.75782   142.69615    13.84350
   810  C   4.0   -0.07    4.10    3.81     8.99621   136.63061    13.35406
   811  H   1.0    0.08    1.10    1.44    16.30833   141.88785    15.79370
   812  H   1.0    0.05    1.07    1.44    14.22626   137.37074    16.78014
   813  H   1.0    0.04    1.06    1.44    11.06167   139.99645    16.30015
   814  H   1.0    0.06    1.04    1.43     9.17623   140.26456    11.78370
   815  H   1.0    0.05    1.05    1.44    11.71377   138.20817    10.93899
   816  H   1.0    0.05    1.00    1.43    11.00703   143.72661    13.50335
   817  H   1.0    0.05    1.02    1.43    13.79466   143.56606    15.39497
   818  H   1.0    0.05    1.00    1.43    13.91501   142.69358    12.13897
   819  H   1.0    0.04    1.16    1.46     7.88499   135.90401    11.77992
   820  H   1.0    0.05    1.01    1.43    10.28546   135.17491    14.03436
   821  H   1.0    0.04    1.00    1.43     7.74792   137.23129    14.87718
   822  N   5.0   -0.20    3.31    1.99    13.41766   130.11961    15.71244
   823  C   4.0    0.03    4.27    4.13    11.68771   128.61993    14.27625
   824  C   4.0    0.07    3.25    3.04    12.92072   126.11439    13.68477
   825  O   6.0   -0.32    1.12    1.80    11.73293   124.14023    13.84161
   826  C   4.0   -0.05    4.37    4.33    11.14454   130.02238    11.84228
   827  C   4.0   -0.05    4.21    4.02     8.41776   130.11070    11.13741
   828  C   4.0   -0.01    4.24    4.07     8.09559   131.61249     8.72046
   829  N   5.0   -0.13    3.52    2.09     6.86508   134.04676     9.13997
   830  C   4.0    0.10    3.34    3.06     6.31116   135.72163     7.34096
   831  N   5.0   -0.19    3.24    1.97     6.87555   135.29322     4.92022
   832  N   5.0   -0.16    3.24    1.97     5.17870   137.85708     7.98346
   833  H   1.0    0.11    1.09    1.44    13.06042   132.01042    15.60284
   834  H   1.0    0.04    1.06    1.44     9.93176   128.28085    15.29670
   835  H   1.0    0.06    1.06    1.44    11.80129   131.96493    12.04259
   836  H   1.0    0.04    1.05    1.44    12.15626   129.09132    10.30783
   837  H   1.0    0.04    1.03    1.43     7.71544   128.19883    10.82939
   838  H   1.0    0.05    1.04    1.43     7.33987   131.02542    12.63597
   839  H   1.0    0.03    1.04    1.43     9.95076   131.96848     7.89653
   840  H   1.0    0.04    1.03    1.43     6.93686   130.53147     7.40521
   841  H   1.0    0.08    1.16    1.46     6.39199   134.50102    10.95222
   842  H   1.0    0.07    1.03    1.43     7.75074   133.65326     4.40999
   843  H   1.0    0.08    1.02    1.43     6.43113   136.60593     3.58040
   844  H   1.0    0.10    1.03    1.43     4.74379   138.19983     9.82972
   845  H   1.0    0.10    1.03    1.43     4.74126   139.15921     6.63231
   846  H   1.0    0.08    1.07    1.44     3.39555   172.22232     7.52193
   847  H   1.0    0.06    1.05    1.44    -0.23539   172.44789    21.27259
   848  H   1.0    0.09    1.08    1.44    -1.29108   171.69283    15.96650
   849  H   1.0    0.05    1.05    1.44   -10.84473   172.60956    15.86971
   850  H   1.0    0.09    1.07    1.44   -11.44551   169.03213    12.57215
   851  H   1.0    0.06    1.05    1.44   -20.23179   169.08413    13.90876
   852  H   1.0    0.09    1.08    1.44   -22.74222   156.52796     9.20306
   853  H   1.0    0.04    1.05    1.44   -23.57266   151.81452     5.22913
   854  H   1.0    0.07    1.07    1.44   -17.19065   156.92464     1.11975
   855  H   1.0    0.05    1.05    1.44   -15.33750   148.73415    -1.07122
   856  H   1.0    0.08    1.08    1.44   -14.12611   151.86579    -5.30500
   857  H   1.0    0.05    1.05    1.44    -6.34686   147.23882    -3.51351
   858  H   1.0    0.08    1.08    1.44    -2.16641   152.40647    -9.13990
   859  H   1.0    0.05    1.05    1.44     2.03316   148.70626    -6.03824
   860  H   1.0    0.09    1.07    1.44    15.59636   153.93855    -1.16974
   861  H   1.0    0.06    1.05    1.44   -24.98577   146.30124    24.16751
   862  H   1.0    0.08    1.07    1.44    15.16864   149.64665    39.05684
   863  H   1.0    0.05    1.05    1.44    14.68810   148.81268    30.25288
   864  H   1.0    0.08    1.07    1.44    13.77890   143.77235    32.68932
   865  H   1.0    0.07    1.05    1.44    -4.33102   125.94274    17.86277
   866  H   1.0    0.08    1.07    1.44    23.52245   140.84139    24.71753
   867  H   1.0    0.05    1.04    1.43    15.76595   136.78395    11.38505
   868  H   1.0    0.08    1.08    1.44    13.32800   129.67611    17.35190
   869  H   1.0    0.04    1.05    1.44    14.73402   126.05510    13.15611

  Z AO/shell   Hii/eV     exponent
  1     Wed Apr 25 08:07:45 CEST 2018   EN: 2.200 GM2: 0.406  GM3: 0.0800  RAES: 1.40
     1s    -10.707211    1.230000
  6     Wed Apr 25 08:07:45 CEST 2018   EN: 2.550 GM2: 0.538  GM3: 0.1500  RAES: 3.00
     2s    -13.970922    2.096432
     2p    -10.063292    1.800000
  7     Wed Apr 25 08:07:45 CEST 2018   EN: 3.040 GM2: 0.461  GM3:-0.0640  RAES: 1.90
     2s    -16.686243    2.339881
     2p    -12.523956    2.014332
  8     Wed Apr 25 08:07:45 CEST 2018   EN: 3.440 GM2: 0.452  GM3:-0.0517  RAES: 1.80
     2s    -20.229985    2.439742
     2p    -15.503117    2.137023
 16     Tue Apr 24 11:44:34 CEST 2018   EN: 2.580 GM2: 0.340  GM3:-0.0502  RAES: 3.10
     3s    -20.029654    1.981333
     3p    -11.377694    2.025643
     3d     -0.420282    1.702555
 no old-style atom pair restraining (fixing) potential

molecular fragmentation (1/2 indicates fragments):
111111111111111111111111111111111111111111111111111111111111111111111111
111111111111111111222222222222222222222222222222222222222222222222222222
222222222222222222222222222222222222222222222222222222222222222222222222
222222222222222222222222222222222222222222222222222222222222222222222222
222222222222222222222222222222222222222222222222222222222222222222222222
222222222222222222222222222222222222222222222222222222222222222222222222
222222222222222222222222222222222222222222222222222222222222222222222222
222222222222222222222222222222222222222222222222222222222222222222222222
222222222222222222222222222222222222222222222222222222222222222222222222
222222222222222222222222222222222222222222222222222222222222222222222222
222222222222222222222222222222222222222222222222222222222222222222222222
222222222222222222222222222222222222222222222222222221122222222222222222
22222
# atoms in fragment 1/2:    92   777
 fragment masses (1/2) :      613.74     5319.25
CMA distance (Bohr)    :  21.217
constraining FC (au)   :  0.0500
           ------------------------------------------------- 
          |        Self-Consistent Charge Iterations        |
           ------------------------------------------------- 

 Ncao       : 2120
 Nao        : 2118
 Nshell     : 1284
 Nel        : 2354
 T(el)      :   500.0
 intcut     :    35.0
 scfconv/Eh :  0.100E-06
   qconv/e  :  0.100E-04
 intneglect :  0.100E-08
 broydamp   :      0.400
 iter      E             dE          RMSdq      gap      omega  full diag
   1  -1347.8592613 -0.134786E+04  0.468E+00    2.76       0.0  T
   2  -1351.5141804 -0.365492E+01  0.216E+00    1.60       1.0  T
   3  -1351.7661756 -0.251995E+00  0.124E+00    1.78       1.0  T
   4  -1351.9822471 -0.216071E+00  0.278E-01    1.20       1.0  T
   5  -1351.9961186 -0.138715E-01  0.149E-01    1.31       1.0  T
   6  -1351.9987335 -0.261486E-02  0.645E-02    1.25       1.0  T
   7  -1351.9996090 -0.875505E-03  0.303E-02    1.18       1.0  T
   8  -1351.9997407 -0.131682E-03  0.146E-02    1.15       1.0  T
   9  -1351.9997865 -0.458528E-04  0.692E-03    1.13       1.0  T
  10  -1351.9997952 -0.864936E-05  0.305E-03    1.13       1.1  T
  11  -1351.9997976 -0.240375E-05  0.139E-03    1.13       2.4  T
  12  -1351.9997979 -0.352746E-06  0.610E-04    1.13       5.6  T
  13  -1351.9997980 -0.626933E-07  0.278E-04    1.13      12.2  T
  14  -1351.9997980 -0.152263E-07  0.103E-04    1.13      32.9  T
  15  -1351.9997980 -0.173804E-08  0.502E-05    1.13      67.5  T
  16  -1351.9997980 -0.410637E-09  0.226E-05    1.13     150.3  T
speedup  1.00
cpu  time for SCC    1 m 21.0 s
wall time for SCC    1 m 20.9 s

   *** convergence criteria satisfied after 16 iterations ***

          eigenvalues
 #    :        1165       1166       1167       1168       1169       1170       1171       1172
 occ. :        2.000      2.000      2.000      2.000      2.000      2.000      2.000      2.000
 eps  :        -9.856     -9.853     -9.810     -9.807     -9.773     -9.757     -9.741     -9.607
 #    :        1173       1174       1175       1176       1177       1178       1179       1180
 occ. :        2.000      2.000      2.000      2.000      2.000      0.000      0.000      0.000
 eps  :        -9.532     -9.496     -9.362     -9.361     -9.273     -8.145     -7.805     -7.796
 #    :        1181       1182       1183       1184       1185       1186       1187       1188
 occ. :        0.000      0.000      0.000      0.000      0.000      0.000      0.000      0.000
 eps  :        -7.635     -7.541     -7.516     -7.499     -7.436     -7.424     -7.364     -7.306


   #   Z            q   n(s)   n(p)   n(d)      C6AA      α(0)
   1   7 N     -0.399  1.320  4.080  0.000    30.357     8.183
   2   6 C      0.025  1.058  2.917  0.000    20.164     6.396
   3   6 C      0.269  1.047  2.685  0.000    22.462     7.761
   4   8 O     -0.514  1.768  4.747  0.000    24.105     6.583
   5   6 C     -0.079  1.064  3.015  0.000    21.990     6.674
   6   6 C     -0.017  1.056  2.960  0.000    20.838     6.493
   7   6 C     -0.118  1.047  3.071  0.000    22.808     6.808
   8   6 C     -0.110  1.043  3.067  0.000    22.667     6.789
   9   1 H      0.172  0.828  0.000  0.000     1.263     1.760
  10   1 H      0.048  0.952  0.000  0.000     2.340     2.392
  11   1 H      0.062  0.938  0.000  0.000     2.175     2.306
  12   1 H      0.041  0.959  0.000  0.000     2.429     2.437
  13   1 H      0.033  0.967  0.000  0.000     2.546     2.495
  14   1 H      0.038  0.962  0.000  0.000     2.476     2.460
  15   1 H      0.048  0.952  0.000  0.000     2.339     2.392
  16   1 H      0.047  0.953  0.000  0.000     2.352     2.398
  17   1 H      0.030  0.970  0.000  0.000     2.588     2.516
  18   1 H      0.042  0.958  0.000  0.000     2.423     2.434
  19   1 H      0.021  0.979  0.000  0.000     2.718     2.578
  20   7 N     -0.186  1.243  3.943  0.000    25.030     7.430
  21   6 C      0.024  1.049  2.927  0.000    20.161     6.392
  22   6 C      0.266  1.043  2.691  0.000    22.516     7.771
  23   8 O     -0.480  1.738  4.742  0.000    23.348     6.478
  24   6 C     -0.106  1.058  3.047  0.000    22.504     6.752
  25   6 C      0.294  1.027  2.679  0.000    22.013     7.682
  26   8 O     -0.515  1.773  4.741  0.000    24.108     6.583
  27   7 N     -0.288  1.270  4.018  0.000    27.427     7.778
  28   1 H      0.238  0.762  0.000  0.000     0.932     1.513
  29   1 H      0.083  0.917  0.000  0.000     1.946     2.182
  30   1 H      0.087  0.913  0.000  0.000     1.906     2.159
  31   1 H      0.086  0.914  0.000  0.000     1.922     2.168
  32   1 H      0.234  0.766  0.000  0.000     0.949     1.526
  33   1 H      0.247  0.753  0.000  0.000     0.897     1.483
  34   7 N     -0.160  1.235  3.925  0.000    24.452     7.344
  35   6 C      0.016  1.048  2.936  0.000    20.297     6.412
  36   6 C      0.272  1.035  2.692  0.000    22.396     7.750
  37   8 O     -0.459  1.740  4.718  0.000    22.889     6.414
  38   6 C     -0.112  1.058  3.054  0.000    22.618     6.769
  39   6 C      0.279  1.034  2.687  0.000    22.284     7.730
  40   8 O     -0.502  1.749  4.753  0.000    23.836     6.546
  41   7 N     -0.277  1.272  4.005  0.000    27.157     7.740
  42   1 H      0.219  0.781  0.000  0.000     1.013     1.577
  43   1 H      0.075  0.925  0.000  0.000     2.036     2.232
  44   1 H      0.084  0.916  0.000  0.000     1.941     2.179
  45   1 H      0.104  0.896  0.000  0.000     1.750     2.069
  46   1 H      0.251  0.749  0.000  0.000     0.881     1.470
  47   1 H      0.237  0.763  0.000  0.000     0.937     1.516
  48   7 N     -0.173  1.245  3.928  0.000    24.752     7.389
  49   6 C      0.004  1.063  2.932  0.000    20.510     6.448
  50   6 C      0.265  1.033  2.702  0.000    22.526     7.772
  51   8 O     -0.451  1.745  4.706  0.000    22.721     6.391
  52   6 C     -0.039  1.067  2.972  0.000    21.241     6.555
  53   6 C     -0.077  1.058  3.019  0.000    21.962     6.672
  54   6 C     -0.117  1.039  3.079  0.000    22.795     6.807
  55   6 C     -0.116  1.040  3.076  0.000    22.791     6.809
  56   1 H      0.208  0.792  0.000  0.000     1.065     1.617
  57   1 H      0.066  0.934  0.000  0.000     2.126     2.280
  58   1 H      0.049  0.951  0.000  0.000     2.333     2.389
  59   1 H      0.050  0.950  0.000  0.000     2.320     2.382
  60   1 H      0.079  0.921  0.000  0.000     1.994     2.208
  61   1 H      0.038  0.962  0.000  0.000     2.472     2.459
  62   1 H      0.026  0.974  0.000  0.000     2.647     2.544
  63   1 H      0.051  0.949  0.000  0.000     2.307     2.375
  64   1 H      0.065  0.935  0.000  0.000     2.137     2.286
  65   1 H      0.050  0.950  0.000  0.000     2.319     2.381
  66   1 H      0.020  0.980  0.000  0.000     2.736     2.586
  67   7 N     -0.165  1.240  3.925  0.000    24.579     7.363
  68   6 C      0.017  1.056  2.927  0.000    20.300     6.415
  69   6 C      0.210  1.081  2.710  0.000    23.557     7.949
  70   8 O     -0.360  1.744  4.616  0.000    20.900     6.129
  71   6 C     -0.090  1.054  3.036  0.000    22.202     6.707
  72   6 C     -0.089  1.053  3.036  0.000    22.199     6.708
  73   6 C     -0.034  1.057  2.977  0.000    21.256     6.578
  74   7 N     -0.144  1.211  3.933  0.000    24.111     7.293
  75   6 C      0.230  1.018  2.751  0.000    23.162     7.880
  76   7 N     -0.247  1.232  4.015  0.000    26.446     7.638
  77   7 N     -0.257  1.238  4.019  0.000    26.680     7.671
  78   1 H      0.222  0.778  0.000  0.000     1.001     1.567
  79   1 H      0.090  0.910  0.000  0.000     1.882     2.145
  80   1 H      0.090  0.910  0.000  0.000     1.882     2.146
  81   1 H      0.093  0.907  0.000  0.000     1.847     2.125
  82   1 H      0.074  0.926  0.000  0.000     2.037     2.232
  83   1 H      0.064  0.936  0.000  0.000     2.148     2.292
  84   1 H      0.098  0.902  0.000  0.000     1.804     2.101
  85   1 H      0.099  0.901  0.000  0.000     1.796     2.096
  86   1 H      0.218  0.782  0.000  0.000     1.020     1.582
  87   1 H      0.257  0.743  0.000  0.000     0.858     1.451
[...]
 583   6 C     -0.085  1.065  3.021  0.000    22.135     6.700
 584   6 C      0.357  1.038  2.605  0.000    20.940     7.489
 585   8 O     -0.643  1.775  4.868  0.000    27.203     6.993
 586   8 O     -0.661  1.790  4.871  0.000    27.664     7.052
 587   1 H      0.181  0.819  0.000  0.000     1.208     1.722
 588   1 H      0.021  0.979  0.000  0.000     2.722     2.580
 589   1 H      0.045  0.955  0.000  0.000     2.384     2.415
 590   1 H      0.053  0.947  0.000  0.000     2.279     2.361
 591   1 H      0.028  0.972  0.000  0.000     2.622     2.532
 592   1 H     -0.000  1.000  0.000  0.000     3.062     2.736
 593   7 N     -0.176  1.249  3.926  0.000    24.807     7.397
 594   6 C      0.033  1.051  2.917  0.000    20.026     6.371
 595   6 C      0.203  1.082  2.715  0.000    23.677     7.970
 596   8 O     -0.384  1.751  4.633  0.000    21.362     6.197
 597   6 C     -0.065  1.059  3.006  0.000    21.750     6.639
 598   6 C     -0.089  1.061  3.028  0.000    22.202     6.709
 599   6 C      0.363  1.024  2.613  0.000    20.847     7.472
 600   8 O     -0.643  1.770  4.873  0.000    27.209     6.993
 601   8 O     -0.645  1.763  4.882  0.000    27.251     6.999
 602   1 H      0.240  0.760  0.000  0.000     0.923     1.505
 603   1 H      0.065  0.935  0.000  0.000     2.144     2.290
 604   1 H      0.077  0.923  0.000  0.000     2.012     2.218
 605   1 H      0.066  0.934  0.000  0.000     2.131     2.283
 606   1 H      0.020  0.980  0.000  0.000     2.730     2.584
 607   1 H      0.040  0.960  0.000  0.000     2.451     2.448
 608   7 N     -0.396  1.326  4.070  0.000    30.248     8.168
 609   6 C      0.026  1.053  2.920  0.000    20.142     6.392
 610   6 C      0.279  1.044  2.676  0.000    22.270     7.728
 611   8 O     -0.500  1.745  4.755  0.000    23.793     6.540
 612   6 C     -0.082  1.064  3.018  0.000    22.051     6.683
 613   6 C     -0.017  1.058  2.959  0.000    20.852     6.495
 614   6 C     -0.108  1.045  3.063  0.000    22.628     6.785
 615   6 C     -0.109  1.042  3.067  0.000    22.633     6.782
 616   1 H      0.153  0.847  0.000  0.000     1.381     1.841
 617   1 H      0.063  0.937  0.000  0.000     2.163     2.300
 618   1 H      0.071  0.929  0.000  0.000     2.078     2.254
 619   1 H      0.055  0.945  0.000  0.000     2.256     2.349
 620   1 H      0.005  0.995  0.000  0.000     2.965     2.693
 621   1 H      0.016  0.984  0.000  0.000     2.798     2.616
 622   1 H      0.017  0.983  0.000  0.000     2.782     2.609
 623   1 H      0.058  0.942  0.000  0.000     2.222     2.331
 624   1 H      0.032  0.968  0.000  0.000     2.563     2.504
 625   1 H      0.063  0.937  0.000  0.000     2.168     2.302
 626   1 H      0.036  0.964  0.000  0.000     2.498     2.472
 627   7 N     -0.177  1.247  3.930  0.000    24.821     7.399
 628   6 C      0.037  1.051  2.912  0.000    19.958     6.361
 629   6 C      0.297  1.033  2.669  0.000    21.956     7.674
 630   8 O     -0.527  1.757  4.770  0.000    24.387     6.621
 631   6 C     -0.053  1.046  3.007  0.000    21.511     6.601
 632   6 C     -0.084  1.058  3.026  0.000    22.101     6.694
 633   6 C      0.358  1.033  2.610  0.000    20.930     7.487
 634   8 O     -0.636  1.776  4.860  0.000    27.017     6.969
 635   8 O     -0.629  1.757  4.871  0.000    26.833     6.945
 636   1 H      0.221  0.779  0.000  0.000     1.005     1.571
 637   1 H      0.023  0.977  0.000  0.000     2.688     2.564
 638   1 H      0.076  0.924  0.000  0.000     2.024     2.225
 639   1 H      0.012  0.988  0.000  0.000     2.853     2.641
 640   1 H     -0.001  1.001  0.000  0.000     3.070     2.740
 641   1 H      0.038  0.962  0.000  0.000     2.470     2.458
 642   7 N     -0.182  1.241  3.941  0.000    24.943     7.418
 643   6 C      0.022  1.054  2.924  0.000    20.213     6.402
 644   6 C      0.281  1.035  2.684  0.000    22.247     7.725
 645   8 O     -0.505  1.754  4.752  0.000    23.905     6.555
 646   6 C     -0.095  1.064  3.032  0.000    22.317     6.725
 647   6 C     -0.082  1.053  3.029  0.000    22.071     6.689
 648   6 C     -0.092  1.056  3.035  0.000    22.252     6.716
 649   6 C     -0.030  1.052  2.978  0.000    21.205     6.574
 650   7 N     -0.138  1.234  3.904  0.000    23.989     7.274
 651   1 H      0.228  0.772  0.000  0.000     0.973     1.545
 652   1 H      0.054  0.946  0.000  0.000     2.274     2.358
 653   1 H      0.085  0.915  0.000  0.000     1.930     2.173
 654   1 H      0.083  0.917  0.000  0.000     1.948     2.182
 655   1 H      0.041  0.959  0.000  0.000     2.439     2.442
 656   1 H      0.059  0.941  0.000  0.000     2.212     2.326
 657   1 H      0.107  0.893  0.000  0.000     1.724     2.053
 658   1 H      0.076  0.924  0.000  0.000     2.025     2.226
 659   1 H      0.098  0.902  0.000  0.000     1.805     2.101
 660   1 H      0.115  0.885  0.000  0.000     1.651     2.009
 661   1 H      0.277  0.723  0.000  0.000     0.785     1.388
 662   1 H      0.302  0.698  0.000  0.000     0.707     1.317
 663   1 H      0.266  0.734  0.000  0.000     0.823     1.421
 664   7 N     -0.157  1.242  3.914  0.000    24.391     7.335
 665   6 C      0.018  1.051  2.931  0.000    20.245     6.400
 666   6 C      0.308  1.022  2.670  0.000    21.765     7.642
 667   8 O     -0.511  1.739  4.772  0.000    24.029     6.572
 668   6 C     -0.091  1.059  3.032  0.000    22.201     6.703
 669   6 C     -0.016  1.057  2.960  0.000    20.826     6.490
 670   6 C     -0.134  1.050  3.084  0.000    23.134     6.858
 671   6 C     -0.125  1.049  3.076  0.000    22.965     6.834
 672   1 H      0.232  0.768  0.000  0.000     0.958     1.534
 673   1 H      0.097  0.903  0.000  0.000     1.814     2.106
 674   1 H      0.082  0.918  0.000  0.000     1.962     2.190
 675   1 H      0.046  0.954  0.000  0.000     2.376     2.410
 676   1 H      0.009  0.991  0.000  0.000     2.906     2.666
 677   1 H      0.067  0.933  0.000  0.000     2.120     2.277
 678   1 H      0.040  0.960  0.000  0.000     2.453     2.449
 679   1 H      0.073  0.927  0.000  0.000     2.053     2.241
 680   1 H      0.062  0.938  0.000  0.000     2.177     2.307
 681   1 H      0.067  0.933  0.000  0.000     2.123     2.278
 682   1 H      0.031  0.969  0.000  0.000     2.566     2.505
 683   7 N     -0.201  1.252  3.949  0.000    25.356     7.479
 684   6 C      0.052  1.048  2.900  0.000    19.710     6.322
 685   6 C      0.303  1.033  2.664  0.000    21.858     7.658
 686   8 O     -0.534  1.763  4.772  0.000    24.557     6.644
 687   6 C     -0.050  1.053  2.997  0.000    21.478     6.598
 688   6 C     -0.069  1.059  3.011  0.000    21.829     6.652
 689   6 C      0.371  1.025  2.604  0.000    20.712     7.448
 690   8 O     -0.657  1.797  4.860  0.000    27.573     7.040
 691   8 O     -0.640  1.752  4.888  0.000    27.119     6.982
 692   1 H      0.237  0.763  0.000  0.000     0.937     1.516
 693   1 H      0.037  0.963  0.000  0.000     2.496     2.471
 694   1 H      0.054  0.946  0.000  0.000     2.266     2.354
 695   1 H      0.043  0.957  0.000  0.000     2.413     2.429
 696   1 H      0.013  0.987  0.000  0.000     2.835     2.633
 697   1 H     -0.027  1.027  0.000  0.000     3.568     2.954
 698   7 N     -0.183  1.246  3.937  0.000    24.968     7.421
 699   6 C      0.056  1.044  2.901  0.000    19.621     6.302
 700   6 C      0.289  1.035  2.676  0.000    22.107     7.701
 701   8 O     -0.511  1.739  4.772  0.000    24.030     6.572
 702   6 C     -0.005  1.047  2.958  0.000    20.626     6.459
 703   6 C     -0.099  1.035  3.064  0.000    22.441     6.753
 704   6 C     -0.132  1.042  3.090  0.000    23.086     6.849
 705   1 H      0.232  0.768  0.000  0.000     0.958     1.534
 706   1 H      0.015  0.985  0.000  0.000     2.817     2.625
 707   1 H      0.012  0.988  0.000  0.000     2.865     2.647
 708   1 H      0.035  0.965  0.000  0.000     2.510     2.478
 709   1 H      0.006  0.994  0.000  0.000     2.961     2.691
 710   1 H      0.061  0.939  0.000  0.000     2.185     2.311
 711   1 H      0.039  0.961  0.000  0.000     2.466     2.456
 712   1 H      0.083  0.917  0.000  0.000     1.951     2.185
 713   1 H      0.042  0.958  0.000  0.000     2.419     2.432
 714   7 N     -0.169  1.247  3.922  0.000    24.649     7.374
 715   6 C      0.034  1.051  2.915  0.000    19.984     6.361
 716   6 C      0.299  1.030  2.670  0.000    21.920     7.668
 717   8 O     -0.482  1.745  4.737  0.000    23.378     6.483
 718   6 C     -0.031  1.052  2.979  0.000    21.078     6.529
 719   6 C     -0.126  1.044  3.083  0.000    22.972     6.832
 720   6 C     -0.120  1.042  3.078  0.000    22.847     6.813
 721   1 H      0.238  0.762  0.000  0.000     0.931     1.511
 722   1 H      0.052  0.948  0.000  0.000     2.301     2.372
 723   1 H      0.061  0.939  0.000  0.000     2.186     2.312
 724   1 H      0.083  0.917  0.000  0.000     1.944     2.180
 725   1 H      0.038  0.962  0.000  0.000     2.471     2.458
 726   1 H      0.050  0.950  0.000  0.000     2.318     2.381
 727   1 H      0.077  0.923  0.000  0.000     2.008     2.216
 728   1 H      0.048  0.952  0.000  0.000     2.343     2.394
 729   1 H      0.031  0.969  0.000  0.000     2.573     2.508
 730   7 N     -0.186  1.241  3.946  0.000    25.041     7.432
 731   6 C      0.034  1.050  2.916  0.000    19.980     6.360
 732   6 C      0.303  1.029  2.669  0.000    21.862     7.658
 733   8 O     -0.470  1.724  4.746  0.000    23.137     6.449
 734   6 C     -0.017  1.049  2.968  0.000    20.842     6.492
 735   6 C     -0.116  1.043  3.073  0.000    22.771     6.804
 736   6 C     -0.120  1.046  3.074  0.000    22.851     6.815
 737   1 H      0.215  0.785  0.000  0.000     1.034     1.593
 738   1 H      0.071  0.929  0.000  0.000     2.069     2.250
 739   1 H      0.015  0.985  0.000  0.000     2.815     2.624
 740   1 H      0.051  0.949  0.000  0.000     2.311     2.377
 741   1 H      0.019  0.981  0.000  0.000     2.750     2.593
 742   1 H      0.070  0.930  0.000  0.000     2.087     2.259
 743   1 H      0.053  0.947  0.000  0.000     2.284     2.363
 744   1 H      0.079  0.921  0.000  0.000     1.994     2.208
 745   1 H      0.039  0.961  0.000  0.000     2.457     2.451
 746   7 N     -0.180  1.244  3.935  0.000    24.889     7.409
 747   6 C      0.051  1.044  2.905  0.000    19.700     6.316
 748   6 C      0.286  1.033  2.681  0.000    22.156     7.709
 749   8 O     -0.494  1.736  4.758  0.000    23.662     6.522
 750   6 C     -0.086  1.049  3.037  0.000    22.115     6.691
 751   6 C      0.298  1.023  2.678  0.000    21.939     7.670
 752   8 O     -0.517  1.762  4.755  0.000    24.170     6.591
 753   7 N     -0.262  1.261  4.001  0.000    26.785     7.686
 754   1 H      0.183  0.817  0.000  0.000     1.195     1.712
 755   1 H      0.072  0.928  0.000  0.000     2.069     2.249
 756   1 H      0.058  0.942  0.000  0.000     2.227     2.334
 757   1 H      0.066  0.934  0.000  0.000     2.129     2.282
 758   1 H      0.219  0.781  0.000  0.000     1.013     1.576
 759   1 H      0.220  0.780  0.000  0.000     1.010     1.574
 760   7 N     -0.178  1.248  3.930  0.000    24.849     7.404
 761   6 C      0.040  1.054  2.906  0.000    19.899     6.351
 762   6 C      0.217  1.083  2.700  0.000    23.415     7.925
 763   8 O     -0.363  1.734  4.630  0.000    20.964     6.139
 764   6 C     -0.064  1.049  3.015  0.000    21.713     6.632
 765   6 C     -0.075  1.054  3.022  0.000    21.935     6.667
 766   6 C      0.362  1.026  2.612  0.000    20.852     7.473
 767   8 O     -0.631  1.749  4.882  0.000    26.901     6.954
 768   8 O     -0.650  1.774  4.876  0.000    27.390     7.017
 769   1 H      0.229  0.771  0.000  0.000     0.968     1.542
 770   1 H      0.064  0.936  0.000  0.000     2.148     2.292
 771   1 H      0.095  0.905  0.000  0.000     1.834     2.118
 772   1 H      0.040  0.960  0.000  0.000     2.448     2.447
 773   1 H      0.002  0.998  0.000  0.000     3.015     2.715
 774   1 H     -0.004  1.004  0.000  0.000     3.133     2.768
 775   7 N     -0.393  1.326  4.068  0.000    30.185     8.160
 776   6 C      0.023  1.055  2.922  0.000    20.192     6.400
 777   6 C      0.274  1.040  2.686  0.000    22.364     7.745
 778   8 O     -0.507  1.764  4.742  0.000    23.932     6.559
 779   6 C     -0.104  1.062  3.042  0.000    22.475     6.748
 780   6 C      0.288  1.033  2.679  0.000    22.120     7.701
 781   8 O     -0.527  1.775  4.752  0.000    24.387     6.621
 782   7 N     -0.286  1.267  4.019  0.000    27.370     7.770
 783   1 H      0.177  0.823  0.000  0.000     1.232     1.739
 784   1 H      0.065  0.935  0.000  0.000     2.144     2.290
 785   1 H      0.089  0.911  0.000  0.000     1.886     2.148
 786   1 H      0.058  0.942  0.000  0.000     2.226     2.333
 787   1 H      0.233  0.767  0.000  0.000     0.952     1.528
 788   1 H      0.241  0.759  0.000  0.000     0.918     1.501
 789   7 N     -0.172  1.240  3.932  0.000    24.715     7.384
 790   6 C      0.025  1.040  2.935  0.000    20.131     6.385
 791   6 C      0.271  1.028  2.701  0.000    22.423     7.756
 792   8 O     -0.458  1.735  4.723  0.000    22.878     6.413
 793   6 C     -0.103  1.054  3.049  0.000    22.441     6.742
 794   6 C      0.290  1.028  2.682  0.000    22.077     7.694
 795   8 O     -0.523  1.779  4.744  0.000    24.300     6.609
 796   7 N     -0.291  1.271  4.020  0.000    27.504     7.789
 797   1 H      0.238  0.762  0.000  0.000     0.930     1.511
 798   1 H      0.074  0.926  0.000  0.000     2.039     2.233
 799   1 H      0.100  0.900  0.000  0.000     1.781     2.087
 800   1 H      0.076  0.924  0.000  0.000     2.019     2.222
 801   1 H      0.240  0.760  0.000  0.000     0.922     1.504
 802   1 H      0.248  0.752  0.000  0.000     0.892     1.479
 803   7 N     -0.171  1.244  3.926  0.000    24.693     7.380
 804   6 C      0.011  1.065  2.923  0.000    20.383     6.428
 805   6 C      0.208  1.077  2.714  0.000    23.582     7.952
 806   8 O     -0.324  1.737  4.587  0.000    20.225     6.029
 807   6 C     -0.024  1.067  2.957  0.000    20.971     6.513
 808   6 C     -0.067  1.046  3.021  0.000    21.776     6.643
 809   6 C     -0.099  1.037  3.062  0.000    22.443     6.754
 810   6 C     -0.154  1.044  3.111  0.000    23.544     6.919
 811   1 H      0.202  0.798  0.000  0.000     1.098     1.641
 812   1 H      0.086  0.914  0.000  0.000     1.922     2.168
 813   1 H      0.047  0.953  0.000  0.000     2.353     2.399
 814   1 H      0.048  0.952  0.000  0.000     2.345     2.395
 815   1 H      0.038  0.962  0.000  0.000     2.479     2.462
 816   1 H      0.038  0.962  0.000  0.000     2.470     2.458
 817   1 H      0.052  0.948  0.000  0.000     2.298     2.370
 818   1 H      0.032  0.968  0.000  0.000     2.564     2.504
 819   1 H      0.096  0.904  0.000  0.000     1.819     2.109
 820   1 H      0.058  0.942  0.000  0.000     2.223     2.332
 821   1 H      0.021  0.979  0.000  0.000     2.724     2.581
 822   7 N     -0.388  1.320  4.068  0.000    30.051     8.142
 823   6 C      0.040  1.045  2.914  0.000    19.907     6.354
 824   6 C      0.202  1.090  2.708  0.000    23.712     7.975
 825   8 O     -0.383  1.754  4.629  0.000    21.341     6.194
 826   6 C     -0.083  1.059  3.024  0.000    22.059     6.683
 827   6 C     -0.074  1.047  3.027  0.000    21.910     6.663
 828   6 C     -0.026  1.057  2.970  0.000    21.111     6.554
 829   7 N     -0.170  1.231  3.938  0.000    24.676     7.378
 830   6 C      0.238  1.017  2.745  0.000    23.013     7.854
 831   7 N     -0.257  1.234  4.023  0.000    26.670     7.670
 832   7 N     -0.235  1.227  4.008  0.000    26.146     7.594
 833   1 H      0.183  0.817  0.000  0.000     1.198     1.715
 834   1 H      0.028  0.972  0.000  0.000     2.612     2.527
 835   1 H      0.081  0.919  0.000  0.000     1.971     2.196
 836   1 H      0.067  0.933  0.000  0.000     2.114     2.273
 837   1 H      0.070  0.930  0.000  0.000     2.083     2.257
 838   1 H      0.050  0.950  0.000  0.000     2.316     2.380
 839   1 H      0.093  0.907  0.000  0.000     1.850     2.127
 840   1 H      0.089  0.911  0.000  0.000     1.885     2.147
 841   1 H      0.243  0.757  0.000  0.000     0.911     1.495
 842   1 H      0.268  0.732  0.000  0.000     0.817     1.416
 843   1 H      0.249  0.751  0.000  0.000     0.888     1.476
 844   1 H      0.199  0.801  0.000  0.000     1.111     1.651
 845   1 H      0.230  0.770  0.000  0.000     0.963     1.537
 846   1 H      0.192  0.808  0.000  0.000     1.146     1.676
 847   1 H      0.083  0.917  0.000  0.000     1.948     2.182
 848   1 H      0.178  0.822  0.000  0.000     1.226     1.734
 849   1 H      0.078  0.922  0.000  0.000     2.000     2.211
 850   1 H      0.170  0.830  0.000  0.000     1.270     1.765
 851   1 H      0.069  0.931  0.000  0.000     2.095     2.263
 852   1 H      0.186  0.814  0.000  0.000     1.178     1.700
 853   1 H      0.083  0.917  0.000  0.000     1.943     2.179
 854   1 H      0.173  0.827  0.000  0.000     1.252     1.753
 855   1 H      0.090  0.910  0.000  0.000     1.882     2.145
 856   1 H      0.188  0.812  0.000  0.000     1.169     1.693
 857   1 H      0.066  0.934  0.000  0.000     2.135     2.285
 858   1 H      0.185  0.815  0.000  0.000     1.188     1.707
 859   1 H      0.053  0.947  0.000  0.000     2.276     2.359
 860   1 H      0.184  0.816  0.000  0.000     1.191     1.709
 861   1 H      0.073  0.927  0.000  0.000     2.051     2.239
 862   1 H      0.191  0.809  0.000  0.000     1.153     1.682
 863   1 H      0.099  0.901  0.000  0.000     1.796     2.096
 864   1 H      0.211  0.789  0.000  0.000     1.053     1.608
 865   1 H      0.076  0.924  0.000  0.000     2.021     2.223
 866   1 H      0.208  0.792  0.000  0.000     1.068     1.619
 867   1 H      0.066  0.934  0.000  0.000     2.134     2.284
 868   1 H      0.171  0.829  0.000  0.000     1.267     1.763
 869   1 H      0.086  0.914  0.000  0.000     1.921     2.167

 Mol. C6AA /au·bohr⁶  :    6880089.435537
 Mol. C8AA /au·bohr⁸  :  152051055.747894
 Mol. α(0) /au        :       3904.308907

 
molecular dipole:
                 x           y           z       tot (Debye)
 q only:      -12.410    -660.607     -87.726
   full:       -6.076    -661.555     -85.767    1695.684
molecular quadrupole (traceless):
                xx          xy          yy          xz          yz          zz
 q only:    43510.840   -3639.926  -83689.090     753.200  -16625.652   40178.250
  q+dip:    43590.667   -2108.738  -84185.124     910.514  -16246.062   40594.457
   full:    43587.280   -2110.768  -84177.403     915.717  -16246.040   40590.123
speedup  1.01
cpu  time for grad    1 m 32.2 s
wall time for grad    1 m 31.4 s

SCC energy    :   -1352.0325590
rep           :      15.9846888
ES            :       6.2609128
AES           :      -0.3304654
AXC           :       0.4274093
disp          :      -1.1956550
XB            :       0.0000000
fix           :       0.0000000
Gborn         :       0.0000000
Gsasa         :       0.0000000
Ghb           :       0.0000000
Gshift        :       0.0000000
Gsolv         :      -2.3633015    -1482.99
Etot ala COSMO:   -1352.0325590
grad norm     :       0.8591246
total E       :   -1335.9218797
atomizationE  :     241.5402418   151568.79
(atE without considering molecular charge,
 total energy contains solvation terms)
H-L gap (eV)  :          1.1274

------------------------------------------------------------------------
 * finished run on 2019/05/04 at 18:24:44.791     
------------------------------------------------------------------------
 total:
 * wall-time:     0 d,  0 h,  1 min, 36.412 sec
 *  cpu-time:     0 d,  0 h,  1 min, 35.902 sec
 * ratio c/w:     0.995 speedup
 SCF:
 * wall-time:     0 d,  0 h,  1 min, 34.059 sec
 *  cpu-time:     0 d,  0 h,  1 min, 34.739 sec
 * ratio c/w:     1.007 speedup

