      -----------------------------------------------------------      
     |                   =====================                   |     
     |                           x T B                           |     
     |                   =====================                   |     
     |                         S. Grimme                         |     
     |          Mulliken Center for Theoretical Chemistry        |     
     |                    University of Bonn                     |     
     |                 Version 6.0.1 (SAW181210)                 |     
      -----------------------------------------------------------      

   This program is distributed in the hope that it will be useful,
   but WITHOUT ANY WARRANTY; without even the implied warranty of
   MERCHANTABILITY or FITNESS FOR A PARTICULAR PURPOSE.
   
   FOR NON-COMMERCIAL, ACADEMIA USE ONLY.
   
   Cite this work as:
   S. Grimme, C. Bannwarth, P. Shushkov, J. Comput. Theory Chem., 2017,
   13, 1989-2009.
   C. Bannwarth, S. Ehlert and S. Grimme., ChemRxiv, 2018, preprint.
   http://doi.org/10.26434/chemrxiv.7246238.v1
   
   for sTDA-xTB:
   S. Grimme and C. Bannwarth, J. Chem. Phys., 2016, 145, 054103.
   
   in the mass-spec context:
   V. Asgeirsson, C. Bauer and S. Grimme, Chem. Sci., 2017, 8, 4879.
   
   if GBSA is used:
   P. Shushkov, F. März and S. Grimme, unpublished.
   
   for ANC optimizer:
   S. Grimme, unpublished.
   Rational Function algorithm used in ANCopt:
   F. Eckert, P. Pulay, H.-J. Werner, J. Comput. Chem., 1997, 18, 1473.
   
   with help from (in alphabetical order)
   C. Bannwarth, F. Bohle, G. Brandenburg, E. Caldeweyher, M. Checinski,
   S. Dohm, S. Ehlert, S. Ehrlich, F. März, H. Neugebauer, J. Pisarek,
   P. Pracht, P. Shushkov, and S. Spicher.
   
 * started run on 2019/05/11 at 08:42:29.813     
========================================================================
 # omp threads = 2
========================================================================
number of atoms            : 441
number of electrons        : 1186
charge                     : -1
spin                       : .0
first test random number   : .5255

########################################################################
# WARNING! Please study the warnings concerning your input carefully
#  - Process number higher than OMP_NUM_THREADS, I hope you know what you are doing.
########################################################################

           ------------------------------------------------- 
          |                 G F N 2 - x T B                 |
          | Geometry, Frequencies, Noncovalent interactions |
          |            JCTC 2018 parametrisation            |
           ------------------------------------------------- 
 
      method parameters     
 k(s)        :  1.8500
 k(p)        :  2.2300
 k(d)        :  2.2300
 k(f)        :  2.0000
 kEN (H0ij)  : -2.0000
 D4 a1       :  0.5200
 D4 a2       :  5.0000
 D4 s6       :  1.0000
 D4 s8       :  2.7000
 D4 s9       :  5.0000
 alphaj      :  2.0000

 Solvent             : h2o
 Using internal parameter file: .param_gbsa2_h2o
 Gsolv ref. state (COSMO-RS): gsolv [1 M gas/solution]
 temperature (mdtemp)       :    298.150000000000     
 dielectric constant        :    80.2000000000000     
 rho                        :    1.00000000000000     
 mass                       :    18.0000000000000     
 surface tension            :    15.5689454083859     
 probe radius               :   0.975313790000000     
 vdW radii scaling          :    1.00000000000000     
 Gshift (Eh)                :   1.857443126794793E-003
 c1                         :    1.55243817000000     
 soset                      :   0.130326360000000     
 HB correction              :  T

            Z     q(EN)     CN     RAES       Cart. coordinates
     1  N   5.0   -0.20    3.22    1.96   116.97322    24.02975    35.57008
     2  C   4.0    0.03    4.33    4.25   116.14844    21.47091    36.06463
     3  C   4.0    0.14    3.41    3.08   117.69345    20.31323    38.20040
     4  O   6.0   -0.30    1.23    1.80   119.77198    21.10040    38.80088
     5  C   4.0   -0.03    4.27    4.13   116.43029    19.80821    33.69464
     6  C   4.0    0.25    3.09    3.02   113.89195    19.78287    32.15840
     7  O   6.0   -0.29    1.17    1.80   112.04541    18.87906    33.30581
     8  O   6.0   -0.27    1.16    1.80   113.99273    20.60947    29.96095
     9  H   1.0    0.10    1.03    1.43   118.85538    24.32034    35.73469
    10  H   1.0    0.05    1.06    1.44   114.13657    21.52005    36.56898
    11  H   1.0    0.05    1.02    1.43   117.94167    20.50755    32.48265
    12  H   1.0    0.05    1.03    1.43   116.81505    17.84835    34.20550
    13  N   5.0   -0.15    3.49    2.07   116.58065    18.27301    39.24490
    14  C   4.0    0.03    4.39    4.37   117.55991    17.00577    41.46992
    15  C   4.0    0.15    3.44    3.09   116.42693    14.34851    41.50781
    16  O   6.0   -0.29    1.26    1.80   114.44032    13.84581    42.52083
    17  C   4.0   -0.02    4.32    4.23   116.94138    18.39149    43.96821
    18  C   4.0   -0.00    3.58    3.15   114.34710    19.54705    43.96979
    19  C   4.0   -0.02    3.47    3.10   112.31889    18.32797    45.10318
    20  C   4.0   -0.04    3.49    3.11   113.94438    21.87104    42.81079
    21  C   4.0   -0.04    3.38    3.07   109.92973    19.38735    45.02983
    22  C   4.0   -0.04    3.37    3.07   111.55283    22.92487    42.72771
    23  C   4.0   -0.04    3.37    3.07   109.53569    21.67666    43.82713
    24  H   1.0    0.09    1.07    1.44   114.74410    17.97338    38.82997
    25  H   1.0    0.05    1.06    1.44   119.61383    16.91186    41.24337
    26  H   1.0    0.06    1.04    1.43   117.08594    16.99431    45.47919
    27  H   1.0    0.05    1.03    1.43   118.34079    19.87683    44.24386
    28  H   1.0    0.07    1.03    1.43   112.62151    16.53077    46.02115
    29  H   1.0    0.06    1.03    1.43   115.51024    22.86624    41.95693
    30  H   1.0    0.05    1.03    1.43   108.36722    18.42247    45.91694
    31  H   1.0    0.05    1.03    1.43   111.26605    24.71946    41.80040
    32  H   1.0    0.04    1.03    1.43   107.66588    22.48990    43.75852
    33  N   5.0   -0.15    3.47    2.06   117.90289    12.55685    40.34118
    34  C   4.0    0.04    4.38    4.34   116.92879     9.98587    40.30294
    35  C   4.0    0.14    3.40    3.08   119.00620     7.99251    40.36436
    36  O   6.0   -0.31    1.24    1.80   118.51312     5.72715    40.35031
    37  C   4.0   -0.06    4.13    3.86   115.18746     9.51571    38.05873
    38  H   1.0    0.08    1.07    1.44   118.75285    13.14109    38.72678
    39  H   1.0    0.07    1.07    1.44   115.82614     9.77722    42.05031
    40  H   1.0    0.06    1.01    1.43   114.47286     7.59683    38.16502
    41  H   1.0    0.05    1.00    1.43   113.61010    10.83185    38.16203
    42  H   1.0    0.06    1.00    1.43   116.18302     9.79428    36.27631
    43  N   5.0   -0.15    3.53    2.10   121.35170     8.90282    40.45438
    44  C   4.0    0.03    4.37    4.34   123.67429     7.43713    40.37361
    45  C   4.0    0.15    3.40    3.08   124.42026     6.53802    43.04576
    46  O   6.0   -0.31    1.25    1.80   126.51618     6.84239    43.92551
    47  C   4.0   -0.04    4.26    4.13   125.73456     9.08311    39.16931
    48  C   4.0   -0.04    4.24    4.07   126.33638    11.41553    40.77241
    49  C   4.0   -0.06    4.15    3.91   128.10211    13.29961    39.47865
    50  C   4.0   -0.04    4.14    3.88   128.37060    15.59458    41.20641
    51  N   5.0   -0.12    4.01    2.88   130.17200    17.49066    40.17330
    52  H   1.0    0.07    1.11    1.45   121.52800    10.79805    40.61775
    53  H   1.0    0.05    1.05    1.44   123.28065     5.76201    39.21876
    54  H   1.0    0.04    1.03    1.43   127.43012     7.93549    38.96821
    55  H   1.0    0.04    1.03    1.43   125.07312     9.64813    37.29995
    56  H   1.0    0.04    1.03    1.43   124.59252    12.41205    41.25264
    57  H   1.0    0.06    1.04    1.43   127.19738    10.77199    42.52641
    58  H   1.0    0.03    1.03    1.43   129.92963    12.40274    39.17165
    59  H   1.0    0.04    1.02    1.43   127.30329    13.85010    37.66076
    60  H   1.0    0.04    1.02    1.43   126.52954    16.49428    41.43926
    61  H   1.0    0.04    1.02    1.43   129.04411    14.97613    43.05346
    62  H   1.0    0.05    1.02    1.43   130.30867    19.01257    41.38192
    63  H   1.0    0.05    1.02    1.43   131.93905    16.68888    39.95134
    64  H   1.0    0.05    1.02    1.43   129.54586    18.13384    38.44498
    65  N   5.0   -0.14    3.48    2.06   122.53474     5.38283    44.33546
    66  C   4.0    0.03    4.40    4.38   122.41435     5.61668    47.06285
    67  C   4.0    0.15    3.40    3.08   122.59233     3.14882    48.55574
    68  O   6.0   -0.30    1.22    1.80   123.14861     3.15543    50.79623
    69  C   4.0   -0.04    4.29    4.18   119.88251     6.84951    47.82293
    70  C   4.0   -0.03    4.16    3.92   119.59920     9.58472    46.99871
    71  C   4.0    0.25    3.08    3.02   116.83894    10.61396    47.42086
    72  O   6.0   -0.29    1.18    1.80   115.09630     9.03309    47.48389
    73  O   6.0   -0.29    1.17    1.80   116.66522    12.95067    47.62367
    74  H   1.0    0.10    1.10    1.44   120.85302     5.18589    43.44021
    75  H   1.0    0.06    1.06    1.44   123.98745     6.82184    47.66209
    76  H   1.0    0.06    1.03    1.43   118.32166     5.78162    46.98630
    77  H   1.0    0.05    1.03    1.43   119.68064     6.75926    49.87400
    78  H   1.0    0.05    1.02    1.43   120.87913    10.83275    48.02036
    79  H   1.0    0.05    1.03    1.43   119.96072     9.79047    44.97838
    80  N   5.0   -0.13    3.46    2.05   121.86323     1.06250    47.31577
    81  C   4.0    0.04    4.32    4.24   121.17654    -1.23512    48.61464
    82  C   4.0    0.08    3.20    3.04   123.10243    -3.39492    48.41678
    83  O   6.0   -0.28    1.12    1.80   124.51661    -3.73803    46.63631
    84  C   4.0   -0.04    4.30    4.21   118.68450    -2.28659    47.57115
    85  C   4.0   -0.02    3.68    3.22   116.38829    -0.88048    48.41867
    86  C   4.0   -0.01    3.63    3.18   116.23716     1.41381    49.58529
    87  C   4.0    0.00    3.91    3.48   113.85489    -1.80444    48.24131
    88  N   5.0   -0.12    3.49    2.07   113.77979     1.98424    50.13484
    89  C   4.0    0.03    3.89    3.45   112.27097     0.05794    49.32458
    90  C   4.0   -0.05    3.41    3.08   112.80150    -4.02218    47.29020
    91  C   4.0   -0.05    3.40    3.08   109.67088    -0.28361    49.47627
    92  C   4.0   -0.04    3.38    3.07   110.22895    -4.34617    47.44526
    93  C   4.0   -0.05    3.38    3.07   108.68495    -2.50088    48.53280
    94  H   1.0    0.09    1.07    1.44   121.78596     1.12474    45.41289
    95  H   1.0    0.05    1.07    1.44   120.96651    -0.71442    50.60514
    96  H   1.0    0.04    1.03    1.43   118.84496    -2.31178    45.51112
    97  H   1.0    0.04    1.04    1.43   118.48058    -4.26111    48.13413
    98  H   1.0    0.05    1.02    1.43   117.71343     2.69138    50.11704
    99  H   1.0    0.08    1.05    1.44   113.21046     3.65202    50.84487
   100  H   1.0    0.05    1.03    1.43   114.00631    -5.44096    46.47104
   101  H   1.0    0.05    1.03    1.43   108.47189     1.14549    50.30213
   102  H   1.0    0.05    1.03    1.43   109.36571    -6.04190    46.72182
   103  H   1.0    0.04    1.03    1.43   106.67611    -2.82767    48.64946
   104  N   5.0   -0.21    3.19    1.95   115.24339    -6.70342    41.39107
   105  C   4.0    0.03    4.33    4.26   115.74325    -4.05977    40.94190
   106  C   4.0    0.14    3.40    3.08   113.54060    -2.19601    41.15171
   107  O   6.0   -0.32    1.24    1.80   111.53784    -2.43606    40.04333
   108  C   4.0   -0.03    4.35    4.30   116.88190    -3.71429    38.27861
   109  C   4.0   -0.02    3.56    3.14   119.59353    -4.53665    38.14496
   110  C   4.0   -0.04    3.46    3.10   120.33902    -6.58942    36.69488
   111  C   4.0   -0.04    3.48    3.11   121.42408    -3.13903    39.40293
   112  C   4.0   -0.03    3.44    3.09   122.86753    -7.18003    36.42975
   113  C   4.0   -0.04    3.43    3.09   123.95273    -3.72056    39.16468
   114  C   4.0    0.07    3.45    3.10   124.69567    -5.71799    37.62652
   115  O   6.0   -0.24    2.12    1.84   127.16690    -6.28617    37.24810
   116  H   1.0    0.10    1.03    1.43   114.22350    -7.68397    40.10296
   117  H   1.0    0.04    1.07    1.44   117.17339    -3.54510    42.34135
   118  H   1.0    0.05    1.04    1.43   115.73850    -4.76894    36.93325
   119  H   1.0    0.04    1.04    1.43   116.78307    -1.72738    37.75171
   120  H   1.0    0.06    1.03    1.43   118.93593    -7.69416    35.71295
   121  H   1.0    0.05    1.03    1.43   120.87994    -1.53839    40.54940
   122  H   1.0    0.06    1.03    1.43   123.46157    -8.72488    35.24584
   123  H   1.0    0.06    1.03    1.43   125.34610    -2.60008    40.14930
   124  H   1.0    0.12    1.04    1.43   128.21275    -5.06732    38.11645
   125  N   5.0   -0.15    3.41    2.02   114.24106    -0.04666    42.36099
   126  C   4.0    0.02    4.23    4.06   112.75211     2.23869    42.38483
   127  C   4.0    0.16    3.38    3.07   112.32771     3.30347    39.74583
   128  O   6.0   -0.33    1.37    1.80   110.60250     4.80101    39.34129
   129  H   1.0    0.07    1.07    1.44   115.67011    -0.12783    43.61475
   130  H   1.0    0.05    1.02    1.43   110.88141     1.92573    43.22101
   131  H   1.0    0.05    1.02    1.43   113.69751     3.67715    43.52394
   132  N   5.0   -0.14    3.53    2.10   113.78249     2.40285    37.89583
   133  C   4.0    0.03    4.38    4.35   113.30260     2.89383    35.23080
   134  C   4.0    0.16    3.49    3.11   110.48196     2.53630    34.68506
   135  O   6.0   -0.32    1.30    1.80   109.36766     3.87758    33.15152
   136  C   4.0   -0.05    4.34    4.28   114.99413     1.16101    33.63288
   137  C   4.0   -0.02    4.17    3.94   115.65840     2.16893    30.99690
   138  C   4.0   -0.07    4.11    3.82   117.88686     0.63320    29.98093
   139  C   4.0   -0.07    4.10    3.80   113.43246     2.01731    29.17557
   140  H   1.0    0.08    1.08    1.44   115.42905     1.55978    38.36670
   141  H   1.0    0.05    1.05    1.44   113.74197     4.87043    34.77432
   142  H   1.0    0.04    1.04    1.43   116.77903     0.97013    34.65054
   143  H   1.0    0.05    1.03    1.43   114.13959    -0.70979    33.47213
   144  H   1.0    0.04    1.05    1.44   116.23539     4.15038    31.19276
   145  H   1.0    0.04    1.00    1.43   118.38640     1.24639    28.08776
   146  H   1.0    0.04    1.00    1.43   119.53604     0.86731    31.18317
   147  H   1.0    0.06    1.00    1.43   117.41658    -1.36682    29.93083
   148  H   1.0    0.04    1.00    1.43   114.02930     2.63318    27.31141
   149  H   1.0    0.05    1.00    1.43   112.73802     0.08606    29.09695
   150  H   1.0    0.06    1.01    1.43   111.91211     3.24469    29.79855
   151  N   5.0   -0.14    3.51    2.08   109.31342     0.67457    35.91963
   152  C   4.0    0.04    4.45    4.46   106.58747     0.39828    35.72449
   153  C   4.0    0.17    3.54    3.13   105.27940     2.91356    36.30899
   154  O   6.0   -0.32    1.32    1.80   103.88471     3.94387    34.76605
   155  C   4.0   -0.04    4.33    4.26   105.67043    -1.69124    37.49814
   156  C   4.0   -0.02    3.58    3.15   102.83003    -1.76421    37.68317
   157  C   4.0   -0.03    3.48    3.11   101.33630    -1.83018    35.52466
   158  C   4.0   -0.05    3.46    3.10   101.65971    -1.79246    40.03190
   159  C   4.0   -0.04    3.38    3.07    98.72898    -1.88947    35.71084
   160  C   4.0   -0.05    3.37    3.07    99.05229    -1.88553    40.22160
   161  C   4.0   -0.05    3.37    3.07    97.58021    -1.92044    38.06043
   162  H   1.0    0.10    1.09    1.44   110.22418    -0.44014    37.19483
   163  H   1.0    0.06    1.06    1.44   106.10891    -0.05809    33.76225
   164  H   1.0    0.05    1.03    1.43   106.38479    -3.49316    36.78806
   165  H   1.0    0.05    1.03    1.43   106.48753    -1.39794    39.36722
   166  H   1.0    0.06    1.03    1.43   102.20079    -1.82816    33.67991
   167  H   1.0    0.04    1.03    1.43   102.79661    -1.75471    41.72528
   168  H   1.0    0.05    1.03    1.43    97.59898    -1.91322    34.01364
   169  H   1.0    0.04    1.03    1.43    98.16837    -1.92444    42.05908
   170  H   1.0    0.04    1.03    1.43    95.54785    -1.97543    38.21403
   171  N   5.0   -0.14    3.49    2.07   105.65741     3.86649    38.61807
   172  C   4.0    0.04    4.51    4.56   104.57462     6.30207    39.24481
   173  C   4.0    0.16    3.56    3.14   105.32134     8.30790    37.31527
   174  O   6.0   -0.33    1.37    1.80   103.73321     9.83923    36.59503
   175  C   4.0   -0.02    4.31    4.21   105.12815     7.17502    41.97254
   176  C   4.0   -0.05    4.19    3.97   102.81267     8.55749    43.05289
   177  C   4.0   -0.07    4.14    3.88   107.45135     8.88357    42.17083
   178  C   4.0   -0.08    4.00    3.63   100.72618     6.77655    43.92942
   179  H   1.0    0.10    1.08    1.44   107.04955     3.19814    39.73831
   180  H   1.0    0.05    1.07    1.44   102.52115     6.10864    39.01655
   181  H   1.0    0.04    1.06    1.44   105.46803     5.47695    43.10354
   182  H   1.0    0.04    1.03    1.43   103.43190     9.68529    44.66273
   183  H   1.0    0.04    1.03    1.43   102.09408     9.86316    41.62481
   184  H   1.0    0.05    1.00    1.43   107.83606     9.32656    44.14004
   185  H   1.0    0.07    1.01    1.43   109.13152     7.99578    41.40181
   186  H   1.0    0.05    1.00    1.43   107.14927    10.66208    41.18069
   187  H   1.0    0.04    1.00    1.43    99.12838     7.85837    44.63195
   188  H   1.0    0.04    1.00    1.43   100.07498     5.58343    42.39117
   189  H   1.0    0.04    1.00    1.43   101.42499     5.58921    45.45234
   190  N   5.0   -0.13    3.51    2.09   107.67481     8.25624    36.39860
   191  C   4.0    0.03    4.46    4.48   108.44876    10.19320    34.61931
   192  C   4.0    0.17    3.59    3.16   106.45058    10.38517    32.55539
   193  O   6.0   -0.30    1.30    1.80   105.51363    12.38812    31.87929
   194  C   4.0   -0.04    4.31    4.21   110.95456     9.62354    33.31444
   195  C   4.0   -0.03    4.25    4.11   111.75691    11.84109    31.64584
   196  C   4.0    0.15    3.23    3.04   114.39189    11.43458    30.60060
   197  O   6.0   -0.30    1.20    1.80   116.23845    11.13561    31.96141
   198  N   5.0   -0.18    3.18    1.95   114.52282    11.29373    28.07637
   199  H   1.0    0.11    1.10    1.44   108.99293     7.13543    37.22851
   200  H   1.0    0.05    1.05    1.44   108.56387    12.04289    35.56485
   201  H   1.0    0.05    1.05    1.44   112.40339     9.31723    34.73004
   202  H   1.0    0.06    1.03    1.43   110.77609     7.93134    32.15321
   203  H   1.0    0.07    1.03    1.43   110.41542    12.15106    30.11052
   204  H   1.0    0.07    1.03    1.43   111.80659    13.58100    32.76599
   205  H   1.0    0.10    1.03    1.43   113.00981    11.82306    27.04522
   206  H   1.0    0.10    1.03    1.43   116.23746    11.27637    27.24188
   207  N   5.0   -0.14    3.56    2.12   105.89341     8.14918    31.51261
   208  C   4.0    0.04    4.40    4.37   104.31746     8.04203    29.28633
   209  C   4.0    0.16    3.45    3.09   101.65021     9.00942    29.84343
   210  O   6.0   -0.33    1.28    1.80   100.37067     9.96186    28.15814
   211  C   4.0    0.03    4.14    3.88   104.26721     5.34908    28.20919
   212  O   6.0   -0.26    2.05    1.83   102.80473     3.62952    29.57657
   213  H   1.0    0.11    1.09    1.44   106.83312     6.58480    32.10513
   214  H   1.0    0.06    1.05    1.44   105.10972     9.34423    27.87023
   215  H   1.0    0.04    1.02    1.43   103.44632     5.43470    26.31517
   216  H   1.0    0.04    1.01    1.43   106.24528     4.71958    28.06838
   217  H   1.0    0.15    1.06    1.44   103.16780     3.75242    31.38130
   218  N   5.0   -0.13    3.54    2.11   100.80202     8.62702    32.17956
   219  C   4.0    0.03    4.51    4.54    98.33919     9.49673    33.00042
   220  C   4.0    0.15    3.49    3.11    98.33773    12.37660    33.28414
   221  O   6.0   -0.30    1.27    1.80    96.59857    13.68234    32.47963
   222  C   4.0   -0.02    4.26    4.12    97.54542     8.16809    35.45846
   223  C   4.0   -0.08    4.12    3.84    94.88011     8.98443    36.20636
   224  C   4.0   -0.07    4.12    3.85    97.64847     5.30246    35.12055
   225  H   1.0    0.11    1.09    1.44   101.94863     7.83776    33.48853
   226  H   1.0    0.05    1.06    1.44    96.98894     9.05963    31.49052
   227  H   1.0    0.05    1.05    1.44    98.88438     8.75357    36.92274
   228  H   1.0    0.03    1.00    1.43    94.37154     8.14173    38.00644
   229  H   1.0    0.05    1.00    1.43    94.75985    11.02768    36.36970
   230  H   1.0    0.04    1.00    1.43    93.52616     8.36916    34.78808
   231  H   1.0    0.04    1.00    1.43    96.88481     4.36554    36.77981
   232  H   1.0    0.04    1.00    1.43    96.53183     4.75214    33.48688
   233  H   1.0    0.06    1.01    1.43    99.56854     4.63837    34.83144
   234  N   5.0   -0.14    3.54    2.11   100.31275    13.35380    34.50749
   235  C   4.0    0.04    4.52    4.56   100.74011    16.05764    34.53281
   236  C   4.0    0.16    3.53    3.13   100.54831    17.06067    31.82724
   237  O   6.0   -0.28    1.24    1.80    99.27946    18.93380    31.30419
   238  C   4.0   -0.02    4.33    4.25   103.30405    16.66693    35.75791
   239  C   4.0   -0.05    4.19    3.97   103.25312    15.88884    38.55349
   240  C   4.0   -0.06    4.13    3.86   103.93260    19.46029    35.41619
   241  C   4.0   -0.07    4.01    3.64   105.80721    16.12792    39.86217
   242  H   1.0    0.11    1.12    1.45   101.77160    12.22644    35.01856
   243  H   1.0    0.05    1.05    1.44    99.20897    16.97900    35.59430
   244  H   1.0    0.07    1.06    1.44   104.74246    15.56342    34.75713
   245  H   1.0    0.04    1.03    1.43   101.87108    17.05698    39.53965
   246  H   1.0    0.05    1.03    1.43   102.65720    13.91872    38.65611
   247  H   1.0    0.05    1.00    1.43   105.79058    19.88008    36.18260
   248  H   1.0    0.06    1.00    1.43   103.99575    19.94262    33.41482
   249  H   1.0    0.04    1.00    1.43   102.52905    20.64682    36.33501
   250  H   1.0    0.04    1.00    1.43   105.71717    15.35675    41.76382
   251  H   1.0    0.05    1.00    1.43   107.24226    15.10586    38.79968
   252  H   1.0    0.04    1.00    1.43   106.39825    18.08816    39.99625
   253  N   5.0   -0.13    3.55    2.11   101.72011    15.67398    30.07493
   254  C   4.0    0.05    4.45    4.46   101.73862    16.49271    27.46754
   255  C   4.0    0.16    3.47    3.10    99.04014    16.49111    26.45191
   256  O   6.0   -0.27    1.24    1.80    98.21756    18.26334    25.19496
   257  C   4.0   -0.03    4.26    4.12   103.45898    14.82537    25.88917
   258  C   4.0    0.26    3.10    3.02   106.32021    15.27924    26.56045
   259  O   6.0   -0.27    1.18    1.80   106.97264    17.50800    26.89576
   260  O   6.0   -0.29    1.16    1.80   107.68429    13.35666    26.60985
   261  H   1.0    0.12    1.11    1.45   103.01681    14.36335    30.58603
   262  H   1.0    0.08    1.05    1.44   102.45368    18.44665    27.35614
   263  H   1.0    0.07    1.03    1.43   102.99074    12.83969    26.15748
   264  H   1.0    0.05    1.03    1.43   103.25461    15.30259    23.89038
   265  N   5.0   -0.13    3.49    2.07    97.64437    14.48405    27.03717
   266  C   4.0    0.05    4.32    4.24    95.01653    14.25696    26.28204
   267  C   4.0    0.11    3.28    3.05    93.54358    16.62744    27.02243
   268  O   6.0   -0.28    1.11    1.80    92.00816    17.61311    25.58982
   269  C   4.0   -0.04    4.34    4.27    93.89210    11.91491    27.56875
   270  C   4.0   -0.01    3.56    3.14    91.15546    11.48450    26.94622
   271  C   4.0   -0.04    3.46    3.10    90.46901     9.92892    24.94716
   272  C   4.0   -0.03    3.47    3.10    89.27020    12.58706    28.40482
   273  C   4.0   -0.04    3.37    3.07    87.94661     9.51058    24.39346
   274  C   4.0   -0.04    3.37    3.07    86.74896    12.15570    27.86444
   275  C   4.0   -0.04    3.37    3.07    86.08265    10.62382    25.85211
   276  H   1.0    0.11    1.11    1.44    98.48548    12.94486    27.81565
   277  H   1.0    0.06    1.05    1.44    94.88899    14.08809    24.21565
   278  H   1.0    0.04    1.03    1.43    95.02815    10.30168    26.96576
   279  H   1.0    0.06    1.05    1.44    94.12223    12.17310    29.60116
   280  H   1.0    0.04    1.03    1.43    91.92620     9.02761    23.83494
   281  H   1.0    0.05    1.03    1.43    89.79572    13.76991    29.98297
   282  H   1.0    0.04    1.03    1.43    87.44431     8.31559    22.81998
   283  H   1.0    0.05    1.03    1.43    85.30331    13.00297    29.02523
   284  H   1.0    0.04    1.03    1.43    84.11711    10.28657    25.43362
   285  N   5.0   -0.22    3.20    1.96    97.07856     0.40806    18.22116
   286  C   4.0    0.03    4.32    4.24    99.58114     0.51107    19.32207
   287  C   4.0    0.14    3.50    3.12    99.55477     0.02400    22.16365
   288  O   6.0   -0.33    1.40    1.80   101.20161    -1.35007    23.07064
   289  C   4.0   -0.05    4.24    4.09   100.94401     3.00620    18.78618
   290  C   4.0   -0.05    4.19    3.98   103.47061     3.25001    20.19862
   291  C   4.0   -0.05    4.17    3.93   105.30010     1.05253    19.70434
   292  C   4.0   -0.04    4.11    3.82   107.72720     1.31943    21.24205
   293  N   5.0   -0.12    4.00    2.87   109.34708    -0.97933    21.07599
   294  H   1.0    0.07    1.02    1.43    96.30461     1.98113    17.45225
   295  H   1.0    0.04    1.06    1.44   100.65122    -1.07395    18.51482
   296  H   1.0    0.03    1.03    1.43   101.25446     3.15133    16.75507
   297  H   1.0    0.04    1.03    1.43    99.69015     4.53684    19.36865
   298  H   1.0    0.04    1.03    1.43   104.34874     5.01887    19.61309
   299  H   1.0    0.05    1.03    1.43   103.09309     3.36606    22.22279
   300  H   1.0    0.05    1.04    1.43   104.38507    -0.70049    20.27204
   301  H   1.0    0.03    1.02    1.43   105.72602     0.98013    17.69180
   302  H   1.0    0.04    1.02    1.43   108.83295     2.91608    20.55027
   303  H   1.0    0.04    1.02    1.43   107.24537     1.62732    23.22153
   304  H   1.0    0.05    1.02    1.43   110.97841    -0.74086    22.10512
   305  H   1.0    0.05    1.01    1.43   108.53608    -2.63618    21.76568
   306  H   1.0    0.05    1.02    1.43   109.82880    -1.34821    19.22897
   307  N   5.0   -0.15    3.45    2.05    97.88380     1.20942    23.60601
   308  C   4.0    0.04    4.44    4.45    98.02242     0.77024    26.31344
   309  C   4.0    0.09    3.28    3.05    97.78972    -2.06160    26.85238
   310  O   6.0   -0.31    1.14    1.80    99.08226    -3.07661    28.48874
   311  C   4.0   -0.03    4.31    4.21    96.18981     2.39191    27.87882
   312  C   4.0   -0.05    4.18    3.96    93.43706     1.52723    27.66902
   313  C   4.0   -0.07    4.14    3.88    96.53669     5.16179    27.16172
   314  C   4.0   -0.08    4.02    3.66    91.62238     3.14721    29.21366
   315  H   1.0    0.07    1.06    1.44    96.51699     2.30837    22.84563
   316  H   1.0    0.06    1.06    1.44    99.94257     1.26466    26.93943
   317  H   1.0    0.04    1.06    1.44    96.80009     2.15532    29.84362
   318  H   1.0    0.04    1.03    1.43    92.85547     1.54121    25.69688
   319  H   1.0    0.04    1.03    1.43    93.30787    -0.41886    28.34100
   320  H   1.0    0.04    1.00    1.43    95.49837     6.35388    28.46675
   321  H   1.0    0.06    1.00    1.43    98.52088     5.67440    27.26254
   322  H   1.0    0.04    1.00    1.43    95.86229     5.53305    25.25690
   323  H   1.0    0.04    1.00    1.43    89.77274     2.25732    29.26372
   324  H   1.0    0.04    1.00    1.43    92.30994     3.32825    31.14076
   325  H   1.0    0.04    1.00    1.43    91.40906     5.01653    28.38888
   326  N   5.0   -0.21    3.25    1.97   104.01965    -5.02269    25.15366
   327  C   4.0    0.04    4.31    4.21   105.86798    -4.33224    27.04262
   328  C   4.0    0.15    3.43    3.09   105.70305    -6.11990    29.30535
   329  O   6.0   -0.32    1.30    1.80   107.60591    -7.11258    30.20232
   330  C   4.0    0.04    4.15    3.90   105.51164    -1.58604    27.88884
   331  O   6.0   -0.26    2.06    1.83   107.67962    -0.90342    29.27305
   332  H   1.0    0.13    1.10    1.44   102.82143    -3.67162    24.49882
   333  H   1.0    0.04    1.05    1.44   107.76984    -4.57307    26.23906
   334  H   1.0    0.05    1.01    1.43   105.27726    -0.39291    26.21056
   335  H   1.0    0.06    1.01    1.43   103.78344    -1.41889    29.02056
   336  H   1.0    0.13    1.02    1.43   107.53524     0.82239    29.85591
   337  N   5.0   -0.15    3.48    2.07   103.39777    -6.45242    30.23965
   338  C   4.0    0.03    4.31    4.22   102.89199    -8.16595    32.32093
   339  C   4.0    0.09    3.26    3.05   103.95989   -10.78392    31.75646
   340  O   6.0   -0.31    1.15    1.80   105.23204   -11.93732    33.32835
   341  C   4.0   -0.05    4.35    4.30   100.02399    -8.25484    32.72929
   342  C   4.0   -0.02    4.18    3.95    99.09009   -10.17836    34.68304
   343  C   4.0   -0.08    4.10    3.81   100.03844    -9.55915    37.33397
   344  C   4.0   -0.08    4.10    3.81    96.20237   -10.25501    34.65883
   345  H   1.0    0.10    1.09    1.44   101.87934    -5.59131    29.44183
   346  H   1.0    0.05    1.05    1.44   103.86646    -7.47709    34.01723
   347  H   1.0    0.05    1.03    1.43    99.41760    -6.36567    33.29028
   348  H   1.0    0.04    1.03    1.43    99.17249    -8.68973    30.90317
   349  H   1.0    0.04    1.06    1.44    99.78686   -12.04711    34.13922
   350  H   1.0    0.04    1.00    1.43    99.26856   -10.89356    38.69241
   351  H   1.0    0.04    1.00    1.43   102.08503    -9.66737    37.41288
   352  H   1.0    0.04    1.00    1.43    99.45560    -7.66451    37.87798
   353  H   1.0    0.03    1.00    1.43    95.50145   -11.70735    35.93251
   354  H   1.0    0.04    1.00    1.43    95.43690    -8.44665    35.26354
   355  H   1.0    0.04    1.00    1.43    95.48962   -10.66086    32.77467
   356  N   5.0   -0.20    3.25    1.97   111.53244   -11.07398    30.80543
   357  C   4.0    0.04    4.33    4.25   113.13210   -10.13299    32.80264
   358  C   4.0    0.15    3.40    3.08   112.47229   -11.13882    35.43790
   359  O   6.0   -0.31    1.24    1.80   113.97928   -10.90255    37.17716
   360  C   4.0   -0.03    4.33    4.25   113.04455    -7.23643    32.86592
   361  C   4.0    0.15    3.24    3.04   114.29171    -6.15577    30.50973
   362  O   6.0   -0.31    1.19    1.80   116.57798    -6.15898    30.20240
   363  N   5.0   -0.19    3.19    1.95   112.65596    -5.17632    28.84684
   364  H   1.0    0.11    1.05    1.44   109.95695   -10.05501    30.41112
   365  H   1.0    0.06    1.05    1.44   115.07004   -10.75494    32.38942
   366  H   1.0    0.06    1.04    1.43   111.08787    -6.61430    32.99125
   367  H   1.0    0.05    1.04    1.43   114.10562    -6.60995    34.51246
   368  H   1.0    0.09    1.03    1.43   113.28474    -4.64161    27.13183
   369  H   1.0    0.11    1.06    1.44   110.77288    -5.36585    29.13027
   370  N   5.0   -0.14    3.47    2.06   110.21256   -12.23066    35.68746
   371  C   4.0    0.04    4.41    4.39   109.39579   -13.30698    38.06858
   372  C   4.0    0.08    3.23    3.04   108.62902   -16.07491    37.73810
   373  O   6.0   -0.29    1.12    1.80   109.72375   -17.75337    38.89328
   374  C   4.0   -0.02    4.31    4.21   107.26362   -11.74416    39.31368
   375  C   4.0   -0.04    4.19    3.98   108.29385    -9.12818    40.02622
   376  C   4.0   -0.08    4.14    3.88   106.23123   -13.14407    41.61522
   377  C   4.0   -0.08    4.02    3.65   106.35947    -7.40727    41.28689
   378  H   1.0    0.11    1.09    1.44   108.93088   -12.14029    34.26983
   379  H   1.0    0.07    1.07    1.44   111.06956   -13.29952    39.28924
   380  H   1.0    0.05    1.05    1.44   105.75770   -11.51593    37.91688
   381  H   1.0    0.05    1.03    1.43   109.88680    -9.36840    41.31142
   382  H   1.0    0.05    1.03    1.43   108.98606    -8.20642    38.31449
   383  H   1.0    0.03    1.00    1.43   104.59503   -12.16916    42.37541
   384  H   1.0    0.05    1.01    1.43   105.64244   -15.04208    41.10514
   385  H   1.0    0.04    1.00    1.43   107.67012   -13.27164    43.07406
   386  H   1.0    0.05    1.00    1.43   107.20687    -5.57277    41.65500
   387  H   1.0    0.04    1.00    1.43   104.71752    -7.13683    40.08366
   388  H   1.0    0.04    1.00    1.43   105.74336    -8.19440    43.07725
   389  N   5.0   -0.21    3.24    1.97   138.64498    16.10054    45.97433
   390  C   4.0    0.03    4.29    4.18   138.96910    13.51993    45.08827
   391  C   4.0    0.07    3.22    3.04   141.43111    13.45199    43.58254
   392  O   6.0   -0.30    1.14    1.80   141.92796    15.09836    42.04638
   393  C   4.0   -0.03    4.32    4.23   136.59225    12.66551    43.60831
   394  C   4.0   -0.05    4.17    3.94   136.63316     9.81469    43.09867
   395  C   4.0   -0.07    4.11    3.83   136.21911    14.17906    41.17863
   396  C   4.0   -0.08    4.01    3.64   133.98430     8.76625    42.63918
   397  H   1.0    0.09    1.03    1.43   139.23698    17.44992    44.75386
   398  H   1.0    0.03    1.05    1.44   139.13775    12.30428    46.75086
   399  H   1.0    0.03    1.06    1.44   135.01657    13.03018    44.90183
   400  H   1.0    0.04    1.02    1.43   137.83913     9.37487    41.48171
   401  H   1.0    0.04    1.03    1.43   137.42285     8.80744    44.71906
   402  H   1.0    0.03    1.00    1.43   134.58954    13.42711    40.18351
   403  H   1.0    0.04    1.00    1.43   135.98016    16.16721    41.62136
   404  H   1.0    0.05    1.00    1.43   137.85181    13.96390    39.95229
   405  H   1.0    0.04    1.00    1.43   134.02049     6.71610    42.78367
   406  H   1.0    0.04    1.00    1.43   132.67925     9.44595    44.07281
   407  H   1.0    0.04    1.00    1.43   133.28603     9.26078    40.77407
   408  N   5.0   -0.22    3.19    1.95    87.61705   -13.14482    37.53331
   409  C   4.0    0.03    4.22    4.04    87.41386   -10.41118    37.57142
   410  C   4.0    0.08    3.23    3.04    84.76797    -9.59445    38.41747
   411  O   6.0   -0.29    1.11    1.80    84.44453    -8.04758    40.11300
   412  C   4.0   -0.04    4.32    4.24    87.97906    -9.33453    34.93893
   413  C   4.0   -0.01    3.57    3.15    87.79173    -6.49945    34.90504
   414  C   4.0   -0.04    3.47    3.10    89.83350    -5.02250    35.64114
   415  C   4.0   -0.04    3.47    3.10    85.58117    -5.30328    34.15076
   416  C   4.0   -0.04    3.37    3.07    89.67796    -2.41310    35.60489
   417  C   4.0   -0.04    3.37    3.07    85.41605    -2.69315    34.12519
   418  C   4.0   -0.04    3.37    3.07    87.46731    -1.24157    34.84578
   419  H   1.0    0.07    1.02    1.43    88.33855   -13.96200    35.95472
   420  H   1.0    0.05    1.05    1.44    88.74164    -9.62178    38.96133
   421  H   1.0    0.03    1.03    1.43    89.87771    -9.93021    34.39475
   422  H   1.0    0.04    1.03    1.43    86.63205   -10.15263    33.61194
   423  H   1.0    0.04    1.03    1.43    91.56178    -5.92780    36.24118
   424  H   1.0    0.05    1.03    1.43    83.97422    -6.42381    33.57924
   425  H   1.0    0.04    1.03    1.43    91.28142    -1.27904    36.16069
   426  H   1.0    0.04    1.03    1.43    83.68516    -1.78268    33.54389
   427  H   1.0    0.04    1.03    1.43    87.34821     0.79470    34.81905
   428  H   1.0    0.10    1.08    1.44   116.55200    24.46486    33.98079
   429  H   1.0    0.05    1.05    1.44   123.26080    -4.65112    49.81961
   430  H   1.0    0.10    1.08    1.44   116.71511    -7.54837    41.50352
   431  H   1.0    0.07    1.05    1.44    93.81795    17.41988    28.71590
   432  H   1.0    0.09    1.07    1.44    97.06425    -0.71990    16.94834
   433  H   1.0    0.05    1.05    1.44    96.57034    -3.11435    25.86450
   434  H   1.0    0.09    1.07    1.44   104.81484    -5.60214    23.76640
   435  H   1.0    0.05    1.05    1.44   103.63189   -11.59740    30.08262
   436  H   1.0    0.10    1.07    1.44   112.41549   -11.13797    29.35330
   437  H   1.0    0.06    1.04    1.44   107.21783   -16.53107    36.56697
   438  H   1.0    0.08    1.08    1.44   136.99631    16.39689    46.26866
   439  H   1.0    0.04    1.04    1.44   142.66308    12.04404    43.84898
   440  H   1.0    0.09    1.07    1.44    88.62672   -13.65682    38.80255
   441  H   1.0    0.05    1.05    1.44    83.24024   -10.32730    37.58080

  Z AO/shell   Hii/eV     exponent
  1     Wed Apr 25 08:07:45 CEST 2018   EN: 2.200 GM2: 0.406  GM3: 0.0800  RAES: 1.40
     1s    -10.707211    1.230000
  6     Wed Apr 25 08:07:45 CEST 2018   EN: 2.550 GM2: 0.538  GM3: 0.1500  RAES: 3.00
     2s    -13.970922    2.096432
     2p    -10.063292    1.800000
  7     Wed Apr 25 08:07:45 CEST 2018   EN: 3.040 GM2: 0.461  GM3:-0.0640  RAES: 1.90
     2s    -16.686243    2.339881
     2p    -12.523956    2.014332
  8     Wed Apr 25 08:07:45 CEST 2018   EN: 3.440 GM2: 0.452  GM3:-0.0517  RAES: 1.80
     2s    -20.229985    2.439742
     2p    -15.503117    2.137023
 no old-style atom pair restraining (fixing) potential

molecular fragmentation (1/2 indicates fragments):
111111111111111111111111111111111111111111111111111111111111111111111111
111111111111111111111111111111122222222222222222222222222222222222222222
222222222222222222222222222222222222222222222222222222222222222222222222
222222222222222222222222222222222222222222222222222222222222222222222222
222222222222222222222222222222222222222222222222222222222222222222222222
222222222222222222222222222222222222222222222222222222222222222222211222
222222222
# atoms in fragment 1/2:   105   336
 fragment masses (1/2) :      777.85     2224.75
CMA distance (Bohr)    :  17.483
constraining FC (au)   :  0.0500
           ------------------------------------------------- 
          |        Self-Consistent Charge Iterations        |
           ------------------------------------------------- 

 Ncao       : 1083
 Nao        : 1083
 Nshell     : 655
 Nel        : 1186
 T(el)      :   500.0
 intcut     :    35.0
 scfconv/Eh :  0.100E-06
   qconv/e  :  0.100E-04
 intneglect :  0.100E-08
 broydamp   :      0.400
 iter      E             dE          RMSdq      gap      omega  full diag
   1   -674.4241428 -0.674424E+03  0.452E+00    2.76       0.0  T
   2   -675.9138494 -0.148971E+01  0.218E+00    1.74       1.0  T
   3   -676.0003805 -0.865312E-01  0.123E+00    2.27       1.0  T
   4   -676.1075805 -0.107200E+00  0.247E-01    1.60       1.0  T
   5   -676.1141254 -0.654488E-02  0.125E-01    1.80       1.0  T
   6   -676.1153389 -0.121355E-02  0.588E-02    1.86       1.0  T
   7   -676.1157858 -0.446833E-03  0.256E-02    1.88       1.0  T
   8   -676.1158407 -0.549756E-04  0.132E-02    1.86       1.0  T
   9   -676.1158600 -0.192188E-04  0.623E-03    1.84       1.0  T
  10   -676.1158641 -0.409089E-05  0.312E-03    1.84       1.5  T
  11   -676.1158651 -0.107169E-05  0.137E-03    1.84       3.5  T
  12   -676.1158654 -0.248910E-06  0.638E-04    1.84       7.5  T
  13   -676.1158654 -0.395859E-07  0.280E-04    1.84      17.0  T
  14   -676.1158654 -0.580428E-08  0.138E-04    1.83      34.5  T
  15   -676.1158654 -0.221007E-08  0.537E-05    1.83      88.6  T
  16   -676.1158654 -0.287287E-09  0.256E-05    1.83     186.4  T
speedup  1.93
cpu  time for SCC   20.09 s
wall time for SCC   10.41 s

   *** convergence criteria satisfied after 16 iterations ***

          eigenvalues
 #    :         581        582        583        584        585        586        587        588
 occ. :        2.000      2.000      2.000      2.000      2.000      2.000      2.000      2.000
 eps  :       -10.461    -10.392    -10.389    -10.035    -10.011     -9.983     -9.970     -9.957
 #    :         589        590        591        592        593        594        595        596
 occ. :        2.000      2.000      2.000      2.000      2.000      0.000      0.000      0.000
 eps  :        -9.944     -9.936     -9.910     -9.840     -9.772     -7.937     -7.883     -7.742
 #    :         597        598        599        600        601        602        603        604
 occ. :        0.000      0.000      0.000      0.000      0.000      0.000      0.000      0.000
 eps  :        -7.722     -7.722     -7.704     -7.603     -7.059     -6.977     -6.870     -6.807


   #   Z            q   n(s)   n(p)   n(d)      C6AA      α(0)
   1   7 N     -0.395  1.321  4.074  0.000    30.235     8.166
   2   6 C      0.051  1.052  2.897  0.000    19.732     6.326
   3   6 C      0.277  1.046  2.677  0.000    22.318     7.736
   4   8 O     -0.445  1.720  4.725  0.000    22.607     6.375
   5   6 C     -0.094  1.078  3.016  0.000    22.300     6.723
   6   6 C      0.374  1.023  2.604  0.000    20.665     7.439
   7   8 O     -0.658  1.780  4.878  0.000    27.600     7.044
   8   8 O     -0.644  1.775  4.869  0.000    27.226     6.996
   9   1 H      0.187  0.813  0.000  0.000     1.173     1.696
  10   1 H      0.012  0.988  0.000  0.000     2.850     2.640
  11   1 H      0.031  0.969  0.000  0.000     2.573     2.508
  12   1 H      0.008  0.992  0.000  0.000     2.931     2.677
  13   7 N     -0.186  1.247  3.940  0.000    25.040     7.432
  14   6 C      0.027  1.065  2.909  0.000    20.135     6.390
  15   6 C      0.287  1.044  2.669  0.000    22.138     7.705
  16   8 O     -0.434  1.756  4.678  0.000    22.376     6.342
  17   6 C     -0.075  1.053  3.021  0.000    21.923     6.665
  18   6 C      0.016  1.079  2.905  0.000    27.659     8.627
  19   6 C     -0.031  1.083  2.948  0.000    28.772     8.796
  20   6 C     -0.044  1.080  2.964  0.000    29.092     8.845
  21   6 C     -0.034  1.080  2.954  0.000    28.846     8.808
  22   6 C     -0.037  1.080  2.957  0.000    28.921     8.819
  23   6 C     -0.038  1.079  2.958  0.000    28.943     8.822
  24   1 H      0.163  0.837  0.000  0.000     1.313     1.795
  25   1 H      0.085  0.915  0.000  0.000     1.926     2.170
  26   1 H      0.073  0.927  0.000  0.000     2.057     2.243
  27   1 H      0.072  0.928  0.000  0.000     2.069     2.249
  28   1 H      0.037  0.963  0.000  0.000     2.493     2.469
  29   1 H      0.029  0.971  0.000  0.000     2.597     2.520
  30   1 H      0.035  0.965  0.000  0.000     2.520     2.483
  31   1 H      0.032  0.968  0.000  0.000     2.561     2.502
  32   1 H      0.037  0.963  0.000  0.000     2.495     2.470
  33   7 N     -0.234  1.290  3.944  0.000    26.131     7.592
  34   6 C      0.035  1.051  2.914  0.000    19.987     6.365
  35   6 C      0.265  1.044  2.691  0.000    22.534     7.773
  36   8 O     -0.489  1.734  4.755  0.000    23.551     6.507
  37   6 C     -0.108  1.035  3.073  0.000    22.616     6.781
  38   1 H      0.211  0.789  0.000  0.000     1.050     1.605
  39   1 H      0.069  0.931  0.000  0.000     2.101     2.267
  40   1 H      0.060  0.940  0.000  0.000     2.201     2.320
  41   1 H      0.030  0.970  0.000  0.000     2.582     2.513
  42   1 H      0.068  0.932  0.000  0.000     2.112     2.272
  43   7 N     -0.176  1.242  3.934  0.000    24.801     7.396
  44   6 C      0.009  1.069  2.923  0.000    20.445     6.440
  45   6 C      0.275  1.045  2.680  0.000    22.354     7.742
  46   8 O     -0.428  1.734  4.694  0.000    22.247     6.324
  47   6 C     -0.083  1.055  3.028  0.000    22.078     6.689
  48   6 C     -0.078  1.049  3.028  0.000    21.978     6.674
  49   6 C     -0.092  1.054  3.038  0.000    22.259     6.717
  50   6 C     -0.051  1.059  2.992  0.000    21.577     6.629
  51   7 N     -0.139  1.226  3.913  0.000    24.008     7.277
  52   1 H      0.203  0.797  0.000  0.000     1.089     1.635
  53   1 H      0.091  0.909  0.000  0.000     1.872     2.140
  54   1 H      0.091  0.909  0.000  0.000     1.868     2.137
  55   1 H      0.069  0.931  0.000  0.000     2.092     2.262
  56   1 H      0.028  0.972  0.000  0.000     2.608     2.526
  57   1 H      0.078  0.922  0.000  0.000     1.998     2.211
  58   1 H      0.088  0.912  0.000  0.000     1.896     2.153
  59   1 H      0.077  0.923  0.000  0.000     2.015     2.220
  60   1 H      0.104  0.896  0.000  0.000     1.747     2.067
  61   1 H      0.120  0.880  0.000  0.000     1.610     1.985
  62   1 H      0.304  0.696  0.000  0.000     0.702     1.313
  63   1 H      0.289  0.711  0.000  0.000     0.747     1.354
  64   1 H      0.297  0.703  0.000  0.000     0.721     1.330
  65   7 N     -0.204  1.263  3.941  0.000    25.430     7.490
  66   6 C      0.020  1.065  2.916  0.000    20.251     6.408
  67   6 C      0.272  1.042  2.686  0.000    22.400     7.750
  68   8 O     -0.486  1.748  4.737  0.000    23.466     6.495
  69   6 C     -0.045  1.051  2.994  0.000    21.364     6.580
  70   6 C     -0.094  1.066  3.029  0.000    22.303     6.725
  71   6 C      0.368  1.026  2.606  0.000    20.754     7.455
  72   8 O     -0.640  1.769  4.872  0.000    27.133     6.984
  73   8 O     -0.641  1.774  4.866  0.000    27.145     6.985
  74   1 H      0.195  0.805  0.000  0.000     1.131     1.666
  75   1 H      0.082  0.918  0.000  0.000     1.963     2.191
  76   1 H      0.040  0.960  0.000  0.000     2.443     2.445
  77   1 H      0.038  0.962  0.000  0.000     2.469     2.457
  78   1 H      0.026  0.974  0.000  0.000     2.648     2.545
  79   1 H      0.010  0.990  0.000  0.000     2.894     2.660
  80   7 N     -0.161  1.228  3.932  0.000    24.476     7.348
  81   6 C      0.023  1.057  2.920  0.000    20.197     6.400
  82   6 C      0.197  1.086  2.717  0.000    23.801     7.990
  83   8 O     -0.355  1.749  4.607  0.000    20.808     6.116
  84   6 C     -0.066  1.051  3.015  0.000    21.746     6.637
  85   6 C     -0.045  1.061  2.985  0.000    29.067     8.842
  86   6 C     -0.006  1.063  2.943  0.000    28.134     8.700
  87   6 C     -0.026  1.072  2.954  0.000    28.451     8.735
  88   7 N     -0.110  1.224  3.886  0.000    23.397     7.184
  89   6 C      0.044  1.061  2.896  0.000    26.918     8.505
  90   6 C     -0.045  1.079  2.966  0.000    29.121     8.849
  91   6 C     -0.057  1.071  2.986  0.000    29.421     8.894
  92   6 C     -0.043  1.077  2.966  0.000    29.078     8.843
  93   6 C     -0.041  1.078  2.963  0.000    29.023     8.835
  94   1 H      0.201  0.799  0.000  0.000     1.100     1.643
  95   1 H      0.097  0.903  0.000  0.000     1.809     2.103
  96   1 H      0.054  0.946  0.000  0.000     2.270     2.356
  97   1 H      0.082  0.918  0.000  0.000     1.961     2.190
  98   1 H      0.023  0.977  0.000  0.000     2.681     2.561
  99   1 H      0.177  0.823  0.000  0.000     1.229     1.737
 100   1 H      0.047  0.953  0.000  0.000     2.352     2.398
 101   1 H      0.027  0.973  0.000  0.000     2.625     2.534
 102   1 H      0.045  0.955  0.000  0.000     2.381     2.413
 103   1 H      0.040  0.960  0.000  0.000     2.444     2.445
 104   7 N     -0.368  1.298  4.069  0.000    29.488     8.065
 105   6 C      0.032  1.060  2.907  0.000    20.042     6.376
 106   6 C      0.268  1.052  2.680  0.000    22.467     7.762
 107   8 O     -0.450  1.729  4.721  0.000    22.716     6.390
 108   6 C     -0.066  1.057  3.010  0.000    21.760     6.639
 109   6 C     -0.004  1.075  2.928  0.000    28.114     8.697
 110   6 C     -0.034  1.082  2.952  0.000    28.856     8.809
 111   6 C     -0.045  1.079  2.966  0.000    29.122     8.850
 112   6 C     -0.058  1.075  2.983  0.000    29.445     8.898
 113   6 C     -0.075  1.078  2.997  0.000    29.869     8.962
 114   6 C      0.146  1.045  2.810  0.000    24.829     8.167
 115   8 O     -0.434  1.719  4.715  0.000    21.512     6.261
 116   1 H      0.164  0.836  0.000  0.000     1.313     1.795
 117   1 H      0.040  0.960  0.000  0.000     2.444     2.445
 118   1 H      0.051  0.949  0.000  0.000     2.312     2.378
 119   1 H      0.028  0.972  0.000  0.000     2.611     2.527
 120   1 H      0.044  0.956  0.000  0.000     2.401     2.423
 121   1 H      0.027  0.973  0.000  0.000     2.627     2.534
 122   1 H      0.050  0.950  0.000  0.000     2.314     2.379
 123   1 H      0.045  0.955  0.000  0.000     2.381     2.413
 124   1 H      0.352  0.648  0.000  0.000     0.584     1.200
 125   7 N     -0.188  1.243  3.945  0.000    25.074     7.437
 126   6 C     -0.019  1.044  2.975  0.000    20.988     6.536
 127   6 C      0.277  1.041  2.682  0.000    22.312     7.735
 128   8 O     -0.499  1.740  4.759  0.000    23.769     6.537
 129   1 H      0.201  0.799  0.000  0.000     1.102     1.644
 130   1 H      0.090  0.910  0.000  0.000     1.876     2.142
 131   1 H      0.084  0.916  0.000  0.000     1.939     2.178
 132   7 N     -0.177  1.246  3.931  0.000    24.840     7.402
 133   6 C      0.022  1.064  2.915  0.000    20.221     6.404
 134   6 C      0.279  1.041  2.680  0.000    22.280     7.730
 135   8 O     -0.500  1.739  4.761  0.000    23.775     6.537
 136   6 C     -0.075  1.062  3.014  0.000    21.934     6.667
 137   6 C     -0.012  1.057  2.955  0.000    20.761     6.481
 138   6 C     -0.123  1.044  3.080  0.000    22.916     6.825
 139   6 C     -0.135  1.043  3.091  0.000    23.144     6.859
 140   1 H      0.207  0.793  0.000  0.000     1.069     1.620
 141   1 H      0.058  0.942  0.000  0.000     2.218     2.329
 142   1 H      0.056  0.944  0.000  0.000     2.241     2.341
 143   1 H      0.061  0.939  0.000  0.000     2.183     2.311
 144   1 H      0.025  0.975  0.000  0.000     2.666     2.553
 145   1 H      0.057  0.943  0.000  0.000     2.238     2.339
 146   1 H      0.034  0.966  0.000  0.000     2.532     2.489
 147   1 H      0.058  0.942  0.000  0.000     2.226     2.333
 148   1 H      0.059  0.941  0.000  0.000     2.211     2.326
 149   1 H      0.067  0.933  0.000  0.000     2.122     2.278
 150   1 H      0.037  0.963  0.000  0.000     2.491     2.468
 151   7 N     -0.175  1.248  3.928  0.000    24.799     7.396
 152   6 C      0.020  1.063  2.917  0.000    20.242     6.406
 153   6 C      0.278  1.045  2.677  0.000    22.304     7.734
 154   8 O     -0.487  1.737  4.751  0.000    23.508     6.501
 155   6 C     -0.083  1.056  3.027  0.000    22.068     6.687
 156   6 C      0.006  1.079  2.915  0.000    27.893     8.663
 157   6 C     -0.042  1.079  2.963  0.000    29.043     8.838
 158   6 C     -0.042  1.082  2.960  0.000    29.036     8.837
 159   6 C     -0.032  1.079  2.953  0.000    28.800     8.800
 160   6 C     -0.033  1.081  2.953  0.000    28.834     8.806
 161   6 C     -0.035  1.079  2.955  0.000    28.861     8.810
 162   1 H      0.225  0.775  0.000  0.000     0.989     1.558
 163   1 H      0.096  0.904  0.000  0.000     1.824     2.112
 164   1 H      0.083  0.917  0.000  0.000     1.944     2.181
 165   1 H      0.062  0.938  0.000  0.000     2.172     2.305
 166   1 H      0.045  0.955  0.000  0.000     2.388     2.416
 167   1 H      0.038  0.962  0.000  0.000     2.476     2.461
 168   1 H      0.050  0.950  0.000  0.000     2.316     2.380
 169   1 H      0.041  0.959  0.000  0.000     2.432     2.439
 170   1 H      0.042  0.958  0.000  0.000     2.424     2.435
 171   7 N     -0.169  1.247  3.922  0.000    24.656     7.375
 172   6 C      0.020  1.064  2.917  0.000    20.245     6.406
 173   6 C      0.289  1.042  2.669  0.000    22.101     7.699
 174   8 O     -0.503  1.742  4.761  0.000    23.851     6.548
 175   6 C     -0.024  1.069  2.955  0.000    20.969     6.513
 176   6 C     -0.064  1.051  3.013  0.000    21.727     6.636
 177   6 C     -0.114  1.037  3.077  0.000    22.729     6.798
 178   6 C     -0.120  1.040  3.080  0.000    22.866     6.819
 179   1 H      0.214  0.786  0.000  0.000     1.039     1.597
 180   1 H      0.093  0.907  0.000  0.000     1.854     2.129
 181   1 H      0.067  0.933  0.000  0.000     2.114     2.274
 182   1 H      0.046  0.954  0.000  0.000     2.372     2.409
 183   1 H      0.030  0.970  0.000  0.000     2.584     2.514
 184   1 H      0.047  0.953  0.000  0.000     2.358     2.401
 185   1 H      0.050  0.950  0.000  0.000     2.315     2.379
 186   1 H      0.016  0.984  0.000  0.000     2.790     2.612
 187   1 H      0.054  0.946  0.000  0.000     2.271     2.357
 188   1 H      0.048  0.952  0.000  0.000     2.340     2.392
 189   1 H      0.055  0.945  0.000  0.000     2.253     2.347
 190   7 N     -0.194  1.256  3.939  0.000    25.218     7.458
 191   6 C      0.048  1.051  2.901  0.000    19.763     6.328
 192   6 C      0.302  1.033  2.665  0.000    21.870     7.659
 193   8 O     -0.514  1.758  4.755  0.000    24.087     6.580
 194   6 C     -0.070  1.051  3.019  0.000    21.825     6.650
 195   6 C     -0.075  1.048  3.027  0.000    21.933     6.667
 196   6 C      0.290  1.041  2.669  0.000    22.088     7.695
 197   8 O     -0.492  1.733  4.759  0.000    23.601     6.513
 198   7 N     -0.285  1.275  4.011  0.000    27.369     7.770
 199   1 H      0.232  0.768  0.000  0.000     0.957     1.533
 200   1 H      0.021  0.979  0.000  0.000     2.712     2.575
 201   1 H      0.069  0.931  0.000  0.000     2.100     2.266
 202   1 H      0.078  0.922  0.000  0.000     2.003     2.213
 203   1 H      0.042  0.958  0.000  0.000     2.417     2.431
 204   1 H      0.028  0.972  0.000  0.000     2.609     2.526
 205   1 H      0.216  0.784  0.000  0.000     1.027     1.587
 206   1 H      0.253  0.747  0.000  0.000     0.874     1.464
 207   7 N     -0.197  1.249  3.948  0.000    25.273     7.466
 208   6 C      0.017  1.060  2.923  0.000    20.294     6.414
 209   6 C      0.280  1.039  2.681  0.000    22.264     7.727
 210   8 O     -0.497  1.739  4.758  0.000    23.721     6.530
 211   6 C      0.069  1.037  2.894  0.000    19.639     6.348
 212   8 O     -0.447  1.690  4.757  0.000    21.780     6.300
 213   1 H      0.236  0.764  0.000  0.000     0.940     1.519
 214   1 H      0.062  0.938  0.000  0.000     2.176     2.307
 215   1 H      0.076  0.924  0.000  0.000     2.025     2.225
 216   1 H      0.051  0.949  0.000  0.000     2.307     2.375
 217   1 H      0.330  0.670  0.000  0.000     0.637     1.254
 218   7 N     -0.167  1.240  3.927  0.000    24.615     7.369
 219   6 C      0.019  1.066  2.915  0.000    20.264     6.409
 220   6 C      0.275  1.043  2.682  0.000    22.344     7.741
 221   8 O     -0.496  1.751  4.746  0.000    23.705     6.528
 222   6 C     -0.018  1.061  2.957  0.000    20.852     6.495
 223   6 C     -0.121  1.040  3.081  0.000    22.874     6.819
 224   6 C     -0.127  1.042  3.086  0.000    22.999     6.838
 225   1 H      0.216  0.784  0.000  0.000     1.028     1.588
 226   1 H      0.085  0.915  0.000  0.000     1.925     2.170
 227   1 H      0.037  0.963  0.000  0.000     2.483     2.464
 228   1 H      0.070  0.930  0.000  0.000     2.090     2.261
 229   1 H      0.028  0.972  0.000  0.000     2.614     2.528
 230   1 H      0.061  0.939  0.000  0.000     2.191     2.315
 231   1 H      0.066  0.934  0.000  0.000     2.131     2.283
 232   1 H      0.061  0.939  0.000  0.000     2.183     2.311
 233   1 H      0.057  0.943  0.000  0.000     2.239     2.340
 234   7 N     -0.200  1.257  3.943  0.000    25.340     7.476
 235   6 C      0.031  1.064  2.905  0.000    20.053     6.375
 236   6 C      0.291  1.041  2.667  0.000    22.059     7.691
 237   8 O     -0.517  1.753  4.764  0.000    24.156     6.590
 238   6 C     -0.011  1.061  2.949  0.000    20.732     6.476
 239   6 C     -0.064  1.052  3.011  0.000    21.722     6.635
 240   6 C     -0.098  1.034  3.064  0.000    22.436     6.754
 241   6 C     -0.091  1.032  3.059  0.000    22.303     6.735
 242   1 H      0.227  0.773  0.000  0.000     0.976     1.548
 243   1 H      0.063  0.937  0.000  0.000     2.161     2.299
 244   1 H      0.027  0.973  0.000  0.000     2.629     2.536
 245   1 H      0.054  0.946  0.000  0.000     2.269     2.355
 246   1 H      0.053  0.947  0.000  0.000     2.279     2.361
 247   1 H      0.042  0.958  0.000  0.000     2.429     2.437
 248   1 H      0.005  0.995  0.000  0.000     2.979     2.699
 249   1 H      0.055  0.945  0.000  0.000     2.264     2.353
 250   1 H      0.055  0.945  0.000  0.000     2.264     2.353
 251   1 H      0.007  0.993  0.000  0.000     2.934     2.679
 252   1 H      0.034  0.966  0.000  0.000     2.529     2.487
 253   7 N     -0.208  1.261  3.947  0.000    25.524     7.503
 254   6 C      0.059  1.049  2.892  0.000    19.587     6.301
 255   6 C      0.280  1.044  2.676  0.000    22.260     7.726
 256   8 O     -0.520  1.751  4.769  0.000    24.228     6.599
 257   6 C     -0.100  1.072  3.028  0.000    22.408     6.740
 258   6 C      0.377  1.022  2.601  0.000    20.607     7.429
 259   8 O     -0.651  1.787  4.864  0.000    27.415     7.020
 260   8 O     -0.627  1.751  4.875  0.000    26.781     6.938
 261   1 H      0.215  0.785  0.000  0.000     1.032     1.591
 262   1 H      0.026  0.974  0.000  0.000     2.650     2.546
 263   1 H      0.050  0.950  0.000  0.000     2.323     2.384
 264   1 H      0.031  0.969  0.000  0.000     2.572     2.508
 265   7 N     -0.181  1.252  3.929  0.000    24.911     7.413
 266   6 C      0.043  1.059  2.898  0.000    19.860     6.346
 267   6 C      0.222  1.080  2.697  0.000    23.317     7.908
 268   8 O     -0.369  1.747  4.622  0.000    21.075     6.155
 269   6 C     -0.080  1.056  3.024  0.000    22.015     6.678
 270   6 C      0.010  1.079  2.910  0.000    27.783     8.646
 271   6 C     -0.041  1.081  2.960  0.000    29.009     8.833
 272   6 C     -0.036  1.081  2.955  0.000    28.900     8.816
 273   6 C     -0.034  1.081  2.953  0.000    28.840     8.806
 274   6 C     -0.031  1.080  2.951  0.000    28.762     8.795
 275   6 C     -0.035  1.081  2.954  0.000    28.870     8.811
 276   1 H      0.227  0.773  0.000  0.000     0.979     1.550
 277   1 H      0.077  0.923  0.000  0.000     2.016     2.220
 278   1 H      0.077  0.923  0.000  0.000     2.012     2.218
 279   1 H      0.074  0.926  0.000  0.000     2.046     2.237
 280   1 H      0.048  0.952  0.000  0.000     2.350     2.397
 281   1 H      0.017  0.983  0.000  0.000     2.783     2.609
 282   1 H      0.057  0.943  0.000  0.000     2.233     2.337
 283   1 H      0.039  0.961  0.000  0.000     2.460     2.453
 284   1 H      0.050  0.950  0.000  0.000     2.320     2.382
 285   7 N     -0.397  1.310  4.087  0.000    30.296     8.175
 286   6 C      0.025  1.059  2.916  0.000    20.162     6.396
 287   6 C      0.262  1.052  2.686  0.000    22.592     7.785
 288   8 O     -0.486  1.730  4.756  0.000    23.472     6.496
 289   6 C     -0.075  1.058  3.018  0.000    21.939     6.668
 290   6 C     -0.070  1.050  3.019  0.000    21.833     6.653
 291   6 C     -0.097  1.053  3.044  0.000    22.356     6.732
 292   6 C     -0.047  1.060  2.987  0.000    21.511     6.621
 293   7 N     -0.134  1.224  3.909  0.000    23.888     7.259
 294   1 H      0.157  0.843  0.000  0.000     1.352     1.821
 295   1 H      0.064  0.936  0.000  0.000     2.154     2.295
 296   1 H      0.058  0.942  0.000  0.000     2.220     2.330
 297   1 H      0.039  0.961  0.000  0.000     2.456     2.451
 298   1 H      0.046  0.954  0.000  0.000     2.368     2.406
 299   1 H      0.034  0.966  0.000  0.000     2.534     2.490
 300   1 H      0.092  0.908  0.000  0.000     1.856     2.131
 301   1 H      0.082  0.918  0.000  0.000     1.958     2.188
 302   1 H      0.116  0.884  0.000  0.000     1.649     2.008
 303   1 H      0.101  0.899  0.000  0.000     1.780     2.086
 304   1 H      0.292  0.708  0.000  0.000     0.738     1.346
 305   1 H      0.282  0.718  0.000  0.000     0.769     1.374
 306   1 H      0.306  0.694  0.000  0.000     0.695     1.306
 307   7 N     -0.151  1.236  3.915  0.000    24.268     7.316
 308   6 C      0.012  1.066  2.922  0.000    20.362     6.423
 309   6 C      0.204  1.086  2.710  0.000    23.664     7.967
 310   8 O     -0.355  1.740  4.615  0.000    20.806     6.116
 311   6 C     -0.022  1.066  2.956  0.000    20.931     6.507
 312   6 C     -0.067  1.049  3.018  0.000    21.784     6.645
 313   6 C     -0.114  1.037  3.077  0.000    22.735     6.798
 314   6 C     -0.111  1.036  3.076  0.000    22.694     6.794
 315   1 H      0.209  0.791  0.000  0.000     1.060     1.612
 316   1 H      0.103  0.897  0.000  0.000     1.760     2.075
 317   1 H      0.059  0.941  0.000  0.000     2.210     2.325
 318   1 H      0.051  0.949  0.000  0.000     2.305     2.374
 319   1 H      0.045  0.955  0.000  0.000     2.382     2.414
 320   1 H      0.044  0.956  0.000  0.000     2.398     2.421
 321   1 H      0.042  0.958  0.000  0.000     2.427     2.436
 322   1 H      0.045  0.955  0.000  0.000     2.384     2.415
 323   1 H      0.048  0.952  0.000  0.000     2.350     2.397
 324   1 H      0.038  0.962  0.000  0.000     2.475     2.460
 325   1 H      0.039  0.961  0.000  0.000     2.468     2.457
 326   7 N     -0.426  1.323  4.103  0.000    31.110     8.284
 327   6 C      0.022  1.062  2.917  0.000    20.223     6.405
 328   6 C      0.266  1.048  2.686  0.000    22.515     7.770
 329   8 O     -0.504  1.743  4.761  0.000    23.876     6.551
 330   6 C      0.066  1.044  2.890  0.000    19.684     6.356
 331   8 O     -0.463  1.708  4.755  0.000    22.106     6.347
 332   1 H      0.206  0.794  0.000  0.000     1.077     1.625
 333   1 H      0.050  0.950  0.000  0.000     2.323     2.383
 334   1 H      0.048  0.952  0.000  0.000     2.341     2.393
 335   1 H      0.042  0.958  0.000  0.000     2.428     2.437
 336   1 H      0.300  0.700  0.000  0.000     0.722     1.335
 337   7 N     -0.160  1.245  3.915  0.000    24.463     7.346
 338   6 C      0.027  1.058  2.914  0.000    20.122     6.388
 339   6 C      0.206  1.087  2.707  0.000    23.624     7.960
 340   8 O     -0.369  1.752  4.617  0.000    21.066     6.154
 341   6 C     -0.086  1.064  3.022  0.000    22.130     6.696
 342   6 C     -0.010  1.055  2.955  0.000    20.721     6.475
 343   6 C     -0.117  1.039  3.078  0.000    22.802     6.809
 344   6 C     -0.117  1.042  3.075  0.000    22.786     6.806
 345   1 H      0.239  0.761  0.000  0.000     0.929     1.510
 346   1 H      0.079  0.921  0.000  0.000     1.985     2.203
 347   1 H      0.078  0.922  0.000  0.000     2.003     2.213
 348   1 H      0.070  0.930  0.000  0.000     2.085     2.258
 349   1 H      0.031  0.969  0.000  0.000     2.569     2.507
 350   1 H      0.045  0.955  0.000  0.000     2.382     2.413
 351   1 H      0.039  0.961  0.000  0.000     2.464     2.455
 352   1 H      0.043  0.957  0.000  0.000     2.408     2.427
 353   1 H      0.043  0.957  0.000  0.000     2.405     2.425
 354   1 H      0.044  0.956  0.000  0.000     2.391     2.418
 355   1 H      0.044  0.956  0.000  0.000     2.401     2.423
 356   7 N     -0.405  1.315  4.089  0.000    30.509     8.203
 357   6 C      0.043  1.055  2.902  0.000    19.864     6.348
 358   6 C      0.268  1.046  2.686  0.000    22.477     7.764
 359   8 O     -0.505  1.747  4.758  0.000    23.899     6.554
 360   6 C     -0.096  1.062  3.035  0.000    22.324     6.725
 361   6 C      0.288  1.036  2.676  0.000    22.125     7.702
 362   8 O     -0.507  1.754  4.753  0.000    23.937     6.560
 363   7 N     -0.289  1.273  4.016  0.000    27.461     7.783
 364   1 H      0.184  0.816  0.000  0.000     1.193     1.711
 365   1 H      0.044  0.956  0.000  0.000     2.399     2.422
 366   1 H      0.064  0.936  0.000  0.000     2.148     2.292
 367   1 H      0.048  0.952  0.000  0.000     2.346     2.395
 368   1 H      0.223  0.777  0.000  0.000     0.996     1.563
 369   1 H      0.233  0.767  0.000  0.000     0.951     1.527
 370   7 N     -0.166  1.243  3.923  0.000    24.585     7.364
 371   6 C      0.018  1.064  2.918  0.000    20.278     6.412
 372   6 C      0.205  1.087  2.708  0.000    23.637     7.962
 373   8 O     -0.368  1.759  4.610  0.000    21.059     6.153
 374   6 C     -0.024  1.069  2.956  0.000    20.972     6.514
 375   6 C     -0.055  1.048  3.007  0.000    21.563     6.611
 376   6 C     -0.117  1.038  3.079  0.000    22.799     6.808
 377   6 C     -0.112  1.037  3.076  0.000    22.709     6.796
 378   1 H      0.227  0.773  0.000  0.000     0.976     1.548
 379   1 H      0.086  0.914  0.000  0.000     1.914     2.163
 380   1 H      0.064  0.936  0.000  0.000     2.157     2.297
 381   1 H      0.040  0.960  0.000  0.000     2.455     2.450
 382   1 H      0.027  0.973  0.000  0.000     2.630     2.536
 383   1 H      0.064  0.936  0.000  0.000     2.149     2.292
 384   1 H      0.036  0.964  0.000  0.000     2.502     2.474
 385   1 H      0.046  0.954  0.000  0.000     2.365     2.405
 386   1 H      0.042  0.958  0.000  0.000     2.426     2.436
 387   1 H      0.045  0.955  0.000  0.000     2.386     2.415
 388   1 H      0.046  0.954  0.000  0.000     2.372     2.408
 389   7 N     -0.395  1.332  4.063  0.000    30.223     8.165
 390   6 C      0.032  1.061  2.907  0.000    20.060     6.380
 391   6 C      0.207  1.083  2.710  0.000    23.615     7.959
 392   8 O     -0.372  1.753  4.619  0.000    21.128     6.163
 393   6 C     -0.027  1.075  2.953  0.000    21.025     6.522
 394   6 C     -0.064  1.050  3.014  0.000    21.731     6.637
 395   6 C     -0.123  1.038  3.084  0.000    22.911     6.825
 396   6 C     -0.113  1.039  3.074  0.000    22.717     6.797
 397   1 H      0.166  0.834  0.000  0.000     1.298     1.785
 398   1 H      0.047  0.953  0.000  0.000     2.359     2.402
 399   1 H      0.056  0.944  0.000  0.000     2.252     2.347
 400   1 H      0.034  0.966  0.000  0.000     2.533     2.489
 401   1 H      0.028  0.972  0.000  0.000     2.608     2.525
 402   1 H      0.062  0.938  0.000  0.000     2.180     2.309
 403   1 H      0.056  0.944  0.000  0.000     2.249     2.345
 404   1 H      0.044  0.956  0.000  0.000     2.401     2.423
 405   1 H      0.032  0.968  0.000  0.000     2.553     2.499
 406   1 H      0.046  0.954  0.000  0.000     2.364     2.405
 407   1 H      0.049  0.951  0.000  0.000     2.338     2.391
 408   7 N     -0.392  1.316  4.076  0.000    30.159     8.156
 409   6 C      0.046  1.056  2.899  0.000    19.828     6.343
 410   6 C      0.204  1.092  2.704  0.000    23.657     7.965
 411   8 O     -0.388  1.765  4.623  0.000    21.437     6.208
 412   6 C     -0.076  1.058  3.018  0.000    21.945     6.668
 413   6 C      0.008  1.082  2.910  0.000    27.840     8.655
 414   6 C     -0.040  1.080  2.960  0.000    28.988     8.830
 415   6 C     -0.042  1.081  2.961  0.000    29.032     8.836
 416   6 C     -0.032  1.080  2.952  0.000    28.805     8.801
 417   6 C     -0.033  1.080  2.953  0.000    28.810     8.802
 418   6 C     -0.035  1.080  2.955  0.000    28.878     8.812
 419   1 H      0.176  0.824  0.000  0.000     1.234     1.740
 420   1 H      0.044  0.956  0.000  0.000     2.398     2.422
 421   1 H      0.070  0.930  0.000  0.000     2.089     2.260
 422   1 H      0.060  0.940  0.000  0.000     2.195     2.317
 423   1 H      0.043  0.957  0.000  0.000     2.410     2.427
 424   1 H      0.028  0.972  0.000  0.000     2.615     2.529
 425   1 H      0.038  0.962  0.000  0.000     2.475     2.460
 426   1 H      0.030  0.970  0.000  0.000     2.591     2.517
 427   1 H      0.032  0.968  0.000  0.000     2.553     2.499
 428   1 H      0.171  0.829  0.000  0.000     1.268     1.764
 429   1 H      0.086  0.914  0.000  0.000     1.916     2.164
 430   1 H      0.183  0.817  0.000  0.000     1.194     1.712
 431   1 H      0.055  0.945  0.000  0.000     2.262     2.352
 432   1 H      0.187  0.813  0.000  0.000     1.174     1.697
 433   1 H      0.081  0.919  0.000  0.000     1.973     2.196
 434   1 H      0.187  0.813  0.000  0.000     1.173     1.697
 435   1 H      0.080  0.920  0.000  0.000     1.980     2.200
 436   1 H      0.181  0.819  0.000  0.000     1.210     1.723
 437   1 H      0.083  0.917  0.000  0.000     1.944     2.180
 438   1 H      0.190  0.810  0.000  0.000     1.155     1.684
 439   1 H      0.055  0.945  0.000  0.000     2.256     2.349
 440   1 H      0.185  0.815  0.000  0.000     1.187     1.706
 441   1 H      0.073  0.927  0.000  0.000     2.048     2.238

 Mol. C6AA /au·bohr⁶  :    1851068.827935
 Mol. C8AA /au·bohr⁸  :   41620222.486724
 Mol. α(0) /au        :       2056.404142

 
molecular dipole:
                 x           y           z       tot (Debye)
 q only:      -99.077     -38.180     -43.924
   full:      -97.245     -35.559     -44.791     286.753
molecular quadrupole (traceless):
                xx          xy          yy          xz          yz          zz
 q only:    -8184.653   -5627.176    4873.131   -6648.681   -1645.437    3311.522
  q+dip:    -7805.477   -5192.939    4719.430   -6706.770   -1502.744    3086.047
   full:    -7813.294   -5189.620    4722.841   -6710.497   -1505.127    3090.453
speedup  1.94
cpu  time for grad   23.63 s
wall time for grad   12.18 s

SCC energy    :    -676.1365018
rep           :       8.6715023
ES            :       2.1384759
AES           :      -0.1022850
AXC           :       0.2386360
disp          :      -0.5905343
XB            :       0.0000000
fix           :       0.0000000
Gborn         :       0.0000000
Gsasa         :       0.0000000
Ghb           :       0.0000000
Gshift        :       0.0000000
Gsolv         :      -0.6601996     -414.28
Etot ala COSMO:    -676.1365018
grad norm     :       0.5925339
total E       :    -667.4060566
atomizationE  :     126.4104749    79323.77
(atE without considering molecular charge,
 total energy contains solvation terms)
H-L gap (eV)  :          1.8348

------------------------------------------------------------------------
 * finished run on 2019/05/11 at 08:42:42.824     
------------------------------------------------------------------------
 total:
 * wall-time:     0 d,  0 h,  0 min, 13.009 sec
 *  cpu-time:     0 d,  0 h,  0 min, 25.022 sec
 * ratio c/w:     1.923 speedup
 SCF:
 * wall-time:     0 d,  0 h,  0 min, 12.628 sec
 *  cpu-time:     0 d,  0 h,  0 min, 24.530 sec
 * ratio c/w:     1.942 speedup

