      -----------------------------------------------------------      
     |                   =====================                   |     
     |                           x T B                           |     
     |                   =====================                   |     
     |                         S. Grimme                         |     
     |          Mulliken Center for Theoretical Chemistry        |     
     |                    University of Bonn                     |     
     |                 Version 6.0.1 (SAW181210)                 |     
      -----------------------------------------------------------      

   This program is distributed in the hope that it will be useful,
   but WITHOUT ANY WARRANTY; without even the implied warranty of
   MERCHANTABILITY or FITNESS FOR A PARTICULAR PURPOSE.
   
   FOR NON-COMMERCIAL, ACADEMIA USE ONLY.
   
   Cite this work as:
   S. Grimme, C. Bannwarth, P. Shushkov, J. Comput. Theory Chem., 2017,
   13, 1989-2009.
   C. Bannwarth, S. Ehlert and S. Grimme., ChemRxiv, 2018, preprint.
   http://doi.org/10.26434/chemrxiv.7246238.v1
   
   for sTDA-xTB:
   S. Grimme and C. Bannwarth, J. Chem. Phys., 2016, 145, 054103.
   
   in the mass-spec context:
   V. Asgeirsson, C. Bauer and S. Grimme, Chem. Sci., 2017, 8, 4879.
   
   if GBSA is used:
   P. Shushkov, F. März and S. Grimme, unpublished.
   
   for ANC optimizer:
   S. Grimme, unpublished.
   Rational Function algorithm used in ANCopt:
   F. Eckert, P. Pulay, H.-J. Werner, J. Comput. Chem., 1997, 18, 1473.
   
   with help from (in alphabetical order)
   C. Bannwarth, F. Bohle, G. Brandenburg, E. Caldeweyher, M. Checinski,
   S. Dohm, S. Ehlert, S. Ehrlich, F. März, H. Neugebauer, J. Pisarek,
   P. Pracht, P. Shushkov, and S. Spicher.
   
 * started run on 2019/05/05 at 21:45:16.088     
========================================================================
 # omp threads = 2
========================================================================
number of atoms            : 622
number of electrons        : 1704
charge                     : -1
spin                       : .0
first test random number   : .3028

########################################################################
# WARNING! Please study the warnings concerning your input carefully
#  - Process number higher than OMP_NUM_THREADS, I hope you know what you are doing.
########################################################################

           ------------------------------------------------- 
          |                 G F N 2 - x T B                 |
          | Geometry, Frequencies, Noncovalent interactions |
          |            JCTC 2018 parametrisation            |
           ------------------------------------------------- 
 
      method parameters     
 k(s)        :  1.8500
 k(p)        :  2.2300
 k(d)        :  2.2300
 k(f)        :  2.0000
 kEN (H0ij)  : -2.0000
 D4 a1       :  0.5200
 D4 a2       :  5.0000
 D4 s6       :  1.0000
 D4 s8       :  2.7000
 D4 s9       :  5.0000
 alphaj      :  2.0000

 Solvent             : h2o
 Using internal parameter file: .param_gbsa2_h2o
 Gsolv ref. state (COSMO-RS): gsolv [1 M gas/solution]
 temperature (mdtemp)       :    298.150000000000     
 dielectric constant        :    80.2000000000000     
 rho                        :    1.00000000000000     
 mass                       :    18.0000000000000     
 surface tension            :    15.5689454083859     
 probe radius               :   0.975313790000000     
 vdW radii scaling          :    1.00000000000000     
 Gshift (Eh)                :   1.857443126794793E-003
 c1                         :    1.55243817000000     
 soset                      :   0.130326360000000     
 HB correction              :  T

            Z     q(EN)     CN     RAES       Cart. coordinates
     1  N   5.0   -0.12    4.09    3.12    82.23898    89.93206   149.17308
     2  C   4.0    0.01    4.31    4.22    80.51177    90.27788   151.37083
     3  C   4.0    0.15    3.38    3.07    81.95741    90.20040   153.86149
     4  O   6.0   -0.28    1.22    1.80    81.77978    91.97296   155.36382
     5  C   4.0   -0.04    4.27    4.14    78.41040    88.25965   151.39917
     6  C   4.0   -0.04    4.17    3.94    76.66618    88.21619   149.10127
     7  C   4.0    0.25    3.11    3.03    75.16763    90.65204   148.70442
     8  O   6.0   -0.28    1.17    1.80    74.13206    91.01865   146.60116
     9  O   6.0   -0.28    1.19    1.80    75.00889    92.21296   150.47132
    10  H   1.0    0.06    1.02    1.43    81.70041    88.33524   148.16207
    11  H   1.0    0.06    1.01    1.43    82.13883    91.50998   148.00712
    12  H   1.0    0.07    1.03    1.43    84.08147    89.70907   149.81747
    13  H   1.0    0.07    1.06    1.44    79.61604    92.12414   151.19130
    14  H   1.0    0.04    1.03    1.43    79.30046    86.40583   151.52201
    15  H   1.0    0.06    1.03    1.43    77.22743    88.58468   153.05457
    16  H   1.0    0.05    1.03    1.43    77.80569    87.90438   147.41374
    17  H   1.0    0.05    1.03    1.43    75.31125    86.68173   149.32992
    18  N   5.0   -0.13    3.44    2.04    83.38983    88.16705   154.28479
    19  C   4.0    0.04    4.31    4.22    84.61248    87.70407   156.74143
    20  C   4.0    0.08    3.21    3.04    87.45841    88.10847   156.72064
    21  O   6.0   -0.29    1.13    1.80    88.71696    87.52266   154.86304
    22  C   4.0   -0.04    4.33    4.25    84.10036    85.00365   157.62015
    23  C   4.0   -0.02    3.53    3.13    81.35270    84.41973   158.11148
    24  C   4.0   -0.05    3.48    3.10    79.74644    83.70730   156.15183
    25  C   4.0   -0.05    3.46    3.10    80.34548    84.56335   160.52655
    26  C   4.0   -0.05    3.44    3.09    77.19908    83.16873   156.57702
    27  C   4.0   -0.04    3.42    3.09    77.80569    84.03233   160.97064
    28  C   4.0    0.07    3.44    3.09    76.23721    83.33125   158.99398
    29  O   6.0   -0.24    2.10    1.84    73.73900    82.74354   159.40783
    30  H   1.0    0.09    1.06    1.44    83.74321    86.80456   152.96765
    31  H   1.0    0.06    1.07    1.44    83.83580    89.08546   158.05668
    32  H   1.0    0.05    1.04    1.43    84.76177    83.70352   156.16506
    33  H   1.0    0.04    1.04    1.43    85.12837    84.67862   159.37571
    34  H   1.0    0.05    1.03    1.43    80.49099    83.56746   154.25644
    35  H   1.0    0.05    1.03    1.43    81.54923    85.09436   162.08746
    36  H   1.0    0.05    1.03    1.43    75.98966    82.62827   155.02367
    37  H   1.0    0.06    1.03    1.43    77.05547    84.16839   162.86414
    38  H   1.0    0.12    1.03    1.43    72.93019    82.25599   157.81479
    39  N   5.0   -0.19    3.21    1.96    74.63284    69.43798   168.00986
    40  C   4.0    0.03    4.25    4.10    74.88039    67.90730   165.75353
    41  C   4.0    0.15    3.39    3.08    73.03980    65.68120   165.89148
    42  O   6.0   -0.30    1.23    1.80    72.73744    64.50769   167.88703
    43  C   4.0   -0.08    4.10    3.80    77.60349    67.01157   165.44551
    44  H   1.0    0.08    1.02    1.43    75.76478    68.89941   169.47440
    45  H   1.0    0.05    1.06    1.44    74.40985    69.00523   164.07546
    46  H   1.0    0.04    1.01    1.43    77.74333    65.86640   163.73908
    47  H   1.0    0.03    1.00    1.43    78.83748    68.65374   165.29244
    48  H   1.0    0.05    1.01    1.43    78.13072    65.88718   167.08957
    49  N   5.0   -0.14    3.45    2.05    71.82281    65.13318   163.75798
    50  C   4.0    0.04    4.44    4.45    70.00112    63.09417   163.59735
    51  C   4.0    0.14    3.44    3.09    70.95543    61.07972   161.82479
    52  O   6.0   -0.30    1.24    1.80    71.81337    61.67121   159.75176
    53  C   4.0   -0.04    4.28    4.17    67.48022    64.10328   162.61848
    54  C   4.0   -0.05    4.21    4.02    65.35428    62.16254   162.47297
    55  C   4.0   -0.05    4.18    3.95    64.58894    61.13641   165.04866
    56  C   4.0   -0.04    4.13    3.86    62.35340    59.34873   164.81812
    57  N   5.0   -0.12    4.01    2.88    62.83528    57.15665   163.10414
    58  H   1.0    0.10    1.07    1.44    72.07226    66.08561   162.10069
    59  H   1.0    0.05    1.07    1.44    69.74790    62.24946   165.45873
    60  H   1.0    0.05    1.03    1.43    66.85283    65.61128   163.87325
    61  H   1.0    0.06    1.03    1.43    67.76935    64.84217   160.71741
    62  H   1.0    0.04    1.03    1.43    63.69699    63.04504   161.62448
    63  H   1.0    0.05    1.03    1.43    65.97411    60.57517   161.31646
    64  H   1.0    0.05    1.03    1.43    66.16875    60.10273   165.87258
    65  H   1.0    0.04    1.03    1.43    64.05037    62.69922   166.27888
    66  H   1.0    0.04    1.02    1.43    61.90364    58.60229   166.68517
    67  H   1.0    0.04    1.02    1.43    60.74146    60.39186   164.06979
    68  H   1.0    0.05    1.01    1.43    61.24413    56.00581   163.02288
    69  H   1.0    0.06    1.02    1.43    63.25291    57.79727   161.29378
    70  H   1.0    0.08    1.03    1.43    64.35273    56.10218   163.77310
    71  N   5.0   -0.14    3.47    2.06    70.77591    58.70623   162.64304
    72  C   4.0    0.03    4.35    4.29    71.32771    56.53493   161.03678
    73  C   4.0    0.07    3.23    3.04    69.32460    54.53182   161.28244
    74  O   6.0   -0.31    1.17    1.80    67.91297    54.49592   163.11925
    75  C   4.0   -0.04    4.39    4.36    73.86183    55.40488   161.75109
    76  C   4.0   -0.04    4.09    3.78    76.03690    57.17177   161.18229
    77  S   6.0   -0.04    2.50    3.10    79.02267    55.55605   161.11237
    78  C   4.0   -0.06    3.89    3.44    79.16818    54.30505   164.27199
    79  H   1.0    0.09    1.06    1.44    70.24489    58.22435   164.43261
    80  H   1.0    0.05    1.06    1.44    71.35416    57.16421   159.07524
    81  H   1.0    0.05    1.04    1.43    73.87506    55.00047   163.77121
    82  H   1.0    0.04    1.05    1.44    74.15096    53.66822   160.68340
    83  H   1.0    0.05    1.07    1.44    75.73455    58.04293   159.33980
    84  H   1.0    0.05    1.07    1.44    76.12761    58.62308   162.64115
    85  H   1.0    0.05    1.04    1.43    80.92562    53.25626   164.49686
    86  H   1.0    0.04    1.04    1.43    79.10393    55.86597   165.61558
    87  H   1.0    0.04    1.04    1.43    77.56002    53.05406   164.57245
    88  N   5.0   -0.19    3.22    1.96    88.96452    76.73421   167.19728
    89  C   4.0    0.03    4.44    4.45    90.73330    76.44508   165.11858
    90  C   4.0    0.15    3.51    3.12    93.40348    76.62272   166.12581
    91  O   6.0   -0.29    1.25    1.80    93.96662    78.33859   167.59601
    92  C   4.0   -0.02    4.40    4.38    90.40638    78.52000   163.13626
    93  C   4.0   -0.05    4.24    4.08    88.06690    77.99466   161.53755
    94  C   4.0   -0.07    4.19    3.97    92.67594    78.61638   161.38449
    95  C   4.0   -0.08    4.03    3.68    85.93151    79.74832   162.12148
    96  H   1.0    0.08    1.03    1.43    88.22753    78.50866   167.35791
    97  H   1.0    0.05    1.06    1.44    90.38181    74.60071   164.27388
    98  H   1.0    0.05    1.06    1.44    90.21363    80.31146   164.13404
    99  H   1.0    0.04    1.04    1.43    88.55067    78.21765   159.54767
   100  H   1.0    0.04    1.04    1.43    87.42817    76.06903   161.89660
   101  H   1.0    0.04    1.00    1.43    92.38681    80.10926   159.99554
   102  H   1.0    0.06    1.02    1.43    94.36536    79.00755   162.49564
   103  H   1.0    0.06    1.00    1.43    92.86680    76.79846   160.43395
   104  H   1.0    0.04    1.00    1.43    84.32713    79.27400   160.91961
   105  H   1.0    0.04    1.00    1.43    85.41183    79.53668   164.10380
   106  H   1.0    0.04    1.00    1.43    86.53433    81.68340   161.75676
   107  N   5.0   -0.14    3.47    2.06    95.06455    74.91441   165.30756
   108  C   4.0    0.05    4.46    4.47    97.72718    75.14117   165.99920
   109  C   4.0    0.15    3.38    3.07    99.60745    75.04291   163.80145
   110  O   6.0   -0.29    1.27    1.80   101.85623    74.99377   164.27955
   111  C   4.0   -0.02    4.29    4.18    98.41315    73.24767   168.08167
   112  C   4.0    0.26    3.16    3.03    98.04843    70.55481   167.25775
   113  O   6.0   -0.28    1.25    1.80    96.96751    70.20143   165.17150
   114  O   6.0   -0.27    1.16    1.80    98.82889    68.83138   168.69961
   115  H   1.0    0.11    1.07    1.44    94.63370    73.39885   164.19640
   116  H   1.0    0.06    1.08    1.44    97.98040    77.03279   166.77587
   117  H   1.0    0.07    1.03    1.43   100.39169    73.49711   168.59568
   118  H   1.0    0.06    1.03    1.43    97.21128    73.58404   169.72007
   119  N   5.0   -0.13    3.46    2.05    98.75141    75.05236   161.43929
   120  C   4.0    0.03    4.40    4.38   100.38035    75.74966   159.28878
   121  C   4.0    0.14    3.44    3.09    98.79109    77.22743   157.42929
   122  O   6.0   -0.30    1.24    1.80    96.79554    76.28635   156.62994
   123  C   4.0   -0.03    4.27    4.14   101.45939    73.44042   157.91684
   124  C   4.0   -0.02    4.18    3.95   102.54976    71.35416   159.58358
   125  C   4.0    0.25    3.11    3.02   105.07443    70.28647   158.65005
   126  O   6.0   -0.26    1.17    1.80   106.76007    69.88962   160.27711
   127  O   6.0   -0.26    1.16    1.80   105.40513    69.84427   156.32947
   128  H   1.0    0.10    1.06    1.44    96.94861    74.59126   160.93851
   129  H   1.0    0.06    1.06    1.44   101.95071    76.88350   159.98798
   130  H   1.0    0.06    1.04    1.43    99.94950    72.59571   156.80001
   131  H   1.0    0.06    1.04    1.43   102.97684    74.08104   156.67907
   132  H   1.0    0.08    1.05    1.44   102.85400    72.11194   161.47519
   133  H   1.0    0.07    1.03    1.43   101.20238    69.79703   159.65728
   134  N   5.0   -0.13    3.42    2.03    99.61879    79.51400   156.73198
   135  C   4.0    0.03    4.42    4.42    98.25819    80.97665   154.78178
   136  C   4.0    0.15    3.47    3.10    98.75897    79.77289   152.21554
   137  O   6.0   -0.28    1.25    1.80   100.84900    78.90740   151.80735
   138  C   4.0   -0.05    4.30    4.20    99.01408    83.76777   154.74399
   139  C   4.0   -0.04    4.04    3.69    96.84090    85.52522   155.45075
   140  S   6.0   -0.03    2.43    3.10    97.44939    88.90405   155.19941
   141  C   4.0   -0.07    3.87    3.42   100.04209    89.45018   157.32724
   142  H   1.0    0.08    1.05    1.44   101.17782    80.39083   157.45197
   143  H   1.0    0.04    1.07    1.44    96.24563    80.95397   155.22020
   144  H   1.0    0.04    1.03    1.43   100.54098    84.06635   156.09514
   145  H   1.0    0.06    1.04    1.43    99.64525    84.26477   152.84670
   146  H   1.0    0.05    1.07    1.44    95.24975    85.10570   154.21109
   147  H   1.0    0.04    1.07    1.44    96.32500    85.15105   157.41039
   148  H   1.0    0.04    1.04    1.43   100.53153    91.45140   157.28945
   149  H   1.0    0.04    1.04    1.43    99.47517    88.90216   159.23020
   150  H   1.0    0.04    1.04    1.43   101.65592    88.32201   156.72253
   151  N   5.0   -0.08    3.64    2.20    96.84657    79.66518   150.51667
   152  C   4.0    0.04    4.48    4.51    97.10168    78.29324   148.09215
   153  C   4.0    0.08    3.22    3.04    97.96528    80.01856   145.96243
   154  O   6.0   -0.28    1.15    1.80    97.99174    82.31646   146.31770
   155  C   4.0   -0.04    4.35    4.30    94.43150    77.36727   147.61216
   156  C   4.0   -0.04    4.31    4.21    92.82712    79.46676   148.65907
   157  C   4.0   -0.01    4.32    4.23    94.28788    80.75744   150.76234
   158  H   1.0    0.05    1.05    1.44    98.40181    76.70587   148.27168
   159  H   1.0    0.04    1.03    1.43    94.11213    77.11216   145.59394
   160  H   1.0    0.06    1.03    1.43    94.09512    75.59660   148.60805
   161  H   1.0    0.05    1.03    1.43    92.41327    80.81035   147.15485
   162  H   1.0    0.05    1.03    1.43    91.07534    78.67118   149.39606
   163  H   1.0    0.05    1.02    1.43    94.32945    82.79834   150.48266
   164  H   1.0    0.04    1.02    1.43    93.47340    80.31524   152.60104
   165  N   5.0   -0.19    3.21    1.96    91.61580    78.12505   133.60929
   166  C   4.0    0.03    4.27    4.14    92.76476    77.36349   136.04704
   167  C   4.0    0.14    3.40    3.08    92.64381    74.43064   136.11696
   168  O   6.0   -0.29    1.25    1.80    91.75564    73.25523   134.28204
   169  C   4.0    0.05    4.16    3.92    91.34746    78.58992   138.34873
   170  O   6.0   -0.25    2.09    1.84    90.96385    81.23554   137.90086
   171  C   4.0   -0.08    4.05    3.70    92.77799    78.31402   140.88474
   172  H   1.0    0.10    1.04    1.43    90.33835    76.82870   132.97435
   173  H   1.0    0.05    1.05    1.44    94.72440    77.98899   136.15098
   174  H   1.0    0.04    1.04    1.43    89.55411    77.59215   138.53392
   175  H   1.0    0.12    1.01    1.43    90.07946    81.99899   139.33705
   176  H   1.0    0.04    1.00    1.43    91.70084    79.20030   142.40030
   177  H   1.0    0.03    1.01    1.43    93.04444    76.32036   141.33071
   178  H   1.0    0.05    1.00    1.43    94.62236    79.22298   140.75624
   179  N   5.0   -0.15    3.45    2.05    93.57545    73.25523   138.15597
   180  C   4.0    0.03    4.32    4.24    92.87058    70.63985   138.78525
   181  C   4.0    0.15    3.37    3.07    89.98686    70.40741   139.08572
   182  O   6.0   -0.30    1.20    1.80    88.97208    68.33627   138.75124
   183  C   4.0   -0.08    4.09    3.79    94.21040    69.75545   141.17765
   184  H   1.0    0.07    1.06    1.44    94.81133    74.05080   139.40319
   185  H   1.0    0.06    1.06    1.44    93.48663    69.39641   137.26213
   186  H   1.0    0.05    1.00    1.43    93.64726    67.81660   141.58394
   187  H   1.0    0.04    1.00    1.43    96.24563    69.84616   140.87907
   188  H   1.0    0.05    1.00    1.43    93.67372    70.98567   142.74045
   189  N   5.0   -0.14    3.45    2.05    88.76232    72.54280   139.75846
   190  C   4.0    0.04    4.32    4.24    85.97497    72.97933   139.96444
   191  C   4.0    0.15    3.37    3.07    85.11893    72.25178   142.65541
   192  O   6.0   -0.28    1.22    1.80    82.90228    71.64707   143.12784
   193  C   4.0   -0.02    4.28    4.15    84.45941    71.59605   137.86496
   194  C   4.0    0.15    3.21    3.04    81.80057    72.65996   137.47378
   195  O   6.0   -0.27    1.22    1.80    80.77445    74.00923   139.07438
   196  N   5.0   -0.19    3.17    1.95    80.66106    72.01368   135.33272
   197  H   1.0    0.07    1.07    1.44    89.71285    74.15663   140.21578
   198  H   1.0    0.05    1.06    1.44    85.54411    74.96921   139.65264
   199  H   1.0    0.05    1.03    1.43    85.47797    71.77179   136.08295
   200  H   1.0    0.06    1.03    1.43    84.27422    69.60995   138.37707
   201  H   1.0    0.09    1.02    1.43    78.88472    72.65807   134.95289
   202  H   1.0    0.08    1.03    1.43    81.56246    70.87228   134.06850
   203  N   5.0   -0.14    3.48    2.07    86.91228    72.42564   144.41853
   204  C   4.0    0.04    4.41    4.40    86.95196    70.80803   146.63329
   205  C   4.0    0.14    3.43    3.09    88.73019    71.87006   148.61750
   206  O   6.0   -0.31    1.23    1.80    90.98841    72.22155   148.11294
   207  C   4.0   -0.04    4.32    4.23    87.90060    68.16808   145.92086
   208  C   4.0   -0.04    4.21    4.02    85.93718    66.40686   144.80970
   209  C   4.0   -0.05    4.19    3.98    87.09558    63.80282   144.36750
   210  C   4.0   -0.04    4.13    3.85    85.39294    62.11907   142.78580
   211  N   5.0   -0.12    4.02    2.91    82.74732    62.07561   143.75523
   212  H   1.0    0.08    1.06    1.44    88.37114    73.68419   144.35428
   213  H   1.0    0.06    1.06    1.44    85.04145    70.75134   147.40240
   214  H   1.0    0.05    1.04    1.43    89.39916    68.37406   144.52246
   215  H   1.0    0.04    1.04    1.43    88.64138    67.26668   147.61783
   216  H   1.0    0.05    1.03    1.43    84.35548    66.21411   146.11550
   217  H   1.0    0.06    1.03    1.43    85.27577    67.15141   143.00690
   218  H   1.0    0.04    1.03    1.43    88.88704    64.01825   143.37540
   219  H   1.0    0.04    1.03    1.43    87.40360    62.88063   146.18353
   220  H   1.0    0.05    1.02    1.43    85.35514    62.82205   140.84883
   221  H   1.0    0.04    1.02    1.43    86.12237    60.19344   142.82360
   222  H   1.0    0.05    1.01    1.43    81.63805    60.90776   142.62896
   223  H   1.0    0.06    1.01    1.43    82.71897    61.39909   145.59960
   224  H   1.0    0.06    1.02    1.43    81.99143    63.88974   143.73067
   225  N   5.0   -0.13    3.49    2.07    87.71919    72.27824   150.88139
   226  C   4.0    0.04    4.43    4.42    89.19506    73.11539   153.03946
   227  C   4.0    0.15    3.43    3.09    89.88104    70.81748   154.61927
   228  O   6.0   -0.30    1.25    1.80    88.25776    69.19987   155.05390
   229  C   4.0   -0.03    4.36    4.32    87.61525    74.87472   154.65895
   230  C   4.0   -0.02    3.54    3.13    86.60236    77.17263   153.33803
   231  C   4.0   -0.04    3.45    3.10    84.34414    77.07814   151.98499
   232  C   4.0   -0.05    3.45    3.10    87.87226    79.47998   153.49488
   233  C   4.0   -0.05    3.41    3.08    83.39361    79.21353   150.77745
   234  C   4.0   -0.04    3.41    3.08    86.94062    81.63805   152.31569
   235  C   4.0    0.06    3.42    3.08    84.69374    81.51144   150.96076
   236  O   6.0   -0.25    2.09    1.84    83.76588    83.66195   149.80047
   237  H   1.0    0.10    1.07    1.44    85.84836    72.03824   151.27823
   238  H   1.0    0.05    1.06    1.44    90.90338    74.08482   152.41963
   239  H   1.0    0.05    1.04    1.43    85.99954    73.81836   155.37705
   240  H   1.0    0.04    1.04    1.43    88.77933    75.53235   156.22553
   241  H   1.0    0.06    1.03    1.43    83.31424    75.31881   151.87161
   242  H   1.0    0.05    1.03    1.43    89.61458    79.59148   154.55313
   243  H   1.0    0.05    1.03    1.43    81.66073    79.09826   149.70409
   244  H   1.0    0.07    1.03    1.43    87.95729    83.40117   152.45175
   245  H   1.0    0.11    1.02    1.43    82.18229    83.27455   148.92174
   246  N   5.0   -0.14    3.39    2.02    92.23563    70.67197   155.50366
   247  C   4.0    0.04    4.40    4.38    92.92538    68.74823   157.40283
   248  C   4.0    0.16    3.43    3.09    91.98808    69.52491   160.06546
   249  O   6.0   -0.31    1.24    1.80    92.29611    71.66408   160.89505
   250  C   4.0   -0.05    4.28    4.16    95.77320    68.24556   157.52189
   251  C   4.0   -0.03    4.30    4.19    96.49886    66.68465   159.81790
   252  C   4.0    0.15    3.23    3.04    98.80621    65.08972   159.46263
   253  O   6.0   -0.27    1.21    1.80   100.48618    65.09539   161.05945
   254  N   5.0   -0.17    3.21    1.96    98.86857    63.62140   157.40472
   255  H   1.0    0.09    1.05    1.44    93.68505    71.82470   154.96509
   256  H   1.0    0.06    1.06    1.44    92.01643    66.98890   156.83214
   257  H   1.0    0.05    1.04    1.44    96.34768    67.21377   155.83436
   258  H   1.0    0.05    1.03    1.43    96.77287    70.04269   157.62393
   259  H   1.0    0.08    1.04    1.43    96.86168    67.96021   161.39393
   260  H   1.0    0.05    1.04    1.43    94.93605    65.42420   160.27711
   261  H   1.0    0.09    1.06    1.44    97.38703    63.62707   156.17073
   262  H   1.0    0.11    1.02    1.43   100.39736    62.49513   157.07024
   263  N   5.0   -0.13    3.53    2.10    90.92794    67.70510   161.40149
   264  C   4.0    0.04    4.44    4.45    89.49553    68.16430   163.65027
   265  C   4.0    0.08    3.27    3.05    90.44795    66.47867   165.77810
   266  O   6.0   -0.31    1.16    1.80    91.17172    64.30548   165.35669
   267  C   4.0   -0.02    4.33    4.25    86.73464    67.58605   163.04555
   268  C   4.0   -0.08    4.14    3.89    85.19263    66.90575   165.36614
   269  C   4.0   -0.07    4.13    3.86    85.59325    69.81026   161.67172
   270  H   1.0    0.11    1.10    1.44    91.04322    65.83616   160.94040
   271  H   1.0    0.05    1.06    1.44    89.73364    70.10127   164.30789
   272  H   1.0    0.06    1.07    1.44    86.67606    65.91742   161.83802
   273  H   1.0    0.04    1.00    1.43    83.25188    66.51835   164.79166
   274  H   1.0    0.05    1.01    1.43    86.01088    65.23334   166.24864
   275  H   1.0    0.04    1.00    1.43    85.23231    68.48745   166.68517
   276  H   1.0    0.04    1.00    1.43    83.62226    69.39263   161.24276
   277  H   1.0    0.04    1.00    1.43    85.71230    71.47699   162.87737
   278  H   1.0    0.06    1.00    1.43    86.64016    70.12962   159.92751
   279  N   5.0   -0.19    3.24    1.96    88.21997    63.69132   172.51875
   280  C   4.0    0.03    4.27    4.14    86.07702    63.24724   174.14203
   281  C   4.0    0.08    3.23    3.04    86.82724    63.13574   176.89914
   282  O   6.0   -0.28    1.13    1.80    88.39382    61.57861   177.63424
   283  C   4.0   -0.03    4.41    4.40    84.86192    60.76225   173.43338
   284  C   4.0   -0.02    3.61    3.17    83.63927    60.80004   170.91815
   285  C   4.0   -0.04    3.50    3.11    81.19397    61.70711   170.65737
   286  C   4.0   -0.04    3.49    3.11    84.91295    59.94967   168.82623
   287  C   4.0   -0.04    3.39    3.07    80.01478    61.73924   168.33679
   288  C   4.0   -0.04    3.39    3.08    83.75643    59.99691   166.49619
   289  C   4.0   -0.05    3.39    3.07    81.30168    60.88886   166.24486
   290  H   1.0    0.09    1.03    1.43    88.99286    62.08317   171.78932
   291  H   1.0    0.03    1.06    1.44    84.75421    64.80815   173.90770
   292  H   1.0    0.05    1.04    1.43    86.30945    59.29771   173.41070
   293  H   1.0    0.04    1.04    1.43    83.41817    60.30493   174.82989
   294  H   1.0    0.05    1.03    1.43    80.19808    62.39875   172.29954
   295  H   1.0    0.05    1.03    1.43    86.81968    59.24480   169.00764
   296  H   1.0    0.05    1.03    1.43    78.10048    62.42521   168.16104
   297  H   1.0    0.05    1.03    1.43    84.76744    59.33551   164.85024
   298  H   1.0    0.04    1.03    1.43    80.40595    60.91532   164.41183
   299  N   5.0   -0.19    3.17    1.95    92.34335    56.81650   168.12892
   300  C   4.0    0.04    4.33    4.26    92.32823    58.74024   166.10313
   301  C   4.0    0.15    3.41    3.08    91.02054    57.78593   163.74286
   302  O   6.0   -0.30    1.24    1.80    90.64259    55.50881   163.40271
   303  C   4.0    0.06    4.19    3.97    94.98896    59.72290   165.27354
   304  O   6.0   -0.22    2.14    1.85    96.48752    57.69900   164.25498
   305  C   4.0   -0.06    4.02    3.66    96.41004    61.08161   167.45240
   306  H   1.0    0.12    1.03    1.43    92.97830    55.08929   167.55633
   307  H   1.0    0.05    1.06    1.44    91.27376    60.31249   166.91382
   308  H   1.0    0.06    1.05    1.44    94.71306    61.13074   163.79578
   309  H   1.0    0.12    1.01    1.43    98.14859    58.33773   163.74286
   310  H   1.0    0.06    0.99    1.43    98.25063    61.73357   166.79477
   311  H   1.0    0.06    0.99    1.43    95.31778    62.70300   168.10246
   312  H   1.0    0.05    1.00    1.43    96.68594    59.78526   169.03032
   313  N   5.0   -0.14    3.45    2.05    90.34213    59.56794   162.10447
   314  C   4.0    0.04    4.34    4.27    89.01365    58.99346   159.73476
   315  C   4.0    0.14    3.41    3.08    88.91916    61.27058   157.97920
   316  O   6.0   -0.31    1.29    1.80    89.34624    63.41731   158.79178
   317  C   4.0   -0.06    4.12    3.85    86.32646    58.12230   160.27333
   318  H   1.0    0.11    1.08    1.44    90.68417    61.44822   162.35769
   319  H   1.0    0.05    1.06    1.44    90.09646    57.53649   158.76155
   320  H   1.0    0.05    1.00    1.43    85.38538    57.71034   158.48754
   321  H   1.0    0.06    1.00    1.43    86.39260    56.42722   161.44118
   322  H   1.0    0.05    1.00    1.43    85.32302    59.62085   161.26732
   323  N   5.0   -0.13    3.48    2.06    88.31823    60.79815   155.58303
   324  C   4.0    0.04    4.48    4.51    87.80234    62.84095   153.79724
   325  C   4.0    0.14    3.47    3.10    85.02066    63.02236   153.30591
   326  O   6.0   -0.31    1.28    1.80    83.70163    61.12886   153.33425
   327  C   4.0   -0.04    4.39    4.36    89.16483    62.39686   151.34248
   328  C   4.0   -0.02    3.60    3.17    91.97107    62.45166   151.60893
   329  C   4.0   -0.04    3.50    3.11    93.25420    64.71555   151.57303
   330  C   4.0   -0.03    3.49    3.11    93.32601    60.24257   151.94341
   331  C   4.0   -0.04    3.41    3.08    95.84690    64.77981   151.82247
   332  C   4.0   -0.03    3.40    3.08    95.91115    60.30682   152.19853
   333  C   4.0   -0.04    3.45    3.09    97.17538    62.57639   152.12483
   334  H   1.0    0.08    1.05    1.44    88.17461    59.03126   154.82714
   335  H   1.0    0.07    1.08    1.44    88.44106    64.63052   154.59281
   336  H   1.0    0.05    1.04    1.43    88.63382    60.54682   150.60927
   337  H   1.0    0.04    1.04    1.43    88.62626    63.86707   150.00456
   338  H   1.0    0.06    1.03    1.43    92.21863    66.45977   151.34626
   339  H   1.0    0.06    1.03    1.43    92.34713    58.45300   152.00389
   340  H   1.0    0.06    1.03    1.43    96.83145    66.56749   151.77901
   341  H   1.0    0.07    1.03    1.43    96.95239    58.57017   152.45742
   342  H   1.0    0.09    1.06    1.44    99.20872    62.62174   152.30435
   343  N   5.0   -0.14    3.49    2.07    84.12682    65.30137   152.83726
   344  C   4.0    0.04    4.44    4.45    81.46798    65.69065   152.42530
   345  C   4.0    0.14    3.44    3.09    80.93318    68.09250   150.97021
   346  O   6.0   -0.31    1.24    1.80    82.32213    69.97277   151.16107
   347  C   4.0   -0.03    4.41    4.39    80.12249    65.92876   154.96131
   348  C   4.0   -0.02    4.17    3.94    79.91462    63.79337   156.89450
   349  C   4.0   -0.08    4.12    3.84    78.69575    64.91776   159.25099
   350  C   4.0   -0.06    4.08    3.76    78.42741    61.49168   155.93263
   351  H   1.0    0.10    1.07    1.44    85.19829    66.90008   152.73332
   352  H   1.0    0.05    1.07    1.44    80.78578    64.10895   151.29524
   353  H   1.0    0.05    1.05    1.44    81.05790    67.46700   155.96286
   354  H   1.0    0.05    1.05    1.44    78.17607    66.44843   154.53045
   355  H   1.0    0.05    1.06    1.44    81.78923    63.04504   157.30646
   356  H   1.0    0.04    1.00    1.43    78.51433    63.44566   160.67962
   357  H   1.0    0.03    1.00    1.43    79.88627    66.44276   159.95963
   358  H   1.0    0.05    1.00    1.43    76.83437    65.65097   158.75777
   359  H   1.0    0.04    1.00    1.43    78.36694    60.06494   157.41606
   360  H   1.0    0.06    1.00    1.43    76.51500    62.08317   155.44886
   361  H   1.0    0.06    1.00    1.43    79.37038    60.73390   154.26589
   362  N   5.0   -0.13    3.37    2.01    78.81480    68.03580   149.62283
   363  C   4.0    0.02    4.27    4.15    77.84726    70.25056   148.32081
   364  C   4.0    0.14    3.40    3.08    76.69642    72.12328   150.16707
   365  O   6.0   -0.31    1.26    1.80    75.97643    71.41841   152.30246
   366  H   1.0    0.08    1.05    1.44    77.71876    66.46544   149.39795
   367  H   1.0    0.06    1.03    1.43    79.37983    71.18031   147.30792
   368  H   1.0    0.04    1.03    1.43    76.39973    69.68175   146.97155
   369  N   5.0   -0.11    3.64    2.19    76.48855    74.52701   149.36961
   370  C   4.0    0.03    4.48    4.51    75.19220    76.40351   150.93619
   371  C   4.0    0.08    3.23    3.04    72.41430    75.75722   151.31225
   372  O   6.0   -0.29    1.15    1.80    71.24645    76.61894   153.13961
   373  C   4.0   -0.05    4.37    4.32    75.52101    78.87338   149.46409
   374  C   4.0   -0.04    4.31    4.21    76.01045    78.07592   146.81281
   375  C   4.0   -0.01    4.35    4.30    77.37861    75.60605   146.96210
   376  H   1.0    0.05    1.05    1.44    76.12950    76.60949   152.75978
   377  H   1.0    0.05    1.03    1.43    73.80136    79.99966   149.59071
   378  H   1.0    0.03    1.03    1.43    77.11594    79.93541   150.22187
   379  H   1.0    0.04    1.03    1.43    74.22088    77.85482   145.81692
   380  H   1.0    0.04    1.03    1.43    77.17074    79.49132   145.86984
   381  H   1.0    0.05    1.02    1.43    76.87027    74.38906   145.38040
   382  H   1.0    0.05    1.02    1.43    79.41762    75.89895   146.99800
   383  N   5.0   -0.19    3.31    1.99    70.56804    70.60205   153.43063
   384  C   4.0    0.04    4.36    4.31    70.41308    69.09972   155.74554
   385  C   4.0    0.15    3.42    3.08    71.39196    70.66819   157.91117
   386  O   6.0   -0.31    1.24    1.80    71.51479    69.74978   160.06735
   387  C   4.0   -0.02    4.33    4.25    71.97021    66.69788   155.42807
   388  C   4.0    0.25    3.16    3.03    70.87417    64.95555   153.49866
   389  O   6.0   -0.28    1.19    1.80    68.50823    64.68532   153.46464
   390  O   6.0   -0.29    1.17    1.80    72.38406    63.85195   152.03601
   391  H   1.0    0.11    1.05    1.44    72.27257    70.45087   152.54246
   392  H   1.0    0.06    1.06    1.44    68.48745    68.49123   156.14806
   393  H   1.0    0.06    1.04    1.43    73.87506    67.20243   154.82714
   394  H   1.0    0.06    1.03    1.43    72.04202    65.69821   157.22709
   395  N   5.0   -0.12    3.49    2.07    71.97399    73.06247   157.41606
   396  C   4.0    0.04    4.33    4.25    72.84516    74.78212   159.39838
   397  C   4.0    0.09    3.19    3.03    70.70221    76.36383   160.54545
   398  O   6.0   -0.26    1.13    1.80    68.63485    76.51689   159.49287
   399  C   4.0   -0.04    4.35    4.30    74.92385    76.52067   158.38549
   400  C   4.0   -0.03    4.19    3.98    77.64506    75.71943   158.93729
   401  C   4.0   -0.07    4.13    3.86    78.00033    72.91130   158.43840
   402  C   4.0   -0.08    4.10    3.81    79.49699    77.27467   157.38583
   403  H   1.0    0.11    1.10    1.44    71.86250    73.86750   155.66806
   404  H   1.0    0.05    1.07    1.44    73.60861    73.62183   160.91961
   405  H   1.0    0.06    1.04    1.43    74.72543    76.62839   156.33892
   406  H   1.0    0.05    1.04    1.43    74.65929    78.38583   159.21886
   407  H   1.0    0.04    1.06    1.44    78.04757    76.06147   160.92906
   408  H   1.0    0.04    1.00    1.43    79.95242    72.39918   158.84847
   409  H   1.0    0.04    1.00    1.43    76.72476    71.84738   159.65728
   410  H   1.0    0.06    1.00    1.43    77.57136    72.52201   156.46175
   411  H   1.0    0.04    1.00    1.43    81.41506    76.66051   157.81857
   412  H   1.0    0.04    1.00    1.43    79.10204    76.98744   155.38461
   413  H   1.0    0.04    1.02    1.43    79.27022    79.26455   157.86771
   414  N   5.0   -0.21    3.27    1.97   103.66343    44.55964   162.94729
   415  C   4.0    0.03    4.41    4.40   102.84053    45.94248   160.78733
   416  C   4.0    0.15    3.53    3.13   101.68887    44.13293   158.96186
   417  O   6.0   -0.30    1.24    1.80   102.98888    42.46154   157.93574
   418  C   4.0   -0.03    4.41    4.40   105.05780    47.18263   159.55901
   419  C   4.0   -0.01    3.60    3.17   104.43364    48.50528   157.11559
   420  C   4.0   -0.03    3.48    3.10   103.68652    51.00959   157.14394
   421  C   4.0   -0.02    3.48    3.10   104.63054    47.24384   154.80068
   422  C   4.0   -0.03    3.38    3.07   103.17289    52.25534   154.93863
   423  C   4.0   -0.03    3.37    3.07   104.16166    48.48774   152.58403
   424  C   4.0   -0.03    3.40    3.08   103.43596    51.01024   152.65017
   425  H   1.0    0.09    1.03    1.43   104.94218    43.16891   162.56367
   426  H   1.0    0.05    1.07    1.44   101.44091    47.35062   161.33724
   427  H   1.0    0.04    1.04    1.43   105.82958    48.58743   160.85347
   428  H   1.0    0.05    1.04    1.43   106.47605    45.74628   159.15083
   429  H   1.0    0.05    1.03    1.43   103.50666    51.99063   158.92406
   430  H   1.0    0.07    1.03    1.43   105.15735    45.27258   154.76289
   431  H   1.0    0.07    1.03    1.43   102.56511    54.20352   154.98020
   432  H   1.0    0.05    1.03    1.43   104.35400    47.51696   150.79824
   433  H   1.0    0.05    1.04    1.43   103.07497    52.00638   150.90596
   434  N   5.0   -0.13    3.50    2.08    99.26829    44.55507   158.49509
   435  C   4.0    0.04    4.37    4.34    97.81222    42.92126   156.87182
   436  C   4.0    0.08    3.24    3.04    98.09078    43.62672   154.11471
   437  O   6.0   -0.30    1.18    1.80    97.52555    45.76199   153.37961
   438  C   4.0   -0.02    4.41    4.40    95.05261    43.11146   157.58047
   439  C   4.0   -0.01    3.61    3.17    94.47402    42.03371   160.09569
   440  C   4.0   -0.04    3.50    3.11    94.03691    39.46248   160.35647
   441  C   4.0   -0.03    3.49    3.11    94.37441    43.56194   162.18762
   442  C   4.0   -0.04    3.38    3.07    93.47514    38.42521   162.67706
   443  C   4.0   -0.03    3.39    3.08    93.83706    42.53674   164.51765
   444  C   4.0   -0.04    3.39    3.07    93.38214    39.96489   164.76898
   445  H   1.0    0.11    1.10    1.44    98.26203    46.02850   159.22453
   446  H   1.0    0.05    1.06    1.44    98.50261    40.99522   157.10615
   447  H   1.0    0.06    1.04    1.43    94.50805    45.09732   157.60314
   448  H   1.0    0.05    1.04    1.43    93.93469    42.08979   156.18396
   449  H   1.0    0.05    1.03    1.43    94.13794    38.25420   158.71430
   450  H   1.0    0.06    1.03    1.43    94.71734    45.56565   162.00621
   451  H   1.0    0.05    1.03    1.43    93.11206    36.42440   162.85280
   452  H   1.0    0.05    1.03    1.43    93.76977    43.74300   166.16360
   453  H   1.0    0.05    1.03    1.43    92.95719    39.17594   166.60202
   454  N   5.0   -0.21    3.12    1.94    96.87960    43.92886   146.41408
   455  C   4.0    0.01    4.16    3.92    94.71509    44.42791   144.78135
   456  C   4.0    0.15    3.34    3.06    93.06707    46.53589   145.82070
   457  O   6.0   -0.29    1.25    1.80    92.59556    48.39884   144.56781
   458  H   1.0    0.08    1.02    1.43    98.50803    44.73870   145.77724
   459  H   1.0    0.05    1.03    1.43    95.37781    44.97485   142.91052
   460  H   1.0    0.06    1.03    1.43    93.57139    42.72286   144.61506
   461  N   5.0   -0.14    3.58    2.14    92.18144    46.25293   148.12239
   462  C   4.0    0.04    4.51    4.56    90.71306    48.22229   149.31103
   463  C   4.0    0.15    3.42    3.08    92.36448    50.24736   150.62628
   464  O   6.0   -0.29    1.20    1.80    91.48479    52.40489   151.17052
   465  C   4.0    0.05    4.30    4.19    89.05529    46.97988   151.26878
   466  O   6.0   -0.25    2.15    1.85    90.64825    45.56267   152.92229
   467  C   4.0   -0.06    4.12    3.84    87.22465    45.18484   150.01212
   468  H   1.0    0.09    1.07    1.44    92.44636    44.68600   149.21276
   469  H   1.0    0.06    1.06    1.44    89.55738    49.19501   147.91074
   470  H   1.0    0.05    1.04    1.43    87.98033    48.39478   152.31002
   471  H   1.0    0.14    1.03    1.43    89.62797    44.72902   154.22242
   472  H   1.0    0.06    1.00    1.43    86.02971    44.29055   151.43130
   473  H   1.0    0.05    1.00    1.43    86.03240    46.21140   148.68364
   474  H   1.0    0.06    1.00    1.43    88.25791    43.72418   148.99166
   475  N   5.0   -0.13    3.50    2.08    94.74228    49.53570   151.14595
   476  C   4.0    0.04    4.44    4.45    96.51508    51.18521   152.43852
   477  C   4.0    0.17    3.46    3.10    95.45781    52.20367   154.91784
   478  O   6.0   -0.29    1.26    1.80    95.86930    54.39037   155.56035
   479  C   4.0   -0.02    4.34    4.27    97.29752    53.40214   150.76801
   480  C   4.0    0.05    3.71    3.25    98.54098    52.66459   148.35294
   481  N   5.0   -0.17    2.60    1.91    98.39924    54.15386   146.22132
   482  C   4.0   -0.01    3.63    3.19    99.93284    50.61940   147.71799
   483  C   4.0    0.05    3.56    3.15    99.65208    53.05085   144.36750
   484  N   5.0   -0.11    3.48    2.06   100.61575    50.91029   145.23111
   485  H   1.0    0.10    1.08    1.44    95.47976    47.81595   150.68486
   486  H   1.0    0.06    1.07    1.44    98.16995    50.03775   152.87316
   487  H   1.0    0.07    1.04    1.43    95.61543    54.49112   150.29368
   488  H   1.0    0.05    1.04    1.43    98.62450    54.57805   151.81680
   489  H   1.0    0.05    1.01    1.43   100.41622    49.05290   148.93497
   490  H   1.0    0.04    1.01    1.43    99.85711    53.77257   142.46833
   491  H   1.0    0.07    1.04    1.43   101.69222    49.67563   144.21444
   492  N   5.0   -0.12    3.56    2.12    94.09293    50.62196   156.29545
   493  C   4.0    0.04    4.42    4.41    93.24073    51.31910   158.79367
   494  C   4.0    0.15    3.43    3.09    95.44831    50.64898   160.53411
   495  O   6.0   -0.31    1.31    1.80    97.23503    49.37084   159.70263
   496  C   4.0   -0.04    4.27    4.13    90.86770    49.83938   159.50421
   497  C   4.0   -0.03    4.15    3.90    88.69465    49.84367   157.58614
   498  C   4.0    0.24    3.10    3.02    86.92126    47.53552   157.90928
   499  O   6.0   -0.29    1.18    1.80    87.71631    45.32211   157.48220
   500  O   6.0   -0.28    1.16    1.80    84.68581    47.89659   158.60659
   501  H   1.0    0.09    1.06    1.44    93.55535    48.85937   155.72854
   502  H   1.0    0.06    1.05    1.44    92.72689    53.30904   158.94485
   503  H   1.0    0.06    1.04    1.43    91.40836    47.87322   159.79523
   504  H   1.0    0.06    1.03    1.43    90.12444    50.63073   161.25409
   505  H   1.0    0.05    1.03    1.43    87.57389    51.55341   157.83936
   506  H   1.0    0.06    1.03    1.43    89.47541    49.79003   155.68129
   507  N   5.0   -0.13    3.40    2.02    95.37621    51.56344   162.88493
   508  C   4.0    0.04    4.31    4.22    97.03466    50.58847   164.91071
   509  C   4.0    0.08    3.22    3.04    95.55435    49.93314   167.27098
   510  O   6.0   -0.28    1.14    1.80    93.39334    50.74438   167.61113
   511  C   4.0    0.05    4.17    3.93    99.21603    52.40141   165.74030
   512  O   6.0   -0.23    2.14    1.85    98.21256    54.71114   166.75887
   513  C   4.0   -0.07    4.02    3.66   101.10325    52.95274   163.56145
   514  H   1.0    0.11    1.06    1.44    94.19787    52.97692   163.45752
   515  H   1.0    0.04    1.07    1.44    97.86903    48.88915   164.10002
   516  H   1.0    0.03    1.04    1.43   100.29731    51.45855   167.21807
   517  H   1.0    0.11    1.01    1.43    99.59625    55.83030   167.27098
   518  H   1.0    0.04    0.99    1.43   102.58815    54.22076   164.21907
   519  H   1.0    0.04    1.00    1.43   101.96128    51.19612   162.91138
   520  H   1.0    0.06    1.00    1.43   100.11852    53.83985   161.98353
   521  N   5.0   -0.20    3.19    1.95    78.03264    39.86518   144.53002
   522  C   4.0    0.02    4.31    4.21    79.15886    42.22402   143.63429
   523  C   4.0    0.15    3.40    3.08    81.99419    42.19523   144.20499
   524  O   6.0   -0.29    1.24    1.80    82.75589    42.17660   146.37061
   525  C   4.0   -0.05    4.26    4.13    77.84810    44.53442   144.77946
   526  C   4.0   -0.05    4.19    3.97    78.24456    46.97856   143.29792
   527  C   4.0   -0.05    4.16    3.93    76.79967    49.17001   144.51679
   528  C   4.0   -0.04    4.11    3.83    77.80616    51.74855   143.70610
   529  N   5.0   -0.12    4.00    2.87    77.92499    52.06399   140.90175
   530  H   1.0    0.08    1.03    1.43    76.55841    40.10098   145.74889
   531  H   1.0    0.03    1.06    1.44    78.90086    42.39698   141.59717
   532  H   1.0    0.04    1.03    1.43    75.82156    44.17263   144.85505
   533  H   1.0    0.05    1.03    1.43    78.58050    44.83165   146.68053
   534  H   1.0    0.04    1.03    1.43    80.24980    47.45084   143.27524
   535  H   1.0    0.03    1.03    1.43    77.55600    46.73457   141.37229
   536  H   1.0    0.04    1.03    1.43    74.81690    49.05789   143.96688
   537  H   1.0    0.04    1.03    1.43    76.97181    49.03353   146.56525
   538  H   1.0    0.04    1.02    1.43    76.56923    53.21551   144.45632
   539  H   1.0    0.04    1.02    1.43    79.71096    51.98642   144.45065
   540  H   1.0    0.05    1.01    1.43    78.62041    53.84674   140.45388
   541  H   1.0    0.05    1.02    1.43    79.10989    50.70344   140.12129
   542  H   1.0    0.05    1.01    1.43    76.12936    51.86783   140.12696
   543  N   5.0   -0.15    3.33    1.99    83.53019    41.98704   142.23211
   544  C   4.0    0.02    4.17    3.94    86.24431    42.26608   142.47778
   545  C   4.0    0.08    3.11    3.03    87.65007    39.97283   143.47555
   546  O   6.0   -0.29    1.12    1.80    89.74747    40.24570   144.47711
   547  H   1.0    0.07    1.05    1.44    82.94282    41.62353   140.43309
   548  H   1.0    0.04    1.03    1.43    87.02378    42.71288   140.62396
   549  H   1.0    0.06    1.03    1.43    86.62443    43.83154   143.76090
   550  N   5.0   -0.18    3.25    1.97   113.25561    47.78696   146.35550
   551  C   4.0    0.03    4.40    4.38   111.86759    49.85393   145.18387
   552  C   4.0    0.14    3.52    3.12   111.49910    51.79706   147.18886
   553  O   6.0   -0.29    1.27    1.80   111.32320    51.19381   149.41118
   554  C   4.0    0.05    4.25    4.10   109.16522    49.10770   144.35805
   555  O   6.0   -0.26    2.09    1.84   109.24450    46.80349   142.97478
   556  C   4.0   -0.07    4.07    3.75   107.89959    51.18257   142.75368
   557  H   1.0    0.09    1.03    1.43   112.16862    46.23683   146.71643
   558  H   1.0    0.04    1.05    1.44   112.90222    50.48946   143.51902
   559  H   1.0    0.05    1.05    1.44   108.00832    48.86135   146.04369
   560  H   1.0    0.11    1.01    1.43   107.53503    46.32192   142.44754
   561  H   1.0    0.04    1.00    1.43   106.00329    50.59284   142.20755
   562  H   1.0    0.06    1.02    1.43   107.76907    52.92938   143.83649
   563  H   1.0    0.05    1.00    1.43   109.00678    51.53181   141.05292
   564  N   5.0   -0.14    3.57    2.13   111.26452    54.12329   146.36116
   565  C   4.0    0.03    4.49    4.52   110.48854    56.14676   147.99956
   566  C   4.0    0.13    3.40    3.08   107.92559    57.07441   147.03391
   567  O   6.0   -0.31    1.22    1.80   107.39466    57.01654   144.68687
   568  C   4.0   -0.02    4.24    4.09   112.52830    58.26620   148.04302
   569  C   4.0   -0.07    4.09    3.79   114.67594    57.55651   149.83826
   570  C   4.0   -0.07    4.11    3.83   113.60037    58.83429   145.40118
   571  H   1.0    0.08    1.07    1.44   111.60352    54.66511   144.54325
   572  H   1.0    0.06    1.07    1.44   110.23840    55.50563   149.94031
   573  H   1.0    0.05    1.06    1.44   111.61127    59.98488   148.71198
   574  H   1.0    0.04    1.00    1.43   116.07801    59.06656   149.83637
   575  H   1.0    0.05    1.00    1.43   113.91189    57.31028   151.73555
   576  H   1.0    0.05    1.00    1.43   115.53560    55.79894   149.19386
   577  H   1.0    0.04    1.00    1.43   115.01150    60.32602   145.55614
   578  H   1.0    0.04    1.00    1.43   114.46634    57.12545   144.64718
   579  H   1.0    0.05    1.00    1.43   112.06570    59.44539   144.17097
   580  N   5.0   -0.14    3.44    2.04   106.29445    57.81322   148.80836
   581  C   4.0    0.04    4.45    4.46   104.37076    59.75741   148.20743
   582  C   4.0    0.25    3.31    3.06   103.39193    60.75677   150.59982
   583  O   6.0   -0.30    1.28    1.80   103.42881    59.35423   152.41396
   584  C   4.0   -0.03    4.34    4.27   102.15062    58.76550   146.66919
   585  C   4.0   -0.05    4.23    4.07   101.24719    60.69671   144.76813
   586  C   4.0   -0.05    4.22    4.04    98.59187    60.19825   143.91208
   587  C   4.0   -0.03    4.18    3.95    96.73220    60.57149   146.07015
   588  N   5.0   -0.12    4.02    2.92    94.14752    60.67160   145.01757
   589  O   6.0   -0.30    1.24    1.80   102.58031    62.93392   150.70564
   590  H   1.0    0.10    1.07    1.44   106.24223    57.14074   150.61305
   591  H   1.0    0.05    1.07    1.44   105.26205    61.20669   147.04714
   592  H   1.0    0.06    1.03    1.43   102.73141    57.07293   145.64874
   593  H   1.0    0.05    1.05    1.44   100.58829    58.32335   147.93720
   594  H   1.0    0.05    1.04    1.43   101.30193    62.56786   145.62606
   595  H   1.0    0.05    1.03    1.43   102.47330    60.64343   143.11462
   596  H   1.0    0.04    1.03    1.43    98.10217    61.50437   142.39463
   597  H   1.0    0.05    1.03    1.43    98.43883    58.25511   143.24690
   598  H   1.0    0.05    1.03    1.43    96.85950    58.99673   147.39107
   599  H   1.0    0.05    1.03    1.43    97.13059    62.34243   147.04525
   600  H   1.0    0.05    1.02    1.43    92.84215    60.92774   146.46510
   601  H   1.0    0.05    1.02    1.43    93.99501    62.16490   143.74956
   602  H   1.0    0.06    1.02    1.43    93.73783    58.99446   144.07838
   603  H   1.0    0.09    1.07    1.44   114.51685    47.29468   145.32618
   604  H   1.0    0.05    1.04    1.44    88.31746    88.85683   158.22831
   605  H   1.0    0.09    1.07    1.44    75.03092    71.05138   167.64788
   606  H   1.0    0.05    1.05    1.44    69.13602    53.21459   159.94065
   607  H   1.0    0.08    1.07    1.44    87.65846    75.66588   166.98415
   608  H   1.0    0.05    1.04    1.43    98.49960    79.28101   144.30666
   609  H   1.0    0.10    1.08    1.44    90.81151    79.61136   133.80050
   610  H   1.0    0.05    1.04    1.44    90.49332    67.13020   167.55138
   611  H   1.0    0.09    1.07    1.44    87.74574    64.66224   171.20536
   612  H   1.0    0.05    1.04    1.44    86.04995    64.33146   178.13896
   613  H   1.0    0.10    1.07    1.44    93.35624    57.33226   169.39407
   614  H   1.0    0.06    1.04    1.44    71.53044    74.63213   150.07774
   615  H   1.0    0.11    1.07    1.44    69.37126    70.08616   152.33785
   616  H   1.0    0.05    1.04    1.43    70.97589    77.28833   162.17070
   617  H   1.0    0.09    1.08    1.44   104.40203    45.62020   164.05284
   618  H   1.0    0.05    1.04    1.44    98.73765    42.35571   152.87489
   619  H   1.0    0.10    1.08    1.44    96.57173    44.54497   147.96913
   620  H   1.0    0.05    1.05    1.44    96.32497    48.82286   168.59178
   621  H   1.0    0.09    1.07    1.44    77.44316    38.97809   143.20407
   622  H   1.0    0.06    1.04    1.43    86.88181    38.25314   143.32226

  Z AO/shell   Hii/eV     exponent
  1     Wed Apr 25 08:07:45 CEST 2018   EN: 2.200 GM2: 0.406  GM3: 0.0800  RAES: 1.40
     1s    -10.707211    1.230000
  6     Wed Apr 25 08:07:45 CEST 2018   EN: 2.550 GM2: 0.538  GM3: 0.1500  RAES: 3.00
     2s    -13.970922    2.096432
     2p    -10.063292    1.800000
  7     Wed Apr 25 08:07:45 CEST 2018   EN: 3.040 GM2: 0.461  GM3:-0.0640  RAES: 1.90
     2s    -16.686243    2.339881
     2p    -12.523956    2.014332
  8     Wed Apr 25 08:07:45 CEST 2018   EN: 3.440 GM2: 0.452  GM3:-0.0517  RAES: 1.80
     2s    -20.229985    2.439742
     2p    -15.503117    2.137023
 16     Tue Apr 24 11:44:34 CEST 2018   EN: 2.580 GM2: 0.340  GM3:-0.0502  RAES: 3.10
     3s    -20.029654    1.981333
     3p    -11.377694    2.025643
     3d     -0.420282    1.702555
 no old-style atom pair restraining (fixing) potential

molecular fragmentation (1/2 indicates fragments):
111111111111111111111111111111111111112222222222222222222222222222222222
222222222222222222222222222222222222222222222222222222222222222222222222
222222222222222222222222222222222222222222222222222222222222222222222222
222222222222222222222222222222222222222222222222222222222222222222222222
222222222222222222222222222222222222222222222222222222222222222222222222
222222222222222222222222222222222222222222222222222222222222222222222222
222222222222222222222222222222222222222222222222222222222222222222222222
222222222222222222222222222222222222222222222222222222222222222222222222
2222222222222222222222222221222222222222222222
# atoms in fragment 1/2:    39   583
 fragment masses (1/2) :      294.31     4051.78
CMA distance (Bohr)    :  26.490
constraining FC (au)   :  0.0500
           ------------------------------------------------- 
          |        Self-Consistent Charge Iterations        |
           ------------------------------------------------- 

 Ncao       : 1549
 Nao        : 1547
 Nshell     : 929
 Nel        : 1704
 T(el)      :   500.0
 intcut     :    35.0
 scfconv/Eh :  0.100E-06
   qconv/e  :  0.100E-04
 intneglect :  0.100E-08
 broydamp   :      0.400
 iter      E             dE          RMSdq      gap      omega  full diag
   1   -974.1881302 -0.974188E+03  0.479E+00    3.07       0.0  T
   2   -976.6832983 -0.249517E+01  0.228E+00    1.43       1.0  T
   3   -976.8386760 -0.155378E+00  0.128E+00    1.68       1.0  T
   4   -976.9974281 -0.158752E+00  0.290E-01    1.09       1.0  T
   5   -977.0092350 -0.118070E-01  0.147E-01    1.21       1.0  T
   6   -977.0113703 -0.213524E-02  0.677E-02    1.19       1.0  T
   7   -977.0120200 -0.649709E-03  0.324E-02    1.15       1.0  T
   8   -977.0121315 -0.111488E-03  0.165E-02    1.14       1.0  T
   9   -977.0121718 -0.403303E-04  0.753E-03    1.13       1.0  T
  10   -977.0121786 -0.675784E-05  0.350E-03    1.12       1.1  T
  11   -977.0121804 -0.181718E-05  0.153E-03    1.12       2.6  T
  12   -977.0121806 -0.254562E-06  0.765E-04    1.11       5.2  T
  13   -977.0121807 -0.957240E-07  0.355E-04    1.11      11.3  T
  14   -977.0121807 -0.119451E-07  0.155E-04    1.11      26.0  T
  15   -977.0121807 -0.328748E-08  0.704E-05    1.11      57.0  T
  16   -977.0121807 -0.590603E-09  0.330E-05    1.11     121.4  T
speedup  1.85
cpu  time for SCC    1 m  3.1 s
wall time for SCC    0 m 34.1 s

   *** convergence criteria satisfied after 16 iterations ***

          eigenvalues
 #    :         840        841        842        843        844        845        846        847
 occ. :        2.000      2.000      2.000      2.000      2.000      2.000      2.000      2.000
 eps  :        -9.942     -9.926     -9.916     -9.891     -9.885     -9.822     -9.795     -9.776
 #    :         848        849        850        851        852        853        854        855
 occ. :        2.000      2.000      2.000      2.000      2.000      0.000      0.000      0.000
 eps  :        -9.714     -9.708     -9.645     -9.564     -9.541     -8.427     -8.366     -8.303
 #    :         856        857        858        859        860        861        862        863
 occ. :        0.000      0.000      0.000      0.000      0.000      0.000      0.000      0.000
 eps  :        -8.255     -8.049     -7.953     -7.932     -7.927     -7.875     -7.685     -6.824


   #   Z            q   n(s)   n(p)   n(d)      C6AA      α(0)
   1   7 N     -0.155  1.239  3.916  0.000    24.339     7.327
   2   6 C     -0.017  1.071  2.945  0.000    20.892     6.511
   3   6 C      0.272  1.032  2.696  0.000    22.397     7.750
   4   8 O     -0.483  1.767  4.715  0.000    23.404     6.486
   5   6 C     -0.079  1.056  3.023  0.000    22.002     6.678
   6   6 C     -0.108  1.067  3.041  0.000    22.570     6.764
   7   6 C      0.367  1.023  2.610  0.000    20.781     7.460
   8   8 O     -0.673  1.786  4.887  0.000    27.984     7.092
   9   8 O     -0.657  1.783  4.874  0.000    27.573     7.040
  10   1 H      0.304  0.696  0.000  0.000     0.700     1.311
  11   1 H      0.307  0.693  0.000  0.000     0.694     1.305
  12   1 H      0.302  0.698  0.000  0.000     0.706     1.317
  13   1 H      0.121  0.879  0.000  0.000     1.608     1.983
  14   1 H      0.084  0.916  0.000  0.000     1.940     2.178
  15   1 H      0.075  0.925  0.000  0.000     2.030     2.228
  16   1 H      0.056  0.944  0.000  0.000     2.250     2.346
  17   1 H      0.058  0.942  0.000  0.000     2.228     2.334
  18   7 N     -0.155  1.237  3.918  0.000    24.359     7.330
  19   6 C      0.020  1.058  2.921  0.000    20.245     6.408
  20   6 C      0.195  1.086  2.719  0.000    23.838     7.996
  21   8 O     -0.344  1.747  4.598  0.000    20.599     6.085
  22   6 C     -0.081  1.054  3.027  0.000    22.033     6.681
  23   6 C      0.000  1.077  2.923  0.000    28.023     8.683
  24   6 C     -0.051  1.088  2.962  0.000    29.263     8.871
  25   6 C     -0.040  1.086  2.954  0.000    28.990     8.830
  26   6 C     -0.076  1.081  2.995  0.000    29.887     8.965
  27   6 C     -0.057  1.075  2.982  0.000    29.412     8.893
  28   6 C      0.146  1.045  2.809  0.000    24.829     8.166
  29   8 O     -0.445  1.731  4.714  0.000    21.746     6.295
  30   1 H      0.241  0.759  0.000  0.000     0.920     1.502
  31   1 H      0.092  0.908  0.000  0.000     1.858     2.131
  32   1 H      0.088  0.912  0.000  0.000     1.899     2.155
  33   1 H      0.067  0.933  0.000  0.000     2.119     2.276
  34   1 H      0.071  0.929  0.000  0.000     2.080     2.255
  35   1 H      0.044  0.956  0.000  0.000     2.390     2.418
  36   1 H      0.058  0.942  0.000  0.000     2.219     2.329
  37   1 H      0.043  0.957  0.000  0.000     2.415     2.430
  38   1 H      0.336  0.664  0.000  0.000     0.621     1.238
  39   7 N     -0.391  1.324  4.066  0.000    30.116     8.150
  40   6 C      0.038  1.052  2.910  0.000    19.952     6.362
  41   6 C      0.269  1.049  2.682  0.000    22.451     7.759
  42   8 O     -0.498  1.747  4.751  0.000    23.736     6.532
  43   6 C     -0.123  1.046  3.077  0.000    22.915     6.826
  44   1 H      0.162  0.838  0.000  0.000     1.323     1.802
  45   1 H      0.033  0.967  0.000  0.000     2.550     2.497
  46   1 H      0.041  0.959  0.000  0.000     2.442     2.444
  47   1 H      0.045  0.955  0.000  0.000     2.382     2.414
  48   1 H      0.049  0.951  0.000  0.000     2.336     2.390
  49   7 N     -0.166  1.242  3.925  0.000    24.600     7.366
  50   6 C      0.018  1.054  2.928  0.000    20.276     6.411
  51   6 C      0.275  1.038  2.687  0.000    22.347     7.741
  52   8 O     -0.493  1.762  4.731  0.000    23.637     6.518
  53   6 C     -0.067  1.050  3.018  0.000    21.784     6.644
  54   6 C     -0.083  1.052  3.031  0.000    22.074     6.689
  55   6 C     -0.094  1.053  3.042  0.000    22.292     6.722
  56   6 C     -0.053  1.060  2.994  0.000    21.628     6.638
  57   7 N     -0.144  1.232  3.912  0.000    24.104     7.292
  58   1 H      0.199  0.801  0.000  0.000     1.111     1.652
  59   1 H      0.080  0.920  0.000  0.000     1.977     2.199
  60   1 H      0.061  0.939  0.000  0.000     2.188     2.313
  61   1 H      0.042  0.958  0.000  0.000     2.419     2.432
  62   1 H      0.074  0.926  0.000  0.000     2.043     2.235
  63   1 H      0.047  0.953  0.000  0.000     2.360     2.402
  64   1 H      0.068  0.932  0.000  0.000     2.106     2.269
  65   1 H      0.089  0.911  0.000  0.000     1.893     2.152
  66   1 H      0.129  0.871  0.000  0.000     1.546     1.944
  67   1 H      0.122  0.878  0.000  0.000     1.600     1.978
  68   1 H      0.311  0.689  0.000  0.000     0.682     1.294
  69   1 H      0.280  0.720  0.000  0.000     0.777     1.381
  70   1 H      0.292  0.708  0.000  0.000     0.739     1.347
  71   7 N     -0.171  1.238  3.933  0.000    24.692     7.380
  72   6 C      0.020  1.054  2.926  0.000    20.236     6.406
  73   6 C      0.189  1.089  2.722  0.000    23.955     8.016
  74   8 O     -0.350  1.729  4.621  0.000    20.699     6.100
  75   6 C     -0.070  1.052  3.018  0.000    21.804     6.642
  76   6 C     -0.006  1.057  2.949  0.000    20.689     6.476
  77  16 S     -0.216  1.918  4.241  0.057   150.273    20.632
  78   6 C     -0.052  1.050  3.003  0.000    21.586     6.628
  79   1 H      0.225  0.775  0.000  0.000     0.987     1.556
  80   1 H      0.104  0.896  0.000  0.000     1.750     2.069
  81   1 H      0.067  0.933  0.000  0.000     2.124     2.279
  82   1 H      0.079  0.921  0.000  0.000     1.991     2.207
  83   1 H      0.079  0.921  0.000  0.000     1.989     2.206
  84   1 H      0.042  0.958  0.000  0.000     2.424     2.435
  85   1 H      0.042  0.958  0.000  0.000     2.417     2.431
  86   1 H      0.049  0.951  0.000  0.000     2.335     2.390
  87   1 H      0.062  0.938  0.000  0.000     2.176     2.307
  88   7 N     -0.399  1.337  4.062  0.000    30.350     8.182
  89   6 C      0.040  1.055  2.905  0.000    19.906     6.353
  90   6 C      0.279  1.047  2.674  0.000    22.275     7.729
  91   8 O     -0.505  1.746  4.759  0.000    23.893     6.554
  92   6 C     -0.022  1.064  2.958  0.000    20.931     6.506
  93   6 C     -0.063  1.050  3.014  0.000    21.706     6.631
  94   6 C     -0.109  1.042  3.066  0.000    22.624     6.781
  95   6 C     -0.114  1.041  3.074  0.000    22.747     6.801
  96   1 H      0.173  0.827  0.000  0.000     1.252     1.753
  97   1 H      0.024  0.976  0.000  0.000     2.675     2.558
  98   1 H      0.050  0.950  0.000  0.000     2.326     2.385
  99   1 H      0.050  0.950  0.000  0.000     2.319     2.382
 100   1 H      0.030  0.970  0.000  0.000     2.586     2.515
 101   1 H      0.062  0.938  0.000  0.000     2.176     2.307
 102   1 H      0.004  0.996  0.000  0.000     2.988     2.703
 103   1 H      0.037  0.963  0.000  0.000     2.492     2.469
 104   1 H      0.063  0.937  0.000  0.000     2.166     2.302
 105   1 H      0.038  0.962  0.000  0.000     2.482     2.464
 106   1 H      0.047  0.953  0.000  0.000     2.357     2.401
 107   7 N     -0.191  1.252  3.939  0.000    25.142     7.447
 108   6 C      0.041  1.056  2.903  0.000    19.888     6.350
 109   6 C      0.288  1.041  2.672  0.000    22.124     7.702
 110   8 O     -0.514  1.752  4.761  0.000    24.086     6.580
 111   6 C     -0.082  1.061  3.021  0.000    22.060     6.686
 112   6 C      0.368  1.023  2.609  0.000    20.756     7.456
 113   8 O     -0.644  1.767  4.878  0.000    27.235     6.997
 114   8 O     -0.661  1.780  4.881  0.000    27.655     7.051
 115   1 H      0.201  0.799  0.000  0.000     1.101     1.644
 116   1 H      0.073  0.927  0.000  0.000     2.052     2.240
 117   1 H      0.033  0.967  0.000  0.000     2.545     2.495
 118   1 H      0.045  0.955  0.000  0.000     2.381     2.413
 119   7 N     -0.183  1.242  3.941  0.000    24.965     7.421
 120   6 C      0.036  1.060  2.904  0.000    19.969     6.364
 121   6 C      0.268  1.044  2.687  0.000    22.473     7.763
 122   8 O     -0.478  1.736  4.742  0.000    23.306     6.473
 123   6 C     -0.037  1.047  2.990  0.000    21.227     6.559
 124   6 C     -0.075  1.057  3.018  0.000    21.933     6.668
 125   6 C      0.367  1.031  2.602  0.000    20.773     7.459
 126   8 O     -0.665  1.780  4.885  0.000    27.764     7.065
 127   8 O     -0.652  1.771  4.881  0.000    27.428     7.022
 128   1 H      0.207  0.793  0.000  0.000     1.069     1.619
 129   1 H      0.045  0.955  0.000  0.000     2.378     2.412
 130   1 H      0.039  0.961  0.000  0.000     2.461     2.453
 131   1 H      0.038  0.962  0.000  0.000     2.479     2.462
 132   1 H      0.021  0.979  0.000  0.000     2.720     2.579
 133   1 H      0.003  0.997  0.000  0.000     3.007     2.712
 134   7 N     -0.165  1.252  3.913  0.000    24.579     7.363
 135   6 C      0.020  1.063  2.917  0.000    20.247     6.408
 136   6 C      0.271  1.040  2.688  0.000    22.413     7.752
 137   8 O     -0.516  1.760  4.756  0.000    24.136     6.587
 138   6 C     -0.066  1.051  3.015  0.000    21.753     6.638
 139   6 C     -0.020  1.068  2.952  0.000    20.938     6.516
 140  16 S     -0.195  1.906  4.239  0.050   149.341    20.568
 141   6 C     -0.057  1.051  3.006  0.000    21.666     6.640
 142   1 H      0.205  0.795  0.000  0.000     1.082     1.629
 143   1 H      0.081  0.919  0.000  0.000     1.969     2.194
 144   1 H      0.050  0.950  0.000  0.000     2.319     2.381
 145   1 H      0.068  0.932  0.000  0.000     2.104     2.268
 146   1 H      0.080  0.920  0.000  0.000     1.974     2.197
 147   1 H      0.050  0.950  0.000  0.000     2.323     2.384
 148   1 H      0.074  0.926  0.000  0.000     2.041     2.234
 149   1 H      0.049  0.951  0.000  0.000     2.333     2.388
 150   1 H      0.044  0.956  0.000  0.000     2.395     2.420
 151   7 N     -0.083  1.238  3.846  0.000    22.864     7.102
 152   6 C      0.023  1.062  2.915  0.000    20.171     6.391
 153   6 C      0.199  1.083  2.718  0.000    23.757     7.982
 154   8 O     -0.357  1.757  4.600  0.000    20.844     6.121
 155   6 C     -0.076  1.053  3.023  0.000    21.929     6.663
 156   6 C     -0.075  1.046  3.028  0.000    21.893     6.656
 157   6 C     -0.015  1.057  2.958  0.000    20.908     6.521
 158   1 H      0.077  0.923  0.000  0.000     2.015     2.220
 159   1 H      0.083  0.917  0.000  0.000     1.945     2.181
 160   1 H      0.084  0.916  0.000  0.000     1.938     2.177
 161   1 H      0.080  0.920  0.000  0.000     1.975     2.198
 162   1 H      0.080  0.920  0.000  0.000     1.982     2.202
 163   1 H      0.084  0.916  0.000  0.000     1.938     2.177
 164   1 H      0.062  0.938  0.000  0.000     2.173     2.305
 165   7 N     -0.394  1.339  4.055  0.000    30.206     8.163
 166   6 C      0.015  1.072  2.913  0.000    20.357     6.429
 167   6 C      0.262  1.055  2.683  0.000    22.576     7.780
 168   8 O     -0.479  1.763  4.716  0.000    23.316     6.474
 169   6 C      0.107  1.054  2.839  0.000    18.940     6.217
 170   8 O     -0.494  1.741  4.752  0.000    22.758     6.440
 171   6 C     -0.144  1.053  3.091  0.000    23.347     6.892
 172   1 H      0.172  0.828  0.000  0.000     1.261     1.759
 173   1 H      0.058  0.942  0.000  0.000     2.227     2.334
 174   1 H      0.018  0.982  0.000  0.000     2.764     2.600
 175   1 H      0.344  0.656  0.000  0.000     0.602     1.219
 176   1 H      0.068  0.932  0.000  0.000     2.112     2.273
 177   1 H      0.046  0.954  0.000  0.000     2.368     2.406
 178   1 H      0.055  0.945  0.000  0.000     2.259     2.351
 179   7 N     -0.200  1.252  3.948  0.000    25.345     7.477
 180   6 C      0.013  1.067  2.920  0.000    20.368     6.427
 181   6 C      0.274  1.046  2.680  0.000    22.373     7.745
 182   8 O     -0.442  1.734  4.708  0.000    22.541     6.366
 183   6 C     -0.139  1.048  3.092  0.000    23.244     6.875
 184   1 H      0.210  0.790  0.000  0.000     1.056     1.610
 185   1 H      0.095  0.905  0.000  0.000     1.836     2.119
 186   1 H      0.092  0.908  0.000  0.000     1.860     2.133
 187   1 H      0.070  0.930  0.000  0.000     2.082     2.257
 188   1 H      0.064  0.936  0.000  0.000     2.155     2.296
 189   7 N     -0.188  1.246  3.942  0.000    25.073     7.437
 190   6 C      0.019  1.071  2.911  0.000    20.283     6.416
 191   6 C      0.275  1.042  2.683  0.000    22.348     7.741
 192   8 O     -0.442  1.750  4.692  0.000    22.546     6.366
 193   6 C     -0.097  1.060  3.038  0.000    22.355     6.732
 194   6 C      0.286  1.035  2.678  0.000    22.150     7.706
 195   8 O     -0.499  1.759  4.741  0.000    23.772     6.537
 196   7 N     -0.284  1.268  4.016  0.000    27.324     7.763
 197   1 H      0.180  0.820  0.000  0.000     1.216     1.728
 198   1 H      0.078  0.922  0.000  0.000     2.005     2.214
 199   1 H      0.073  0.927  0.000  0.000     2.052     2.240
 200   1 H      0.108  0.892  0.000  0.000     1.712     2.046
 201   1 H      0.237  0.763  0.000  0.000     0.936     1.516
 202   1 H      0.233  0.767  0.000  0.000     0.953     1.529
 203   7 N     -0.169  1.224  3.945  0.000    24.661     7.376
 204   6 C      0.006  1.063  2.932  0.000    20.486     6.445
 205   6 C      0.259  1.043  2.698  0.000    22.642     7.792
 206   8 O     -0.490  1.753  4.737  0.000    23.575     6.510
 207   6 C     -0.081  1.054  3.027  0.000    22.042     6.682
 208   6 C     -0.091  1.052  3.039  0.000    22.224     6.711
 209   6 C     -0.113  1.057  3.055  0.000    22.650     6.775
 210   6 C     -0.068  1.063  3.005  0.000    21.892     6.679
 211   7 N     -0.147  1.232  3.915  0.000    24.178     7.303
 212   1 H      0.195  0.805  0.000  0.000     1.131     1.666
 213   1 H      0.085  0.915  0.000  0.000     1.929     2.172
 214   1 H      0.078  0.922  0.000  0.000     2.000     2.212
 215   1 H      0.052  0.948  0.000  0.000     2.301     2.372
 216   1 H      0.054  0.946  0.000  0.000     2.276     2.359
 217   1 H      0.075  0.925  0.000  0.000     2.035     2.231
 218   1 H      0.098  0.902  0.000  0.000     1.806     2.102
 219   1 H      0.075  0.925  0.000  0.000     2.033     2.230
 220   1 H      0.135  0.865  0.000  0.000     1.500     1.915
 221   1 H      0.142  0.858  0.000  0.000     1.449     1.883
 222   1 H      0.316  0.684  0.000  0.000     0.667     1.279
 223   1 H      0.287  0.713  0.000  0.000     0.754     1.360
 224   1 H      0.284  0.716  0.000  0.000     0.764     1.370
 225   7 N     -0.162  1.243  3.919  0.000    24.508     7.353
 226   6 C      0.024  1.055  2.921  0.000    20.166     6.394
 227   6 C      0.268  1.044  2.688  0.000    22.471     7.763
 228   8 O     -0.470  1.737  4.733  0.000    23.129     6.448
 229   6 C     -0.073  1.047  3.026  0.000    21.879     6.657
 230   6 C     -0.003  1.079  2.923  0.000    28.086     8.693
 231   6 C     -0.042  1.088  2.955  0.000    29.052     8.839
 232   6 C     -0.042  1.086  2.956  0.000    29.032     8.836
 233   6 C     -0.075  1.083  2.992  0.000    29.879     8.963
 234   6 C     -0.065  1.079  2.986  0.000    29.610     8.923
 235   6 C      0.134  1.051  2.816  0.000    25.071     8.206
 236   8 O     -0.423  1.711  4.712  0.000    21.310     6.232
 237   1 H      0.237  0.763  0.000  0.000     0.934     1.514
 238   1 H      0.069  0.931  0.000  0.000     2.100     2.266
 239   1 H      0.066  0.934  0.000  0.000     2.132     2.283
 240   1 H      0.045  0.955  0.000  0.000     2.377     2.411
 241   1 H      0.058  0.942  0.000  0.000     2.217     2.329
 242   1 H      0.027  0.973  0.000  0.000     2.629     2.536
 243   1 H      0.070  0.930  0.000  0.000     2.090     2.261
 244   1 H      0.074  0.926  0.000  0.000     2.038     2.232
 245   1 H      0.342  0.658  0.000  0.000     0.607     1.223
 246   7 N     -0.166  1.244  3.922  0.000    24.594     7.365
 247   6 C      0.020  1.065  2.915  0.000    20.245     6.407
 248   6 C      0.282  1.040  2.678  0.000    22.221     7.719
 249   8 O     -0.496  1.743  4.753  0.000    23.701     6.527
 250   6 C     -0.061  1.049  3.012  0.000    21.673     6.627
 251   6 C     -0.081  1.047  3.034  0.000    22.030     6.681
 252   6 C      0.298  1.033  2.669  0.000    21.943     7.670
 253   8 O     -0.543  1.774  4.769  0.000    24.758     6.671
 254   7 N     -0.283  1.267  4.016  0.000    27.302     7.760
 255   1 H      0.201  0.799  0.000  0.000     1.102     1.644
 256   1 H      0.085  0.915  0.000  0.000     1.931     2.173
 257   1 H      0.064  0.936  0.000  0.000     2.157     2.297
 258   1 H      0.039  0.961  0.000  0.000     2.464     2.455
 259   1 H      0.055  0.945  0.000  0.000     2.259     2.350
 260   1 H      0.054  0.946  0.000  0.000     2.270     2.356
 261   1 H      0.230  0.770  0.000  0.000     0.964     1.538
 262   1 H      0.211  0.789  0.000  0.000     1.053     1.607
 263   7 N     -0.164  1.237  3.927  0.000    24.543     7.358
 264   6 C      0.038  1.050  2.913  0.000    19.941     6.357
 265   6 C      0.203  1.088  2.709  0.000    23.689     7.971
 266   8 O     -0.382  1.757  4.625  0.000    21.319     6.190
 267   6 C     -0.016  1.058  2.958  0.000    20.821     6.489
 268   6 C     -0.120  1.042  3.078  0.000    22.861     6.817
 269   6 C     -0.113  1.041  3.072  0.000    22.705     6.793
 270   1 H      0.221  0.779  0.000  0.000     1.004     1.570
 271   1 H      0.069  0.931  0.000  0.000     2.093     2.262
 272   1 H      0.068  0.932  0.000  0.000     2.111     2.272
 273   1 H      0.076  0.924  0.000  0.000     2.017     2.221
 274   1 H      0.027  0.973  0.000  0.000     2.630     2.536
 275   1 H      0.051  0.949  0.000  0.000     2.306     2.375
 276   1 H      0.070  0.930  0.000  0.000     2.090     2.261
 277   1 H      0.046  0.954  0.000  0.000     2.368     2.406
 278   1 H      0.052  0.948  0.000  0.000     2.295     2.369
 279   7 N     -0.376  1.316  4.060  0.000    29.703     8.094
 280   6 C      0.048  1.046  2.906  0.000    19.782     6.334
 281   6 C      0.197  1.089  2.714  0.000    23.801     7.990
 282   8 O     -0.369  1.763  4.607  0.000    21.080     6.156
 283   6 C     -0.068  1.049  3.019  0.000    21.776     6.640
 284   6 C      0.012  1.074  2.913  0.000    27.732     8.638
 285   6 C     -0.044  1.080  2.964  0.000    29.091     8.846
 286   6 C     -0.037  1.076  2.962  0.000    28.928     8.821
 287   6 C     -0.034  1.078  2.956  0.000    28.837     8.806
 288   6 C     -0.034  1.081  2.954  0.000    28.858     8.810
 289   6 C     -0.032  1.076  2.956  0.000    28.801     8.801
 290   1 H      0.153  0.847  0.000  0.000     1.378     1.839
 291   1 H      0.052  0.948  0.000  0.000     2.291     2.367
 292   1 H      0.054  0.946  0.000  0.000     2.272     2.357
 293   1 H      0.054  0.946  0.000  0.000     2.270     2.356
 294   1 H      0.045  0.955  0.000  0.000     2.382     2.414
 295   1 H      0.017  0.983  0.000  0.000     2.780     2.607
 296   1 H      0.051  0.949  0.000  0.000     2.311     2.377
 297   1 H      0.028  0.972  0.000  0.000     2.619     2.531
 298   1 H      0.037  0.963  0.000  0.000     2.492     2.468
 299   7 N     -0.374  1.323  4.051  0.000    29.663     8.089
 300   6 C      0.029  1.062  2.908  0.000    20.096     6.385
 301   6 C      0.284  1.040  2.676  0.000    22.186     7.713
 302   8 O     -0.492  1.744  4.748  0.000    23.610     6.515
 303   6 C      0.118  1.054  2.828  0.000    18.758     6.186
 304   8 O     -0.461  1.724  4.737  0.000    22.072     6.342
 305   6 C     -0.112  1.044  3.068  0.000    22.722     6.799
 306   1 H      0.165  0.835  0.000  0.000     1.304     1.789
 307   1 H      0.058  0.942  0.000  0.000     2.228     2.334
 308   1 H     -0.006  1.006  0.000  0.000     3.162     2.781
 309   1 H      0.303  0.697  0.000  0.000     0.713     1.327
 310   1 H      0.026  0.974  0.000  0.000     2.651     2.546
 311   1 H      0.039  0.961  0.000  0.000     2.469     2.457
 312   1 H      0.058  0.942  0.000  0.000     2.227     2.334
 313   7 N     -0.186  1.244  3.941  0.000    25.025     7.430
 314   6 C      0.033  1.053  2.914  0.000    20.027     6.373
 315   6 C      0.266  1.043  2.691  0.000    22.506     7.769
 316   8 O     -0.502  1.746  4.756  0.000    23.822     6.544
 317   6 C     -0.113  1.040  3.072  0.000    22.705     6.794
 318   1 H      0.197  0.803  0.000  0.000     1.120     1.658
 319   1 H      0.050  0.950  0.000  0.000     2.320     2.382
 320   1 H      0.079  0.921  0.000  0.000     1.987     2.205
 321   1 H      0.061  0.939  0.000  0.000     2.192     2.315
 322   1 H      0.063  0.937  0.000  0.000     2.162     2.299
 323   7 N     -0.151  1.237  3.914  0.000    24.278     7.318
 324   6 C      0.009  1.054  2.937  0.000    20.413     6.432
 325   6 C      0.271  1.029  2.700  0.000    22.414     7.754
 326   8 O     -0.466  1.736  4.729  0.000    23.038     6.435
 327   6 C     -0.101  1.056  3.045  0.000    22.405     6.736
 328   6 C     -0.002  1.072  2.930  0.000    28.067     8.690
 329   6 C     -0.048  1.076  2.972  0.000    29.195     8.861
 330   6 C     -0.048  1.080  2.967  0.000    29.187     8.860
 331   6 C     -0.037  1.076  2.961  0.000    28.911     8.818
 332   6 C     -0.027  1.078  2.949  0.000    28.675     8.782
 333   6 C     -0.041  1.085  2.956  0.000    29.031     8.836
 334   1 H      0.222  0.778  0.000  0.000     1.000     1.566
 335   1 H      0.087  0.913  0.000  0.000     1.908     2.160
 336   1 H      0.102  0.898  0.000  0.000     1.768     2.079
 337   1 H      0.100  0.900  0.000  0.000     1.783     2.088
 338   1 H      0.056  0.944  0.000  0.000     2.251     2.346
 339   1 H      0.060  0.940  0.000  0.000     2.204     2.322
 340   1 H      0.020  0.980  0.000  0.000     2.738     2.588
 341   1 H      0.021  0.979  0.000  0.000     2.717     2.578
 342   1 H      0.035  0.965  0.000  0.000     2.518     2.481
 343   7 N     -0.157  1.229  3.928  0.000    24.387     7.334
 344   6 C      0.015  1.057  2.928  0.000    20.316     6.416
 345   6 C      0.266  1.039  2.695  0.000    22.511     7.770
 346   8 O     -0.481  1.741  4.741  0.000    23.378     6.483
 347   6 C     -0.064  1.053  3.011  0.000    21.713     6.631
 348   6 C     -0.004  1.054  2.950  0.000    20.624     6.460
 349   6 C     -0.099  1.042  3.057  0.000    22.440     6.753
 350   6 C     -0.118  1.043  3.075  0.000    22.829     6.814
 351   1 H      0.217  0.783  0.000  0.000     1.025     1.586
 352   1 H      0.085  0.915  0.000  0.000     1.923     2.169
 353   1 H      0.046  0.954  0.000  0.000     2.365     2.405
 354   1 H      0.046  0.954  0.000  0.000     2.370     2.407
 355   1 H      0.025  0.975  0.000  0.000     2.654     2.548
 356   1 H      0.029  0.971  0.000  0.000     2.605     2.524
 357   1 H      0.030  0.970  0.000  0.000     2.580     2.512
 358   1 H      0.033  0.967  0.000  0.000     2.545     2.495
 359   1 H      0.034  0.966  0.000  0.000     2.532     2.488
 360   1 H      0.034  0.966  0.000  0.000     2.524     2.485
 361   1 H      0.070  0.930  0.000  0.000     2.087     2.259
 362   7 N     -0.143  1.228  3.915  0.000    24.096     7.290
 363   6 C     -0.038  1.049  2.989  0.000    21.321     6.586
 364   6 C      0.258  1.046  2.696  0.000    22.661     7.795
 365   8 O     -0.518  1.774  4.744  0.000    24.198     6.595
 366   1 H      0.218  0.782  0.000  0.000     1.020     1.582
 367   1 H      0.115  0.885  0.000  0.000     1.651     2.009
 368   1 H      0.103  0.897  0.000  0.000     1.762     2.076
 369   7 N     -0.090  1.238  3.853  0.000    22.999     7.123
 370   6 C      0.024  1.062  2.914  0.000    20.161     6.390
 371   6 C      0.204  1.085  2.711  0.000    23.671     7.968
 372   8 O     -0.374  1.766  4.608  0.000    21.170     6.169
 373   6 C     -0.068  1.051  3.017  0.000    21.774     6.639
 374   6 C     -0.078  1.043  3.035  0.000    21.959     6.666
 375   6 C     -0.023  1.058  2.966  0.000    21.029     6.536
 376   1 H      0.090  0.910  0.000  0.000     1.883     2.146
 377   1 H      0.065  0.935  0.000  0.000     2.140     2.288
 378   1 H      0.082  0.918  0.000  0.000     1.957     2.188
 379   1 H      0.065  0.935  0.000  0.000     2.139     2.287
 380   1 H      0.090  0.910  0.000  0.000     1.884     2.146
 381   1 H      0.087  0.913  0.000  0.000     1.904     2.158
 382   1 H      0.089  0.911  0.000  0.000     1.885     2.147
 383   7 N     -0.402  1.323  4.078  0.000    30.420     8.191
 384   6 C      0.053  1.048  2.899  0.000    19.689     6.319
 385   6 C      0.269  1.050  2.681  0.000    22.454     7.760
 386   8 O     -0.542  1.750  4.791  0.000    24.725     6.667
 387   6 C     -0.070  1.057  3.012  0.000    21.826     6.650
 388   6 C      0.371  1.021  2.608  0.000    20.716     7.449
 389   8 O     -0.667  1.778  4.889  0.000    27.813     7.071
 390   8 O     -0.643  1.763  4.880  0.000    27.206     6.993
 391   1 H      0.166  0.834  0.000  0.000     1.299     1.786
 392   1 H      0.036  0.964  0.000  0.000     2.505     2.475
 393   1 H      0.018  0.982  0.000  0.000     2.767     2.601
 394   1 H      0.027  0.973  0.000  0.000     2.629     2.536
 395   7 N     -0.152  1.242  3.910  0.000    24.294     7.320
 396   6 C      0.029  1.057  2.914  0.000    20.095     6.384
 397   6 C      0.196  1.089  2.715  0.000    23.827     7.994
 398   8 O     -0.371  1.761  4.610  0.000    21.101     6.159
 399   6 C     -0.081  1.060  3.020  0.000    22.033     6.681
 400   6 C     -0.016  1.055  2.960  0.000    20.823     6.490
 401   6 C     -0.111  1.040  3.071  0.000    22.678     6.790
 402   6 C     -0.124  1.046  3.079  0.000    22.937     6.829
 403   1 H      0.221  0.779  0.000  0.000     1.006     1.571
 404   1 H      0.086  0.914  0.000  0.000     1.915     2.164
 405   1 H      0.073  0.927  0.000  0.000     2.058     2.243
 406   1 H      0.065  0.935  0.000  0.000     2.143     2.290
 407   1 H      0.031  0.969  0.000  0.000     2.576     2.510
 408   1 H      0.036  0.964  0.000  0.000     2.499     2.472
 409   1 H      0.022  0.978  0.000  0.000     2.702     2.571
 410   1 H      0.053  0.947  0.000  0.000     2.286     2.365
 411   1 H      0.047  0.953  0.000  0.000     2.356     2.400
 412   1 H      0.051  0.949  0.000  0.000     2.308     2.376
 413   1 H      0.054  0.946  0.000  0.000     2.273     2.358
 414   7 N     -0.390  1.320  4.070  0.000    30.098     8.148
 415   6 C      0.046  1.040  2.913  0.000    19.796     6.334
 416   6 C      0.274  1.040  2.686  0.000    22.366     7.746
 417   8 O     -0.505  1.751  4.754  0.000    23.896     6.554
 418   6 C     -0.071  1.052  3.019  0.000    21.833     6.649
 419   6 C      0.004  1.087  2.909  0.000    27.927     8.668
 420   6 C     -0.039  1.077  2.962  0.000    28.962     8.826
 421   6 C     -0.042  1.081  2.961  0.000    29.038     8.837
 422   6 C     -0.027  1.076  2.951  0.000    28.680     8.782
 423   6 C     -0.033  1.077  2.956  0.000    28.826     8.804
 424   6 C     -0.037  1.078  2.959  0.000    28.928     8.820
 425   1 H      0.171  0.829  0.000  0.000     1.267     1.763
 426   1 H      0.029  0.971  0.000  0.000     2.600     2.522
 427   1 H      0.037  0.963  0.000  0.000     2.485     2.465
 428   1 H      0.058  0.942  0.000  0.000     2.225     2.333
 429   1 H      0.020  0.980  0.000  0.000     2.734     2.586
 430   1 H      0.044  0.956  0.000  0.000     2.392     2.419
 431   1 H      0.011  0.989  0.000  0.000     2.880     2.654
 432   1 H      0.040  0.960  0.000  0.000     2.453     2.449
 433   1 H      0.030  0.970  0.000  0.000     2.582     2.513
 434   7 N     -0.174  1.252  3.922  0.000    24.761     7.390
 435   6 C      0.036  1.047  2.917  0.000    19.971     6.362
 436   6 C      0.197  1.090  2.713  0.000    23.791     7.988
 437   8 O     -0.370  1.751  4.619  0.000    21.087     6.157
 438   6 C     -0.064  1.047  3.017  0.000    21.700     6.628
 439   6 C      0.014  1.073  2.913  0.000    27.698     8.633
 440   6 C     -0.042  1.081  2.961  0.000    29.040     8.838
 441   6 C     -0.035  1.074  2.961  0.000    28.875     8.813
 442   6 C     -0.032  1.080  2.952  0.000    28.790     8.799
 443   6 C     -0.032  1.079  2.953  0.000    28.809     8.802
 444   6 C     -0.034  1.080  2.954  0.000    28.857     8.810
 445   1 H      0.224  0.776  0.000  0.000     0.992     1.560
 446   1 H      0.084  0.916  0.000  0.000     1.941     2.178
 447   1 H      0.052  0.948  0.000  0.000     2.294     2.369
 448   1 H      0.072  0.928  0.000  0.000     2.068     2.249
 449   1 H      0.051  0.949  0.000  0.000     2.308     2.376
 450   1 H      0.004  0.996  0.000  0.000     2.988     2.703
 451   1 H      0.057  0.943  0.000  0.000     2.238     2.339
 452   1 H      0.026  0.974  0.000  0.000     2.639     2.541
 453   1 H      0.049  0.951  0.000  0.000     2.333     2.389
 454   7 N     -0.377  1.325  4.053  0.000    29.755     8.101
 455   6 C     -0.031  1.050  2.980  0.000    21.204     6.571
 456   6 C      0.270  1.038  2.691  0.000    22.433     7.756
 457   8 O     -0.479  1.731  4.747  0.000    23.313     6.474
 458   1 H      0.157  0.843  0.000  0.000     1.356     1.824
 459   1 H      0.072  0.928  0.000  0.000     2.061     2.245
 460   1 H      0.082  0.918  0.000  0.000     1.956     2.187
 461   7 N     -0.170  1.232  3.939  0.000    24.688     7.380
 462   6 C      0.017  1.060  2.922  0.000    20.279     6.410
 463   6 C      0.265  1.054  2.681  0.000    22.524     7.772
 464   8 O     -0.498  1.762  4.737  0.000    23.746     6.533
 465   6 C      0.127  1.035  2.838  0.000    18.589     6.152
 466   8 O     -0.494  1.716  4.778  0.000    22.770     6.441
 467   6 C     -0.127  1.045  3.082  0.000    22.994     6.837
 468   1 H      0.203  0.797  0.000  0.000     1.090     1.636
 469   1 H      0.112  0.888  0.000  0.000     1.683     2.029
 470   1 H      0.017  0.983  0.000  0.000     2.779     2.607
 471   1 H      0.315  0.685  0.000  0.000     0.679     1.294
 472   1 H      0.050  0.950  0.000  0.000     2.314     2.379
 473   1 H      0.071  0.929  0.000  0.000     2.070     2.250
 474   1 H      0.062  0.938  0.000  0.000     2.171     2.304
 475   7 N     -0.163  1.242  3.921  0.000    24.531     7.356
 476   6 C      0.031  1.054  2.914  0.000    20.056     6.377
 477   6 C      0.292  1.035  2.673  0.000    22.053     7.690
 478   8 O     -0.505  1.751  4.754  0.000    23.893     6.554
 479   6 C     -0.060  1.040  3.020  0.000    21.642     6.622
 480   6 C      0.050  1.066  2.884  0.000    26.758     8.478
 481   7 N     -0.290  1.461  3.829  0.000    28.328     7.893
 482   6 C     -0.032  1.056  2.976  0.000    28.750     8.794
 483   6 C      0.079  1.064  2.857  0.000    26.213     8.398
 484   7 N     -0.081  1.234  3.847  0.000    22.805     7.093
 485   1 H      0.209  0.791  0.000  0.000     1.064     1.616
 486   1 H      0.062  0.938  0.000  0.000     2.172     2.305
 487   1 H      0.087  0.913  0.000  0.000     1.910     2.161
 488   1 H      0.043  0.957  0.000  0.000     2.404     2.425
 489   1 H      0.019  0.981  0.000  0.000     2.742     2.589
 490   1 H      0.081  0.919  0.000  0.000     1.970     2.195
 491   1 H      0.184  0.816  0.000  0.000     1.194     1.711
 492   7 N     -0.159  1.230  3.929  0.000    24.438     7.342
 493   6 C      0.039  1.051  2.910  0.000    19.920     6.355
 494   6 C      0.271  1.050  2.679  0.000    22.422     7.755
 495   8 O     -0.491  1.740  4.751  0.000    23.590     6.512
 496   6 C     -0.050  1.046  3.004  0.000    21.467     6.596
 497   6 C     -0.089  1.063  3.025  0.000    22.195     6.708
 498   6 C      0.365  1.031  2.604  0.000    20.808     7.465
 499   8 O     -0.643  1.771  4.872  0.000    27.210     6.994
 500   8 O     -0.632  1.773  4.859  0.000    26.919     6.956
 501   1 H      0.203  0.797  0.000  0.000     1.091     1.636
 502   1 H      0.061  0.939  0.000  0.000     2.193     2.316
 503   1 H      0.031  0.969  0.000  0.000     2.575     2.509
 504   1 H      0.045  0.955  0.000  0.000     2.378     2.411
 505   1 H      0.030  0.970  0.000  0.000     2.582     2.513
 506   1 H      0.036  0.964  0.000  0.000     2.498     2.472
 507   7 N     -0.156  1.238  3.919  0.000    24.385     7.334
 508   6 C      0.026  1.062  2.912  0.000    20.150     6.394
 509   6 C      0.198  1.083  2.719  0.000    23.789     7.988
 510   8 O     -0.353  1.761  4.592  0.000    20.759     6.109
 511   6 C      0.113  1.054  2.833  0.000    18.844     6.200
 512   8 O     -0.465  1.736  4.729  0.000    22.149     6.353
 513   6 C     -0.121  1.046  3.075  0.000    22.882     6.823
 514   1 H      0.216  0.784  0.000  0.000     1.029     1.589
 515   1 H      0.100  0.900  0.000  0.000     1.787     2.091
 516   1 H      0.053  0.947  0.000  0.000     2.288     2.366
 517   1 H      0.321  0.679  0.000  0.000     0.661     1.277
 518   1 H      0.055  0.945  0.000  0.000     2.262     2.352
 519   1 H      0.060  0.940  0.000  0.000     2.204     2.322
 520   1 H      0.044  0.956  0.000  0.000     2.391     2.418
 521   7 N     -0.402  1.336  4.066  0.000    30.428     8.192
 522   6 C      0.025  1.060  2.915  0.000    20.167     6.396
 523   6 C      0.276  1.041  2.684  0.000    22.338     7.740
 524   8 O     -0.487  1.760  4.727  0.000    23.507     6.501
 525   6 C     -0.073  1.055  3.019  0.000    21.895     6.661
 526   6 C     -0.088  1.056  3.032  0.000    22.180     6.705
 527   6 C     -0.092  1.053  3.039  0.000    22.250     6.716
 528   6 C     -0.058  1.063  2.995  0.000    21.707     6.651
 529   7 N     -0.149  1.235  3.914  0.000    24.206     7.307
 530   1 H      0.160  0.840  0.000  0.000     1.333     1.808
 531   1 H      0.037  0.963  0.000  0.000     2.486     2.466
 532   1 H      0.051  0.949  0.000  0.000     2.302     2.373
 533   1 H      0.044  0.956  0.000  0.000     2.397     2.421
 534   1 H      0.055  0.945  0.000  0.000     2.257     2.349
 535   1 H      0.066  0.934  0.000  0.000     2.125     2.280
 536   1 H      0.076  0.924  0.000  0.000     2.018     2.222
 537   1 H      0.071  0.929  0.000  0.000     2.077     2.254
 538   1 H      0.124  0.876  0.000  0.000     1.581     1.966
 539   1 H      0.120  0.880  0.000  0.000     1.615     1.988
 540   1 H      0.315  0.685  0.000  0.000     0.671     1.284
 541   1 H      0.292  0.708  0.000  0.000     0.738     1.346
 542   1 H      0.298  0.702  0.000  0.000     0.720     1.329
 543   7 N     -0.176  1.239  3.938  0.000    24.821     7.399
 544   6 C     -0.032  1.049  2.983  0.000    21.220     6.571
 545   6 C      0.202  1.085  2.713  0.000    23.702     7.973
 546   8 O     -0.389  1.769  4.620  0.000    21.468     6.212
 547   1 H      0.228  0.772  0.000  0.000     0.975     1.547
 548   1 H      0.132  0.868  0.000  0.000     1.522     1.929
 549   1 H      0.107  0.893  0.000  0.000     1.725     2.054
 550   7 N     -0.388  1.332  4.056  0.000    30.043     8.141
 551   6 C      0.027  1.056  2.916  0.000    20.118     6.387
 552   6 C      0.278  1.033  2.689  0.000    22.298     7.735
 553   8 O     -0.502  1.753  4.749  0.000    23.837     6.546
 554   6 C      0.117  1.049  2.834  0.000    18.745     6.179
 555   8 O     -0.488  1.730  4.758  0.000    22.629     6.422
 556   6 C     -0.141  1.051  3.090  0.000    23.290     6.883
 557   1 H      0.166  0.834  0.000  0.000     1.298     1.785
 558   1 H      0.042  0.958  0.000  0.000     2.425     2.435
 559   1 H      0.001  0.999  0.000  0.000     3.033     2.723
 560   1 H      0.342  0.658  0.000  0.000     0.607     1.224
 561   1 H      0.056  0.944  0.000  0.000     2.245     2.343
 562   1 H      0.051  0.949  0.000  0.000     2.305     2.374
 563   1 H      0.063  0.937  0.000  0.000     2.167     2.302
 564   7 N     -0.171  1.238  3.933  0.000    24.700     7.381
 565   6 C      0.021  1.061  2.918  0.000    20.217     6.401
 566   6 C      0.258  1.055  2.687  0.000    22.648     7.793
 567   8 O     -0.490  1.754  4.736  0.000    23.574     6.510
 568   6 C     -0.015  1.063  2.951  0.000    20.805     6.488
 569   6 C     -0.115  1.044  3.070  0.000    22.749     6.801
 570   6 C     -0.124  1.045  3.080  0.000    22.946     6.831
 571   1 H      0.221  0.779  0.000  0.000     1.006     1.571
 572   1 H      0.052  0.948  0.000  0.000     2.296     2.370
 573   1 H      0.020  0.980  0.000  0.000     2.738     2.588
 574   1 H      0.058  0.942  0.000  0.000     2.222     2.331
 575   1 H      0.028  0.972  0.000  0.000     2.616     2.529
 576   1 H      0.056  0.944  0.000  0.000     2.252     2.347
 577   1 H      0.062  0.938  0.000  0.000     2.172     2.305
 578   1 H      0.060  0.940  0.000  0.000     2.201     2.320
 579   1 H      0.053  0.947  0.000  0.000     2.288     2.366
 580   7 N     -0.193  1.256  3.938  0.000    25.193     7.455
 581   6 C      0.028  1.065  2.907  0.000    20.100     6.383
 582   6 C      0.386  1.000  2.613  0.000    20.466     7.405
 583   8 O     -0.650  1.760  4.890  0.000    27.375     7.015
 584   6 C     -0.060  1.049  3.011  0.000    21.638     6.620
 585   6 C     -0.066  1.044  3.022  0.000    21.766     6.641
 586   6 C     -0.102  1.055  3.047  0.000    22.445     6.744
 587   6 C     -0.052  1.060  2.992  0.000    21.604     6.633
 588   7 N     -0.136  1.233  3.903  0.000    23.947     7.268
 589   8 O     -0.642  1.761  4.881  0.000    27.169     6.989
 590   1 H      0.179  0.821  0.000  0.000     1.219     1.730
 591   1 H      0.027  0.973  0.000  0.000     2.633     2.538
 592   1 H      0.056  0.944  0.000  0.000     2.250     2.346
 593   1 H      0.040  0.960  0.000  0.000     2.450     2.448
 594   1 H      0.040  0.960  0.000  0.000     2.446     2.446
 595   1 H      0.059  0.941  0.000  0.000     2.205     2.322
 596   1 H      0.103  0.897  0.000  0.000     1.759     2.074
 597   1 H      0.096  0.904  0.000  0.000     1.820     2.110
 598   1 H      0.098  0.902  0.000  0.000     1.800     2.098
 599   1 H      0.096  0.904  0.000  0.000     1.822     2.111
 600   1 H      0.284  0.716  0.000  0.000     0.764     1.370
 601   1 H      0.303  0.697  0.000  0.000     0.706     1.316
 602   1 H      0.322  0.678  0.000  0.000     0.651     1.264
 603   1 H      0.192  0.808  0.000  0.000     1.148     1.679
 604   1 H      0.076  0.924  0.000  0.000     2.025     2.225
 605   1 H      0.182  0.818  0.000  0.000     1.203     1.718
 606   1 H      0.099  0.901  0.000  0.000     1.793     2.094
 607   1 H      0.185  0.815  0.000  0.000     1.184     1.704
 608   1 H      0.085  0.915  0.000  0.000     1.924     2.169
 609   1 H      0.190  0.810  0.000  0.000     1.161     1.688
 610   1 H      0.070  0.930  0.000  0.000     2.087     2.259
 611   1 H      0.169  0.831  0.000  0.000     1.279     1.772
 612   1 H      0.079  0.921  0.000  0.000     1.984     2.202
 613   1 H      0.179  0.821  0.000  0.000     1.218     1.729
 614   1 H      0.077  0.923  0.000  0.000     2.015     2.219
 615   1 H      0.169  0.831  0.000  0.000     1.281     1.772
 616   1 H      0.083  0.917  0.000  0.000     1.950     2.183
 617   1 H      0.188  0.812  0.000  0.000     1.168     1.693
 618   1 H      0.093  0.907  0.000  0.000     1.845     2.124
 619   1 H      0.154  0.846  0.000  0.000     1.374     1.836
 620   1 H      0.100  0.900  0.000  0.000     1.781     2.087
 621   1 H      0.187  0.813  0.000  0.000     1.175     1.698
 622   1 H      0.083  0.917  0.000  0.000     1.949     2.183

 Mol. C6AA /au·bohr⁶  :    3701083.531522
 Mol. C8AA /au·bohr⁸  :   83755162.200810
 Mol. α(0) /au        :       2895.747502

 
molecular dipole:
                 x           y           z       tot (Debye)
 q only:     -146.450     -81.457    -206.743
   full:     -142.795     -82.127    -204.380     667.223
molecular quadrupole (traceless):
                xx          xy          yy          xz          yz          zz
 q only:     4711.932  -15767.553   22537.351  -41233.042  -23678.840  -27249.283
  q+dip:     5085.844  -15470.250   21722.390  -40002.410  -23563.524  -26808.234
   full:     5092.804  -15468.224   21720.545  -40004.069  -23570.426  -26813.350
speedup  1.84
cpu  time for grad    1 m 20.1 s
wall time for grad    0 m 43.6 s

SCC energy    :    -977.0336698
rep           :      11.8426867
ES            :       3.8316023
AES           :      -0.1656692
AXC           :       0.3319048
disp          :      -0.8112611
XB            :       0.0000000
fix           :       0.0000000
Gborn         :       0.0000000
Gsasa         :       0.0000000
Ghb           :       0.0000000
Gshift        :       0.0000000
Gsolv         :      -1.3151125     -825.25
Etot ala COSMO:    -977.0336698
grad norm     :       0.7988686
total E       :    -965.1132538
atomizationE  :     176.3098208   110636.08
(atE without considering molecular charge,
 total energy contains solvation terms)
H-L gap (eV)  :          1.1136

------------------------------------------------------------------------
 * finished run on 2019/05/05 at 21:46:01.808     
------------------------------------------------------------------------
 total:
 * wall-time:     0 d,  0 h,  0 min, 45.719 sec
 *  cpu-time:     0 d,  0 h,  1 min, 23.267 sec
 * ratio c/w:     1.821 speedup
 SCF:
 * wall-time:     0 d,  0 h,  0 min, 45.148 sec
 *  cpu-time:     0 d,  0 h,  1 min, 22.650 sec
 * ratio c/w:     1.831 speedup

