      -----------------------------------------------------------      
     |                   =====================                   |     
     |                           x T B                           |     
     |                   =====================                   |     
     |                         S. Grimme                         |     
     |          Mulliken Center for Theoretical Chemistry        |     
     |                    University of Bonn                     |     
     |                 Version 6.0.1 (SAW181210)                 |     
      -----------------------------------------------------------      

   This program is distributed in the hope that it will be useful,
   but WITHOUT ANY WARRANTY; without even the implied warranty of
   MERCHANTABILITY or FITNESS FOR A PARTICULAR PURPOSE.
   
   FOR NON-COMMERCIAL, ACADEMIA USE ONLY.
   
   Cite this work as:
   S. Grimme, C. Bannwarth, P. Shushkov, J. Comput. Theory Chem., 2017,
   13, 1989-2009.
   C. Bannwarth, S. Ehlert and S. Grimme., ChemRxiv, 2018, preprint.
   http://doi.org/10.26434/chemrxiv.7246238.v1
   
   for sTDA-xTB:
   S. Grimme and C. Bannwarth, J. Chem. Phys., 2016, 145, 054103.
   
   in the mass-spec context:
   V. Asgeirsson, C. Bauer and S. Grimme, Chem. Sci., 2017, 8, 4879.
   
   if GBSA is used:
   P. Shushkov, F. März and S. Grimme, unpublished.
   
   for ANC optimizer:
   S. Grimme, unpublished.
   Rational Function algorithm used in ANCopt:
   F. Eckert, P. Pulay, H.-J. Werner, J. Comput. Chem., 1997, 18, 1473.
   
   with help from (in alphabetical order)
   C. Bannwarth, F. Bohle, G. Brandenburg, E. Caldeweyher, M. Checinski,
   S. Dohm, S. Ehlert, S. Ehrlich, F. März, H. Neugebauer, J. Pisarek,
   P. Pracht, P. Shushkov, and S. Spicher.
   
 * started run on 2019/05/08 at 07:13:39.966     
========================================================================
 # omp threads = 2
========================================================================
number of atoms            : 288
number of electrons        : 826
charge                     : -2
spin                       : .0
first test random number   : .1388

########################################################################
# WARNING! Please study the warnings concerning your input carefully
#  - Process number higher than OMP_NUM_THREADS, I hope you know what you are doing.
########################################################################

           ------------------------------------------------- 
          |                 G F N 2 - x T B                 |
          | Geometry, Frequencies, Noncovalent interactions |
          |            JCTC 2018 parametrisation            |
           ------------------------------------------------- 
 
      method parameters     
 k(s)        :  1.8500
 k(p)        :  2.2300
 k(d)        :  2.2300
 k(f)        :  2.0000
 kEN (H0ij)  : -2.0000
 D4 a1       :  0.5200
 D4 a2       :  5.0000
 D4 s6       :  1.0000
 D4 s8       :  2.7000
 D4 s9       :  5.0000
 alphaj      :  2.0000

 Solvent             : h2o
 Using internal parameter file: .param_gbsa2_h2o
 Gsolv ref. state (COSMO-RS): gsolv [1 M gas/solution]
 temperature (mdtemp)       :    298.150000000000     
 dielectric constant        :    80.2000000000000     
 rho                        :    1.00000000000000     
 mass                       :    18.0000000000000     
 surface tension            :    15.5689454083859     
 probe radius               :   0.975313790000000     
 vdW radii scaling          :    1.00000000000000     
 Gshift (Eh)                :   1.857443126794793E-003
 c1                         :    1.55243817000000     
 soset                      :   0.130326360000000     
 HB correction              :  T

            Z     q(EN)     CN     RAES       Cart. coordinates
     1  N   5.0   -0.15    3.46    2.05    -0.32382    44.72918    18.03338
     2  C   4.0    0.03    4.48    4.50     0.76552    43.34059    20.14940
     3  C   4.0    0.14    3.38    3.07    -0.29978    40.64402    20.20525
     4  O   6.0   -0.32    1.23    1.80    -2.35083    40.12174    19.29697
     5  C   4.0   -0.04    4.33    4.26    -0.03762    44.83749    22.49972
     6  C   4.0   -0.06    4.27    4.13    -0.62319    47.46529    21.46624
     7  C   4.0   -0.02    4.28    4.16    -1.76175    46.90435    18.88025
     8  H   1.0    0.04    1.05    1.44     2.82395    43.26240    19.94880
     9  H   1.0    0.04    1.03    1.43    -1.73906    44.01799    23.32358
    10  H   1.0    0.04    1.02    1.43     1.44258    44.85916    23.92266
    11  H   1.0    0.03    1.02    1.43    -1.92719    48.52831    22.64125
    12  H   1.0    0.03    1.02    1.43     1.10306    48.56710    21.25607
    13  H   1.0    0.03    1.02    1.43    -3.76493    46.41513    19.05466
    14  H   1.0    0.02    1.02    1.43    -1.55363    48.49483    17.58954
    15  N   5.0   -0.15    3.45    2.05     1.20019    38.97271    21.39443
    16  C   4.0    0.04    4.44    4.44     0.49848    36.36839    21.81978
    17  C   4.0    0.16    3.51    3.12    -0.49508    36.04457    24.52839
    18  O   6.0   -0.31    1.31    1.80     0.92300    36.09982    26.36259
    19  C   4.0   -0.02    4.34    4.26     2.78263    34.64212    21.44782
    20  C   4.0    0.16    3.27    3.05     2.23559    32.01449    22.44770
    21  O   6.0   -0.32    1.29    1.80     0.09302    31.30266    22.96103
    22  N   5.0   -0.19    3.19    1.95     4.27807    30.55567    22.68866
    23  H   1.0    0.11    1.10    1.44     2.88687    39.55314    22.09007
    24  H   1.0    0.05    1.06    1.44    -1.01334    35.90108    20.49131
    25  H   1.0    0.05    1.02    1.43     3.29756    34.52321    19.45482
    26  H   1.0    0.07    1.03    1.43     4.40594    35.39476    22.47508
    27  H   1.0    0.09    1.03    1.43     4.11073    28.80337    23.41608
    28  H   1.0    0.11    1.05    1.44     6.02893    31.28527    22.46383
    29  N   5.0   -0.14    3.45    2.05    -2.98804    35.73088    24.72113
    30  C   4.0    0.03    4.32    4.24    -4.31336    35.54183    27.11595
    31  C   4.0    0.16    3.44    3.09    -3.02625    33.77109    29.02090
    32  O   6.0   -0.30    1.22    1.80    -3.11440    34.22372    31.28526
    33  C   4.0   -0.09    4.12    3.84    -6.99160    34.57857    26.64840
    34  H   1.0    0.07    1.07    1.44    -4.06673    35.76717    23.14713
    35  H   1.0    0.05    1.05    1.44    -4.37177    37.40550    28.02789
    36  H   1.0    0.04    1.00    1.43    -7.97382    34.40045    28.44196
    37  H   1.0    0.03    1.00    1.43    -8.01613    35.90093    25.45713
    38  H   1.0    0.04    1.00    1.43    -6.92434    32.73824    25.73971
    39  N   5.0   -0.14    3.50    2.08    -2.07159    31.62686    28.05756
    40  C   4.0    0.04    4.33    4.26    -1.00433    29.66984    29.63825
    41  C   4.0    0.16    3.43    3.09     1.76397    30.08450    30.40235
    42  O   6.0   -0.30    1.27    1.80     2.84637    28.56471    31.77786
    43  C   4.0   -0.08    4.11    3.83    -1.27767    27.11764    28.31982
    44  H   1.0    0.11    1.09    1.44    -1.77387    31.45635    26.16900
    45  H   1.0    0.06    1.06    1.44    -2.05733    29.68206    31.42588
    46  H   1.0    0.05    1.00    1.43    -0.27370    25.68984    29.39901
    47  H   1.0    0.03    1.00    1.43    -3.25754    26.60266    28.17259
    48  H   1.0    0.05    1.00    1.43    -0.46876    27.23539    26.43446
    49  N   5.0   -0.13    3.48    2.07     2.91274    32.11311    29.43656
    50  C   4.0    0.04    4.45    4.46     5.46013    32.78422    30.17355
    51  C   4.0    0.17    3.54    3.13     5.81689    32.40386    33.02133
    52  O   6.0   -0.28    1.24    1.80     4.32561    33.27025    34.54998
    53  C   4.0   -0.02    4.36    4.31     5.91639    35.58741    29.61432
    54  C   4.0   -0.02    3.59    3.16     8.53245    36.33403    30.40862
    55  C   4.0   -0.04    3.46    3.10     8.95652    37.81416    32.53424
    56  C   4.0   -0.04    3.48    3.11    10.59847    35.48985    29.02376
    57  C   4.0   -0.03    3.43    3.09    11.37840    38.52276    33.22160
    58  C   4.0   -0.03    3.47    3.10    13.01990    36.19814    29.67489
    59  C   4.0    0.07    3.46    3.10    13.41967    37.75093    31.76186
    60  O   6.0   -0.26    2.15    1.85    15.82409    38.52202    32.26046
    61  H   1.0    0.12    1.12    1.45     1.92855    33.44640    28.46593
    62  H   1.0    0.05    1.05    1.44     6.82334    31.60333    29.14664
    63  H   1.0    0.06    1.03    1.43     5.64874    35.90407    27.59358
    64  H   1.0    0.06    1.03    1.43     4.50273    36.67896    30.64359
    65  H   1.0    0.06    1.03    1.43     7.36842    38.41788    33.66335
    66  H   1.0    0.07    1.03    1.43    10.31728    34.28561    27.40031
    67  H   1.0    0.07    1.03    1.43    11.71418    39.66833    34.87573
    68  H   1.0    0.07    1.03    1.43    14.61019    35.56688    28.57394
    69  H   1.0    0.16    1.12    1.45    15.81126    39.72512    33.72052
    70  N   5.0   -0.14    3.45    2.05     7.97127    31.23415    33.69861
    71  C   4.0    0.05    4.46    4.47     8.54228    30.81083    36.34394
    72  C   4.0    0.16    3.41    3.08    11.37223    30.38034    36.73973
    73  O   6.0   -0.30    1.25    1.80    12.19315    28.58762    37.94410
    74  C   4.0   -0.02    4.32    4.24     6.98908    28.64590    37.46905
    75  C   4.0    0.16    3.22    3.04     6.51227    29.07730    40.27271
    76  O   6.0   -0.29    1.22    1.80     7.11220    31.00409    41.39288
    77  N   5.0   -0.20    3.18    1.95     5.33941    27.15035    41.42975
    78  H   1.0    0.09    1.06    1.44     9.16515    30.50002    32.40595
    79  H   1.0    0.07    1.07    1.44     8.03263    32.54259    37.37981
    80  H   1.0    0.06    1.03    1.43     5.17848    28.55748    36.48385
    81  H   1.0    0.05    1.03    1.43     7.99351    26.86461    37.21226
    82  H   1.0    0.08    1.03    1.43     4.93816    27.29262    43.28521
    83  H   1.0    0.07    1.03    1.43     4.84214    25.58556    40.47543
    84  N   5.0   -0.11    3.55    2.11    12.85003    32.15148    35.71414
    85  C   4.0    0.04    4.38    4.34    15.55244    32.19293    36.09884
    86  C   4.0    0.15    3.42    3.09    16.07549    34.28471    38.04948
    87  O   6.0   -0.28    1.26    1.80    14.40874    35.71252    38.76139
    88  C   4.0   -0.03    4.23    4.06    17.05946    32.65403    33.66920
    89  C   4.0    0.25    3.09    3.02    16.03388    31.41504    31.16008
    90  O   6.0   -0.29    1.19    1.80    14.07129    30.14676    31.20844
    91  O   6.0   -0.32    1.23    1.80    17.37609    31.89799    29.27079
    92  H   1.0    0.09    1.07    1.44    12.07424    33.60872    34.76295
    93  H   1.0    0.06    1.06    1.44    16.02466    30.34620    36.90986
    94  H   1.0    0.06    1.04    1.43    17.15015    34.67162    33.25603
    95  H   1.0    0.04    1.02    1.43    18.98883    31.96251    33.88851
    96  N   5.0   -0.16    3.49    2.07    18.46494    34.47070    38.90350
    97  C   4.0    0.03    4.49    4.53    19.09562    36.29833    40.84863
    98  C   4.0    0.16    3.45    3.09    19.26572    38.97968    39.76746
    99  O   6.0   -0.31    1.25    1.80    18.81201    40.85745    41.03319
   100  C   4.0   -0.03    4.25    4.11    21.56194    35.54356    42.20305
   101  C   4.0   -0.08    4.12    3.84    22.20164    37.41163    44.30849
   102  C   4.0   -0.09    4.12    3.84    21.32142    32.88707    43.31527
   103  H   1.0    0.06    1.06    1.44    19.81175    33.28002    38.27777
   104  H   1.0    0.06    1.06    1.44    17.53206    36.32945    42.21073
   105  H   1.0    0.03    1.05    1.44    23.08315    35.56726    40.79784
   106  H   1.0    0.02    1.00    1.43    23.97293    36.87652    45.19668
   107  H   1.0    0.05    1.00    1.43    22.37931    39.32042    43.57738
   108  H   1.0    0.04    1.00    1.43    20.71718    37.40830    45.72787
   109  H   1.0    0.02    1.00    1.43    23.06656    32.38208    44.27117
   110  H   1.0    0.03    1.00    1.43    19.78491    32.83344    44.67789
   111  H   1.0    0.03    1.00    1.43    20.94426    31.47790    41.87037
   112  N   5.0   -0.14    3.48    2.06    20.12160    39.14782    37.38088
   113  C   4.0    0.03    4.36    4.32    20.50165    41.61210    36.23600
   114  C   4.0    0.16    3.56    3.14    18.02597    43.10223    36.21581
   115  O   6.0   -0.30    1.39    1.80    15.99680    42.08535    35.64460
   116  C   4.0   -0.07    4.11    3.82    21.47264    41.31605    33.53977
   117  H   1.0    0.08    1.07    1.44    20.11716    37.61491    36.24995
   118  H   1.0    0.04    1.06    1.44    21.90362    42.59853    37.39231
   119  H   1.0    0.05    1.00    1.43    21.62375    43.15442    32.63847
   120  H   1.0    0.04    1.00    1.43    23.33226    40.44883    33.57312
   121  H   1.0    0.05    1.00    1.43    20.19303    40.14485    32.43649
   122  N   5.0   -0.09    3.70    2.27    18.11487    45.55600    36.72407
   123  C   4.0    0.03    4.60    4.66    15.81305    47.05246    36.50487
   124  C   4.0    0.16    3.45    3.10    15.06733    47.21002    33.71217
   125  O   6.0   -0.32    1.34    1.80    16.66195    47.02769    32.03162
   126  C   4.0   -0.05    4.32    4.24    16.54116    49.63887    37.59075
   127  C   4.0   -0.05    4.26    4.12    19.38386    49.78506    37.10614
   128  C   4.0   -0.02    4.35    4.29    20.27446    47.06507    37.49865
   129  H   1.0    0.05    1.05    1.44    14.28592    46.13015    37.54928
   130  H   1.0    0.04    1.02    1.43    15.51123    51.17056    36.68281
   131  H   1.0    0.03    1.02    1.43    16.15056    49.66231    39.61070
   132  H   1.0    0.04    1.03    1.43    19.72294    50.36082    35.15938
   133  H   1.0    0.02    1.02    1.43    20.32144    51.09862    38.37462
   134  H   1.0    0.03    1.02    1.43    21.92884    46.60793    36.35898
   135  H   1.0    0.04    1.02    1.43    20.67741    46.68009    39.49134
   136  N   5.0   -0.14    3.43    2.04    12.60040    47.51758    33.23886
   137  C   4.0    0.04    4.34    4.28    11.70331    48.01486    30.69232
   138  C   4.0    0.09    3.25    3.04    12.71405    50.57798    29.77100
   139  O   6.0   -0.31    1.13    1.80    12.27849    52.51661    30.95907
   140  C   4.0   -0.04    4.34    4.27     8.80619    48.07473    30.68769
   141  C   4.0   -0.02    3.58    3.15     7.84197    48.25935    28.01985
   142  C   4.0   -0.04    3.46    3.10     7.37923    46.08998    26.61893
   143  C   4.0   -0.04    3.47    3.10     7.47265    50.60568    26.90117
   144  C   4.0   -0.04    3.38    3.07     6.58743    46.26321    24.13378
   145  C   4.0   -0.05    3.37    3.07     6.68689    50.78510    24.41481
   146  C   4.0   -0.05    3.37    3.07     6.25732    48.61024    23.02371
   147  H   1.0    0.07    1.07    1.44    11.46113    48.07355    34.66628
   148  H   1.0    0.06    1.06    1.44    12.39720    46.53079    29.44218
   149  H   1.0    0.04    1.03    1.43     8.11549    46.34315    31.56554
   150  H   1.0    0.04    1.03    1.43     8.20622    49.73014    31.76643
   151  H   1.0    0.05    1.03    1.43     7.63660    44.25426    27.46960
   152  H   1.0    0.05    1.03    1.43     7.81182    52.30228    27.98612
   153  H   1.0    0.06    1.04    1.43     6.24961    44.56310    23.05892
   154  H   1.0    0.04    1.03    1.43     6.42015    52.62225    23.56332
   155  H   1.0    0.04    1.03    1.43     5.67816    48.74868    21.07209
   156  N   5.0   -0.20    3.25    1.97    21.42806    46.93316    15.36589
   157  C   4.0    0.03    4.32    4.23    19.68815    45.95626    17.24565
   158  C   4.0    0.15    3.45    3.09    21.17183    45.09684    19.58257
   159  O   6.0   -0.28    1.30    1.80    22.80379    43.46662    19.45012
   160  C   4.0   -0.02    4.34    4.27    18.27890    43.66494    16.15529
   161  C   4.0   -0.02    3.58    3.16    17.19242    44.22882    13.59035
   162  C   4.0   -0.05    3.47    3.10    15.21669    45.93033    13.30758
   163  C   4.0   -0.04    3.47    3.10    18.19173    43.06528    11.45997
   164  C   4.0   -0.05    3.37    3.07    14.23615    46.43828    10.93701
   165  C   4.0   -0.05    3.37    3.07    17.21824    43.58231     9.08890
   166  C   4.0   -0.05    3.37    3.07    15.23252    45.26225     8.82444
   167  H   1.0    0.09    1.03    1.43    22.36339    45.63668    14.32804
   168  H   1.0    0.03    1.05    1.44    18.39628    47.49909    17.71903
   169  H   1.0    0.07    1.04    1.43    19.62935    42.10917    15.99691
   170  H   1.0    0.05    1.03    1.43    16.79700    43.10282    17.47716
   171  H   1.0    0.04    1.03    1.43    14.45253    46.86471    14.94746
   172  H   1.0    0.07    1.03    1.43    19.73738    41.74752    11.68011
   173  H   1.0    0.04    1.03    1.43    12.70075    47.76447    10.73399
   174  H   1.0    0.04    1.03    1.43    18.03266    42.71463     7.43480
   175  H   1.0    0.04    1.03    1.43    14.47866    45.64500     6.97001
   176  N   5.0   -0.14    3.44    2.04    20.53349    46.16694    21.79765
   177  C   4.0    0.04    4.45    4.46    21.99613    45.58873    24.04913
   178  C   4.0    0.16    3.51    3.12    22.49145    42.75363    24.24730
   179  O   6.0   -0.30    1.22    1.80    24.56972    41.90292    24.74355
   180  C   4.0   -0.03    4.32    4.23    20.68449    46.54620    26.44059
   181  C   4.0    0.15    3.22    3.04    21.85406    48.98374    27.40942
   182  O   6.0   -0.31    1.22    1.80    23.42799    50.18929    26.22488
   183  N   5.0   -0.19    3.19    1.95    21.05111    49.67539    29.70300
   184  H   1.0    0.08    1.06    1.44    19.31019    47.63661    21.92966
   185  H   1.0    0.07    1.06    1.44    23.86488    46.48757    23.88838
   186  H   1.0    0.06    1.03    1.43    18.69557    46.91057    26.03314
   187  H   1.0    0.05    1.03    1.43    20.78314    45.12365    27.92758
   188  H   1.0    0.09    1.03    1.43    21.66924    51.31816    30.44869
   189  H   1.0    0.11    1.05    1.44    19.61880    48.74972    30.56808
   190  N   5.0   -0.14    3.49    2.07    20.39576    41.28817    24.14117
   191  C   4.0    0.04    4.40    4.38    20.64502    38.60159    23.73910
   192  C   4.0    0.16    3.50    3.11    19.15678    37.90781    21.36791
   193  O   6.0   -0.31    1.27    1.80    17.24727    39.05367    20.74122
   194  C   4.0    0.03    4.12    3.83    19.67537    37.01473    26.01023
   195  O   6.0   -0.26    2.11    1.84    18.06153    35.06289    25.15169
   196  H   1.0    0.10    1.08    1.44    18.78458    42.04661    23.43818
   197  H   1.0    0.06    1.07    1.44    22.65517    38.22669    23.42887
   198  H   1.0    0.04    1.01    1.43    21.28406    36.20977    27.02765
   199  H   1.0    0.05    1.01    1.43    18.65423    38.27113    27.30785
   200  H   1.0    0.15    1.06    1.44    17.83949    33.84157    26.53552
   201  N   5.0   -0.15    3.51    2.09    20.06136    35.92408    20.10404
   202  C   4.0    0.04    4.44    4.44    19.01170    35.13951    17.70686
   203  C   4.0    0.15    3.40    3.08    16.35487    34.01803    17.95975
   204  O   6.0   -0.30    1.22    1.80    15.05703    33.65136    16.08786
   205  C   4.0   -0.04    4.28    4.16    20.80528    33.26846    16.42415
   206  C   4.0   -0.04    4.18    3.97    23.16745    34.61269    15.42885
   207  C   4.0    0.24    3.14    3.03    22.38185    36.36785    13.22818
   208  O   6.0   -0.30    1.17    1.80    21.78270    35.23079    11.22065
   209  O   6.0   -0.30    1.17    1.80    22.30868    38.67745    13.56827
   210  H   1.0    0.07    1.07    1.44    21.66986    35.07746    20.67791
   211  H   1.0    0.07    1.06    1.44    18.81081    36.81363    16.49319
   212  H   1.0    0.04    1.02    1.43    21.31776    31.78761    17.76799
   213  H   1.0    0.06    1.03    1.43    19.82766    32.39974    14.82952
   214  H   1.0    0.05    1.02    1.43    24.07843    35.74324    16.89199
   215  H   1.0    0.04    1.02    1.43    24.50324    33.22377    14.70014
   216  N   5.0   -0.14    3.56    2.12    15.59847    33.48360    20.31769
   217  C   4.0    0.03    4.44    4.44    13.18920    32.33035    20.87150
   218  C   4.0    0.15    3.41    3.08    11.27920    34.20342    21.96043
   219  O   6.0   -0.32    1.26    1.80     9.17714    33.51347    22.64601
   220  C   4.0   -0.03    4.29    4.18    13.52469    30.06408    22.64231
   221  C   4.0    0.05    3.77    3.30    15.11256    28.03289    21.48682
   222  N   5.0   -0.17    2.52    1.90    16.06340    26.10480    22.91706
   223  C   4.0   -0.01    3.62    3.18    15.85723    27.72056    19.02498
   224  C   4.0    0.05    3.63    3.19    17.34572    24.67719    21.36771
   225  N   5.0   -0.13    3.45    2.04    17.28565    25.56735    18.97672
   226  H   1.0    0.10    1.10    1.44    16.75657    33.79520    21.81414
   227  H   1.0    0.06    1.07    1.44    12.39550    31.68957    19.06206
   228  H   1.0    0.06    1.03    1.43    14.40180    30.67312    24.41260
   229  H   1.0    0.05    1.03    1.43    11.66037    29.31399    23.11646
   230  H   1.0    0.06    1.02    1.43    15.52506    28.82506    17.36352
   231  H   1.0    0.03    1.02    1.43    18.32777    22.99571    21.91562
   232  H   1.0    0.06    1.05    1.44    18.12839    24.82681    17.43903
   233  N   5.0   -0.14    3.53    2.10    11.99158    36.62975    22.01429
   234  C   4.0    0.03    4.43    4.44    10.32815    38.59266    22.94213
   235  C   4.0    0.15    3.41    3.08     8.17585    39.19171    21.11060
   236  O   6.0   -0.33    1.27    1.80     6.37698    40.47187    21.79414
   237  C   4.0   -0.03    4.29    4.18    11.80040    41.04182    23.40530
   238  C   4.0   -0.03    4.26    4.11    13.48379    40.77506    25.71911
   239  C   4.0    0.15    3.22    3.04    14.66014    43.22073    26.61815
   240  O   6.0   -0.31    1.21    1.80    14.38471    45.26256    25.55871
   241  N   5.0   -0.19    3.21    1.96    16.04314    42.96622    28.72125
   242  H   1.0    0.10    1.09    1.44    13.75600    37.13903    21.47051
   243  H   1.0    0.05    1.06    1.44     9.46487    37.95499    24.71811
   244  H   1.0    0.06    1.03    1.43    12.95523    41.46884    21.74914
   245  H   1.0    0.06    1.03    1.43    10.47193    42.59078    23.69847
   246  H   1.0    0.04    1.05    1.44    12.37278    40.02784    27.29035
   247  H   1.0    0.05    1.03    1.43    14.98577    39.41910    25.33245
   248  H   1.0    0.10    1.06    1.44    16.09821    41.30449    29.65864
   249  H   1.0    0.12    1.07    1.44    16.59743    44.53255    29.68790
   250  N   5.0   -0.13    3.53    2.10     8.47306    38.32995    18.76431
   251  C   4.0    0.03    4.49    4.52     7.08459    39.22653    16.59042
   252  C   4.0    0.14    3.45    3.09     5.99166    37.01042    15.10586
   253  O   6.0   -0.30    1.23    1.80     7.16998    35.05164    14.73560
   254  C   4.0   -0.02    4.28    4.16     8.96524    40.75087    14.94458
   255  C   4.0   -0.07    4.13    3.87     8.02907    41.10951    12.25314
   256  C   4.0   -0.08    4.12    3.84     9.45979    43.30603    16.17762
   257  H   1.0    0.10    1.09    1.44     9.96812    37.21507    18.35386
   258  H   1.0    0.05    1.06    1.44     5.54861    40.43968    17.24681
   259  H   1.0    0.05    1.06    1.44    10.73017    39.66846    14.87799
   260  H   1.0    0.04    1.00    1.43     9.42732    42.17550    11.19174
   261  H   1.0    0.05    1.01    1.43     7.76009    39.29695    11.32837
   262  H   1.0    0.04    1.00    1.43     6.24879    42.13275    12.24258
   263  H   1.0    0.04    1.00    1.43    10.85715    44.34057    15.08865
   264  H   1.0    0.04    1.00    1.43     7.72027    44.39687    16.24851
   265  H   1.0    0.05    1.00    1.43    10.15728    43.08679    18.09734
   266  N   5.0   -0.15    3.47    2.06     3.66781    37.42579    14.19750
   267  C   4.0    0.03    4.32    4.24     2.49250    35.68580    12.43361
   268  C   4.0    0.07    3.23    3.04     3.39035    36.46455     9.80156
   269  O   6.0   -0.32    1.12    1.80     2.38934    38.15721     8.56306
   270  C   4.0   -0.05    4.35    4.29    -0.38606    35.75210    12.59730
   271  C   4.0   -0.02    4.19    3.97    -1.40514    34.93724    15.17803
   272  C   4.0   -0.08    4.11    3.81    -4.24891    35.41440    15.28188
   273  C   4.0   -0.08    4.10    3.80    -0.83891    32.16353    15.74359
   274  H   1.0    0.07    1.06    1.44     2.78816    39.10790    14.48893
   275  H   1.0    0.05    1.06    1.44     3.21646    33.79631    12.86590
   276  H   1.0    0.05    1.03    1.43    -1.01223    37.67772    12.20821
   277  H   1.0    0.03    1.03    1.43    -1.15827    34.51791    11.13483
   278  H   1.0    0.05    1.06    1.44    -0.49678    36.12600    16.60157
   279  H   1.0    0.04    1.00    1.43    -5.02694    34.70128    17.04313
   280  H   1.0    0.04    1.00    1.43    -4.64108    37.42816    15.18499
   281  H   1.0    0.03    1.00    1.43    -5.20192    34.47146    13.72456
   282  H   1.0    0.04    1.00    1.43    -1.57022    31.65022    17.59475
   283  H   1.0    0.03    1.00    1.43    -1.72733    30.95261    14.34091
   284  H   1.0    0.04    1.00    1.43     1.18057    31.78806    15.75900
   285  H   1.0    0.07    1.12    1.45     0.91773    45.23474    16.98671
   286  H   1.0    0.06    1.04    1.43    13.73900    50.67515    28.18636
   287  H   1.0    0.08    1.07    1.44    20.57823    47.89850    14.25303
   288  H   1.0    0.05    1.05    1.44     4.86042    35.58342     9.00560

  Z AO/shell   Hii/eV     exponent
  1     Wed Apr 25 08:07:45 CEST 2018   EN: 2.200 GM2: 0.406  GM3: 0.0800  RAES: 1.40
     1s    -10.707211    1.230000
  6     Wed Apr 25 08:07:45 CEST 2018   EN: 2.550 GM2: 0.538  GM3: 0.1500  RAES: 3.00
     2s    -13.970922    2.096432
     2p    -10.063292    1.800000
  7     Wed Apr 25 08:07:45 CEST 2018   EN: 3.040 GM2: 0.461  GM3:-0.0640  RAES: 1.90
     2s    -16.686243    2.339881
     2p    -12.523956    2.014332
  8     Wed Apr 25 08:07:45 CEST 2018   EN: 3.440 GM2: 0.452  GM3:-0.0517  RAES: 1.80
     2s    -20.229985    2.439742
     2p    -15.503117    2.137023
 no old-style atom pair restraining (fixing) potential

molecular fragmentation (1/2 indicates fragments):
111111111111111111111111111111111111111111111111111111111111111111111111
111111111111111111111111111111111111111111111111111111111111111111111111
111111111112222222222222222222222222222222222222222222222222222222222222
222222222222222222222222222222222222222222222222222222222222222222221122
# atoms in fragment 1/2:   157   131
 fragment masses (1/2) :     1161.26      956.04
CMA distance (Bohr)    :  13.564
constraining FC (au)   :  0.0500
           ------------------------------------------------- 
          |        Self-Consistent Charge Iterations        |
           ------------------------------------------------- 

 Ncao       : 741
 Nao        : 741
 Nshell     : 439
 Nel        : 826
 T(el)      :   500.0
 intcut     :    35.0
 scfconv/Eh :  0.100E-06
   qconv/e  :  0.100E-04
 intneglect :  0.100E-08
 broydamp   :      0.400
 iter      E             dE          RMSdq      gap      omega  full diag
   1   -474.1710595 -0.474171E+03  0.481E+00    3.46       0.0  T
   2   -475.4004023 -0.122934E+01  0.225E+00    1.62       1.0  T
   3   -475.4708266 -0.704243E-01  0.127E+00    1.76       1.0  T
   4   -475.5400521 -0.692255E-01  0.258E-01    1.17       1.0  T
   5   -475.5455868 -0.553465E-02  0.126E-01    1.35       1.0  T
   6   -475.5462104 -0.623675E-03  0.578E-02    1.32       1.0  T
   7   -475.5465192 -0.308777E-03  0.228E-02    1.32       1.0  T
   8   -475.5465445 -0.253223E-04  0.124E-02    1.32       1.0  T
   9   -475.5465555 -0.109673E-04  0.513E-03    1.32       1.1  T
  10   -475.5465574 -0.187800E-05  0.253E-03    1.32       2.3  T
  11   -475.5465577 -0.370515E-06  0.111E-03    1.32       5.3  T
  12   -475.5465578 -0.927584E-07  0.562E-04    1.32      10.5  T
  13   -475.5465579 -0.270241E-07  0.252E-04    1.32      23.4  T
  14   -475.5465579 -0.360359E-08  0.120E-04    1.32      49.3  T
  15   -475.5465579 -0.935756E-09  0.466E-05    1.32     126.4  T
  16   -475.5465579 -0.176271E-09  0.206E-05    1.32     285.6  T
speedup  1.92
cpu  time for SCC    7.89 s
wall time for SCC    4.10 s

   *** convergence criteria satisfied after 16 iterations ***

          eigenvalues
 #    :         401        402        403        404        405        406        407        408
 occ. :        2.000      2.000      2.000      2.000      2.000      2.000      2.000      2.000
 eps  :       -10.881    -10.856    -10.766    -10.738    -10.660    -10.638    -10.616    -10.456
 #    :         409        410        411        412        413        414        415        416
 occ. :        2.000      2.000      2.000      2.000      2.000      0.000      0.000      0.000
 eps  :       -10.300    -10.145    -10.067     -9.831     -9.524     -8.203     -8.182     -6.803
 #    :         417        418        419        420        421        422        423        424
 occ. :        0.000      0.000      0.000      0.000      0.000      0.000      0.000      0.000
 eps  :        -6.795     -6.675     -6.623     -6.514     -6.501     -6.499     -6.466     -6.448


   #   Z            q   n(s)   n(p)   n(d)      C6AA      α(0)
   1   7 N     -0.284  1.296  3.988  0.000    27.329     7.764
   2   6 C      0.024  1.065  2.911  0.000    20.152     6.389
   3   6 C      0.264  1.049  2.687  0.000    22.538     7.774
   4   8 O     -0.457  1.736  4.722  0.000    22.863     6.411
   5   6 C     -0.058  1.052  3.006  0.000    21.589     6.611
   6   6 C     -0.064  1.052  3.012  0.000    21.703     6.628
   7   6 C      0.009  1.047  2.945  0.000    20.472     6.449
   8   1 H      0.022  0.978  0.000  0.000     2.701     2.570
   9   1 H      0.036  0.964  0.000  0.000     2.500     2.473
  10   1 H      0.037  0.963  0.000  0.000     2.493     2.469
  11   1 H      0.044  0.956  0.000  0.000     2.398     2.422
  12   1 H      0.040  0.960  0.000  0.000     2.452     2.449
  13   1 H      0.043  0.957  0.000  0.000     2.406     2.426
  14   1 H      0.040  0.960  0.000  0.000     2.447     2.446
  15   7 N     -0.200  1.251  3.949  0.000    25.344     7.477
  16   6 C      0.029  1.056  2.915  0.000    20.091     6.382
  17   6 C      0.276  1.044  2.680  0.000    22.339     7.740
  18   8 O     -0.503  1.748  4.755  0.000    23.852     6.548
  19   6 C     -0.093  1.056  3.037  0.000    22.261     6.715
  20   6 C      0.289  1.036  2.674  0.000    22.095     7.697
  21   8 O     -0.487  1.731  4.756  0.000    23.509     6.501
  22   7 N     -0.276  1.263  4.013  0.000    27.134     7.736
  23   1 H      0.209  0.791  0.000  0.000     1.061     1.614
  24   1 H      0.088  0.912  0.000  0.000     1.902     2.157
  25   1 H      0.073  0.927  0.000  0.000     2.052     2.240
  26   1 H      0.064  0.936  0.000  0.000     2.150     2.293
  27   1 H      0.227  0.773  0.000  0.000     0.978     1.549
  28   1 H      0.225  0.775  0.000  0.000     0.988     1.557
  29   7 N     -0.171  1.249  3.922  0.000    24.704     7.382
  30   6 C      0.021  1.061  2.918  0.000    20.234     6.406
  31   6 C      0.282  1.040  2.678  0.000    22.220     7.719
  32   8 O     -0.497  1.754  4.743  0.000    23.727     6.531
  33   6 C     -0.139  1.045  3.093  0.000    23.217     6.869
  34   1 H      0.226  0.774  0.000  0.000     0.981     1.552
  35   1 H      0.073  0.927  0.000  0.000     2.048     2.238
  36   1 H      0.077  0.923  0.000  0.000     2.008     2.216
  37   1 H      0.086  0.914  0.000  0.000     1.918     2.166
  38   1 H      0.076  0.924  0.000  0.000     2.016     2.220
  39   7 N     -0.187  1.247  3.940  0.000    25.057     7.434
  40   6 C      0.023  1.058  2.919  0.000    20.191     6.399
  41   6 C      0.276  1.045  2.680  0.000    22.337     7.739
  42   8 O     -0.506  1.750  4.756  0.000    23.912     6.556
  43   6 C     -0.131  1.043  3.088  0.000    23.065     6.847
  44   1 H      0.221  0.779  0.000  0.000     1.004     1.570
  45   1 H      0.083  0.917  0.000  0.000     1.946     2.182
  46   1 H      0.073  0.927  0.000  0.000     2.056     2.243
  47   1 H      0.084  0.916  0.000  0.000     1.939     2.178
  48   1 H      0.064  0.936  0.000  0.000     2.155     2.296
  49   7 N     -0.187  1.251  3.936  0.000    25.064     7.435
  50   6 C      0.038  1.058  2.904  0.000    19.929     6.356
  51   6 C      0.294  1.038  2.668  0.000    22.015     7.684
  52   8 O     -0.476  1.741  4.735  0.000    23.261     6.466
  53   6 C     -0.069  1.053  3.016  0.000    21.804     6.646
  54   6 C     -0.006  1.078  2.928  0.000    28.178     8.707
  55   6 C     -0.046  1.083  2.962  0.000    29.135     8.852
  56   6 C     -0.043  1.080  2.963  0.000    29.074     8.842
  57   6 C     -0.075  1.080  2.995  0.000    29.873     8.963
  58   6 C     -0.060  1.075  2.985  0.000    29.487     8.905
  59   6 C      0.138  1.046  2.815  0.000    24.975     8.191
  60   8 O     -0.461  1.722  4.739  0.000    22.073     6.342
  61   1 H      0.222  0.778  0.000  0.000     1.000     1.566
  62   1 H      0.038  0.962  0.000  0.000     2.482     2.464
  63   1 H      0.066  0.934  0.000  0.000     2.131     2.283
  64   1 H      0.067  0.933  0.000  0.000     2.121     2.278
  65   1 H      0.048  0.952  0.000  0.000     2.346     2.395
  66   1 H      0.029  0.971  0.000  0.000     2.604     2.524
  67   1 H      0.061  0.939  0.000  0.000     2.189     2.313
  68   1 H      0.040  0.960  0.000  0.000     2.448     2.447
  69   1 H      0.350  0.650  0.000  0.000     0.590     1.207
  70   7 N     -0.191  1.247  3.943  0.000    25.134     7.446
  71   6 C      0.035  1.053  2.912  0.000    19.987     6.365
  72   6 C      0.279  1.040  2.681  0.000    22.272     7.728
  73   8 O     -0.483  1.736  4.747  0.000    23.418     6.488
  74   6 C     -0.101  1.058  3.043  0.000    22.415     6.739
  75   6 C      0.297  1.035  2.668  0.000    21.962     7.673
  76   8 O     -0.504  1.753  4.752  0.000    23.874     6.551
  77   7 N     -0.292  1.266  4.026  0.000    27.534     7.793
  78   1 H      0.189  0.811  0.000  0.000     1.161     1.688
  79   1 H      0.081  0.919  0.000  0.000     1.969     2.194
  80   1 H      0.085  0.915  0.000  0.000     1.932     2.173
  81   1 H      0.082  0.918  0.000  0.000     1.954     2.186
  82   1 H      0.247  0.753  0.000  0.000     0.896     1.483
  83   1 H      0.236  0.764  0.000  0.000     0.938     1.517
  84   7 N     -0.151  1.229  3.922  0.000    24.264     7.316
  85   6 C      0.028  1.059  2.913  0.000    20.106     6.385
  86   6 C      0.269  1.048  2.683  0.000    22.451     7.760
  87   8 O     -0.485  1.751  4.733  0.000    23.445     6.492
  88   6 C     -0.109  1.073  3.036  0.000    22.591     6.768
  89   6 C      0.379  1.021  2.600  0.000    20.578     7.423
  90   8 O     -0.615  1.771  4.844  0.000    26.489     6.900
  91   8 O     -0.634  1.760  4.874  0.000    26.974     6.963
  92   1 H      0.178  0.822  0.000  0.000     1.227     1.735
  93   1 H      0.072  0.928  0.000  0.000     2.066     2.248
  94   1 H      0.045  0.955  0.000  0.000     2.382     2.414
  95   1 H      0.041  0.959  0.000  0.000     2.432     2.439
  96   7 N     -0.188  1.244  3.945  0.000    25.081     7.438
  97   6 C      0.018  1.066  2.915  0.000    20.271     6.410
  98   6 C      0.279  1.044  2.677  0.000    22.279     7.729
  99   8 O     -0.474  1.741  4.733  0.000    23.215     6.460
 100   6 C     -0.018  1.064  2.954  0.000    20.868     6.497
 101   6 C     -0.121  1.040  3.081  0.000    22.875     6.819
 102   6 C     -0.123  1.042  3.081  0.000    22.919     6.826
 103   1 H      0.202  0.798  0.000  0.000     1.094     1.639
 104   1 H      0.078  0.922  0.000  0.000     2.004     2.214
 105   1 H      0.049  0.951  0.000  0.000     2.337     2.391
 106   1 H      0.067  0.933  0.000  0.000     2.119     2.277
 107   1 H      0.049  0.951  0.000  0.000     2.339     2.391
 108   1 H      0.052  0.948  0.000  0.000     2.292     2.368
 109   1 H      0.070  0.930  0.000  0.000     2.082     2.257
 110   1 H      0.050  0.950  0.000  0.000     2.319     2.381
 111   1 H      0.037  0.963  0.000  0.000     2.487     2.466
 112   7 N     -0.177  1.240  3.937  0.000    24.837     7.402
 113   6 C      0.026  1.057  2.918  0.000    20.149     6.392
 114   6 C      0.266  1.045  2.689  0.000    22.520     7.772
 115   8 O     -0.517  1.752  4.765  0.000    24.167     6.591
 116   6 C     -0.132  1.042  3.090  0.000    23.094     6.852
 117   1 H      0.192  0.808  0.000  0.000     1.147     1.678
 118   1 H      0.082  0.918  0.000  0.000     1.954     2.186
 119   1 H      0.069  0.931  0.000  0.000     2.098     2.265
 120   1 H      0.081  0.919  0.000  0.000     1.968     2.194
 121   1 H      0.056  0.944  0.000  0.000     2.244     2.343
 122   7 N     -0.058  1.225  3.833  0.000    22.361     7.023
 123   6 C      0.015  1.066  2.919  0.000    20.303     6.411
 124   6 C      0.273  1.047  2.680  0.000    22.383     7.747
 125   8 O     -0.481  1.732  4.749  0.000    23.375     6.482
 126   6 C     -0.075  1.055  3.020  0.000    21.916     6.661
 127   6 C     -0.076  1.052  3.024  0.000    21.929     6.663
 128   6 C     -0.021  1.057  2.964  0.000    20.987     6.530
 129   1 H      0.074  0.926  0.000  0.000     2.046     2.237
 130   1 H      0.073  0.927  0.000  0.000     2.054     2.241
 131   1 H      0.083  0.917  0.000  0.000     1.947     2.182
 132   1 H      0.069  0.931  0.000  0.000     2.095     2.264
 133   1 H      0.091  0.909  0.000  0.000     1.872     2.139
 134   1 H      0.078  0.922  0.000  0.000     2.003     2.213
 135   1 H      0.082  0.918  0.000  0.000     1.955     2.187
 136   7 N     -0.167  1.260  3.907  0.000    24.612     7.368
 137   6 C      0.030  1.057  2.912  0.000    20.067     6.379
 138   6 C      0.207  1.087  2.706  0.000    23.599     7.956
 139   8 O     -0.341  1.746  4.595  0.000    20.531     6.075
 140   6 C     -0.079  1.058  3.022  0.000    22.005     6.677
 141   6 C      0.007  1.079  2.913  0.000    27.852     8.657
 142   6 C     -0.038  1.080  2.958  0.000    28.945     8.823
 143   6 C     -0.042  1.081  2.961  0.000    29.048     8.839
 144   6 C     -0.034  1.082  2.952  0.000    28.856     8.809
 145   6 C     -0.033  1.082  2.951  0.000    28.830     8.805
 146   6 C     -0.033  1.079  2.953  0.000    28.812     8.802
 147   1 H      0.226  0.774  0.000  0.000     0.983     1.553
 148   1 H      0.073  0.927  0.000  0.000     2.049     2.239
 149   1 H      0.070  0.930  0.000  0.000     2.080     2.256
 150   1 H      0.080  0.920  0.000  0.000     1.980     2.201
 151   1 H      0.023  0.977  0.000  0.000     2.692     2.566
 152   1 H      0.043  0.957  0.000  0.000     2.411     2.428
 153   1 H      0.041  0.959  0.000  0.000     2.440     2.443
 154   1 H      0.050  0.950  0.000  0.000     2.323     2.383
 155   1 H      0.039  0.961  0.000  0.000     2.461     2.453
 156   7 N     -0.384  1.310  4.074  0.000    29.925     8.125
 157   6 C      0.038  1.061  2.901  0.000    19.948     6.361
 158   6 C      0.279  1.047  2.674  0.000    22.286     7.731
 159   8 O     -0.498  1.761  4.736  0.000    23.729     6.531
 160   6 C     -0.055  1.049  3.006  0.000    21.549     6.607
 161   6 C      0.013  1.083  2.904  0.000    27.712     8.635
 162   6 C     -0.046  1.078  2.968  0.000    29.152     8.854
 163   6 C     -0.034  1.083  2.951  0.000    28.838     8.807
 164   6 C     -0.038  1.080  2.958  0.000    28.942     8.822
 165   6 C     -0.031  1.080  2.951  0.000    28.769     8.796
 166   6 C     -0.038  1.080  2.958  0.000    28.952     8.824
 167   1 H      0.150  0.850  0.000  0.000     1.400     1.853
 168   1 H      0.047  0.953  0.000  0.000     2.352     2.398
 169   1 H      0.026  0.974  0.000  0.000     2.641     2.541
 170   1 H      0.026  0.974  0.000  0.000     2.651     2.546
 171   1 H      0.043  0.957  0.000  0.000     2.407     2.426
 172   1 H      0.015  0.985  0.000  0.000     2.805     2.619
 173   1 H      0.057  0.943  0.000  0.000     2.229     2.335
 174   1 H      0.026  0.974  0.000  0.000     2.650     2.546
 175   1 H      0.050  0.950  0.000  0.000     2.316     2.380
 176   7 N     -0.194  1.259  3.935  0.000    25.207     7.457
 177   6 C      0.028  1.056  2.916  0.000    20.106     6.384
 178   6 C      0.292  1.042  2.666  0.000    22.044     7.689
 179   8 O     -0.467  1.740  4.727  0.000    23.075     6.441
 180   6 C     -0.115  1.064  3.051  0.000    22.688     6.780
 181   6 C      0.292  1.031  2.677  0.000    22.050     7.689
 182   8 O     -0.494  1.752  4.742  0.000    23.643     6.519
 183   7 N     -0.282  1.264  4.018  0.000    27.287     7.758
 184   1 H      0.222  0.778  0.000  0.000     1.002     1.568
 185   1 H      0.089  0.911  0.000  0.000     1.889     2.150
 186   1 H      0.099  0.901  0.000  0.000     1.792     2.094
 187   1 H      0.080  0.920  0.000  0.000     1.981     2.201
 188   1 H      0.239  0.761  0.000  0.000     0.926     1.507
 189   1 H      0.230  0.770  0.000  0.000     0.963     1.537
 190   7 N     -0.190  1.254  3.936  0.000    25.113     7.443
 191   6 C      0.020  1.060  2.921  0.000    20.246     6.407
 192   6 C      0.286  1.040  2.674  0.000    22.152     7.708
 193   8 O     -0.488  1.736  4.753  0.000    23.523     6.503
 194   6 C      0.079  1.041  2.880  0.000    19.489     6.326
 195   8 O     -0.493  1.717  4.776  0.000    22.739     6.437
 196   1 H      0.198  0.802  0.000  0.000     1.118     1.656
 197   1 H      0.070  0.930  0.000  0.000     2.086     2.259
 198   1 H      0.052  0.948  0.000  0.000     2.293     2.368
 199   1 H      0.050  0.950  0.000  0.000     2.324     2.384
 200   1 H      0.340  0.660  0.000  0.000     0.614     1.231
 201   7 N     -0.182  1.250  3.932  0.000    24.940     7.417
 202   6 C      0.039  1.054  2.907  0.000    19.921     6.355
 203   6 C      0.277  1.041  2.682  0.000    22.316     7.735
 204   8 O     -0.491  1.745  4.745  0.000    23.575     6.510
 205   6 C     -0.052  1.052  2.999  0.000    21.492     6.599
 206   6 C     -0.094  1.065  3.028  0.000    22.285     6.721
 207   6 C      0.372  1.023  2.605  0.000    20.700     7.446
 208   8 O     -0.661  1.778  4.883  0.000    27.668     7.052
 209   8 O     -0.632  1.767  4.865  0.000    26.921     6.956
 210   1 H      0.212  0.788  0.000  0.000     1.048     1.603
 211   1 H      0.059  0.941  0.000  0.000     2.215     2.328
 212   1 H      0.048  0.952  0.000  0.000     2.340     2.392
 213   1 H      0.056  0.944  0.000  0.000     2.249     2.345
 214   1 H      0.016  0.984  0.000  0.000     2.796     2.615
 215   1 H      0.038  0.962  0.000  0.000     2.469     2.457
 216   7 N     -0.186  1.242  3.944  0.000    25.041     7.432
 217   6 C      0.021  1.059  2.920  0.000    20.225     6.404
 218   6 C      0.268  1.046  2.686  0.000    22.475     7.763
 219   8 O     -0.484  1.731  4.753  0.000    23.433     6.490
 220   6 C     -0.068  1.048  3.020  0.000    21.800     6.647
 221   6 C      0.058  1.063  2.879  0.000    26.234     8.354
 222   7 N     -0.306  1.493  3.813  0.000    28.779     7.954
 223   6 C     -0.031  1.062  2.969  0.000    28.731     8.792
 224   6 C      0.088  1.061  2.851  0.000    25.783     8.306
 225   7 N     -0.102  1.245  3.857  0.000    23.226     7.158
 226   1 H      0.213  0.787  0.000  0.000     1.040     1.597
 227   1 H      0.090  0.910  0.000  0.000     1.876     2.142
 228   1 H      0.059  0.941  0.000  0.000     2.206     2.323
 229   1 H      0.074  0.926  0.000  0.000     2.038     2.232
 230   1 H      0.030  0.970  0.000  0.000     2.580     2.512
 231   1 H      0.058  0.942  0.000  0.000     2.224     2.332
 232   1 H      0.216  0.784  0.000  0.000     1.030     1.590
 233   7 N     -0.184  1.245  3.940  0.000    24.996     7.425
 234   6 C      0.025  1.059  2.916  0.000    20.161     6.393
 235   6 C      0.272  1.041  2.687  0.000    22.408     7.752
 236   8 O     -0.467  1.724  4.743  0.000    23.062     6.439
 237   6 C     -0.058  1.047  3.011  0.000    21.609     6.617
 238   6 C     -0.097  1.054  3.043  0.000    22.345     6.728
 239   6 C      0.284  1.038  2.678  0.000    22.188     7.713
 240   8 O     -0.491  1.742  4.749  0.000    23.593     6.512
 241   7 N     -0.301  1.278  4.023  0.000    27.748     7.823
 242   1 H      0.205  0.795  0.000  0.000     1.083     1.630
 243   1 H      0.075  0.925  0.000  0.000     2.028     2.227
 244   1 H      0.056  0.944  0.000  0.000     2.251     2.346
 245   1 H      0.081  0.919  0.000  0.000     1.969     2.194
 246   1 H      0.058  0.942  0.000  0.000     2.223     2.331
 247   1 H      0.061  0.939  0.000  0.000     2.189     2.314
 248   1 H      0.201  0.799  0.000  0.000     1.103     1.645
 249   1 H      0.238  0.762  0.000  0.000     0.931     1.512
 250   7 N     -0.158  1.233  3.926  0.000    24.425     7.340
 251   6 C      0.014  1.068  2.918  0.000    20.350     6.423
 252   6 C      0.271  1.039  2.690  0.000    22.422     7.754
 253   8 O     -0.486  1.755  4.731  0.000    23.472     6.496
 254   6 C     -0.014  1.062  2.952  0.000    20.783     6.484
 255   6 C     -0.117  1.038  3.079  0.000    22.799     6.808
 256   6 C     -0.118  1.039  3.078  0.000    22.802     6.808
 257   1 H      0.184  0.816  0.000  0.000     1.192     1.710
 258   1 H      0.078  0.922  0.000  0.000     2.005     2.214
 259   1 H      0.030  0.970  0.000  0.000     2.586     2.515
 260   1 H      0.064  0.936  0.000  0.000     2.154     2.295
 261   1 H      0.031  0.969  0.000  0.000     2.576     2.510
 262   1 H      0.062  0.938  0.000  0.000     2.176     2.307
 263   1 H      0.061  0.939  0.000  0.000     2.186     2.312
 264   1 H      0.061  0.939  0.000  0.000     2.186     2.312
 265   1 H      0.031  0.969  0.000  0.000     2.569     2.506
 266   7 N     -0.161  1.247  3.915  0.000    24.493     7.350
 267   6 C      0.026  1.058  2.917  0.000    20.149     6.392
 268   6 C      0.200  1.087  2.713  0.000    23.744     7.981
 269   8 O     -0.344  1.753  4.591  0.000    20.601     6.085
 270   6 C     -0.079  1.057  3.021  0.000    21.994     6.676
 271   6 C     -0.013  1.056  2.957  0.000    20.770     6.482
 272   6 C     -0.119  1.042  3.077  0.000    22.835     6.813
 273   6 C     -0.117  1.040  3.077  0.000    22.799     6.808
 274   1 H      0.211  0.789  0.000  0.000     1.050     1.605
 275   1 H      0.085  0.915  0.000  0.000     1.929     2.172
 276   1 H      0.074  0.926  0.000  0.000     2.045     2.236
 277   1 H      0.069  0.931  0.000  0.000     2.096     2.264
 278   1 H      0.029  0.971  0.000  0.000     2.596     2.520
 279   1 H      0.045  0.955  0.000  0.000     2.387     2.416
 280   1 H      0.053  0.947  0.000  0.000     2.288     2.366
 281   1 H      0.050  0.950  0.000  0.000     2.322     2.383
 282   1 H      0.043  0.957  0.000  0.000     2.409     2.427
 283   1 H      0.053  0.947  0.000  0.000     2.278     2.360
 284   1 H      0.023  0.977  0.000  0.000     2.687     2.564
 285   1 H      0.169  0.831  0.000  0.000     1.279     1.771
 286   1 H      0.077  0.923  0.000  0.000     2.013     2.219
 287   1 H      0.193  0.807  0.000  0.000     1.142     1.674
 288   1 H      0.070  0.930  0.000  0.000     2.080     2.255

 Mol. C6AA /au·bohr⁶  :     847118.049467
 Mol. C8AA /au·bohr⁸  :   19179791.078931
 Mol. α(0) /au        :       1385.898563

 
molecular dipole:
                 x           y           z       tot (Debye)
 q only:      -33.770     -68.024     -43.589
   full:      -31.753     -69.218     -44.271     223.899
molecular quadrupole (traceless):
                xx          xy          yy          xz          yz          zz
 q only:     1067.215   -1790.016   -1373.319    -837.383   -2075.110     306.104
  q+dip:     1160.440   -1732.430   -1464.607    -800.091   -2147.531     304.166
   full:     1162.066   -1728.000   -1463.040    -799.677   -2150.234     300.973
speedup  1.94
cpu  time for grad    9.43 s
wall time for grad    4.87 s

SCC energy    :    -475.5574214
rep           :       5.6877836
ES            :       1.5868862
AES           :      -0.0488970
AXC           :       0.1344085
disp          :      -0.4056649
XB            :       0.0000000
fix           :       0.0000000
Gborn         :       0.0000000
Gsasa         :       0.0000000
Ghb           :       0.0000000
Gshift        :       0.0000000
Gsolv         :      -0.4088517     -256.56
Etot ala COSMO:    -475.5574214
grad norm     :       0.3182449
total E       :    -469.8365702
atomizationE  :      86.0352217    53987.92
(atE without considering molecular charge,
 total energy contains solvation terms)
H-L gap (eV)  :          1.3214

------------------------------------------------------------------------
 * finished run on 2019/05/08 at 07:13:45.220     
------------------------------------------------------------------------
 total:
 * wall-time:     0 d,  0 h,  0 min,  5.252 sec
 *  cpu-time:     0 d,  0 h,  0 min, 10.083 sec
 * ratio c/w:     1.920 speedup
 SCF:
 * wall-time:     0 d,  0 h,  0 min,  5.104 sec
 *  cpu-time:     0 d,  0 h,  0 min,  9.894 sec
 * ratio c/w:     1.939 speedup

