      -----------------------------------------------------------      
     |                   =====================                   |     
     |                           x T B                           |     
     |                   =====================                   |     
     |                         S. Grimme                         |     
     |          Mulliken Center for Theoretical Chemistry        |     
     |                    University of Bonn                     |     
     |                 Version 6.0.1 (SAW181210)                 |     
      -----------------------------------------------------------      

   This program is distributed in the hope that it will be useful,
   but WITHOUT ANY WARRANTY; without even the implied warranty of
   MERCHANTABILITY or FITNESS FOR A PARTICULAR PURPOSE.
   
   FOR NON-COMMERCIAL, ACADEMIA USE ONLY.
   
   Cite this work as:
   S. Grimme, C. Bannwarth, P. Shushkov, J. Comput. Theory Chem., 2017,
   13, 1989-2009.
   C. Bannwarth, S. Ehlert and S. Grimme., ChemRxiv, 2018, preprint.
   http://doi.org/10.26434/chemrxiv.7246238.v1
   
   for sTDA-xTB:
   S. Grimme and C. Bannwarth, J. Chem. Phys., 2016, 145, 054103.
   
   in the mass-spec context:
   V. Asgeirsson, C. Bauer and S. Grimme, Chem. Sci., 2017, 8, 4879.
   
   if GBSA is used:
   P. Shushkov, F. März and S. Grimme, unpublished.
   
   for ANC optimizer:
   S. Grimme, unpublished.
   Rational Function algorithm used in ANCopt:
   F. Eckert, P. Pulay, H.-J. Werner, J. Comput. Chem., 1997, 18, 1473.
   
   with help from (in alphabetical order)
   C. Bannwarth, F. Bohle, G. Brandenburg, E. Caldeweyher, M. Checinski,
   S. Dohm, S. Ehlert, S. Ehrlich, F. März, H. Neugebauer, J. Pisarek,
   P. Pracht, P. Shushkov, and S. Spicher.
   
 * started run on 2019/05/06 at 00:11:20.955     
========================================================================
 # omp threads = 2
========================================================================
number of atoms            : 1186
number of electrons        : 3190
charge                     : 5
spin                       : .0
first test random number   : .5253

########################################################################
# WARNING! Please study the warnings concerning your input carefully
#  - Process number higher than OMP_NUM_THREADS, I hope you know what you are doing.
########################################################################

           ------------------------------------------------- 
          |                 G F N 2 - x T B                 |
          | Geometry, Frequencies, Noncovalent interactions |
          |            JCTC 2018 parametrisation            |
           ------------------------------------------------- 
 
      method parameters     
 k(s)        :  1.8500
 k(p)        :  2.2300
 k(d)        :  2.2300
 k(f)        :  2.0000
 kEN (H0ij)  : -2.0000
 D4 a1       :  0.5200
 D4 a2       :  5.0000
 D4 s6       :  1.0000
 D4 s8       :  2.7000
 D4 s9       :  5.0000
 alphaj      :  2.0000

 Solvent             : h2o
 Using internal parameter file: .param_gbsa2_h2o
 Gsolv ref. state (COSMO-RS): gsolv [1 M gas/solution]
 temperature (mdtemp)       :    298.150000000000     
 dielectric constant        :    80.2000000000000     
 rho                        :    1.00000000000000     
 mass                       :    18.0000000000000     
 surface tension            :    15.5689454083859     
 probe radius               :   0.975313790000000     
 vdW radii scaling          :    1.00000000000000     
 Gshift (Eh)                :   1.857443126794793E-003
 c1                         :    1.55243817000000     
 soset                      :   0.130326360000000     
 HB correction              :  T

            Z     q(EN)     CN     RAES       Cart. coordinates
     1  N   5.0   -0.18    3.15    1.95    47.80251    67.43487   139.23501
     2  C   4.0    0.03    4.28    4.16    47.89132    69.94821   140.45577
     3  C   4.0    0.15    3.39    3.08    45.41200    71.14251   141.48945
     4  O   6.0   -0.28    1.22    1.80    43.47504    71.08960   140.20822
     5  C   4.0   -0.04    4.27    4.13    49.18579    71.78502   138.61896
     6  C   4.0   -0.04    4.16    3.91    50.69190    73.90340   139.85106
     7  C   4.0    0.00    4.19    3.97    53.23736    73.02846   140.92253
     8  N   5.0   -0.13    3.38    2.01    53.25626    72.84894   143.69854
     9  C   4.0    0.09    3.37    3.07    53.07106    70.71355   145.04025
    10  N   5.0   -0.17    3.26    1.97    52.84430    68.48745   143.89129
    11  N   5.0   -0.17    3.23    1.96    53.10886    70.80614   147.56303
    12  H   1.0    0.09    1.04    1.43    48.59052    67.53692   137.47945
    13  H   1.0    0.04    1.09    1.44    48.92689    69.63829   142.20944
    14  H   1.0    0.05    1.04    1.43    50.48781    70.71166   137.43788
    15  H   1.0    0.06    1.03    1.43    47.73448    72.66185   137.44922
    16  H   1.0    0.06    1.03    1.43    51.06606    75.36038   138.44510
    17  H   1.0    0.06    1.03    1.43    49.59019    74.68953   141.40441
    18  H   1.0    0.05    1.04    1.43    53.67578    71.16330   140.16475
    19  H   1.0    0.06    1.02    1.43    54.69434    74.37394   140.36695
    20  H   1.0    0.09    1.06    1.44    53.42444    74.49678   144.68498
    21  H   1.0    0.09    1.03    1.43    52.81028    68.39485   141.96566
    22  H   1.0    0.10    1.02    1.43    52.70446    66.87362   144.93631
    23  H   1.0    0.09    1.02    1.43    53.27893    72.50312   148.46254
    24  H   1.0    0.10    1.02    1.43    52.96713    69.18098   148.58915
    25  N   5.0   -0.10    3.61    2.16    45.48759    72.23477   143.81759
    26  C   4.0    0.04    4.65    4.72    43.29551    73.50089   144.91741
    27  C   4.0    0.16    3.49    3.11    41.68924    75.35471   143.52658
    28  O   6.0   -0.33    1.50    1.80    42.62844    77.09704   142.36439
    29  C   4.0   -0.03    4.46    4.48    44.48982    75.28857   146.83549
    30  C   4.0   -0.04    4.28    4.16    46.68001    73.75222   147.83137
    31  C   4.0   -0.01    4.35    4.29    47.35653    71.78124   145.84149
    32  H   1.0    0.07    1.07    1.44    42.18624    71.84549   145.44087
    33  H   1.0    0.06    1.04    1.43    45.13421    77.01389   145.91141
    34  H   1.0    0.05    1.02    1.43    43.14811    75.74777   148.32837
    35  H   1.0    0.05    1.03    1.43    48.28250    75.00133   148.17341
    36  H   1.0    0.05    1.03    1.43    46.11876    72.83004   149.58504
    37  H   1.0    0.05    1.07    1.44    49.27271    72.07226   145.14607
    38  H   1.0    0.05    1.02    1.43    47.16378    69.87640   146.60305
    39  N   5.0   -0.14    3.59    2.15    39.24016    74.92385   143.73822
    40  C   4.0    0.03    4.46    4.48    37.21626    75.62305   142.04314
    41  C   4.0    0.15    3.51    3.12    36.19581    78.18552   142.76124
    42  O   6.0   -0.29    1.30    1.80    34.43270    79.16251   141.55559
    43  C   4.0   -0.03    4.42    4.41    35.10733    73.73522   142.32660
    44  C   4.0   -0.00    3.64    3.19    32.69982    74.54780   141.10206
    45  C   4.0   -0.02    3.53    3.13    30.88190    76.01612   142.40786
    46  C   4.0   -0.04    3.46    3.10    32.22550    73.84104   138.64919
    47  C   4.0   -0.04    3.36    3.07    28.65391    76.75500   141.22867
    48  C   4.0   -0.04    3.38    3.07    29.98428    74.54402   137.49457
    49  C   4.0   -0.04    3.37    3.07    28.21361    76.01990   138.75880
    50  H   1.0    0.10    1.11    1.45    38.51261    73.97710   145.25190
    51  H   1.0    0.05    1.07    1.44    37.85310    75.62683   140.08538
    52  H   1.0    0.05    1.04    1.43    35.68558    71.95698   141.46299
    53  H   1.0    0.05    1.04    1.43    34.73127    73.45365   144.33160
    54  H   1.0    0.05    1.03    1.43    31.23150    76.56792   144.34105
    55  H   1.0    0.05    1.03    1.43    33.60122    72.73744   137.62118
    56  H   1.0    0.05    1.04    1.43    27.28386    77.88883   142.22833
    57  H   1.0    0.05    1.03    1.43    29.60445    73.93742   135.58406
    58  H   1.0    0.05    1.03    1.43    26.49774    76.59059   137.81393
    59  N   5.0   -0.14    3.56    2.13    37.17847    79.06424   144.90608
    60  C   4.0    0.03    4.35    4.29    37.52240    81.71931   145.54858
    61  C   4.0    0.15    3.40    3.08    39.04552    82.93818   143.38863
    62  O   6.0   -0.30    1.43    1.80    38.33309    84.91106   142.38140
    63  C   4.0   -0.05    4.27    4.14    39.02284    81.89316   148.06570
    64  C   4.0   -0.05    4.15    3.89    37.51673    81.87427   150.53746
    65  C   4.0   -0.05    4.20    4.01    36.21093    84.41784   150.90029
    66  C   4.0   -0.03    4.11    3.82    34.46293    84.52744   153.18308
    67  N   5.0   -0.10    4.02    2.91    32.43904    86.45496   152.72009
    68  H   1.0    0.08    1.09    1.44    37.79263    77.91151   146.32526
    69  H   1.0    0.06    1.05    1.44    35.72527    82.69063   145.80747
    70  H   1.0    0.05    1.03    1.43    40.30785    80.28501   148.14318
    71  H   1.0    0.05    1.04    1.43    40.09432    83.65250   148.03924
    72  H   1.0    0.05    1.04    1.43    36.08243    80.39650   150.46754
    73  H   1.0    0.05    1.03    1.43    38.78851    81.54923   152.12483
    74  H   1.0    0.05    1.03    1.43    37.65090    85.87104   151.14595
    75  H   1.0    0.04    1.04    1.43    35.07898    84.82413   149.22788
    76  H   1.0    0.05    1.02    1.43    33.58043    82.69063   153.47787
    77  H   1.0    0.05    1.02    1.43    35.53252    85.07168   154.85737
    78  H   1.0    0.09    1.02    1.43    32.13290    87.51321   154.34715
    79  H   1.0    0.07    1.02    1.43    32.98139    87.66250   151.26689
    80  H   1.0    0.08    1.02    1.43    30.76285    85.56112   152.21554
    81  N   5.0   -0.14    3.53    2.10    41.08642    81.63049   142.66108
    82  C   4.0    0.04    4.41    4.40    43.04229    82.44118   140.85639
    83  C   4.0    0.17    3.44    3.09    42.69080    81.79490   138.08983
    84  O   6.0   -0.26    1.24    1.80    44.19691    82.59803   136.52703
    85  C   4.0   -0.02    4.44    4.45    45.46870    81.08247   141.54047
    86  C   4.0   -0.03    4.23    4.07    47.19213    82.52055   143.28658
    87  C   4.0    0.16    3.23    3.04    49.90766    81.65128   143.01824
    88  O   6.0   -0.29    1.22    1.80    50.41222    79.42140   142.55337
    89  N   5.0   -0.16    3.17    1.95    51.68023    83.41439   143.29603
    90  H   1.0    0.11    1.17    1.46    41.47193    79.86738   143.33760
    91  H   1.0    0.07    1.06    1.44    43.08575    84.49532   141.01324
    92  H   1.0    0.08    1.11    1.45    44.98493    79.30991   142.47022
    93  H   1.0    0.08    1.06    1.44    46.51749    80.70642   139.80759
    94  H   1.0    0.05    1.04    1.43    47.10520    84.52744   142.83305
    95  H   1.0    0.05    1.03    1.43    46.60064    82.21253   145.23489
    96  H   1.0    0.10    1.02    1.43    51.17567    85.23798   143.66831
    97  H   1.0    0.12    1.02    1.43    53.54161    82.94196   143.13540
    98  N   5.0   -0.13    3.58    2.14    40.82753    80.20942   137.54937
    99  C   4.0    0.04    4.43    4.44    40.29085    79.14928   135.05871
   100  C   4.0    0.15    3.50    3.12    38.45214    80.86137   133.74913
   101  O   6.0   -0.30    1.27    1.80    37.80208    80.54012   131.55705
   102  C   4.0   -0.05    4.32    4.23    39.04930    76.54902   135.33839
   103  C   4.0   -0.04    4.19    3.99    40.61210    74.36072   134.38597
   104  C   4.0   -0.01    4.19    3.98    39.03607    71.99100   133.97023
   105  N   5.0   -0.13    3.37    2.01    40.18880    70.42064   131.97846
   106  C   4.0    0.10    3.32    3.06    39.91479    70.73622   129.46890
   107  N   5.0   -0.16    3.23    1.96    41.08075    69.18287   127.86642
   108  N   5.0   -0.17    3.24    1.97    38.48994    72.57681   128.52026
   109  H   1.0    0.09    1.08    1.44    39.57653    79.58014   138.87407
   110  H   1.0    0.07    1.06    1.44    42.01617    78.89228   133.96267
   111  H   1.0    0.04    1.05    1.44    38.67324    76.21643   137.33583
   112  H   1.0    0.04    1.05    1.44    37.28240    76.55280   134.28015
   113  H   1.0    0.06    1.04    1.43    41.47571    74.87850   132.58884
   114  H   1.0    0.06    1.03    1.43    42.07475    73.92230   135.76925
   115  H   1.0    0.05    1.02    1.43    38.95670    70.89496   135.71256
   116  H   1.0    0.04    1.03    1.43    37.13311    72.51634   133.38064
   117  H   1.0    0.09    1.06    1.44    41.29996    68.95610   132.55672
   118  H   1.0    0.10    1.02    1.43    42.18246    67.75234   128.54105
   119  H   1.0    0.10    1.02    1.43    40.87099    69.42475   125.96535
   120  H   1.0    0.08    1.03    1.43    37.57153    73.79191   129.70134
   121  H   1.0    0.10    1.03    1.43    38.31419    72.77335   126.61164
   122  N   5.0   -0.11    3.81    2.44    37.54319    82.65283   135.19288
   123  C   4.0    0.04    4.52    4.57    35.94637    84.53311   134.21401
   124  C   4.0    0.16    3.56    3.15    37.32020    86.84047   135.17210
   125  O   6.0   -0.26    1.30    1.80    38.89812    86.60047   136.90120
   126  C   4.0   -0.04    4.34    4.27    33.34988    84.10792   135.38942
   127  C   4.0   -0.04    4.23    4.06    32.33321    81.46798   134.83384
   128  C   4.0   -0.05    4.23    4.07    31.79464    81.15050   132.02948
   129  C   4.0   -0.03    4.13    3.87    30.88001    78.52756   131.36430
   130  N   5.0   -0.12    4.02    2.93    33.10800    76.88161   130.89943
   131  H   1.0    0.11    1.13    1.45    37.90790    82.82102   137.07883
   132  H   1.0    0.05    1.06    1.44    35.62511    84.66539   132.18444
   133  H   1.0    0.05    1.05    1.44    33.48783    84.32902   137.43221
   134  H   1.0    0.05    1.04    1.43    32.02519    85.48364   134.62030
   135  H   1.0    0.05    1.04    1.43    33.72972    80.06202   135.39508
   136  H   1.0    0.04    1.03    1.43    30.57955    81.17318   135.87319
   137  H   1.0    0.04    1.03    1.43    30.33577    82.49221   131.47012
   138  H   1.0    0.06    1.04    1.43    33.52374    81.50766   130.96935
   139  H   1.0    0.04    1.03    1.43    29.78397    77.74899   132.92332
   140  H   1.0    0.05    1.02    1.43    29.72728    78.59559   129.65788
   141  H   1.0    0.06    1.01    1.43    33.13823    76.30713   129.02104
   142  H   1.0    0.07    1.04    1.43    34.76340    77.86427   131.29249
   143  H   1.0    0.05    1.01    1.43    33.02107    75.29235   132.05216
   144  N   5.0   -0.11    3.64    2.20    36.96871    88.96830   133.87386
   145  C   4.0    0.04    4.38    4.35    36.95737    91.40604   135.11730
   146  C   4.0    0.15    3.52    3.12    34.20782    91.31723   135.99035
   147  O   6.0   -0.32    1.39    1.80    32.85667    89.59002   135.21556
   148  C   4.0    0.03    4.15    3.89    37.47893    93.52821   133.22568
   149  O   6.0   -0.22    2.03    1.83    40.01495    93.42805   132.35452
   150  H   1.0    0.07    1.11    1.44    36.68903    89.05145   131.96901
   151  H   1.0    0.07    1.05    1.44    38.35199    91.76698   136.58939
   152  H   1.0    0.04    1.02    1.43    36.20904    93.32034   131.61752
   153  H   1.0    0.05    1.01    1.43    37.15768    95.34234   134.14787
   154  H   1.0    0.14    1.01    1.43    40.32297    94.79432   131.14320
   155  N   5.0   -0.15    3.41    2.03    33.38201    93.04822   137.62496
   156  C   4.0    0.03    4.35    4.29    30.75340    93.04633   138.61707
   157  C   4.0    0.15    3.42    3.08    28.74084    93.11436   136.54782
   158  O   6.0   -0.34    1.32    1.80    26.66970    92.04288   136.80293
   159  C   4.0   -0.05    4.31    4.22    30.39246    95.22896   140.51435
   160  C   4.0   -0.02    4.15    3.91    28.13235    97.03554   140.89230
   161  C   4.0   -0.06    4.10    3.81    25.49240    95.90548   140.64474
   162  C   4.0   -0.06    4.10    3.81    28.42904    98.30921   143.46799
   163  H   1.0    0.08    1.06    1.44    34.46104    94.48819   138.31660
   164  H   1.0    0.05    1.07    1.44    30.46805    91.27376   139.62618
   165  H   1.0    0.05    1.05    1.44    30.61545    94.35402   142.36628
   166  H   1.0    0.05    1.05    1.44    31.96471    96.50641   140.14586
   167  H   1.0    0.05    1.06    1.44    28.20416    98.37346   139.32760
   168  H   1.0    0.06    1.00    1.43    24.09590    97.38703   140.95466
   169  H   1.0    0.06    1.03    1.43    25.27319    95.11936   138.75313
   170  H   1.0    0.06    1.00    1.43    25.26375    94.42016   142.05259
   171  H   1.0    0.06    1.00    1.43    26.84734    99.59423   143.76657
   172  H   1.0    0.05    1.00    1.43    28.44604    96.86168   144.93442
   173  H   1.0    0.06    1.00    1.43    30.20160    99.35801   143.49634
   174  N   5.0   -0.14    3.50    2.08    29.42870    94.36724   134.48802
   175  C   4.0    0.03    4.35    4.30    27.72228    94.90204   132.41121
   176  C   4.0    0.15    3.42    3.08    27.56543    92.81389   130.45156
   177  O   6.0   -0.27    1.23    1.80    25.85334    92.88192   128.87364
   178  C   4.0   -0.05    4.12    3.83    28.45171    97.37758   131.14320
   179  H   1.0    0.08    1.07    1.44    31.20693    95.05322   134.19889
   180  H   1.0    0.06    1.07    1.44    25.82688    95.12314   133.18788
   181  H   1.0    0.07    1.00    1.43    27.14969    97.74419   129.58985
   182  H   1.0    0.06    1.00    1.43    28.34022    98.89881   132.52837
   183  H   1.0    0.06    1.00    1.43    30.37545    97.22073   130.42511
   184  N   5.0   -0.14    3.52    2.09    29.32477    91.00731   130.53471
   185  C   4.0    0.04    4.39    4.36    29.10745    88.76799   128.94923
   186  C   4.0    0.15    3.32    3.06    26.88702    87.18062   130.12653
   187  O   6.0   -0.28    1.19    1.80    25.24107    86.26032   128.74136
   188  C   4.0   -0.03    4.23    4.05    31.73795    87.39605   128.48436
   189  C   4.0   -0.04    4.21    4.01    34.01885    89.23853   128.59207
   190  C   4.0   -0.06    4.12    3.84    31.76629    85.93718   125.98614
   191  C   4.0   -0.06    4.03    3.68    35.42669    89.73553   126.13354
   192  H   1.0    0.09    1.08    1.44    30.88946    91.04322   131.65910
   193  H   1.0    0.07    1.07    1.44    28.61423    89.21018   126.99903
   194  H   1.0    0.04    1.05    1.44    31.93826    86.06001   130.03960
   195  H   1.0    0.05    1.06    1.44    33.33099    91.06022   129.26481
   196  H   1.0    0.04    1.07    1.44    35.39268    88.46941   129.92055
   197  H   1.0    0.05    1.00    1.43    33.60311    85.03578   125.75748
   198  H   1.0    0.06    1.00    1.43    30.28286    84.50854   126.02771
   199  H   1.0    0.06    1.00    1.43    31.43181    87.25243   124.43656
   200  H   1.0    0.06    1.00    1.43    36.96682    91.05267   126.49826
   201  H   1.0    0.06    1.00    1.43    36.17880    87.95540   125.41922
   202  H   1.0    0.06    1.00    1.43    34.11900    90.54622   124.76349
   203  N   5.0   -0.14    3.43    2.04    26.71695    87.12015   132.66254
   204  C   4.0    0.03    4.38    4.34    25.01997    85.40238   134.11952
   205  C   4.0    0.15    3.49    3.11    22.58034    86.58157   135.03604
   206  O   6.0   -0.32    1.31    1.80    20.72462    85.26255   135.54437
   207  C   4.0   -0.05    4.29    4.18    26.39758    84.38382   136.46089
   208  C   4.0   -0.04    4.21    4.03    26.70372    86.27355   138.61140
   209  C   4.0   -0.00    4.25    4.10    29.46650    86.53622   139.35595
   210  N   5.0   -0.13    3.42    2.03    29.82743    87.02944   142.05070
   211  C   4.0    0.10    3.34    3.06    32.05542    86.93495   143.22422
   212  N   5.0   -0.16    3.34    2.00    34.13223    86.36992   141.92787
   213  N   5.0   -0.17    3.22    1.96    32.21227    87.39038   145.69787
   214  H   1.0    0.09    1.06    1.44    27.75441    88.26532   133.81338
   215  H   1.0    0.06    1.06    1.44    24.52864    83.85281   132.85529
   216  H   1.0    0.04    1.03    1.43    25.33556    82.77945   137.19599
   217  H   1.0    0.04    1.05    1.44    28.28353    83.78100   135.89586
   218  H   1.0    0.07    1.06    1.44    26.01019    88.11792   138.01047
   219  H   1.0    0.06    1.03    1.43    25.64358    85.62348   140.25357
   220  H   1.0    0.04    1.05    1.44    30.45104    84.78633   138.89675
   221  H   1.0    0.06    1.04    1.43    30.29420    88.10658   138.30904
   222  H   1.0    0.12    1.14    1.45    28.27408    87.47541   143.10139
   223  H   1.0    0.10    1.04    1.43    34.02074    86.00899   140.03814
   224  H   1.0    0.13    1.18    1.46    35.83676    86.29623   142.82360
   225  H   1.0    0.10    1.02    1.43    30.62301    87.81368   146.70320
   226  H   1.0    0.08    1.02    1.43    33.92247    87.31479   146.58604
   227  N   5.0   -0.14    3.60    2.15    22.66915    89.06089   135.35162
   228  C   4.0    0.04    4.49    4.53    20.57156    90.48953   136.28326
   229  C   4.0    0.16    3.50    3.11    18.25853    89.88104   134.68266
   230  O   6.0   -0.31    1.26    1.80    16.14393    89.61647   135.66343
   231  C   4.0   -0.04    4.32    4.24    21.19706    93.29766   136.09239
   232  C   4.0   -0.03    4.23    4.06    19.42638    95.01353   137.54748
   233  C   4.0    0.15    3.24    3.04    18.98230    94.14237   140.24601
   234  O   6.0   -0.28    1.20    1.80    19.96873    95.25164   142.05070
   235  N   5.0   -0.19    3.22    1.96    17.44406    92.17705   140.54081
   236  H   1.0    0.10    1.11    1.45    24.21495    90.14371   134.96423
   237  H   1.0    0.05    1.08    1.44    20.18794    90.04544   138.25802
   238  H   1.0    0.06    1.06    1.44    23.09812    93.59813   136.82939
   239  H   1.0    0.06    1.03    1.43    21.11391    93.85513   134.11196
   240  H   1.0    0.06    1.03    1.43    20.23708    96.90704   137.61740
   241  H   1.0    0.06    1.03    1.43    17.60469    95.06266   136.58939
   242  H   1.0    0.10    1.06    1.44    16.63904    91.34368   139.00068
   243  H   1.0    0.09    1.02    1.43    17.06989    91.50242   142.30770
   244  N   5.0   -0.13    3.49    2.07    18.72151    89.62970   132.21657
   245  C   4.0    0.04    4.37    4.33    16.82801    88.75098   130.41188
   246  C   4.0    0.16    3.41    3.08    15.61481    86.29623   131.38320
   247  O   6.0   -0.31    1.48    1.80    13.34902    86.24709   131.94445
   248  C   4.0   -0.03    4.25    4.10    18.00909    88.38626   127.76059
   249  C   4.0   -0.02    4.15    3.90    16.14204    88.26343   125.54394
   250  C   4.0    0.26    3.10    3.02    15.51843    90.84480   124.38932
   251  O   6.0   -0.24    1.17    1.80    15.20662    92.72318   125.80473
   252  O   6.0   -0.22    1.17    1.80    15.31623    90.99975   122.03661
   253  H   1.0    0.09    1.07    1.44    20.42038    90.02654   131.39642
   254  H   1.0    0.07    1.06    1.44    15.36158    90.18339   130.20590
   255  H   1.0    0.07    1.03    1.43    19.28087    89.96607   127.39965
   256  H   1.0    0.06    1.03    1.43    19.06545    86.61937   127.76437
   257  H   1.0    0.07    1.03    1.43    16.95651    87.09180   124.05673
   258  H   1.0    0.06    1.03    1.43    14.37892    87.43195   126.20913
   259  N   5.0   -0.13    3.46    2.05    17.17194    84.32524   131.67043
   260  C   4.0    0.03    4.42    4.41    16.35936    81.74954   132.37341
   261  C   4.0    0.16    3.46    3.10    14.73041    81.67018   134.72423
   262  O   6.0   -0.31    1.28    1.80    12.81045    80.34926   134.80738
   263  C   4.0   -0.04    4.32    4.24    18.67427    80.09981   132.80049
   264  C   4.0   -0.03    4.21    4.02    18.16405    77.32948   132.39987
   265  C   4.0    0.24    3.13    3.03    20.35424    76.01990   131.08462
   266  O   6.0   -0.27    1.17    1.80    20.15771    75.60227   128.76026
   267  O   6.0   -0.30    1.17    1.80    22.27420    75.41518   132.34129
   268  H   1.0    0.09    1.07    1.44    19.08056    84.44051   131.42288
   269  H   1.0    0.06    1.06    1.44    15.23119    81.02956   130.80872
   270  H   1.0    0.06    1.04    1.43    20.15204    80.67051   131.48335
   271  H   1.0    0.05    1.04    1.43    19.32434    80.35115   134.73935
   272  H   1.0    0.05    1.03    1.43    17.87303    76.42241   134.22534
   273  H   1.0    0.06    1.04    1.43    16.48408    77.11027   131.22824
   274  N   5.0   -0.14    3.53    2.10    15.59024    83.07235   136.63097
   275  C   4.0    0.03    4.52    4.57    14.20696    83.51266   138.96289
   276  C   4.0    0.16    3.54    3.13    11.50843    84.21564   138.34306
   277  O   6.0   -0.31    1.24    1.80     9.71886    82.95519   139.11596
   278  C   4.0   -0.02    4.36    4.32    15.28221    85.79923   140.38963
   279  C   4.0   -0.07    4.16    3.93    13.88571    86.12615   142.86895
   280  C   4.0   -0.07    4.14    3.88    18.12058    85.56868   140.78647
   281  H   1.0    0.10    1.10    1.44    17.30233    83.95863   136.61207
   282  H   1.0    0.05    1.05    1.44    14.34491    81.78923   140.08161
   283  H   1.0    0.06    1.08    1.44    15.00064    87.49431   139.25391
   284  H   1.0    0.04    1.02    1.43    14.66238    87.75320   143.86673
   285  H   1.0    0.05    1.01    1.43    11.88638    86.43040   142.47778
   286  H   1.0    0.04    1.00    1.43    14.12759    84.42540   144.00468
   287  H   1.0    0.04    1.01    1.43    18.79332    87.22975   141.80315
   288  H   1.0    0.04    1.00    1.43    18.50798    83.86982   141.88440
   289  H   1.0    0.07    1.03    1.43    19.04655    85.44585   138.95155
   290  N   5.0   -0.14    3.55    2.12    11.27222    86.29811   136.95411
   291  C   4.0    0.04    4.35    4.29     8.85148    87.26565   136.09995
   292  C   4.0    0.17    3.42    3.08     7.60993    85.32869   134.36518
   293  O   6.0   -0.27    1.22    1.80     5.42162    84.62760   134.76581
   294  C   4.0   -0.05    4.12    3.83     9.21241    89.77899   134.74502
   295  H   1.0    0.11    1.08    1.44    12.75943    87.37904   136.37774
   296  H   1.0    0.06    1.06    1.44     7.62126    87.61336   137.71378
   297  H   1.0    0.07    1.00    1.43     7.37749    90.47252   134.11952
   298  H   1.0    0.06    1.00    1.43    10.06657    91.12636   136.04704
   299  H   1.0    0.07    1.00    1.43    10.44641    89.49364   133.11985
   300  N   5.0   -0.13    3.41    2.03     9.07824    84.42351   132.52081
   301  C   4.0    0.03    4.23    4.07     8.21086    82.66228   130.58195
   302  C   4.0    0.17    3.31    3.06     6.80679    80.33792   131.51737
   303  O   6.0   -0.25    1.22    1.80     4.76400    79.77100   130.56306
   304  H   1.0    0.14    1.25    1.48    10.93773    84.88838   132.31105
   305  H   1.0    0.08    1.03    1.43     6.94663    83.67140   129.30639
   306  H   1.0    0.06    1.03    1.43     9.84925    82.00466   129.52182
   307  N   5.0   -0.14    3.44    2.04     7.88583    78.98299   133.35985
   308  C   4.0    0.04    4.45    4.46     6.74254    76.60193   134.26881
   309  C   4.0    0.15    3.46    3.10     4.75455    77.11216   136.31727
   310  O   6.0   -0.27    1.22    1.80     2.92719    75.67219   136.64041
   311  C   4.0   -0.02    4.29    4.18     8.74565    74.60260   135.09840
   312  C   4.0   -0.05    4.18    3.97     8.18629    71.99289   133.94378
   313  C   4.0   -0.07    4.14    3.88     8.93084    74.39284   137.95944
   314  C   4.0   -0.06    4.00    3.62     9.14816    71.62250   131.26414
   315  H   1.0    0.12    1.09    1.44     9.52422    79.46298   134.25558
   316  H   1.0    0.07    1.07    1.44     5.78256    75.72132   132.67388
   317  H   1.0    0.05    1.06    1.44    10.55979    75.26589   134.38030
   318  H   1.0    0.04    1.03    1.43     9.07257    70.55481   135.12296
   319  H   1.0    0.06    1.03    1.43     6.14539    71.71699   133.91165
   320  H   1.0    0.04    1.00    1.43    10.35003    72.97744   138.43754
   321  H   1.0    0.05    1.00    1.43     9.47509    76.22210   138.73234
   322  H   1.0    0.05    1.01    1.43     7.09781    73.82970   138.71155
   323  H   1.0    0.05    1.00    1.43     8.65683    69.72522   130.63109
   324  H   1.0    0.06    1.00    1.43     8.26755    73.02279   130.03582
   325  H   1.0    0.05    1.00    1.43    11.19474    71.86061   131.24714
   326  N   5.0   -0.14    3.48    2.07     5.09092    79.20219   137.66276
   327  C   4.0    0.05    4.39    4.35     3.15206    80.02800   139.40508
   328  C   4.0    0.12    3.28    3.05     0.78235    80.61382   137.95755
   329  O   6.0   -0.25    1.13    1.80    -1.25289    80.52689   138.99690
   330  C   4.0   -0.04    4.28    4.15     3.95898    82.32780   140.93576
   331  C   4.0   -0.04    4.18    3.95     4.48243    81.71742   143.70232
   332  C   4.0   -0.00    4.18    3.96     2.20153    80.65728   145.15363
   333  N   5.0   -0.13    3.37    2.01     2.39239    81.27144   147.86539
   334  C   4.0    0.11    3.32    3.06     0.93919    80.36815   149.72677
   335  N   5.0   -0.16    3.25    1.97    -0.88817    78.72220   149.26567
   336  N   5.0   -0.18    3.23    1.96     1.33793    81.11838   152.10026
   337  H   1.0    0.11    1.07    1.44     6.64995    80.33225   137.58528
   338  H   1.0    0.06    1.07    1.44     2.81380    78.54268   140.79214
   339  H   1.0    0.07    1.05    1.44     5.68430    83.10070   140.11940
   340  H   1.0    0.06    1.04    1.43     2.45664    83.73376   140.86962
   341  H   1.0    0.05    1.03    1.43     5.98476    80.30957   143.79303
   342  H   1.0    0.05    1.03    1.43     5.07580    83.44463   144.65663
   343  H   1.0    0.06    1.02    1.43     0.46676    81.48687   144.41286
   344  H   1.0    0.06    1.02    1.43     2.14484    78.60882   144.94765
   345  H   1.0    0.08    1.06    1.44     3.77567    82.51299   148.37372
   346  H   1.0    0.09    1.03    1.43    -1.20942    78.11938   147.46287
   347  H   1.0    0.09    1.03    1.43    -1.97476    78.05702   150.71320
   348  H   1.0    0.09    1.03    1.43     2.74577    82.37504   152.48955
   349  H   1.0    0.09    1.02    1.43     0.23433    80.43430   153.52512
   350  N   5.0   -0.19    3.20    1.96    -2.27523    72.87917   148.18097
   351  C   4.0    0.03    4.28    4.16    -0.17574    71.13117   148.73277
   352  C   4.0    0.14    3.38    3.07     2.31491    72.58815   149.21087
   353  O   6.0   -0.30    1.23    1.80     2.77223    74.61016   148.11105
   354  C   4.0   -0.04    4.29    4.17     0.29858    69.40208   146.46888
   355  C   4.0   -0.04    4.20    4.01    -1.99744    68.02069   145.41252
   356  C   4.0   -0.04    4.15    3.91    -2.34137    65.38452   146.49722
   357  C   4.0   -0.04    4.13    3.87    -0.55747    63.51180   145.19520
   358  N   5.0   -0.12    3.98    2.82    -1.58926    60.93988   144.69443
   359  H   1.0    0.10    1.03    1.43    -1.69130    74.26245   146.97155
   360  H   1.0    0.05    1.05    1.44    -0.65573    70.06726   150.42974
   361  H   1.0    0.05    1.03    1.43     1.07336    70.54536   144.94009
   362  H   1.0    0.05    1.04    1.43     1.66107    67.96588   147.03391
   363  H   1.0    0.05    1.04    1.43    -3.69063    69.10917   145.85094
   364  H   1.0    0.05    1.03    1.43    -1.78579    67.83927   143.37162
   365  H   1.0    0.05    1.03    1.43    -1.91429    65.40530   148.51167
   366  H   1.0    0.05    1.03    1.43    -4.28212    64.76091   146.19487
   367  H   1.0    0.04    1.03    1.43    -0.00945    64.30737   143.37540
   368  H   1.0    0.04    1.02    1.43     1.10360    63.27369   146.38951
   369  H   1.0    0.05    1.02    1.43    -0.22866    59.83061   143.81192
   370  H   1.0    0.06    1.01    1.43    -2.11082    60.08384   146.38573
   371  H   1.0    0.06    1.01    1.43    -3.16718    61.06460   143.52847
   372  N   5.0   -0.14    3.46    2.05     3.96087    71.49589   150.77556
   373  C   4.0    0.03    4.54    4.59     6.37594    72.65618   151.46720
   374  C   4.0    0.14    3.57    3.15     8.70975    71.46188   150.29557
   375  O   6.0   -0.32    1.36    1.80     9.09525    69.19043   150.46943
   376  C   4.0   -0.02    4.40    4.39     6.85593    72.42186   154.31124
   377  C   4.0   -0.05    4.23    4.07     4.60337    73.46310   155.77767
   378  C   4.0   -0.08    4.16    3.93     9.25399    73.82214   155.04446
   379  C   4.0   -0.07    4.02    3.66     4.64873    72.92263   158.58013
   380  H   1.0    0.11    1.10    1.44     3.66796    69.78191   151.60515
   381  H   1.0    0.05    1.09    1.44     6.19452    74.56859   150.72076
   382  H   1.0    0.05    1.06    1.44     7.09403    70.42820   154.77422
   383  H   1.0    0.04    1.03    1.43     4.55802    75.50967   155.54145
   384  H   1.0    0.05    1.04    1.43     2.88183    72.62784   155.01422
   385  H   1.0    0.04    1.00    1.43     9.55067    73.62561   157.07402
   386  H   1.0    0.05    1.01    1.43    10.84514    73.00956   154.01833
   387  H   1.0    0.04    1.00    1.43     9.04423    75.81203   154.55502
   388  H   1.0    0.04    1.00    1.43     2.96876    73.74089   159.44752
   389  H   1.0    0.05    1.00    1.43     4.66762    70.88362   158.86926
   390  H   1.0    0.05    1.00    1.43     6.34192    73.76356   159.39838
   391  N   5.0   -0.10    3.74    2.33    10.28389    72.99066   149.08615
   392  C   4.0    0.04    4.63    4.70    12.41928    71.99856   147.69342
   393  C   4.0    0.15    3.49    3.11    14.57168    71.78880   149.57370
   394  O   6.0   -0.32    1.29    1.80    15.16316    73.62561   150.87572
   395  C   4.0   -0.05    4.39    4.37    12.84258    74.03946   145.71488
   396  C   4.0   -0.03    4.33    4.26    12.27566    76.42241   147.13406
   397  C   4.0   -0.01    4.38    4.35    10.12515    75.75911   148.90285
   398  H   1.0    0.06    1.05    1.44    12.09614    70.22789   146.69187
   399  H   1.0    0.04    1.03    1.43    14.79277    74.00356   145.05158
   400  H   1.0    0.04    1.03    1.43    11.55378    73.78246   144.12940
   401  H   1.0    0.06    1.03    1.43    13.93862    77.01767   148.19231
   402  H   1.0    0.04    1.03    1.43    11.71252    77.90206   145.81692
   403  H   1.0    0.05    1.02    1.43    10.39727    76.63406   150.74722
   404  H   1.0    0.05    1.02    1.43     8.31479    76.33926   148.10727
   405  N   5.0   -0.14    3.54    2.11    15.76220    69.60806   149.72866
   406  C   4.0    0.04    4.64    4.71    18.02610    69.42475   151.21965
   407  C   4.0    0.14    3.53    3.13    20.28243    68.92020   149.59071
   408  O   6.0   -0.30    1.29    1.80    20.10101    67.52936   147.71799
   409  C   4.0   -0.02    4.36    4.31    17.80689    67.28936   153.08670
   410  C   4.0   -0.07    4.19    3.98    20.35046    66.78292   154.32258
   411  C   4.0   -0.08    4.16    3.91    15.83779    67.98667   155.01989
   412  H   1.0    0.12    1.15    1.45    15.20851    67.97911   148.85938
   413  H   1.0    0.06    1.09    1.44    18.29066    71.24078   152.15506
   414  H   1.0    0.04    1.06    1.44    17.23619    65.55081   152.13995
   415  H   1.0    0.03    1.00    1.43    20.14826    65.23334   155.66429
   416  H   1.0    0.05    1.02    1.43    21.71484    66.27647   152.86560
   417  H   1.0    0.06    1.00    1.43    20.97029    68.48556   155.30335
   418  H   1.0    0.04    1.00    1.43    15.66394    66.45221   156.38238
   419  H   1.0    0.04    1.00    1.43    16.41983    69.71388   155.97798
   420  H   1.0    0.05    1.01    1.43    14.03688    68.28525   154.06558
   421  N   5.0   -0.14    3.53    2.10    22.38002    70.08427   150.33337
   422  C   4.0    0.04    4.55    4.60    24.82911    69.49845   149.29024
   423  C   4.0    0.14    3.58    3.15    26.20483    67.96399   151.24233
   424  O   6.0   -0.32    1.34    1.80    26.46750    68.79547   153.40795
   425  C   4.0   -0.02    4.34    4.27    26.40703    71.88140   148.91040
   426  C   4.0   -0.07    4.16    3.93    29.19816    71.20676   148.66285
   427  C   4.0   -0.07    4.10    3.81    25.47917    73.37239   146.63329
   428  H   1.0    0.10    1.08    1.44    22.42349    71.46377   151.67885
   429  H   1.0    0.07    1.07    1.44    24.56644    68.49312   147.51201
   430  H   1.0    0.05    1.06    1.44    26.19727    73.09460   150.56203
   431  H   1.0    0.04    1.00    1.43    30.28475    72.93586   148.39451
   432  H   1.0    0.05    1.02    1.43    29.81232    70.25056   150.38061
   433  H   1.0    0.04    1.00    1.43    29.44571    69.96143   147.03958
   434  H   1.0    0.04    1.00    1.43    26.64325    75.05802   146.41597
   435  H   1.0    0.04    1.00    1.43    25.63035    72.19131   144.95143
   436  H   1.0    0.05    1.00    1.43    23.51386    73.91096   146.93942
   437  N   5.0   -0.15    3.46    2.06    27.13835    65.75868   150.51100
   438  C   4.0    0.04    4.56    4.62    28.46872    64.20533   152.35160
   439  C   4.0    0.14    3.52    3.12    31.16347    63.76691   151.50122
   440  O   6.0   -0.30    1.32    1.80    31.60189    62.07183   149.97810
   441  C   4.0   -0.01    4.35    4.29    27.21772    61.62207   152.61238
   442  C   4.0   -0.06    4.20    4.00    28.98840    59.88731   154.01833
   443  C   4.0   -0.08    4.11    3.82    24.64959    61.82805   153.88227
   444  H   1.0    0.10    1.07    1.44    27.00796    65.02925   148.73088
   445  H   1.0    0.06    1.08    1.44    28.50085    65.26547   154.11660
   446  H   1.0    0.05    1.06    1.44    26.85490    60.81705   150.75100
   447  H   1.0    0.05    1.00    1.43    28.10400    58.03726   154.20920
   448  H   1.0    0.08    1.04    1.43    30.74584    59.71912   152.95631
   449  H   1.0    0.05    1.00    1.43    29.36634    60.68099   155.88160
   450  H   1.0    0.04    1.00    1.43    23.82189    59.94778   154.03156
   451  H   1.0    0.04    1.00    1.43    24.89336    62.63875   155.76066
   452  H   1.0    0.05    1.00    1.43    23.43449    63.04126   152.74466
   453  N   5.0   -0.13    3.44    2.04    32.97761    65.24846   152.42530
   454  C   4.0    0.04    4.29    4.19    35.62889    64.76469   151.69586
   455  C   4.0    0.09    3.20    3.04    36.94792    63.15464   153.70275
   456  O   6.0   -0.29    1.19    1.80    36.55108    63.57038   155.97042
   457  C   4.0   -0.04    4.25    4.10    37.18036    67.18921   151.25366
   458  C   4.0   -0.03    4.17    3.94    35.78952    69.71010   150.97210
   459  C   4.0    0.23    3.11    3.03    37.32587    71.61305   149.41496
   460  O   6.0   -0.31    1.22    1.80    38.14034    70.85905   147.32304
   461  O   6.0   -0.31    1.15    1.80    37.74161    73.81836   150.24833
   462  H   1.0    0.11    1.09    1.44    32.69982    66.73000   153.62527
   463  H   1.0    0.06    1.07    1.44    35.58354    63.74424   149.90629
   464  H   1.0    0.06    1.04    1.43    38.45781    67.40652   152.85426
   465  H   1.0    0.06    1.04    1.43    38.26128    66.92464   149.52079
   466  H   1.0    0.04    1.03    1.43    33.99239    69.39263   150.01589
   467  H   1.0    0.05    1.03    1.43    35.46071    70.51701   152.83915
   468  N   5.0   -0.18    3.22    1.96    28.67470    53.73247   139.69043
   469  C   4.0    0.03    4.30    4.20    27.64291    56.24391   139.25579
   470  C   4.0    0.16    3.50    3.12    26.97017    57.84640   141.54614
   471  O   6.0   -0.30    1.30    1.80    26.39191    56.86752   143.53602
   472  C   4.0   -0.05    4.41    4.39    24.90092    56.09463   138.28448
   473  C   4.0   -0.05    4.26    4.12    24.16582    53.80428   136.69900
   474  C   4.0   -0.05    4.18    3.95    24.73273    54.09341   133.87763
   475  C   4.0   -0.03    4.13    3.86    23.83511    51.77660   132.43388
   476  N   5.0   -0.11    4.06    3.04    24.22440    49.46925   134.02503
   477  H   1.0    0.10    1.02    1.43    28.09834    52.85752   141.30804
   478  H   1.0    0.05    1.05    1.44    29.16036    57.04705   138.11818
   479  H   1.0    0.05    1.07    1.44    23.65181    56.10785   139.92098
   480  H   1.0    0.04    1.04    1.43    24.55321    57.75758   137.12040
   481  H   1.0    0.04    1.06    1.44    25.21083    52.16400   137.38119
   482  H   1.0    0.04    1.03    1.43    22.14192    53.48302   136.89931
   483  H   1.0    0.04    1.03    1.43    23.75197    55.74692   133.14064
   484  H   1.0    0.05    1.03    1.43    26.76419    54.29561   133.59796
   485  H   1.0    0.05    1.02    1.43    21.83011    51.95613   132.00114
   486  H   1.0    0.06    1.02    1.43    24.91604    51.57629   130.69345
   487  H   1.0    0.08    1.01    1.43    24.04676    47.85353   132.92143
   488  H   1.0    0.06    1.02    1.43    26.01964    49.49948   134.82628
   489  H   1.0    0.06    1.02    1.43    22.88458    49.41066   135.46311
   490  N   5.0   -0.14    3.52    2.09    26.94938    60.32950   141.17576
   491  C   4.0    0.04    4.47    4.50    27.46906    62.36285   142.93698
   492  C   4.0    0.13    3.48    3.11    25.15603    63.92754   143.50201
   493  O   6.0   -0.32    1.30    1.80    24.84990    64.90642   145.59394
   494  C   4.0    0.05    4.26    4.12    29.49295    64.09950   141.82393
   495  O   6.0   -0.24    2.11    1.84    31.58866    62.56316   141.09261
   496  C   4.0   -0.07    4.09    3.78    30.36034    66.06104   143.75712
   497  H   1.0    0.07    1.08    1.44    26.52419    61.07783   139.45233
   498  H   1.0    0.07    1.06    1.44    28.18337    61.58995   144.70765
   499  H   1.0    0.04    1.04    1.43    28.74273    65.12752   140.20444
   500  H   1.0    0.12    1.01    1.43    32.92470    63.61951   140.36506
   501  H   1.0    0.04    1.00    1.43    31.80031    67.27802   142.92753
   502  H   1.0    0.05    1.00    1.43    28.76352    67.22133   144.34861
   503  H   1.0    0.06    1.00    1.43    31.15024    65.11996   145.41063
   504  N   5.0   -0.14    3.57    2.13    23.53654    64.18832   141.62929
   505  C   4.0    0.04    4.46    4.48    21.35579    65.77758   141.95054
   506  C   4.0    0.15    3.43    3.09    19.08434    64.05415   142.27369
   507  O   6.0   -0.32    1.30    1.80    18.11491    62.99401   140.45010
   508  C   4.0   -0.04    4.26    4.12    21.10824    67.63518   139.72445
   509  C   4.0   -0.05    4.26    4.12    22.20239    66.55237   137.29993
   510  C   4.0   -0.05    4.18    3.96    21.80744    68.20399   134.99446
   511  C   4.0   -0.04    4.14    3.89    21.74130    66.61284   132.57561
   512  N   5.0   -0.11    4.00    2.86    20.49597    68.02069   130.47613
   513  H   1.0    0.07    1.08    1.44    23.69149    63.33605   139.90775
   514  H   1.0    0.07    1.08    1.44    21.51642    66.90953   143.66453
   515  H   1.0    0.05    1.05    1.44    19.11647    68.04903   139.40508
   516  H   1.0    0.04    1.03    1.43    22.12491    69.36995   140.17420
   517  H   1.0    0.04    1.04    1.43    24.23196    66.30103   137.54559
   518  H   1.0    0.05    1.04    1.43    21.30666    64.73445   136.92576
   519  H   1.0    0.04    1.07    1.44    20.01409    69.20365   135.16643
   520  H   1.0    0.05    1.03    1.43    23.35512    69.55325   134.84328
   521  H   1.0    0.04    1.02    1.43    23.66693    66.15553   132.00303
   522  H   1.0    0.03    1.06    1.44    20.67927    64.88185   132.92143
   523  H   1.0    0.06    1.01    1.43    20.46573    66.91520   128.85096
   524  H   1.0    0.05    1.02    1.43    18.64971    68.47422   130.97313
   525  H   1.0    0.08    1.01    1.43    21.48051    69.67986   130.10196
   526  N   5.0   -0.13    3.64    2.20    18.26987    63.71211   144.61506
   527  C   4.0    0.04    4.53    4.58    15.94551    62.30049   145.10639
   528  C   4.0    0.16    3.48    3.11    13.81579    64.10328   145.52780
   529  O   6.0   -0.32    1.38    1.80    14.18617    66.14986   146.56903
   530  C   4.0   -0.03    4.44    4.45    16.21574    60.73201   147.45532
   531  C   4.0   -0.02    3.65    3.20    18.55522    59.27692   147.46854
   532  C   4.0   -0.03    3.61    3.17    20.85880    60.52414   147.22855
   533  C   4.0   -0.04    3.48    3.10    18.49286    56.69178   147.58760
   534  C   4.0   -0.02    3.38    3.07    23.11135    59.20889   147.14162
   535  C   4.0   -0.03    3.38    3.07    20.73407    55.34629   147.52335
   536  C   4.0   -0.02    3.41    3.08    23.05466    56.59918   147.30603
   537  H   1.0    0.10    1.13    1.45    19.15804    64.37540   146.19109
   538  H   1.0    0.06    1.08    1.44    15.53544    61.07972   143.49823
   539  H   1.0    0.05    1.04    1.43    16.22141    61.97356   149.09938
   540  H   1.0    0.05    1.04    1.44    14.63782    59.41298   147.57248
   541  H   1.0    0.07    1.09    1.44    20.88525    62.56127   147.10761
   542  H   1.0    0.06    1.03    1.43    16.70896    55.71101   147.73122
   543  H   1.0    0.07    1.03    1.43    24.88580    60.19911   146.94887
   544  H   1.0    0.06    1.03    1.43    20.69250    53.30917   147.64240
   545  H   1.0    0.08    1.03    1.43    24.79509    55.53338   147.26634
   546  N   5.0   -0.13    3.57    2.13    11.57646    63.34361   144.71710
   547  C   4.0    0.04    4.51    4.55     9.29178    64.64941   145.46543
   548  C   4.0    0.15    3.50    3.11     8.45274    63.35495   147.83137
   549  O   6.0   -0.30    1.30    1.80     9.15761    61.20444   148.23388
   550  C   4.0   -0.05    4.40    4.38     7.28111    64.34517   143.46044
   551  C   4.0   -0.03    4.24    4.07     7.78756    66.16497   141.28725
   552  C   4.0   -0.07    4.08    3.77     6.62916    65.30704   138.76825
   553  C   4.0   -0.08    4.11    3.82     6.99010    68.81815   142.07338
   554  H   1.0    0.11    1.11    1.45    11.28922    61.83939   143.54736
   555  H   1.0    0.05    1.07    1.44     9.57902    66.67142   145.73944
   556  H   1.0    0.05    1.03    1.43     7.31135    62.41765   142.73478
   557  H   1.0    0.04    1.03    1.43     5.43107    64.76658   144.26357
   558  H   1.0    0.04    1.12    1.45     9.80957    66.19521   140.89041
   559  H   1.0    0.04    1.00    1.43     7.07135    66.70166   137.31694
   560  H   1.0    0.05    1.00    1.43     7.42662    63.47967   138.25235
   561  H   1.0    0.05    1.00    1.43     4.58825    65.14641   138.98934
   562  H   1.0    0.04    1.00    1.43     7.35292    70.11639   140.51624
   563  H   1.0    0.04    1.00    1.43     4.98132    68.80870   142.52502
   564  H   1.0    0.04    1.00    1.43     8.08047    69.38318   143.72689
   565  N   5.0   -0.13    3.53    2.10     7.02033    64.64563   149.43575
   566  C   4.0    0.04    4.53    4.58     6.10759    63.52503   151.79980
   567  C   4.0    0.13    3.49    3.11     3.41096    64.49446   152.13995
   568  O   6.0   -0.32    1.29    1.80     2.74388    66.51268   151.09304
   569  C   4.0   -0.02    4.25    4.09     8.11826    63.46456   153.93330
   570  C   4.0   -0.07    4.13    3.85     8.84770    60.77170   154.57391
   571  C   4.0   -0.06    4.18    3.95    10.45396    64.99712   153.26433
   572  H   1.0    0.11    1.08    1.44     6.45530    66.46733   149.16174
   573  H   1.0    0.04    1.16    1.46     5.78256    61.49168   151.83570
   574  H   1.0    0.04    1.06    1.44     7.27167    64.33194   155.59814
   575  H   1.0    0.04    1.00    1.43    10.25932    60.79815   156.07436
   576  H   1.0    0.04    1.00    1.43     7.17151    59.75502   155.20508
   577  H   1.0    0.06    1.00    1.43     9.62437    59.87030   152.89395
   578  H   1.0    0.03    1.00    1.43    11.79567    64.88941   154.82336
   579  H   1.0    0.06    1.01    1.43    11.29867    64.22045   151.55413
   580  H   1.0    0.08    1.05    1.44     9.90216    66.95677   152.94686
   581  N   5.0   -0.10    3.61    2.17     1.88784    63.06771   153.65173
   582  C   4.0    0.03    4.50    4.54    -0.41574    63.53448   155.08414
   583  C   4.0    0.15    3.41    3.08    -0.24000    65.55270   157.15906
   584  O   6.0   -0.30    1.26    1.80     1.62516    65.75112   158.55179
   585  C   4.0   -0.04    4.35    4.30    -0.95998    60.95122   156.30112
   586  C   4.0   -0.04    4.28    4.15     0.24755    59.03882   154.62683
   587  C   4.0   -0.02    4.49    4.52     1.95020    60.41643   152.79946
   588  H   1.0    0.04    1.06    1.44    -1.85760    64.12407   153.73676
   589  H   1.0    0.06    1.03    1.43    -0.14173    60.88886   158.19085
   590  H   1.0    0.05    1.03    1.43    -2.99522    60.64886   156.40506
   591  H   1.0    0.05    1.03    1.43     1.34737    57.73113   155.77767
   592  H   1.0    0.05    1.03    1.43    -1.21698    58.01648   153.60259
   593  H   1.0    0.04    1.05    1.44     3.86827    59.66999   152.89584
   594  H   1.0    0.04    1.02    1.43     1.22832    60.25769   150.87761
   595  N   5.0   -0.15    3.45    2.04    -2.27523    66.97945   157.40094
   596  C   4.0    0.04    4.33    4.26    -2.29602    69.10917   159.08091
   597  C   4.0    0.09    3.24    3.04    -1.42485    68.30414   161.74164
   598  O   6.0   -0.33    1.60    1.81    -0.34771    69.82726   163.13059
   599  C   4.0   -0.04    4.26    4.11    -4.74510    70.63985   158.66895
   600  C   4.0   -0.03    4.23    4.06    -4.56558    73.35160   159.54578
   601  C   4.0    0.16    3.23    3.04    -6.03578    75.12417   157.82991
   602  O   6.0   -0.25    1.20    1.80    -8.35826    75.19597   157.89038
   603  N   5.0   -0.18    3.17    1.95    -4.68085    76.54902   156.27278
   604  H   1.0    0.08    1.06    1.44    -3.93063    66.69977   156.45419
   605  H   1.0    0.05    1.09    1.44    -0.91652    70.58504   158.67651
   606  H   1.0    0.06    1.04    1.43    -5.18541    70.65685   156.65639
   607  H   1.0    0.06    1.03    1.43    -6.27389    69.74034   159.71586
   608  H   1.0    0.06    1.03    1.43    -5.34037    73.50278   161.44874
   609  H   1.0    0.04    1.04    1.43    -2.59081    73.93742   159.54011
   610  H   1.0    0.08    1.03    1.43    -2.75711    76.41674   156.27278
   611  H   1.0    0.11    1.02    1.43    -5.56335    77.77545   155.07658
   612  N   5.0   -0.20    3.24    1.96    11.26844    58.96890   170.36635
   613  C   4.0    0.03    4.32    4.23    13.84980    58.47757   169.66149
   614  C   4.0    0.09    3.24    3.04    14.48286    55.69589   169.88069
   615  O   6.0   -0.28    1.13    1.80    15.80378    54.69434   168.24797
   616  C   4.0   -0.04    4.49    4.52    15.59213    59.86841   171.39625
   617  C   4.0   -0.04    4.10    3.81    15.59024    62.63308   170.84256
   618  S   6.0   -0.06    2.57    3.10    17.84846    63.29070   168.38970
   619  C   4.0   -0.06    3.91    3.47    20.60557    61.47467   169.25708
   620  H   1.0    0.09    1.03    1.43    11.04356    60.44855   171.58145
   621  H   1.0    0.04    1.07    1.44    14.09925    59.12952   167.72263
   622  H   1.0    0.05    1.04    1.43    14.97986    59.59251   173.34456
   623  H   1.0    0.05    1.10    1.44    17.51020    59.15598   171.15248
   624  H   1.0    0.04    1.08    1.44    13.72130    63.21700   170.20384
   625  H   1.0    0.04    1.07    1.44    16.11558    63.68565   172.53387
   626  H   1.0    0.04    1.04    1.43    22.07767    61.77514   167.84735
   627  H   1.0    0.05    1.04    1.43    21.26698    62.10017   171.10524
   628  H   1.0    0.05    1.05    1.44    20.09913    59.47912   169.33078
   629  N   5.0   -0.18    3.21    1.96    12.24542    52.90477   164.17372
   630  C   4.0    0.04    4.30    4.20    13.86681    53.87987   162.21030
   631  C   4.0    0.10    3.29    3.05    16.40471    52.64588   162.27833
   632  O   6.0   -0.26    1.12    1.80    17.32501    51.69156   160.32435
   633  C   4.0   -0.04    4.38    4.35    14.34680    56.66721   162.36147
   634  C   4.0   -0.01    3.56    3.15    15.64504    57.66688   160.03144
   635  C   4.0   -0.03    3.48    3.11    14.89671    56.89776   157.61826
   636  C   4.0   -0.04    3.46    3.10    17.60847    59.36574   160.21097
   637  C   4.0   -0.03    3.37    3.07    16.08913    57.83128   155.46397
   638  C   4.0   -0.05    3.37    3.07    18.78388    60.35218   158.03778
   639  C   4.0   -0.04    3.35    3.06    18.05633    59.55471   155.66618
   640  H   1.0    0.09    1.02    1.43    11.34402    54.23325   165.24142
   641  H   1.0    0.05    1.07    1.44    12.83691    53.49625   160.46797
   642  H   1.0    0.04    1.04    1.43    12.54967    57.65176   162.56745
   643  H   1.0    0.05    1.04    1.43    15.55244    57.05650   163.98475
   644  H   1.0    0.06    1.03    1.43    13.36981    55.55794   157.41984
   645  H   1.0    0.05    1.03    1.43    18.25853    59.95156   162.05345
   646  H   1.0    0.05    1.03    1.43    15.47686    57.20767   153.61960
   647  H   1.0    0.04    1.03    1.43    20.26542    61.74302   158.22864
   648  H   1.0    0.05    1.03    1.43    18.99930    60.25769   153.99755
   649  N   5.0   -0.19    3.20    1.96    30.49451    57.67066   170.85201
   650  C   4.0    0.03    4.40    4.39    29.64224    59.26370   168.76576
   651  C   4.0    0.14    3.42    3.09    29.26997    61.93010   169.77298
   652  O   6.0   -0.30    1.21    1.80    27.45961    62.44032   171.21106
   653  C   4.0   -0.04    4.41    4.40    27.19883    58.26592   167.64893
   654  C   4.0   -0.02    4.26    4.11    26.40703    59.87408   165.41527
   655  C   4.0   -0.06    4.20    4.01    28.61990    59.90242   163.60113
   656  C   4.0   -0.07    4.11    3.82    24.05999    58.83473   164.11703
   657  H   1.0    0.11    1.02    1.43    29.36634    57.71790   172.41482
   658  H   1.0    0.05    1.08    1.44    31.08221    59.30149   167.29366
   659  H   1.0    0.05    1.03    1.43    27.47473    56.32895   167.00642
   660  H   1.0    0.06    1.03    1.43    25.71161    58.33206   169.07189
   661  H   1.0    0.05    1.06    1.44    25.91759    61.77703   166.03132
   662  H   1.0    0.05    1.00    1.43    28.12668    61.04382   161.95896
   663  H   1.0    0.07    1.04    1.43    30.25640    60.71123   164.55356
   664  H   1.0    0.05    1.00    1.43    29.03186    57.97112   163.01532
   665  H   1.0    0.04    1.01    1.43    23.57433    60.05549   162.52966
   666  H   1.0    0.05    1.00    1.43    24.45494    56.92988   163.44240
   667  H   1.0    0.04    1.00    1.43    22.50853    58.79315   165.47007
   668  N   5.0   -0.14    3.43    2.03    31.03497    63.58361   169.05110
   669  C   4.0    0.04    4.44    4.44    31.18426    66.20466   170.00353
   670  C   4.0    0.15    3.48    3.11    30.20160    68.15297   168.18939
   671  O   6.0   -0.31    1.30    1.80    30.87812    68.16430   165.91227
   672  C   4.0   -0.04    4.47    4.49    33.89412    66.95110   170.51753
   673  C   4.0   -0.02    4.24    4.09    35.17536    65.29948   172.44694
   674  C   4.0   -0.05    4.13    3.85    37.99672    65.32405   171.95939
   675  C   4.0   -0.05    4.14    3.89    34.54797    66.38418   175.02831
   676  H   1.0    0.10    1.07    1.44    32.42392    63.16598   167.78121
   677  H   1.0    0.07    1.07    1.44    30.00507    66.21789   171.69294
   678  H   1.0    0.05    1.04    1.43    34.96371    66.82071   168.76198
   679  H   1.0    0.05    1.05    1.44    33.92814    68.88807   171.21862
   680  H   1.0    0.06    1.06    1.44    34.54797    63.33983   172.35812
   681  H   1.0    0.06    1.00    1.43    38.92835    64.12785   173.35401
   682  H   1.0    0.06    1.00    1.43    38.35577    64.60217   170.06400
   683  H   1.0    0.07    1.00    1.43    38.68836    67.25724   172.11813
   684  H   1.0    0.06    1.00    1.43    35.44937    65.23145   176.47773
   685  H   1.0    0.06    1.00    1.43    35.25095    68.31737   175.13224
   686  H   1.0    0.06    1.00    1.43    32.50518    66.36529   175.28531
   687  N   5.0   -0.14    3.51    2.09    28.69738    69.87451   169.20984
   688  C   4.0    0.04    4.61    4.67    27.86401    71.95509   167.69428
   689  C   4.0    0.15    3.52    3.12    30.00129    73.85805   167.49964
   690  O   6.0   -0.32    1.29    1.80    31.09544    74.66496   169.40826
   691  C   4.0   -0.02    4.31    4.22    25.44138    73.12484   168.67883
   692  C   4.0   -0.07    4.18    3.95    24.80454    75.40951   167.09146
   693  C   4.0   -0.08    4.14    3.89    23.31166    71.21054   168.46907
   694  H   1.0    0.10    1.08    1.44    28.05676    69.85939   171.02776
   695  H   1.0    0.05    1.08    1.44    27.43504    71.26534   165.80078
   696  H   1.0    0.05    1.06    1.44    25.67004    73.68419   170.64792
   697  H   1.0    0.04    1.00    1.43    23.06222    76.25233   167.79822
   698  H   1.0    0.07    1.03    1.43    26.34656    76.76823   167.22374
   699  H   1.0    0.05    1.00    1.43    24.55510    74.81803   165.13370
   700  H   1.0    0.03    1.00    1.43    21.57500    72.05903   169.17961
   701  H   1.0    0.04    1.00    1.43    23.07733    70.68142   166.49242
   702  H   1.0    0.04    1.00    1.43    23.78976    69.54947   169.58779
   703  N   5.0   -0.14    3.52    2.09    30.61734    74.48922   165.14126
   704  C   4.0    0.04    4.44    4.44    32.51085    76.37516   164.54978
   705  C   4.0    0.15    3.50    3.12    35.08276    75.48699   165.39259
   706  O   6.0   -0.30    1.28    1.80    36.80241    76.99877   165.64771
   707  C   4.0   -0.02    4.35    4.29    31.88346    78.89984   165.84424
   708  C   4.0    0.16    3.22    3.04    29.44760    80.07525   164.85969
   709  O   6.0   -0.30    1.21    1.80    27.58622    80.31335   166.26187
   710  N   5.0   -0.18    3.16    1.95    29.43626    80.80846   162.42950
   711  H   1.0    0.10    1.07    1.44    29.80854    73.69931   163.58035
   712  H   1.0    0.05    1.06    1.44    32.55242    76.70398   162.51643
   713  H   1.0    0.07    1.04    1.43    31.66614    78.58236   167.86814
   714  H   1.0    0.05    1.03    1.43    33.41791    80.23020   165.50220
   715  H   1.0    0.10    1.02    1.43    27.85456    81.60782   161.67172
   716  H   1.0    0.08    1.02    1.43    31.00851    80.56658   161.34291
   717  N   5.0   -0.13    3.53    2.10    35.34732    73.02279   165.81967
   718  C   4.0    0.05    4.45    4.45    37.65846    71.96832   166.89304
   719  C   4.0    0.15    3.43    3.09    38.23294    72.91508   169.51409
   720  O   6.0   -0.26    1.27    1.80    40.16046    72.21588   170.61391
   721  C   4.0   -0.02    4.33    4.25    39.87133    71.99478   165.02977
   722  C   4.0    0.17    3.26    3.05    42.31474    70.96866   166.15604
   723  O   6.0   -0.26    1.21    1.80    42.37899    68.83516   167.08768
   724  N   5.0   -0.16    3.17    1.95    44.33108    72.45965   166.05400
   725  H   1.0    0.10    1.07    1.44    33.99239    71.70565   165.44173
   726  H   1.0    0.05    1.08    1.44    37.33910    69.95765   167.20862
   727  H   1.0    0.06    1.10    1.44    39.38756    70.83071   163.40082
   728  H   1.0    0.06    1.04    1.43    40.21715    73.93553   164.43072
   729  H   1.0    0.12    1.02    1.43    46.01105    71.85872   166.78154
   730  H   1.0    0.09    1.02    1.43    44.19880    74.20576   165.24709
   731  N   5.0   -0.13    3.51    2.08    36.56998    74.51189   170.50808
   732  C   4.0    0.04    4.40    4.37    37.06508    75.81014   172.86646
   733  C   4.0    0.14    3.36    3.07    35.48716    74.89740   175.10579
   734  O   6.0   -0.28    1.23    1.80    36.35455    74.96732   177.24685
   735  C   4.0   -0.04    4.27    4.14    38.23294    78.43308   172.34679
   736  C   4.0   -0.04    4.18    3.96    36.56053    80.33603   170.94083
   737  C   4.0   -0.04    4.16    3.93    37.55074    83.02322   171.24697
   738  C   4.0   -0.03    4.13    3.87    36.64557    84.14950   173.74140
   739  N   5.0   -0.11    3.98    2.82    38.63167    85.48742   175.23429
   740  H   1.0    0.11    1.11    1.45    34.86544    74.93897   169.71440
   741  H   1.0    0.07    1.22    1.47    38.65623    75.54179   174.14581
   742  H   1.0    0.05    1.03    1.43    38.72615    79.28345   174.15714
   743  H   1.0    0.06    1.03    1.43    39.92991    78.16473   171.20917
   744  H   1.0    0.06    1.03    1.43    36.53974    79.87683   168.93394
   745  H   1.0    0.04    1.03    1.43    34.64813    80.25855   171.70050
   746  H   1.0    0.05    1.03    1.43    39.61055    83.00621   171.24319
   747  H   1.0    0.05    1.03    1.43    36.85344    84.19674   169.70495
   748  H   1.0    0.05    1.02    1.43    35.15268    85.51199   173.34078
   749  H   1.0    0.04    1.03    1.43    35.91046    82.62638   174.91870
   750  H   1.0    0.07    1.01    1.43    37.86066    86.19418   176.89725
   751  H   1.0    0.07    1.01    1.43    40.08676    84.24398   175.68404
   752  H   1.0    0.08    1.01    1.43    39.36866    86.98031   174.18738
   753  N   5.0   -0.12    3.55    2.11    33.18170    74.03379   174.66548
   754  C   4.0    0.04    4.24    4.08    30.78742    74.31536   176.01852
   755  C   4.0    0.08    3.26    3.05    30.15247    71.50156   176.25474
   756  O   6.0   -0.32    1.18    1.80    29.64224    70.20143   174.38580
   757  C   4.0    0.04    4.13    3.85    29.05832    76.13895   174.57666
   758  O   6.0   -0.25    2.04    1.83    27.23473    77.24444   176.18482
   759  H   1.0    0.10    1.10    1.44    32.83966    72.93964   173.11590
   760  H   1.0    0.05    1.07    1.44    30.70238    75.16952   177.89124
   761  H   1.0    0.05    1.02    1.43    30.21105    77.63372   173.75274
   762  H   1.0    0.06    1.02    1.43    28.08700    75.09582   173.08945
   763  H   1.0    0.11    1.01    1.43    25.85145    77.95686   175.17949
   764  N   5.0   -0.17    3.23    1.96    24.55321    67.39330   179.39168
   765  C   4.0    0.04    4.33    4.25    21.90570    68.13596   179.73939
   766  C   4.0    0.09    3.21    3.04    20.20495    66.14041   180.93937
   767  O   6.0   -0.24    1.12    1.80    21.04399    64.01447   181.45149
   768  C   4.0   -0.03    4.31    4.21    20.77187    68.97689   177.22795
   769  C   4.0   -0.07    4.15    3.90    22.18349    71.27290   176.25285
   770  C   4.0   -0.07    4.17    3.93    20.96462    66.88307   175.29854
   771  H   1.0    0.10    1.02    1.43    24.81966    65.75868   178.40525
   772  H   1.0    0.06    1.06    1.44    21.95484    69.63451   181.15102
   773  H   1.0    0.04    1.06    1.44    18.78766    69.44743   177.51519
   774  H   1.0    0.04    1.00    1.43    21.35579    71.85683   174.45950
   775  H   1.0    0.05    1.00    1.43    22.01909    72.79602   177.63046
   776  H   1.0    0.05    1.01    1.43    24.16582    70.77780   175.98451
   777  H   1.0    0.04    1.00    1.43    20.14259    67.52936   173.52409
   778  H   1.0    0.05    1.01    1.43    22.94883    66.40686   175.02264
   779  H   1.0    0.05    1.00    1.43    19.93661    65.23712   175.99018
   780  N   5.0   -0.18    3.24    1.97     7.92551    62.69733   177.21472
   781  C   4.0    0.04    4.29    4.18     7.15450    65.17476   176.44749
   782  C   4.0    0.16    3.45    3.09     6.19074    65.11996   173.75463
   783  O   6.0   -0.30    1.27    1.80     7.54568    64.29793   172.08411
   784  C   4.0   -0.06    4.14    3.89     9.38816    66.93031   176.65347
   785  H   1.0    0.09    1.03    1.43     9.52989    62.11340   176.32088
   786  H   1.0    0.07    1.06    1.44     5.60304    65.82860   177.63424
   787  H   1.0    0.06    1.00    1.43     8.81179    68.82004   176.07144
   788  H   1.0    0.06    1.00    1.43    10.03633    66.96433   178.60934
   789  H   1.0    0.05    1.00    1.43    10.89427    66.24623   175.42704
   790  N   5.0   -0.12    3.47    2.06     3.86071    65.99112   173.33133
   791  C   4.0    0.04    4.43    4.43     2.78546    66.17064   170.77453
   792  C   4.0    0.17    3.52    3.12     4.60715    67.70132   169.17394
   793  O   6.0   -0.31    1.40    1.80     5.84681    69.44554   170.10935
   794  C   4.0    0.05    4.19    3.98     0.15118    67.50101   170.69517
   795  O   6.0   -0.25    2.15    1.85     0.43653    70.20332   170.52320
   796  C   4.0   -0.05    4.08    3.76    -1.49288    66.85283   172.99307
   797  H   1.0    0.10    1.09    1.44     2.66073    66.59016   174.71650
   798  H   1.0    0.05    1.05    1.44     2.49633    64.26391   170.04888
   799  H   1.0    0.05    1.04    1.43    -0.83148    66.81126   169.02276
   800  H   1.0    0.12    1.01    1.43    -1.20187    71.03102   170.77264
   801  H   1.0    0.07    1.00    1.43    -3.30702    67.82037   172.85701
   802  H   1.0    0.06    1.00    1.43    -1.82359    64.82138   173.07244
   803  H   1.0    0.07    1.01    1.43    -0.54802    67.44432   174.72406
   804  N   5.0   -0.15    3.49    2.07     4.76400    67.02480   166.76454
   805  C   4.0    0.03    4.50    4.54     6.45152    68.28903   165.00331
   806  C   4.0    0.15    3.52    3.13     5.70508    70.99889   164.73308
   807  O   6.0   -0.32    1.29    1.80     7.33025    72.62595   164.49308
   808  C   4.0   -0.04    4.38    4.35     6.37783    67.04181   162.41439
   809  C   4.0   -0.04    4.07    3.74     8.11637    64.77792   162.16683
   810  S   6.0   -0.06    2.53    3.10    11.42339    65.61506   162.19707
   811  C   4.0   -0.07    3.90    3.46    12.75754    62.65386   163.13437
   812  H   1.0    0.08    1.06    1.44     3.74166    65.59806   165.96707
   813  H   1.0    0.05    1.09    1.44     8.37338    68.11895   165.72708
   814  H   1.0    0.06    1.04    1.43     4.45597    66.40119   162.04400
   815  H   1.0    0.05    1.05    1.44     6.94474    68.42509   160.99709
   816  H   1.0    0.04    1.07    1.44     7.77244    63.49668   163.74286
   817  H   1.0    0.04    1.07    1.44     7.72142    63.82360   160.38482
   818  H   1.0    0.04    1.04    1.43    14.80600    62.84662   163.24398
   819  H   1.0    0.04    1.04    1.43    12.00165    62.13041   164.97685
   820  H   1.0    0.04    1.05    1.44    12.26054    61.22334   161.73975
   821  N   5.0   -0.13    3.64    2.20     3.22954    71.44865   164.73308
   822  C   4.0    0.04    4.37    4.34     2.22232    74.00356   164.84646
   823  C   4.0    0.16    3.53    3.13     3.67552    75.41896   166.89871
   824  O   6.0   -0.30    1.31    1.80     4.83392    77.40506   166.42816
   825  C   4.0   -0.06    4.17    3.94    -0.61227    73.96765   165.42283
   826  H   1.0    0.13    1.31    1.50     1.87461    70.08049   164.65560
   827  H   1.0    0.05    1.05    1.44     2.42263    74.95031   163.02855
   828  H   1.0    0.05    1.00    1.43    -1.30580    75.90651   165.49464
   829  H   1.0    0.07    1.05    1.44    -1.58548    72.92830   163.93562
   830  H   1.0    0.06    1.00    1.43    -0.91652    73.04358   167.23886
   831  N   5.0   -0.13    3.53    2.10     3.67552    74.32103   169.15315
   832  C   4.0    0.04    4.43    4.42     4.92841    75.48321   171.24697
   833  C   4.0    0.17    3.46    3.10     7.57969    76.38083   170.43627
   834  O   6.0   -0.29    1.27    1.80     8.13338    78.62961   170.59690
   835  C   4.0   -0.04    4.27    4.13     4.88494    73.71632   173.55432
   836  C   4.0   -0.02    4.18    3.95     2.45286    73.94120   175.10957
   837  C   4.0    0.25    3.11    3.02     1.74044    71.59038   176.62513
   838  O   6.0   -0.29    1.22    1.80     3.31269    69.85939   176.94827
   839  O   6.0   -0.25    1.17    1.80    -0.44409    71.47321   177.51897
   840  H   1.0    0.11    1.11    1.45     2.82514    72.64107   169.56133
   841  H   1.0    0.06    1.07    1.44     3.92307    77.16696   171.87813
   842  H   1.0    0.08    1.06    1.44     5.04746    71.76801   172.90614
   843  H   1.0    0.05    1.03    1.43     6.47042    74.18308   174.78264
   844  H   1.0    0.06    1.03    1.43     2.67774    75.49077   176.44749
   845  H   1.0    0.06    1.03    1.43     0.89384    74.33993   173.82455
   846  N   5.0   -0.14    3.62    2.18     9.13305    74.70087   169.39692
   847  C   4.0    0.03    4.51    4.55    11.78244    75.33015   168.79032
   848  C   4.0    0.15    3.45    3.09    12.02811    77.36538   166.77965
   849  O   6.0   -0.33    1.29    1.80    13.92350    78.71842   166.63603
   850  C   4.0   -0.02    4.35    4.29    13.24509    73.05681   167.71885
   851  C   4.0   -0.05    4.25    4.09    11.79189    70.54725   168.04010
   852  C   4.0   -0.08    4.08    3.76    15.95307    73.02657   168.69961
   853  C   4.0   -0.06    4.16    3.92    10.59380    69.97844   170.58934
   854  H   1.0    0.09    1.16    1.46     8.63794    72.89240   168.94528
   855  H   1.0    0.05    1.06    1.44    12.54022    75.95376   170.60068
   856  H   1.0    0.05    1.08    1.44    13.39060    73.28357   165.67605
   857  H   1.0    0.06    1.06    1.44    10.26499    70.53024   166.65871
   858  H   1.0    0.04    1.03    1.43    13.10903    69.01090   167.65460
   859  H   1.0    0.03    1.00    1.43    16.93572    71.39763   167.90782
   860  H   1.0    0.05    1.00    1.43    16.89604    74.76512   168.12136
   861  H   1.0    0.04    1.00    1.43    15.92094    72.89618   170.75564
   862  H   1.0    0.07    1.02    1.43     9.64894    68.15108   170.49296
   863  H   1.0    0.04    1.00    1.43    12.06779    69.93309   172.02742
   864  H   1.0    0.06    1.09    1.44     9.22564    71.45432   171.03154
   865  N   5.0   -0.13    3.50    2.08    10.08358    77.51278   165.19984
   866  C   4.0    0.04    4.48    4.51    10.00988    79.24566   163.05500
   867  C   4.0    0.16    3.51    3.12     9.25399    81.97064   163.50287
   868  O   6.0   -0.31    1.26    1.80     9.76421    83.66951   161.96463
   869  C   4.0   -0.03    4.46    4.47     7.87071    78.55969   161.24276
   870  C   4.0   -0.01    3.64    3.19     8.24298    79.90328   158.78611
   871  C   4.0   -0.05    3.51    3.12    10.54467    79.67085   157.52944
   872  C   4.0   -0.03    3.45    3.09     6.37405    81.45097   157.73731
   873  C   4.0   -0.04    3.46    3.10    10.99632    80.88972   155.28445
   874  C   4.0   -0.04    3.40    3.08     6.80679    82.69630   155.46964
   875  C   4.0    0.07    3.44    3.09     9.13871    82.41095   154.25455
   876  O   6.0   -0.24    2.10    1.84     9.69240    83.60903   152.00011
   877  H   1.0    0.12    1.11    1.44     8.49243    76.43564   165.35480
   878  H   1.0    0.05    1.06    1.44    11.94685    79.07558   162.37281
   879  H   1.0    0.04    1.03    1.43     7.87449    76.52823   160.89883
   880  H   1.0    0.06    1.05    1.44     6.06413    79.13416   162.04967
   881  H   1.0    0.04    1.03    1.43    12.00921    78.50300   158.34014
   882  H   1.0    0.06    1.03    1.43     4.58636    81.67773   158.69541
   883  H   1.0    0.08    1.06    1.44    12.78589    80.66295   154.33203
   884  H   1.0    0.06    1.03    1.43     5.35737    83.87549   154.64950
   885  H   1.0    0.14    1.07    1.44    11.22497    82.88338   151.25744
   886  N   5.0   -0.14    3.49    2.07     7.89716    82.27867   165.58913
   887  C   4.0    0.03    4.36    4.31     7.66284    84.47642   167.19917
   888  C   4.0    0.16    3.44    3.09    10.11948    85.46475   168.38781
   889  O   6.0   -0.27    1.23    1.80    10.73553    87.70596   168.14970
   890  C   4.0   -0.03    4.37    4.34     5.96964    83.73754   169.43850
   891  C   4.0   -0.04    4.26    4.13     4.90951    85.85592   171.04665
   892  C   4.0    0.00    4.19    3.97     2.04279    85.60081   171.31122
   893  N   5.0   -0.13    3.35    2.00     1.03935    83.54856   172.91748
   894  C   4.0    0.10    3.33    3.06     2.29791    82.14828   174.60501
   895  N   5.0   -0.17    3.24    1.96     1.04880    80.39461   175.90136
   896  N   5.0   -0.15    3.34    2.00     4.75833    82.45819   175.02075
   897  H   1.0    0.11    1.11    1.44     6.80301    80.85948   166.29966
   898  H   1.0    0.06    1.05    1.44     6.92018    85.96552   165.98597
   899  H   1.0    0.06    1.05    1.44     4.35771    82.69252   168.69395
   900  H   1.0    0.09    1.07    1.44     7.07324    82.53189   170.69328
   901  H   1.0    0.06    1.10    1.44     5.75044    85.78033   172.92504
   902  H   1.0    0.06    1.03    1.43     5.32714    87.66817   170.16037
   903  H   1.0    0.06    1.03    1.43     1.32659    87.36392   172.09923
   904  H   1.0    0.05    1.03    1.43     1.26423    85.30412   169.42716
   905  H   1.0    0.09    1.06    1.44    -0.83526    83.15172   172.71528
   906  H   1.0    0.10    1.02    1.43    -0.83715    80.13572   175.60089
   907  H   1.0    0.10    1.03    1.43     1.97665    79.30991   177.19582
   908  H   1.0    0.10    1.16    1.46     5.74099    83.79423   174.03998
   909  H   1.0    0.11    1.03    1.43     5.66162    81.35837   176.32088
   910  N   5.0   -0.12    3.53    2.10    11.58969    83.77722   169.51598
   911  C   4.0    0.05    4.46    4.48    13.73264    84.66539   170.98240
   912  C   4.0    0.16    3.37    3.07    15.88693    85.38160   169.20984
   913  O   6.0   -0.25    1.22    1.80    16.94328    87.44707   169.46873
   914  C   4.0   -0.02    4.30    4.19    14.01610    83.03645   173.33133
   915  C   4.0    0.26    3.15    3.03    11.63882    83.01755   174.94705
   916  O   6.0   -0.28    1.29    1.80     9.56012    82.57347   173.91526
   917  O   6.0   -0.24    1.17    1.80    11.84480    83.48431   177.26007
   918  H   1.0    0.11    1.06    1.44    11.35536    81.86482   169.45173
   919  H   1.0    0.08    1.10    1.44    13.55689    86.46630   171.96506
   920  H   1.0    0.05    1.09    1.44    14.41861    81.09759   172.76253
   921  H   1.0    0.07    1.03    1.43    15.56189    83.76966   174.47651
   922  N   5.0   -0.14    3.51    2.09    16.54077    83.72242   167.42594
   923  C   4.0    0.04    4.40    4.38    19.02765    83.59770   166.21274
   924  C   4.0    0.15    3.45    3.10    18.95773    83.68462   163.35169
   925  O   6.0   -0.29    1.28    1.80    20.89659    83.24621   162.10447
   926  C   4.0   -0.02    4.35    4.28    20.48463    81.24121   167.02532
   927  C   4.0   -0.01    3.57    3.15    20.09346    80.48154   169.74085
   928  C   4.0   -0.05    3.54    3.14    17.85413    79.35148   170.50052
   929  C   4.0   -0.03    3.47    3.10    21.96806    80.86326   171.54365
   930  C   4.0   -0.04    3.51    3.12    17.46296    78.64095   172.96284
   931  C   4.0   -0.04    3.43    3.09    21.60524    80.13761   174.03242
   932  C   4.0    0.07    3.47    3.10    19.33190    79.02456   174.71650
   933  O   6.0   -0.23    2.11    1.84    18.85758    78.28946   177.15803
   934  H   1.0    0.10    1.08    1.44    15.33513    82.37882   166.74942
   935  H   1.0    0.08    1.07    1.44    20.05566    85.26443   166.85335
   936  H   1.0    0.05    1.04    1.43    19.88559    79.66140   165.84613
   937  H   1.0    0.07    1.04    1.43    22.49719    81.59270   166.76265
   938  H   1.0    0.08    1.07    1.44    16.38581    79.02267   169.12291
   939  H   1.0    0.06    1.03    1.43    23.72929    81.73632   170.99563
   940  H   1.0    0.06    1.03    1.43    15.69417    77.78490   173.51653
   941  H   1.0    0.06    1.03    1.43    23.07166    80.43430   175.42137
   942  H   1.0    0.13    1.02    1.43    20.32589    78.65606   178.22572
   943  N   5.0   -0.13    3.48    2.07    16.75242    84.21753   162.28211
   944  C   4.0    0.04    4.42    4.42    16.62959    84.75988   159.56657
   945  C   4.0    0.17    3.60    3.17    18.74986    86.59102   158.95808
   946  O   6.0   -0.26    1.29    1.80    18.90482    88.60169   160.09380
   947  C   4.0   -0.03    4.39    4.37    14.04822    85.86159   158.90328
   948  C   4.0   -0.03    4.25    4.10    14.02177    88.24642   157.32346
   949  C   4.0   -0.04    4.21    4.01    11.76732    89.79411   158.17006
   950  C   4.0   -0.02    4.21    4.02    11.79189    90.09457   161.04622
   951  N   5.0   -0.11    3.99    2.84     9.34092    89.44451   162.27644
   952  H   1.0    0.09    1.06    1.44    15.06301    84.28934   163.20618
   953  H   1.0    0.05    1.06    1.44    16.83746    83.05157   158.43462
   954  H   1.0    0.05    1.04    1.43    12.99942    84.43485   157.85070
   955  H   1.0    0.06    1.11    1.44    13.07312    86.29811   160.66450
   956  H   1.0    0.08    1.06    1.44    15.74898    89.32735   157.62771
   957  H   1.0    0.06    1.03    1.43    13.82335    87.78155   155.32602
   958  H   1.0    0.06    1.03    1.43    11.84858    91.66494   157.31024
   959  H   1.0    0.05    1.03    1.43    10.02500    88.83980   157.62015
   960  H   1.0    0.06    1.07    1.44    13.23564    88.85302   161.83046
   961  H   1.0    0.07    1.02    1.43    12.22275    92.05611   161.50543
   962  H   1.0    0.08    1.01    1.43     9.29934    90.15316   164.10947
   963  H   1.0    0.07    1.02    1.43     7.84992    90.22119   161.25787
   964  H   1.0    0.09    1.03    1.43     9.11982    87.49242   162.34258
   965  N   5.0   -0.11    3.47    2.06    20.45250    85.87104   157.27622
   966  C   4.0    0.05    4.46    4.48    22.58411    87.51888   156.74143
   967  C   4.0    0.18    3.52    3.12    21.74130    89.76009   155.16351
   968  O   6.0   -0.24    1.32    1.80    19.49630    90.00576   154.49454
   969  C   4.0   -0.02    4.32    4.24    24.60045    86.16583   155.17674
   970  C   4.0    0.23    3.30    3.05    26.86812    87.86281   154.53045
   971  O   6.0   -0.28    1.21    1.80    28.19849    88.71885   156.28601
   972  O   6.0   -0.29    1.21    1.80    27.32166    88.33713   152.25711
   973  H   1.0    0.10    1.06    1.44    20.41282    84.21753   156.28601
   974  H   1.0    0.08    1.06    1.44    23.33623    88.10091   158.56879
   975  H   1.0    0.06    1.03    1.43    25.30154    84.55012   156.24443
   976  H   1.0    0.09    1.04    1.43    23.75952    85.53089   153.40795
   977  N   5.0   -0.12    3.63    2.18    23.58189    91.37014   154.57013
   978  C   4.0    0.05    4.38    4.35    23.19261    93.65293   153.08292
   979  C   4.0    0.17    3.46    3.10    21.44650    93.01042   150.87194
   980  O   6.0   -0.25    1.23    1.80    19.42638    94.11969   150.65084
   981  C   4.0   -0.04    4.22    4.04    25.71917    94.84346   152.21554
   982  C   4.0   -0.02    4.18    3.96    28.16070    94.15371   153.65929
   983  C   4.0    0.26    3.12    3.03    28.06999    94.37480   156.55813
   984  O   6.0   -0.24    1.20    1.80    26.02342    94.80566   157.68629
   985  O   6.0   -0.23    1.17    1.80    30.11278    94.06678   157.72787
   986  H   1.0    0.11    1.20    1.46    25.41681    91.13581   155.10871
   987  H   1.0    0.08    1.06    1.44    22.32900    95.11747   154.24510
   988  H   1.0    0.05    1.03    1.43    26.02531    94.29166   150.25400
   989  H   1.0    0.06    1.03    1.43    25.52075    96.89003   152.34971
   990  H   1.0    0.08    1.04    1.44    28.63124    92.19784   153.22087
   991  H   1.0    0.06    1.03    1.43    29.66303    95.40281   153.00733
   992  N   5.0   -0.12    3.47    2.06    22.16649    91.17172   149.30347
   993  C   4.0    0.04    4.42    4.41    20.32589    89.96418   147.61783
   994  C   4.0    0.16    3.48    3.11    18.76687    87.97808   149.02946
   995  O   6.0   -0.24    1.34    1.80    19.53599    87.07290   151.04580
   996  C   4.0   -0.04    4.30    4.20    21.59201    88.52421   145.43520
   997  C   4.0    0.24    3.16    3.03    23.88047    86.99920   146.25156
   998  O   6.0   -0.27    1.22    1.80    23.96928    86.08836   148.43230
   999  O   6.0   -0.32    1.29    1.80    25.62657    86.71763   144.68309
  1000  H   1.0    0.10    1.07    1.44    23.96361    90.49142   149.15607
  1001  H   1.0    0.06    1.06    1.44    19.14481    91.48352   146.88084
  1002  H   1.0    0.04    1.05    1.44    20.22385    87.22030   144.61506
[...]
 900   1 H      0.104  0.896  0.000  0.000     1.745     2.066
 901   1 H      0.082  0.918  0.000  0.000     1.959     2.189
 902   1 H      0.090  0.910  0.000  0.000     1.876     2.142
 903   1 H      0.100  0.900  0.000  0.000     1.782     2.088
 904   1 H      0.116  0.884  0.000  0.000     1.643     2.004
 905   1 H      0.247  0.753  0.000  0.000     0.893     1.480
 906   1 H      0.251  0.749  0.000  0.000     0.880     1.469
 907   1 H      0.212  0.788  0.000  0.000     1.045     1.602
 908   1 H      0.266  0.734  0.000  0.000     0.824     1.422
 909   1 H      0.203  0.797  0.000  0.000     1.089     1.635
 910   7 N     -0.156  1.239  3.917  0.000    24.383     7.334
 911   6 C      0.029  1.046  2.925  0.000    20.076     6.378
 912   6 C      0.276  1.047  2.677  0.000    22.329     7.738
 913   8 O     -0.497  1.761  4.736  0.000    23.721     6.530
 914   6 C     -0.094  1.066  3.028  0.000    22.291     6.721
 915   6 C      0.364  1.022  2.614  0.000    20.833     7.470
 916   8 O     -0.601  1.747  4.854  0.000    26.143     6.855
 917   8 O     -0.657  1.781  4.875  0.000    27.551     7.037
 918   1 H      0.211  0.789  0.000  0.000     1.054     1.608
 919   1 H      0.068  0.932  0.000  0.000     2.108     2.270
 920   1 H      0.049  0.951  0.000  0.000     2.331     2.388
 921   1 H      0.016  0.984  0.000  0.000     2.802     2.618
 922   7 N     -0.192  1.241  3.951  0.000    25.174     7.452
 923   6 C      0.028  1.058  2.914  0.000    20.107     6.386
 924   6 C      0.275  1.041  2.684  0.000    22.345     7.741
 925   8 O     -0.510  1.756  4.754  0.000    24.007     6.569
 926   6 C     -0.071  1.050  3.021  0.000    21.853     6.654
 927   6 C     -0.001  1.079  2.922  0.000    28.044     8.686
 928   6 C     -0.061  1.092  2.968  0.000    29.510     8.909
 929   6 C     -0.046  1.087  2.960  0.000    29.148     8.854
 930   6 C     -0.049  1.066  2.984  0.000    29.224     8.865
 931   6 C     -0.084  1.078  3.006  0.000    30.094     8.996
 932   6 C      0.142  1.046  2.812  0.000    24.905     8.180
 933   8 O     -0.448  1.735  4.713  0.000    21.795     6.302
 934   1 H      0.214  0.786  0.000  0.000     1.036     1.594
 935   1 H      0.073  0.927  0.000  0.000     2.048     2.238
 936   1 H      0.059  0.941  0.000  0.000     2.210     2.325
 937   1 H      0.080  0.920  0.000  0.000     1.975     2.198
 938   1 H      0.078  0.922  0.000  0.000     1.996     2.209
 939   1 H      0.056  0.944  0.000  0.000     2.242     2.342
 940   1 H      0.023  0.977  0.000  0.000     2.692     2.566
 941   1 H      0.058  0.942  0.000  0.000     2.222     2.331
 942   1 H      0.344  0.656  0.000  0.000     0.603     1.220
 943   7 N     -0.173  1.247  3.925  0.000    24.735     7.387
 944   6 C      0.030  1.056  2.913  0.000    20.064     6.378
 945   6 C      0.309  1.028  2.663  0.000    21.753     7.638
 946   8 O     -0.525  1.755  4.770  0.000    24.343     6.615
 947   6 C     -0.102  1.061  3.041  0.000    22.430     6.741
 948   6 C     -0.066  1.044  3.021  0.000    21.751     6.639
 949   6 C     -0.095  1.058  3.037  0.000    22.301     6.722
 950   6 C     -0.056  1.062  2.994  0.000    21.675     6.645
 951   7 N     -0.147  1.237  3.910  0.000    24.175     7.303
 952   1 H      0.205  0.795  0.000  0.000     1.082     1.629
 953   1 H      0.048  0.952  0.000  0.000     2.343     2.394
 954   1 H      0.087  0.913  0.000  0.000     1.907     2.160
 955   1 H      0.095  0.905  0.000  0.000     1.830     2.115
 956   1 H      0.039  0.961  0.000  0.000     2.463     2.454
 957   1 H      0.047  0.953  0.000  0.000     2.357     2.401
 958   1 H      0.078  0.922  0.000  0.000     1.995     2.209
 959   1 H      0.105  0.895  0.000  0.000     1.744     2.065
 960   1 H      0.101  0.899  0.000  0.000     1.778     2.085
 961   1 H      0.107  0.893  0.000  0.000     1.718     2.050
 962   1 H      0.287  0.713  0.000  0.000     0.753     1.360
 963   1 H      0.314  0.686  0.000  0.000     0.674     1.286
 964   1 H      0.286  0.714  0.000  0.000     0.758     1.364
 965   7 N     -0.169  1.249  3.921  0.000    24.662     7.376
 966   6 C      0.066  1.044  2.891  0.000    19.478     6.282
 967   6 C      0.295  1.038  2.668  0.000    22.002     7.682
 968   8 O     -0.503  1.752  4.751  0.000    23.859     6.549
 969   6 C     -0.098  1.064  3.034  0.000    22.352     6.729
 970   6 C      0.367  1.025  2.608  0.000    20.776     7.459
 971   8 O     -0.647  1.781  4.866  0.000    27.313     7.007
 972   8 O     -0.612  1.753  4.859  0.000    26.427     6.892
 973   1 H      0.206  0.794  0.000  0.000     1.078     1.626
 974   1 H      0.021  0.979  0.000  0.000     2.716     2.577
 975   1 H      0.033  0.967  0.000  0.000     2.545     2.495
 976   1 H      0.076  0.924  0.000  0.000     2.016     2.220
 977   7 N     -0.207  1.259  3.947  0.000    25.495     7.499
 978   6 C      0.050  1.053  2.897  0.000    19.752     6.330
 979   6 C      0.293  1.041  2.667  0.000    22.036     7.687
 980   8 O     -0.502  1.742  4.760  0.000    23.834     6.546
 981   6 C     -0.058  1.057  3.001  0.000    21.625     6.621
 982   6 C     -0.099  1.068  3.031  0.000    22.383     6.737
 983   6 C      0.369  1.028  2.603  0.000    20.747     7.454
 984   8 O     -0.674  1.788  4.886  0.000    28.012     7.096
 985   8 O     -0.649  1.767  4.882  0.000    27.350     7.012
 986   1 H      0.227  0.773  0.000  0.000     0.977     1.548
 987   1 H      0.034  0.966  0.000  0.000     2.534     2.489
 988   1 H      0.037  0.963  0.000  0.000     2.493     2.469
 989   1 H      0.036  0.964  0.000  0.000     2.499     2.472
 990   1 H      0.056  0.944  0.000  0.000     2.248     2.344
 991   1 H      0.045  0.955  0.000  0.000     2.380     2.413
 992   7 N     -0.171  1.236  3.936  0.000    24.708     7.382
 993   6 C      0.044  1.054  2.902  0.000    19.847     6.344
 994   6 C      0.284  1.036  2.681  0.000    22.196     7.715
 995   8 O     -0.476  1.775  4.702  0.000    23.262     6.466
 996   6 C     -0.106  1.068  3.038  0.000    22.511     6.753
 997   6 C      0.361  1.017  2.622  0.000    20.882     7.479
 998   8 O     -0.614  1.789  4.825  0.000    26.457     6.896
 999   8 O     -0.596  1.731  4.865  0.000    26.014     6.838
1000   1 H      0.195  0.805  0.000  0.000     1.131     1.666
1001   1 H      0.046  0.954  0.000  0.000     2.376     2.410
1002   1 H      0.056  0.944  0.000  0.000     2.244     2.342
1003   1 H      0.041  0.959  0.000  0.000     2.430     2.438
1004   7 N     -0.211  1.247  3.964  0.000    25.598     7.514
1005   6 C     -0.039  1.055  2.985  0.000    21.350     6.591
1006   6 C      0.272  1.038  2.690  0.000    22.406     7.751
1007   8 O     -0.484  1.730  4.754  0.000    23.423     6.489
1008   1 H      0.209  0.791  0.000  0.000     1.062     1.615
1009   1 H      0.093  0.907  0.000  0.000     1.847     2.125
1010   1 H      0.121  0.879  0.000  0.000     1.601     1.979
1011   7 N     -0.153  1.238  3.915  0.000    24.302     7.322
1012   6 C      0.032  1.056  2.912  0.000    20.041     6.374
1013   6 C      0.282  1.037  2.681  0.000    22.224     7.720
1014   8 O     -0.502  1.761  4.742  0.000    23.836     6.546
1015   6 C     -0.059  1.045  3.013  0.000    21.615     6.617
1016   6 C     -0.001  1.085  2.917  0.000    28.060     8.689
1017   6 C     -0.050  1.080  2.970  0.000    29.246     8.868
1018   6 C     -0.040  1.078  2.962  0.000    28.998     8.831
1019   6 C     -0.038  1.084  2.954  0.000    28.946     8.822
1020   6 C     -0.036  1.084  2.951  0.000    28.885     8.813
1021   6 C     -0.038  1.085  2.953  0.000    28.946     8.823
1022   1 H      0.193  0.807  0.000  0.000     1.145     1.676
1023   1 H      0.074  0.926  0.000  0.000     2.046     2.237
1024   1 H      0.058  0.942  0.000  0.000     2.225     2.333
1025   1 H      0.049  0.951  0.000  0.000     2.335     2.389
1026   1 H      0.023  0.977  0.000  0.000     2.688     2.564
1027   1 H      0.031  0.969  0.000  0.000     2.574     2.509
1028   1 H      0.056  0.944  0.000  0.000     2.245     2.343
1029   1 H      0.075  0.925  0.000  0.000     2.032     2.229
1030   1 H      0.072  0.928  0.000  0.000     2.061     2.245
1031   7 N     -0.195  1.255  3.940  0.000    25.238     7.461
1032   6 C      0.029  1.064  2.907  0.000    20.091     6.382
1033   6 C      0.269  1.054  2.677  0.000    22.456     7.759
1034   8 O     -0.480  1.743  4.737  0.000    23.354     6.479
1035   6 C     -0.011  1.052  2.959  0.000    20.730     6.476
1036   6 C     -0.123  1.043  3.081  0.000    22.918     6.825
1037   6 C     -0.110  1.038  3.073  0.000    22.665     6.788
1038   1 H      0.238  0.762  0.000  0.000     0.932     1.512
1039   1 H      0.033  0.967  0.000  0.000     2.541     2.493
1040   1 H      0.024  0.976  0.000  0.000     2.681     2.560
1041   1 H      0.062  0.938  0.000  0.000     2.175     2.306
1042   1 H      0.065  0.935  0.000  0.000     2.142     2.289
1043   1 H      0.071  0.929  0.000  0.000     2.080     2.255
1044   1 H      0.055  0.945  0.000  0.000     2.263     2.352
1045   1 H      0.052  0.948  0.000  0.000     2.301     2.372
1046   1 H      0.025  0.975  0.000  0.000     2.652     2.547
1047   7 N     -0.160  1.251  3.910  0.000    24.472     7.347
1048   6 C      0.025  1.062  2.913  0.000    20.161     6.395
1049   6 C      0.267  1.046  2.687  0.000    22.497     7.767
1050   8 O     -0.510  1.746  4.765  0.000    24.017     6.571
1051   6 C     -0.077  1.054  3.024  0.000    21.967     6.671
1052   6 C     -0.009  1.087  2.921  0.000    28.231     8.715
1053   6 C     -0.042  1.087  2.955  0.000    29.051     8.838
1054   6 C     -0.046  1.088  2.958  0.000    29.140     8.852
1055   6 C     -0.056  1.090  2.966  0.000    29.401     8.891
1056   6 C     -0.062  1.082  2.980  0.000    29.548     8.913
1057   6 C      0.135  1.052  2.813  0.000    25.040     8.201
1058   8 O     -0.444  1.705  4.740  0.000    21.729     6.293
1059   1 H      0.190  0.810  0.000  0.000     1.159     1.686
1060   1 H      0.085  0.915  0.000  0.000     1.933     2.174
1061   1 H      0.054  0.946  0.000  0.000     2.265     2.354
1062   1 H      0.071  0.929  0.000  0.000     2.079     2.255
1063   1 H      0.018  0.982  0.000  0.000     2.761     2.599
1064   1 H      0.059  0.941  0.000  0.000     2.208     2.324
1065   1 H      0.049  0.951  0.000  0.000     2.335     2.390
1066   1 H      0.076  0.924  0.000  0.000     2.025     2.225
1067   1 H      0.339  0.661  0.000  0.000     0.615     1.232
1068   7 N     -0.168  1.248  3.920  0.000    24.641     7.372
1069   6 C      0.027  1.047  2.927  0.000    20.103     6.380
1070   6 C      0.268  1.029  2.703  0.000    22.476     7.767
1071   8 O     -0.496  1.727  4.769  0.000    23.702     6.527
1072   6 C     -0.052  1.041  3.011  0.000    21.443     6.582
1073   6 C      0.002  1.053  2.945  0.000    20.539     6.452
1074  16 S     -0.205  1.910  4.245  0.050   149.773    20.598
1075   6 C     -0.056  1.053  3.003  0.000    21.659     6.639
1076   1 H      0.245  0.755  0.000  0.000     0.902     1.488
1077   1 H      0.064  0.936  0.000  0.000     2.151     2.294
1078   1 H      0.054  0.946  0.000  0.000     2.270     2.356
1079   1 H      0.059  0.941  0.000  0.000     2.208     2.324
1080   1 H      0.025  0.975  0.000  0.000     2.654     2.547
1081   1 H      0.047  0.953  0.000  0.000     2.356     2.401
1082   1 H      0.068  0.932  0.000  0.000     2.104     2.268
1083   1 H      0.041  0.959  0.000  0.000     2.433     2.439
1084   1 H      0.066  0.934  0.000  0.000     2.135     2.285
1085   7 N     -0.155  1.236  3.918  0.000    24.340     7.327
1086   6 C     -0.002  1.051  2.951  0.000    20.599     6.459
1087   6 C      0.195  1.075  2.731  0.000    23.854     8.003
1088   8 O     -0.369  1.747  4.622  0.000    21.067     6.154
1089   6 C      0.116  1.039  2.845  0.000    18.757     6.178
1090   8 O     -0.470  1.731  4.739  0.000    22.261     6.369
1091   6 C     -0.146  1.047  3.098  0.000    23.366     6.892
1092   1 H      0.242  0.758  0.000  0.000     0.915     1.499
1093   1 H      0.151  0.849  0.000  0.000     1.384     1.840
1094   1 H      0.039  0.961  0.000  0.000     2.460     2.453
1095   1 H      0.354  0.646  0.000  0.000     0.579     1.195
1096   1 H      0.074  0.926  0.000  0.000     2.040     2.234
1097   1 H      0.068  0.932  0.000  0.000     2.110     2.272
1098   1 H      0.071  0.929  0.000  0.000     2.075     2.253
1099   7 N     -0.164  1.246  3.918  0.000    24.527     7.356
1100   6 C     -0.045  1.084  2.961  0.000    21.399     6.590
1101   6 C      0.267  1.032  2.701  0.000    22.497     7.767
1102   8 O     -0.467  1.765  4.703  0.000    23.073     6.440
1103   6 C     -0.100  1.059  3.041  0.000    22.400     6.737
1104   6 C      0.005  1.075  2.920  0.000    27.919     8.667
1105   6 C     -0.036  1.083  2.953  0.000    28.906     8.817
1106   6 C     -0.057  1.085  2.972  0.000    29.409     8.893
1107   6 C     -0.036  1.086  2.950  0.000    28.904     8.816
1108   6 C     -0.035  1.082  2.953  0.000    28.879     8.812
1109   6 C     -0.037  1.083  2.955  0.000    28.922     8.819
1110   1 H      0.303  0.697  0.000  0.000     0.705     1.316
1111   1 H      0.299  0.701  0.000  0.000     0.717     1.327
1112   1 H      0.315  0.685  0.000  0.000     0.669     1.282
1113   1 H      0.125  0.875  0.000  0.000     1.577     1.964
1114   1 H      0.093  0.907  0.000  0.000     1.854     2.129
1115   1 H      0.115  0.885  0.000  0.000     1.654     2.011
1116   1 H      0.060  0.940  0.000  0.000     2.201     2.320
1117   1 H      0.073  0.927  0.000  0.000     2.058     2.243
1118   1 H      0.035  0.965  0.000  0.000     2.514     2.480
1119   1 H      0.043  0.957  0.000  0.000     2.411     2.428
1120   1 H      0.017  0.983  0.000  0.000     2.777     2.606
1121   7 N     -0.160  1.247  3.913  0.000    24.461     7.345
1122   6 C      0.000  1.067  2.933  0.000    20.574     6.457
1123   6 C      0.296  1.028  2.676  0.000    21.977     7.680
1124   8 O     -0.493  1.734  4.759  0.000    23.622     6.516
1125   6 C     -0.019  1.054  2.965  0.000    20.868     6.495
1126   6 C     -0.134  1.044  3.090  0.000    23.126     6.855
1127   6 C     -0.145  1.049  3.096  0.000    23.352     6.890
1128   1 H      0.247  0.753  0.000  0.000     0.896     1.483
1129   1 H      0.081  0.919  0.000  0.000     1.972     2.196
1130   1 H      0.046  0.954  0.000  0.000     2.375     2.410
1131   1 H      0.040  0.960  0.000  0.000     2.451     2.448
1132   1 H      0.061  0.939  0.000  0.000     2.188     2.313
1133   1 H      0.059  0.941  0.000  0.000     2.210     2.325
1134   1 H      0.041  0.959  0.000  0.000     2.438     2.442
1135   1 H      0.078  0.922  0.000  0.000     2.005     2.214
1136   1 H      0.075  0.925  0.000  0.000     2.027     2.226
1137   7 N     -0.154  1.233  3.921  0.000    24.333     7.326
1138   6 C      0.025  1.046  2.929  0.000    20.139     6.387
1139   6 C      0.204  1.074  2.722  0.000    23.660     7.969
1140   8 O     -0.371  1.752  4.619  0.000    21.105     6.159
1141   6 C     -0.071  1.052  3.019  0.000    21.816     6.642
1142   6 C     -0.020  1.061  2.959  0.000    20.934     6.515
1143  16 S     -0.194  1.912  4.226  0.056   149.289    20.565
1144   6 C     -0.087  1.059  3.028  0.000    22.229     6.726
1145   1 H      0.215  0.785  0.000  0.000     1.031     1.590
1146   1 H      0.106  0.894  0.000  0.000     1.733     2.059
1147   1 H      0.068  0.932  0.000  0.000     2.104     2.268
1148   1 H      0.065  0.935  0.000  0.000     2.142     2.289
1149   1 H      0.069  0.931  0.000  0.000     2.093     2.262
1150   1 H      0.055  0.945  0.000  0.000     2.262     2.352
1151   1 H      0.086  0.914  0.000  0.000     1.914     2.163
1152   1 H      0.060  0.940  0.000  0.000     2.199     2.319
1153   1 H      0.067  0.933  0.000  0.000     2.116     2.275
1154   7 N     -0.383  1.334  4.048  0.000    29.896     8.121
1155   6 C      0.031  1.055  2.914  0.000    20.070     6.381
1156   6 C      0.192  1.089  2.719  0.000    23.898     8.006
1157   8 O     -0.366  1.760  4.605  0.000    21.006     6.145
1158   6 C      0.118  1.042  2.840  0.000    18.738     6.179
1159   8 O     -0.479  1.732  4.747  0.000    22.451     6.396
1160   6 C     -0.148  1.050  3.098  0.000    23.424     6.901
1161   1 H      0.164  0.836  0.000  0.000     1.312     1.794
1162   1 H      0.063  0.937  0.000  0.000     2.163     2.300
1163   1 H      0.016  0.984  0.000  0.000     2.796     2.615
1164   1 H      0.317  0.683  0.000  0.000     0.672     1.288
1165   1 H      0.062  0.938  0.000  0.000     2.180     2.309
1166   1 H      0.057  0.943  0.000  0.000     2.233     2.337
1167   1 H      0.074  0.926  0.000  0.000     2.045     2.236
1168   1 H      0.194  0.806  0.000  0.000     1.138     1.671
1169   1 H      0.088  0.912  0.000  0.000     1.900     2.155
1170   1 H      0.181  0.819  0.000  0.000     1.210     1.723
1171   1 H      0.046  0.954  0.000  0.000     2.373     2.409
1172   1 H      0.185  0.815  0.000  0.000     1.188     1.707
1173   1 H      0.092  0.908  0.000  0.000     1.855     2.130
1174   1 H      0.201  0.799  0.000  0.000     1.102     1.644
1175   1 H      0.081  0.919  0.000  0.000     1.968     2.194
1176   1 H      0.181  0.819  0.000  0.000     1.208     1.722
1177   1 H      0.075  0.925  0.000  0.000     2.030     2.228
1178   1 H      0.191  0.809  0.000  0.000     1.152     1.681
1179   1 H      0.075  0.925  0.000  0.000     2.035     2.231
1180   1 H      0.191  0.809  0.000  0.000     1.155     1.683
1181   1 H      0.086  0.914  0.000  0.000     1.919     2.166
1182   1 H      0.182  0.818  0.000  0.000     1.204     1.719
1183   1 H      0.063  0.937  0.000  0.000     2.161     2.298
1184   1 H      0.182  0.818  0.000  0.000     1.200     1.716
1185   1 H      0.076  0.924  0.000  0.000     2.020     2.222
1186   1 H      0.073  0.927  0.000  0.000     2.057     2.243

 Mol. C6AA /au·bohr⁶  :   12982496.264661
 Mol. C8AA /au·bohr⁸  :  292889080.531940
 Mol. α(0) /au        :       5407.293894

 
molecular dipole:
                 x           y           z       tot (Debye)
 q only:      145.736     299.677     671.753
   full:      145.408     302.559     677.237    1921.265
molecular quadrupole (traceless):
                xx          xy          yy          xz          yz          zz
 q only:   -46584.005   14699.344  -30671.683   29301.663   60883.062   77255.687
  q+dip:   -47738.384   14866.615  -30983.213   29351.380   62042.715   78721.597
   full:   -47738.970   14861.924  -30971.123   29352.163   62042.160   78710.093
speedup  1.66
cpu  time for grad    7 m 26.4 s
wall time for grad    4 m 29.3 s

SCC energy    :   -1824.3791793
rep           :      21.9200642
ES            :       6.6312718
AES           :      -0.3393816
AXC           :       0.6216274
disp          :      -1.7280205
XB            :       0.0000000
fix           :       0.0000000
Gborn         :       0.0000000
Gsasa         :       0.0000000
Ghb           :       0.0000000
Gshift        :       0.0000000
Gsolv         :      -2.3285207    -1461.17
Etot ala COSMO:   -1824.3791793
grad norm     :       0.8493362
total E       :   -1802.2291804
atomizationE  :     330.6479184   207484.70
(atE without considering molecular charge,
 total energy contains solvation terms)
H-L gap (eV)  :          0.8677

------------------------------------------------------------------------
 * finished run on 2019/05/06 at 00:16:01.587     
------------------------------------------------------------------------
 total:
 * wall-time:     0 d,  0 h,  4 min, 40.630 sec
 *  cpu-time:     0 d,  0 h,  7 min, 39.888 sec
 * ratio c/w:     1.639 speedup
 SCF:
 * wall-time:     0 d,  0 h,  4 min, 33.432 sec
 *  cpu-time:     0 d,  0 h,  7 min, 32.402 sec
 * ratio c/w:     1.655 speedup

