      -----------------------------------------------------------      
     |                   =====================                   |     
     |                           x T B                           |     
     |                   =====================                   |     
     |                         S. Grimme                         |     
     |          Mulliken Center for Theoretical Chemistry        |     
     |                    University of Bonn                     |     
     |                 Version 6.0.1 (SAW181210)                 |     
      -----------------------------------------------------------      

   This program is distributed in the hope that it will be useful,
   but WITHOUT ANY WARRANTY; without even the implied warranty of
   MERCHANTABILITY or FITNESS FOR A PARTICULAR PURPOSE.
   
   FOR NON-COMMERCIAL, ACADEMIA USE ONLY.
   
   Cite this work as:
   S. Grimme, C. Bannwarth, P. Shushkov, J. Comput. Theory Chem., 2017,
   13, 1989-2009.
   C. Bannwarth, S. Ehlert and S. Grimme., ChemRxiv, 2018, preprint.
   http://doi.org/10.26434/chemrxiv.7246238.v1
   
   for sTDA-xTB:
   S. Grimme and C. Bannwarth, J. Chem. Phys., 2016, 145, 054103.
   
   in the mass-spec context:
   V. Asgeirsson, C. Bauer and S. Grimme, Chem. Sci., 2017, 8, 4879.
   
   if GBSA is used:
   P. Shushkov, F. März and S. Grimme, unpublished.
   
   for ANC optimizer:
   S. Grimme, unpublished.
   Rational Function algorithm used in ANCopt:
   F. Eckert, P. Pulay, H.-J. Werner, J. Comput. Chem., 1997, 18, 1473.
   
   with help from (in alphabetical order)
   C. Bannwarth, F. Bohle, G. Brandenburg, E. Caldeweyher, M. Checinski,
   S. Dohm, S. Ehlert, S. Ehrlich, F. März, H. Neugebauer, J. Pisarek,
   P. Pracht, P. Shushkov, and S. Spicher.
   
 * started run on 2019/05/11 at 04:47:17.268     
========================================================================
 # omp threads = 2
========================================================================
number of atoms            : 252
number of electrons        : 722
charge                     : -3
spin                       : .0
first test random number   : .2976

########################################################################
# WARNING! Please study the warnings concerning your input carefully
#  - Process number higher than OMP_NUM_THREADS, I hope you know what you are doing.
########################################################################

           ------------------------------------------------- 
          |                 G F N 2 - x T B                 |
          | Geometry, Frequencies, Noncovalent interactions |
          |            JCTC 2018 parametrisation            |
           ------------------------------------------------- 
 
      method parameters     
 k(s)        :  1.8500
 k(p)        :  2.2300
 k(d)        :  2.2300
 k(f)        :  2.0000
 kEN (H0ij)  : -2.0000
 D4 a1       :  0.5200
 D4 a2       :  5.0000
 D4 s6       :  1.0000
 D4 s8       :  2.7000
 D4 s9       :  5.0000
 alphaj      :  2.0000

 Solvent             : h2o
 Using internal parameter file: .param_gbsa2_h2o
 Gsolv ref. state (COSMO-RS): gsolv [1 M gas/solution]
 temperature (mdtemp)       :    298.150000000000     
 dielectric constant        :    80.2000000000000     
 rho                        :    1.00000000000000     
 mass                       :    18.0000000000000     
 surface tension            :    15.5689454083859     
 probe radius               :   0.975313790000000     
 vdW radii scaling          :    1.00000000000000     
 Gshift (Eh)                :   1.857443126794793E-003
 c1                         :    1.55243817000000     
 soset                      :   0.130326360000000     
 HB correction              :  T

            Z     q(EN)     CN     RAES       Cart. coordinates
     1  N   5.0   -0.22    3.19    1.95   -23.39450   154.86263     9.87926
     2  C   4.0    0.03    4.24    4.08   -22.13194   152.67475     8.89022
     3  C   4.0    0.06    3.22    3.04   -22.12738   152.52661     6.00200
     4  O   6.0   -0.33    1.12    1.80   -20.11238   152.37036     4.85696
     5  C   4.0   -0.05    4.35    4.29   -23.36209   150.23779     9.85946
     6  C   4.0   -0.03    4.18    3.95   -21.50499   148.00546     9.57736
     7  C   4.0   -0.08    4.08    3.77   -20.68629   147.16342    12.24139
     8  C   4.0   -0.09    4.06    3.73   -22.56209   145.84275     7.95753
     9  H   1.0    0.09    1.03    1.43   -24.12114   154.67533    11.63173
    10  H   1.0    0.04    1.05    1.44   -20.14029   152.71355     9.48503
    11  H   1.0    0.05    1.04    1.43   -23.85304   150.46785    11.84937
    12  H   1.0    0.04    1.03    1.43   -25.11966   149.83193     8.86828
    13  H   1.0    0.04    1.06    1.44   -19.79596   148.66717     8.60542
    14  H   1.0    0.03    1.00    1.43   -19.26153   145.68229    12.13589
    15  H   1.0    0.04    1.00    1.43   -19.86749   148.74299    13.26526
    16  H   1.0    0.04    1.00    1.43   -22.29815   146.44961    13.29688
    17  H   1.0    0.03    1.00    1.43   -21.13923   144.37465     7.70742
    18  H   1.0    0.03    1.00    1.43   -24.21286   145.01485     8.85634
    19  H   1.0    0.03    1.00    1.43   -23.07882   146.53710     6.09317
    20  N   5.0   -0.22    3.26    1.97   -14.57545   151.16201    21.51147
    21  C   4.0    0.03    4.38    4.35   -16.98850   150.56503    20.44884
    22  C   4.0    0.14    3.47    3.10   -17.69285   147.78888    20.56306
    23  O   6.0   -0.31    1.39    1.80   -19.34854   147.15503    22.07134
    24  C   4.0   -0.06    4.32    4.23   -17.07372   151.50731    17.75149
    25  C   4.0   -0.06    4.19    3.98   -16.67316   154.36960    17.74414
    26  C   4.0   -0.01    4.14    3.89   -18.98002   155.88242    18.76365
    27  N   5.0   -0.15    3.38    2.01   -19.85933   157.80309    16.96723
    28  C   4.0    0.08    3.32    3.06   -22.16016   158.24942    16.03633
    29  N   5.0   -0.18    3.24    1.97   -24.21839   157.20151    17.03756
    30  N   5.0   -0.21    3.25    1.97   -22.37748   159.98259    14.23867
    31  H   1.0    0.07    1.04    1.43   -13.17368   151.32137    20.22189
    32  H   1.0    0.05    1.06    1.44   -18.41906   151.51390    21.61898
    33  H   1.0    0.03    1.03    1.43   -15.60781   150.56699    16.64351
    34  H   1.0    0.04    1.03    1.43   -18.90562   151.02312    16.93851
    35  H   1.0    0.03    1.03    1.43   -14.97979   154.80453    18.82892
    36  H   1.0    0.03    1.03    1.43   -16.32424   154.94185    15.79151
    37  H   1.0    0.05    1.03    1.43   -20.51720   154.57377    19.15418
    38  H   1.0    0.04    1.02    1.43   -18.48827   156.80029    20.54386
    39  H   1.0    0.06    1.08    1.44   -18.44004   158.80269    16.15732
    40  H   1.0    0.10    1.03    1.43   -24.10571   155.67273    18.16789
    41  H   1.0    0.09    1.03    1.43   -25.94219   157.38707    16.24508
    42  H   1.0    0.06    1.03    1.43   -20.87467   160.99742    13.64062
    43  H   1.0    0.07    1.03    1.43   -24.10394   160.66065    13.79958
    44  N   5.0   -0.16    3.42    2.03   -16.69684   146.24657    18.82585
    45  C   4.0    0.03    4.32    4.23   -17.48186   143.60871    18.63188
    46  C   4.0    0.16    3.50    3.12   -18.33238   142.51709    21.24470
    47  O   6.0   -0.31    1.27    1.80   -20.17757   141.11168    21.39009
    48  C   4.0   -0.06    4.16    3.92   -15.48889   141.76376    17.52498
    49  C   4.0   -0.06    4.05    3.70   -14.54640   141.91986    14.71965
    50  C   4.0   -0.02    4.09    3.77   -16.07530   140.61454    12.57332
    51  N   5.0   -0.15    3.29    1.98   -16.82765   137.89797    12.76776
    52  C   4.0    0.08    3.31    3.05   -17.40589   136.25961    10.87362
    53  N   5.0   -0.21    3.22    1.96   -16.43208   136.46394     8.56878
    54  N   5.0   -0.20    3.22    1.96   -19.02313   134.35767    11.32495
    55  H   1.0    0.06    1.06    1.44   -15.12473   146.76328    17.85645
    56  H   1.0    0.05    1.05    1.44   -19.18014   143.56011    17.42939
    57  H   1.0    0.04    1.03    1.43   -13.82372   141.90826    18.73482
    58  H   1.0    0.04    1.03    1.43   -16.25989   139.87360    17.83403
    59  H   1.0    0.03    1.03    1.43   -14.40142   143.89584    14.16393
    60  H   1.0    0.03    1.02    1.43   -12.63642   141.14571    14.70519
    61  H   1.0    0.03    1.02    1.43   -17.84387   141.67351    12.35381
    62  H   1.0    0.03    1.03    1.43   -14.97731   140.86819    10.85005
    63  H   1.0    0.07    1.07    1.44   -17.73536   137.53339    14.41486
    64  H   1.0    0.06    1.03    1.43   -15.43192   138.03328     8.07980
    65  H   1.0    0.06    1.03    1.43   -16.99767   135.31000     7.16983
    66  H   1.0    0.07    1.03    1.43   -19.57212   134.05152    13.12552
    67  H   1.0    0.06    1.02    1.43   -18.83989   132.70819    10.34383
    68  N   5.0   -0.13    3.51    2.09   -16.91154   143.07508    23.24346
    69  C   4.0    0.04    4.45    4.46   -17.82050   142.44758    25.73681
    70  C   4.0    0.16    3.44    3.09   -20.29846   143.82998    26.37836
    71  O   6.0   -0.31    1.33    1.80   -22.25559   142.60152    26.23667
    72  C   4.0   -0.05    4.24    4.08   -15.67789   142.71181    27.64122
    73  C   4.0   -0.04    4.18    3.96   -14.19498   140.21998    27.77868
    74  C   4.0    0.24    3.09    3.02   -11.30294   140.69364    28.04609
    75  O   6.0   -0.32    1.16    1.80   -10.58262   141.43312    30.17411
    76  O   6.0   -0.32    1.15    1.80    -9.99314   140.34448    26.10559
    77  H   1.0    0.08    1.07    1.44   -15.45770   144.31066    23.11261
    78  H   1.0    0.06    1.07    1.44   -18.42048   140.45503    25.67060
    79  H   1.0    0.05    1.03    1.43   -14.42048   144.24747    27.05967
    80  H   1.0    0.04    1.02    1.43   -16.40234   143.19703    29.50800
    81  H   1.0    0.04    1.02    1.43   -14.81201   139.08449    29.38528
    82  H   1.0    0.04    1.03    1.43   -14.44871   139.12693    26.04797
    83  N   5.0   -0.14    3.45    2.04   -20.20400   146.23387    27.13570
    84  C   4.0    0.03    4.40    4.37   -22.39569   147.71236    27.87773
    85  C   4.0    0.16    3.51    3.12   -24.79279   147.02652    26.44773
    86  O   6.0   -0.32    1.25    1.80   -26.81846   146.99881    27.59881
    87  C   4.0   -0.04    4.33    4.26   -22.05569   150.53315    27.29868
    88  C   4.0   -0.04    4.16    3.92   -19.94063   151.82362    28.75989
    89  C   4.0    0.24    3.10    3.02   -19.05531   154.26283    27.34042
    90  O   6.0   -0.31    1.19    1.80   -20.66896   155.27046    25.95255
    91  O   6.0   -0.32    1.15    1.80   -16.84264   154.99142    27.71548
    92  H   1.0    0.08    1.07    1.44   -18.57481   147.20996    26.92593
    93  H   1.0    0.04    1.05    1.44   -22.76167   147.43495    29.90507
    94  H   1.0    0.06    1.04    1.43   -21.64438   150.70580    25.28435
    95  H   1.0    0.05    1.03    1.43   -23.84064   151.50720    27.64577
    96  H   1.0    0.03    1.02    1.43   -20.54042   152.35990    30.66150
    97  H   1.0    0.04    1.03    1.43   -18.26828   150.62841    28.91385
    98  N   5.0   -0.13    3.48    2.07   -24.54312   146.69342    23.94971
    99  C   4.0    0.03    4.32    4.23   -26.68968   146.11980    22.32061
   100  C   4.0    0.15    3.43    3.09   -27.38226   143.26977    22.49964
   101  O   6.0   -0.30    1.33    1.80   -29.48148   142.68323    23.35501
   102  C   4.0   -0.05    4.14    3.88   -26.29455   147.21932    19.63168
   103  C   4.0   -0.04    4.04    3.69   -28.64513   148.38177    18.31257
   104  C   4.0    0.24    3.00    3.02   -28.22374   150.60745    16.21544
   105  O   6.0   -0.32    1.14    1.80   -29.04885   150.29336    14.02953
   106  O   6.0   -0.31    1.16    1.80   -27.15695   152.55461    17.00074
   107  H   1.0    0.11    1.10    1.44   -22.78766   146.72386    23.18261
   108  H   1.0    0.06    1.07    1.44   -28.31585   147.07329    23.19252
   109  H   1.0    0.06    1.03    1.43   -24.89988   148.72516    19.83967
   110  H   1.0    0.05    1.02    1.43   -25.48999   145.75051    18.42843
   111  H   1.0    0.04    1.01    1.43   -29.77465   146.89487    17.42928
   112  H   1.0    0.04    1.02    1.43   -29.81981   149.28374    19.75596
   113  N   5.0   -0.15    3.41    2.03   -25.72696   141.48246    21.76212
   114  C   4.0    0.05    4.48    4.51   -26.55743   138.89371    22.09077
   115  C   4.0    0.17    3.55    3.14   -27.83037   138.40764    24.64790
   116  O   6.0   -0.30    1.26    1.80   -29.70315   137.06970    24.82562
   117  C   4.0    0.03    4.17    3.95   -24.51753   136.92132    21.79430
   118  O   6.0   -0.26    2.08    1.84   -25.72537   134.89777    20.56233
   119  H   1.0    0.11    1.08    1.44   -23.84647   141.81762    21.58643
   120  H   1.0    0.06    1.07    1.44   -28.00470   138.49122    20.65171
   121  H   1.0    0.05    1.01    1.43   -22.95434   137.66689    20.65184
   122  H   1.0    0.04    1.02    1.43   -23.77647   136.37395    23.64821
   123  H   1.0    0.11    1.02    1.43   -24.72275   133.37133    20.75524
   124  N   5.0   -0.14    3.45    2.05   -26.62843   139.43084    26.62735
   125  C   4.0    0.04    4.33    4.25   -27.92468   139.93524    28.99800
   126  C   4.0    0.16    3.57    3.15   -30.72435   140.55381    28.83444
   127  O   6.0   -0.31    1.36    1.80   -32.30567   138.91594    29.30606
   128  C   4.0   -0.07    4.17    3.94   -26.70248   142.06084    30.52344
   129  H   1.0    0.11    1.12    1.45   -25.16565   140.62255    26.28175
   130  H   1.0    0.05    1.06    1.44   -27.86131   138.17652    30.11556
   131  H   1.0    0.04    1.00    1.43   -27.73867   142.33526    32.27841
   132  H   1.0    0.04    1.00    1.43   -24.76868   141.54905    31.00346
   133  H   1.0    0.08    1.04    1.43   -26.66287   143.81811    29.48728
   134  N   5.0   -0.14    3.53    2.10   -31.42688   142.96450    28.59454
   135  C   4.0    0.04    4.41    4.40   -34.00805   143.43497    29.43439
   136  C   4.0    0.16    3.47    3.10   -35.87177   141.81507    27.87867
   137  O   6.0   -0.32    1.25    1.80   -37.91124   141.13512    28.75373
   138  C   4.0   -0.08    4.09    3.78   -34.67009   146.21752    29.39036
   139  H   1.0    0.10    1.06    1.44   -30.22270   144.41106    28.27357
   140  H   1.0    0.06    1.06    1.44   -34.20416   142.73359    31.38533
   141  H   1.0    0.04    1.00    1.43   -36.57380   146.47255    30.10718
   142  H   1.0    0.04    1.00    1.43   -33.35219   147.25848    30.57178
   143  H   1.0    0.04    1.00    1.43   -34.56279   146.93727    27.46673
   144  N   5.0   -0.13    3.50    2.08   -35.06577   141.31221    25.51224
   145  C   4.0    0.03    4.31    4.22   -36.38268   139.67253    23.71521
   146  C   4.0    0.16    3.49    3.11   -37.21305   137.22015    25.03015
   147  O   6.0   -0.32    1.42    1.80   -39.39723   136.72640    25.67336
   148  C   4.0   -0.07    4.14    3.89   -34.65346   139.08125    21.47852
   149  H   1.0    0.11    1.10    1.44   -33.29972   141.85139    25.00888
   150  H   1.0    0.04    1.05    1.44   -38.11166   140.63192    23.07812
   151  H   1.0    0.04    1.00    1.43   -35.47545   137.58477    20.33790
   152  H   1.0    0.04    1.00    1.43   -34.43499   140.76053    20.31106
   153  H   1.0    0.07    1.01    1.43   -32.78954   138.50821    22.11506
   154  N   5.0   -0.14    3.58    2.14   -35.30436   135.64313    25.35172
   155  C   4.0    0.04    4.38    4.34   -35.51640   133.28003    26.68148
   156  C   4.0    0.16    3.48    3.11   -37.41195   133.40290    28.84803
   157  O   6.0   -0.32    1.26    1.80   -38.95198   131.71264    29.19649
   158  C   4.0   -0.07    4.16    3.92   -32.84782   132.74694    27.65314
   159  H   1.0    0.10    1.11    1.45   -33.50330   136.18856    24.99230
   160  H   1.0    0.05    1.05    1.44   -36.15047   131.77262    25.40044
   161  H   1.0    0.04    1.00    1.43   -32.81169   131.01616    28.75834
   162  H   1.0    0.05    1.00    1.43   -31.55424   132.54334    26.07143
   163  H   1.0    0.06    1.01    1.43   -32.21469   134.30294    28.83340
   164  N   5.0   -0.14    3.58    2.14   -37.03337   135.41041    30.31018
   165  C   4.0    0.03    4.44    4.44   -38.36314   135.96616    32.58869
   166  C   4.0    0.15    3.47    3.10   -41.18362   136.44612    32.18257
   167  O   6.0   -0.33    1.28    1.80   -42.77331   136.00168    33.83903
   168  C   4.0   -0.04    4.29    4.17   -37.19941   138.29186    33.80598
   169  C   4.0   -0.03    4.20    3.99   -38.31874   138.61542    36.44480
   170  C   4.0    0.24    3.06    3.02   -37.34874   140.93146    38.06118
   171  O   6.0   -0.31    1.14    1.80   -35.61445   142.32016    37.18480
   172  O   6.0   -0.31    1.16    1.80   -38.47572   141.09925    40.15457
   173  H   1.0    0.11    1.10    1.44   -35.63717   136.63923    29.85707
   174  H   1.0    0.04    1.05    1.44   -38.22721   134.35613    33.90300
   175  H   1.0    0.05    1.03    1.43   -35.15258   138.08345    33.94383
   176  H   1.0    0.07    1.04    1.43   -37.61662   139.95485    32.66899
   177  H   1.0    0.06    1.03    1.43   -40.36782   138.80927    36.36744
   178  H   1.0    0.04    1.02    1.43   -37.91422   136.95364    37.60871
   179  N   5.0   -0.13    3.60    2.16   -41.78931   137.40235    29.95543
   180  C   4.0    0.04    4.59    4.65   -44.40024   137.66634    29.24719
   181  C   4.0    0.15    3.60    3.17   -45.44874   135.35722    27.90740
   182  O   6.0   -0.30    1.33    1.80   -47.62144   134.62469    28.28912
   183  C   4.0   -0.02    4.32    4.24   -44.70508   139.95736    27.56091
   184  C   4.0   -0.08    4.14    3.88   -47.40266   140.12600    26.55709
   185  C   4.0   -0.08    4.16    3.92   -43.98712   142.23419    29.15030
   186  H   1.0    0.13    1.14    1.45   -40.44867   137.88327    28.67952
   187  H   1.0    0.05    1.07    1.44   -45.52454   137.91454    30.97097
   188  H   1.0    0.05    1.06    1.44   -43.39209   139.76241    25.97635
   189  H   1.0    0.03    1.00    1.43   -47.63905   141.86950    25.49679
   190  H   1.0    0.05    1.01    1.43   -47.82437   138.54958    25.31210
   191  H   1.0    0.04    1.00    1.43   -48.74956   140.10219    28.10706
   192  H   1.0    0.03    1.00    1.43   -44.16590   143.95627    28.04174
   193  H   1.0    0.03    1.00    1.43   -45.21892   142.38538    30.78719
   194  H   1.0    0.06    1.01    1.43   -42.04383   142.08833    29.78700
   195  N   5.0   -0.15    3.54    2.10   -43.88637   134.24171    26.24794
   196  C   4.0    0.03    4.48    4.51   -44.77364   131.85516    25.21345
   197  C   4.0    0.17    3.57    3.15   -45.77142   130.34516    27.49462
   198  O   6.0   -0.28    1.21    1.80   -47.80117   129.23606    27.52577
   199  C   4.0   -0.04    4.15    3.90   -42.84255   130.35417    23.63516
   200  C   4.0   -0.03    4.14    3.88   -44.34499   128.45221    21.99671
   201  C   4.0    0.24    3.02    3.02   -43.24297   126.99181    19.58598
   202  O   6.0   -0.31    1.14    1.80   -40.99048   126.29863    19.50663
   203  O   6.0   -0.32    1.17    1.80   -44.90972   126.58682    17.96313
   204  H   1.0    0.12    1.12    1.45   -42.08655   134.82915    26.00150
   205  H   1.0    0.05    1.06    1.44   -46.41938   132.26492    24.01408
   206  H   1.0    0.05    1.02    1.43   -41.83202   131.66744    22.40507
   207  H   1.0    0.06    1.02    1.43   -41.46862   129.40707    24.84206
   208  H   1.0    0.05    1.02    1.43   -45.12294   126.98876    23.22108
   209  H   1.0    0.05    1.04    1.43   -45.96473   129.44830    21.19166
   210  N   5.0   -0.14    3.56    2.12   -44.09538   130.39492    29.39335
   211  C   4.0    0.05    4.43    4.44   -44.63331   129.41993    31.87817
   212  C   4.0    0.17    3.58    3.15   -47.08166   130.51420    32.83721
   213  O   6.0   -0.26    1.38    1.80   -48.83121   129.05227    33.26465
   214  C   4.0   -0.04    4.23    4.06   -42.48832   129.79096    33.80575
   215  C   4.0   -0.04    4.12    3.85   -41.21660   127.24879    34.38814
   216  C   4.0    0.24    3.08    3.02   -43.19807   125.14009    35.28431
   217  O   6.0   -0.30    1.16    1.80   -44.66398   125.74826    37.02232
   218  O   6.0   -0.31    1.15    1.80   -43.11988   123.02330    34.22787
   219  H   1.0    0.11    1.12    1.45   -42.37888   131.20363    29.14000
   220  H   1.0    0.07    1.08    1.44   -44.99683   127.37641    31.72162
   221  H   1.0    0.06    1.03    1.43   -41.10771   131.11942    33.05233
   222  H   1.0    0.05    1.03    1.43   -43.25867   130.57357    35.55044
   223  H   1.0    0.05    1.02    1.43   -40.21737   126.54729    32.72393
   224  H   1.0    0.04    1.02    1.43   -39.85064   127.49636    35.91775
   225  N   5.0   -0.13    3.44    2.04   -47.32058   132.99785    33.24290
   226  C   4.0    0.04    4.42    4.41   -49.55940   133.61660    34.74841
   227  C   4.0    0.10    3.36    3.07   -51.86623   132.32242    33.59218
   228  O   6.0   -0.30    1.12    1.80   -53.34053   131.08289    34.88854
   229  C   4.0   -0.05    4.25    4.11   -50.00550   136.43547    35.08990
   230  C   4.0   -0.05    4.20    4.01   -51.14001   136.88893    37.69392
   231  C   4.0   -0.02    4.18    3.97   -51.02215   139.68982    38.36498
   232  N   5.0   -0.15    3.36    2.00   -51.85772   140.12541    40.95725
   233  C   4.0    0.08    3.31    3.06   -53.95115   141.29674    41.78820
   234  N   5.0   -0.21    3.24    1.96   -55.46140   142.61937    40.27111
   235  N   5.0   -0.21    3.23    1.96   -54.63994   141.13601    44.24077
   236  H   1.0    0.11    1.09    1.44   -45.77575   134.13536    33.40255
   237  H   1.0    0.05    1.07    1.44   -49.32615   132.72966    36.61414
   238  H   1.0    0.05    1.03    1.43   -48.17384   137.38300    34.98103
   239  H   1.0    0.04    1.02    1.43   -51.21583   137.16438    33.58989
   240  H   1.0    0.04    1.02    1.43   -53.08604   136.21334    37.74455
   241  H   1.0    0.04    1.03    1.43   -50.06190   135.82767    39.09554
   242  H   1.0    0.03    1.02    1.43   -49.07031   140.35389    38.21070
   243  H   1.0    0.03    1.03    1.43   -52.17689   140.77626    37.05305
   244  H   1.0    0.06    1.07    1.44   -50.83242   139.17271    42.25976
   245  H   1.0    0.06    1.03    1.43   -55.15669   142.74996    38.39744
   246  H   1.0    0.06    1.03    1.43   -57.02800   143.49224    40.92017
   247  H   1.0    0.06    1.03    1.43   -53.45331   140.36628    45.51411
   248  H   1.0    0.06    1.03    1.43   -55.94371   142.36420    44.89039
   249  H   1.0    0.09    1.08    1.44   -22.30171   156.16376     9.95316
   250  H   1.0    0.04    1.04    1.43   -23.76052   152.55705     5.05175
   251  H   1.0    0.09    1.08    1.44   -14.66937   152.64734    22.33459
   252  H   1.0    0.06    1.05    1.44   -52.20469   132.47364    31.73917

  Z AO/shell   Hii/eV     exponent
  1     Wed Apr 25 08:07:45 CEST 2018   EN: 2.200 GM2: 0.406  GM3: 0.0800  RAES: 1.40
     1s    -10.707211    1.230000
  6     Wed Apr 25 08:07:45 CEST 2018   EN: 2.550 GM2: 0.538  GM3: 0.1500  RAES: 3.00
     2s    -13.970922    2.096432
     2p    -10.063292    1.800000
  7     Wed Apr 25 08:07:45 CEST 2018   EN: 3.040 GM2: 0.461  GM3:-0.0640  RAES: 1.90
     2s    -16.686243    2.339881
     2p    -12.523956    2.014332
  8     Wed Apr 25 08:07:45 CEST 2018   EN: 3.440 GM2: 0.452  GM3:-0.0517  RAES: 1.80
     2s    -20.229985    2.439742
     2p    -15.503117    2.137023
 no old-style atom pair restraining (fixing) potential

molecular fragmentation (1/2 indicates fragments):
111111111111111111122222222222222222222222222222222222222222222222222222
222222222222222222222222222222222222222222222222222222222222222222222222
222222222222222222222222222222222222222222222222222222222222222222222222
222222222222222222222222222222221122
# atoms in fragment 1/2:    21   231
 fragment masses (1/2) :      115.17     1712.77
CMA distance (Bohr)    :  22.724
constraining FC (au)   :  0.0500
           ------------------------------------------------- 
          |        Self-Consistent Charge Iterations        |
           ------------------------------------------------- 

 Ncao       : 636
 Nao        : 636
 Nshell     : 380
 Nel        : 722
 T(el)      :   500.0
 intcut     :    35.0
 scfconv/Eh :  0.100E-06
   qconv/e  :  0.100E-04
 intneglect :  0.100E-08
 broydamp   :      0.400
 iter      E             dE          RMSdq      gap      omega  full diag
   1   -417.2864559 -0.417286E+03  0.495E+00    3.58       0.0  T
   2   -418.5101011 -0.122365E+01  0.224E+00    2.39       1.0  T
   3   -418.5913071 -0.812061E-01  0.131E+00    2.62       1.0  T
   4   -418.6607609 -0.694538E-01  0.268E-01    1.67       1.0  T
   5   -418.6646440 -0.388313E-02  0.141E-01    1.83       1.0  T
   6   -418.6650427 -0.398677E-03  0.517E-02    1.83       1.0  T
   7   -418.6652028 -0.160037E-03  0.204E-02    1.88       1.0  T
   8   -418.6652134 -0.106539E-04  0.852E-03    1.88       1.0  T
   9   -418.6652174 -0.394137E-05  0.349E-03    1.89       1.8  T
  10   -418.6652177 -0.334903E-06  0.126E-03    1.89       5.0  T
  11   -418.6652178 -0.947385E-07  0.524E-04    1.89      12.0  T
  12   -418.6652178 -0.108251E-07  0.211E-04    1.89      29.8  T
  13   -418.6652178 -0.132127E-08  0.975E-05    1.89      64.6  T
  14   -418.6652178 -0.402395E-09  0.326E-05    1.89     193.1  T
speedup  1.98
cpu  time for SCC    6.59 s
wall time for SCC    3.33 s

   *** convergence criteria satisfied after 14 iterations ***

          eigenvalues
 #    :         349        350        351        352        353        354        355        356
 occ. :        2.000      2.000      2.000      2.000      2.000      2.000      2.000      2.000
 eps  :       -10.401    -10.367    -10.327    -10.281    -10.220    -10.170    -10.028     -9.928
 #    :         357        358        359        360        361        362        363        364
 occ. :        2.000      2.000      2.000      2.000      2.000      0.000      0.000      0.000
 eps  :        -9.899     -9.745     -9.674     -9.667     -9.643     -7.751     -7.185     -6.886
 #    :         365        366        367        368        369        370        371        372
 occ. :        0.000      0.000      0.000      0.000      0.000      0.000      0.000      0.000
 eps  :        -6.835     -6.763     -6.687     -6.665     -6.603     -6.542     -6.461     -6.389


   #   Z            q   n(s)   n(p)   n(d)      C6AA      α(0)
   1   7 N     -0.385  1.309  4.076  0.000    29.959     8.129
   2   6 C      0.043  1.055  2.902  0.000    19.872     6.350
   3   6 C      0.203  1.092  2.705  0.000    23.679     7.969
   4   8 O     -0.372  1.754  4.617  0.000    21.124     6.162
   5   6 C     -0.068  1.060  3.008  0.000    21.788     6.644
   6   6 C     -0.020  1.065  2.955  0.000    20.895     6.502
   7   6 C     -0.114  1.044  3.069  0.000    22.734     6.799
   8   6 C     -0.117  1.043  3.074  0.000    22.802     6.810
   9   1 H      0.153  0.847  0.000  0.000     1.379     1.840
  10   1 H      0.040  0.960  0.000  0.000     2.452     2.449
  11   1 H      0.044  0.956  0.000  0.000     2.399     2.422
  12   1 H      0.043  0.957  0.000  0.000     2.415     2.430
  13   1 H      0.045  0.955  0.000  0.000     2.381     2.413
  14   1 H      0.055  0.945  0.000  0.000     2.260     2.351
  15   1 H      0.036  0.964  0.000  0.000     2.501     2.473
  16   1 H      0.021  0.979  0.000  0.000     2.718     2.578
  17   1 H      0.059  0.941  0.000  0.000     2.207     2.323
  18   1 H      0.034  0.966  0.000  0.000     2.524     2.485
  19   1 H      0.036  0.964  0.000  0.000     2.508     2.477
  20   7 N     -0.400  1.324  4.076  0.000    30.381     8.186
  21   6 C      0.041  1.046  2.913  0.000    19.886     6.350
  22   6 C      0.264  1.051  2.685  0.000    22.552     7.777
  23   8 O     -0.524  1.760  4.764  0.000    24.326     6.613
  24   6 C     -0.082  1.060  3.022  0.000    22.054     6.685
  25   6 C     -0.083  1.057  3.026  0.000    22.076     6.689
  26   6 C     -0.011  1.051  2.960  0.000    20.868     6.521
  27   7 N     -0.150  1.218  3.932  0.000    24.249     7.314
  28   6 C      0.238  1.017  2.746  0.000    23.026     7.856
  29   7 N     -0.231  1.232  3.999  0.000    26.057     7.581
  30   7 N     -0.255  1.237  4.018  0.000    26.627     7.664
  31   1 H      0.185  0.815  0.000  0.000     1.186     1.706
  32   1 H      0.027  0.973  0.000  0.000     2.625     2.534
  33   1 H      0.071  0.929  0.000  0.000     2.078     2.254
  34   1 H      0.046  0.954  0.000  0.000     2.374     2.410
  35   1 H      0.065  0.935  0.000  0.000     2.140     2.288
  36   1 H      0.089  0.911  0.000  0.000     1.893     2.152
  37   1 H      0.057  0.943  0.000  0.000     2.235     2.338
  38   1 H      0.068  0.932  0.000  0.000     2.104     2.268
  39   1 H      0.244  0.756  0.000  0.000     0.907     1.492
  40   1 H      0.219  0.781  0.000  0.000     1.015     1.578
  41   1 H      0.241  0.759  0.000  0.000     0.918     1.501
  42   1 H      0.263  0.737  0.000  0.000     0.836     1.433
  43   1 H      0.257  0.743  0.000  0.000     0.856     1.449
  44   7 N     -0.172  1.249  3.923  0.000    24.725     7.385
  45   6 C      0.008  1.072  2.920  0.000    20.459     6.443
  46   6 C      0.280  1.045  2.675  0.000    22.261     7.726
  47   8 O     -0.491  1.744  4.747  0.000    23.582     6.511
  48   6 C     -0.082  1.057  3.025  0.000    22.079     6.691
  49   6 C     -0.085  1.060  3.025  0.000    22.124     6.699
  50   6 C     -0.025  1.059  2.966  0.000    21.125     6.563
  51   7 N     -0.153  1.236  3.917  0.000    24.302     7.322
  52   6 C      0.233  1.026  2.740  0.000    23.105     7.869
  53   7 N     -0.234  1.234  4.000  0.000    26.134     7.592
  54   7 N     -0.263  1.273  3.989  0.000    26.816     7.691
  55   1 H      0.235  0.765  0.000  0.000     0.943     1.521
  56   1 H      0.090  0.910  0.000  0.000     1.881     2.145
  57   1 H      0.062  0.938  0.000  0.000     2.176     2.307
  58   1 H      0.071  0.929  0.000  0.000     2.072     2.251
  59   1 H      0.085  0.915  0.000  0.000     1.931     2.173
  60   1 H      0.091  0.909  0.000  0.000     1.869     2.138
  61   1 H      0.076  0.924  0.000  0.000     2.023     2.224
  62   1 H      0.103  0.897  0.000  0.000     1.760     2.074
  63   1 H      0.212  0.788  0.000  0.000     1.048     1.604
  64   1 H      0.255  0.745  0.000  0.000     0.863     1.455
  65   1 H      0.266  0.734  0.000  0.000     0.822     1.421
  66   1 H      0.234  0.766  0.000  0.000     0.948     1.525
  67   1 H      0.259  0.741  0.000  0.000     0.849     1.444
  68   7 N     -0.159  1.241  3.918  0.000    24.444     7.343
  69   6 C      0.025  1.064  2.911  0.000    20.149     6.390
  70   6 C      0.276  1.045  2.678  0.000    22.325     7.737
  71   8 O     -0.486  1.736  4.750  0.000    23.482     6.497
  72   6 C     -0.052  1.051  3.001  0.000    21.499     6.601
  73   6 C     -0.095  1.069  3.026  0.000    22.316     6.726
  74   6 C      0.370  1.025  2.606  0.000    20.734     7.452
  75   8 O     -0.653  1.781  4.872  0.000    27.449     7.024
  76   8 O     -0.636  1.768  4.868  0.000    27.022     6.970
  77   1 H      0.197  0.803  0.000  0.000     1.121     1.659
  78   1 H      0.086  0.914  0.000  0.000     1.918     2.166
  79   1 H      0.034  0.966  0.000  0.000     2.531     2.488
  80   1 H      0.037  0.963  0.000  0.000     2.484     2.465
  81   1 H      0.020  0.980  0.000  0.000     2.728     2.583
  82   1 H      0.034  0.966  0.000  0.000     2.526     2.485
  83   7 N     -0.167  1.243  3.924  0.000    24.625     7.370
  84   6 C      0.026  1.061  2.913  0.000    20.147     6.392
  85   6 C      0.285  1.040  2.675  0.000    22.177     7.712
  86   8 O     -0.510  1.746  4.763  0.000    24.001     6.568
  87   6 C     -0.044  1.050  2.994  0.000    21.348     6.575
  88   6 C     -0.094  1.065  3.030  0.000    22.303     6.725
  89   6 C      0.370  1.024  2.606  0.000    20.725     7.450
  90   8 O     -0.630  1.765  4.864  0.000    26.860     6.949
  91   8 O     -0.641  1.772  4.869  0.000    27.143     6.985
  92   1 H      0.204  0.796  0.000  0.000     1.084     1.631
  93   1 H      0.062  0.938  0.000  0.000     2.175     2.306
  94   1 H      0.047  0.953  0.000  0.000     2.362     2.403
  95   1 H      0.046  0.954  0.000  0.000     2.366     2.405
  96   1 H      0.024  0.976  0.000  0.000     2.679     2.560
  97   1 H      0.019  0.981  0.000  0.000     2.744     2.591
  98   7 N     -0.183  1.251  3.932  0.000    24.969     7.421
  99   6 C      0.025  1.070  2.905  0.000    20.173     6.398
 100   6 C      0.270  1.053  2.677  0.000    22.446     7.759
 101   8 O     -0.499  1.755  4.744  0.000    23.756     6.535
 102   6 C     -0.055  1.056  2.999  0.000    21.575     6.614
 103   6 C     -0.102  1.079  3.023  0.000    22.478     6.755
 104   6 C      0.365  1.034  2.601  0.000    20.819     7.466
 105   8 O     -0.612  1.771  4.840  0.000    26.407     6.890
 106   8 O     -0.616  1.753  4.863  0.000    26.519     6.904
 107   1 H      0.220  0.780  0.000  0.000     1.009     1.573
 108   1 H      0.068  0.932  0.000  0.000     2.102     2.268
 109   1 H      0.050  0.950  0.000  0.000     2.317     2.380
 110   1 H      0.046  0.954  0.000  0.000     2.371     2.408
 111   1 H      0.013  0.987  0.000  0.000     2.845     2.638
 112   1 H      0.010  0.990  0.000  0.000     2.891     2.659
 113   7 N     -0.177  1.258  3.919  0.000    24.838     7.402
 114   6 C      0.019  1.060  2.921  0.000    20.244     6.404
 115   6 C      0.288  1.041  2.671  0.000    22.111     7.700
 116   8 O     -0.484  1.736  4.747  0.000    23.428     6.490
 117   6 C      0.071  1.038  2.891  0.000    19.579     6.335
 118   8 O     -0.478  1.727  4.751  0.000    22.426     6.393
 119   1 H      0.230  0.770  0.000  0.000     0.963     1.537
 120   1 H      0.096  0.904  0.000  0.000     1.818     2.108
 121   1 H      0.077  0.923  0.000  0.000     2.006     2.215
 122   1 H      0.031  0.969  0.000  0.000     2.576     2.510
 123   1 H      0.359  0.641  0.000  0.000     0.568     1.184
 124   7 N     -0.203  1.265  3.939  0.000    25.424     7.489
 125   6 C      0.033  1.055  2.912  0.000    20.022     6.372
 126   6 C      0.282  1.044  2.674  0.000    22.234     7.724
 127   8 O     -0.502  1.746  4.756  0.000    23.833     6.545
 128   6 C     -0.136  1.044  3.092  0.000    23.166     6.861
 129   1 H      0.227  0.773  0.000  0.000     0.980     1.550
 130   1 H      0.064  0.936  0.000  0.000     2.157     2.297
 131   1 H      0.053  0.947  0.000  0.000     2.285     2.364
 132   1 H      0.063  0.937  0.000  0.000     2.163     2.300
 133   1 H      0.076  0.924  0.000  0.000     2.022     2.224
 134   7 N     -0.179  1.251  3.928  0.000    24.878     7.408
 135   6 C      0.033  1.059  2.908  0.000    20.006     6.365
 136   6 C      0.282  1.045  2.673  0.000    22.228     7.720
 137   8 O     -0.492  1.746  4.746  0.000    23.601     6.513
 138   6 C     -0.129  1.040  3.088  0.000    23.026     6.842
 139   1 H      0.221  0.779  0.000  0.000     1.005     1.570
 140   1 H      0.059  0.941  0.000  0.000     2.207     2.324
 141   1 H      0.075  0.925  0.000  0.000     2.033     2.230
 142   1 H      0.073  0.927  0.000  0.000     2.053     2.241
 143   1 H      0.070  0.930  0.000  0.000     2.090     2.261
 144   7 N     -0.184  1.248  3.936  0.000    24.986     7.424
 145   6 C      0.022  1.063  2.915  0.000    20.216     6.403
 146   6 C      0.275  1.042  2.683  0.000    22.353     7.742
 147   8 O     -0.499  1.741  4.758  0.000    23.764     6.536
 148   6 C     -0.142  1.046  3.096  0.000    23.299     6.883
 149   1 H      0.219  0.781  0.000  0.000     1.014     1.577
 150   1 H      0.080  0.920  0.000  0.000     1.979     2.200
 151   1 H      0.075  0.925  0.000  0.000     2.033     2.230
 152   1 H      0.083  0.917  0.000  0.000     1.951     2.184
 153   1 H      0.074  0.926  0.000  0.000     2.039     2.233
 154   7 N     -0.170  1.253  3.917  0.000    24.677     7.378
 155   6 C      0.021  1.058  2.921  0.000    20.221     6.402
 156   6 C      0.286  1.034  2.680  0.000    22.146     7.706
 157   8 O     -0.508  1.749  4.760  0.000    23.974     6.565
 158   6 C     -0.136  1.046  3.090  0.000    23.162     6.860
 159   1 H      0.249  0.751  0.000  0.000     0.887     1.475
 160   1 H      0.069  0.931  0.000  0.000     2.095     2.263
 161   1 H      0.063  0.937  0.000  0.000     2.163     2.300
 162   1 H      0.094  0.906  0.000  0.000     1.845     2.124
 163   1 H      0.072  0.928  0.000  0.000     2.067     2.248
 164   7 N     -0.180  1.242  3.938  0.000    24.908     7.412
 165   6 C      0.037  1.053  2.910  0.000    19.949     6.359
 166   6 C      0.273  1.043  2.684  0.000    22.389     7.749
 167   8 O     -0.514  1.741  4.772  0.000    24.085     6.580
 168   6 C     -0.051  1.049  3.002  0.000    21.478     6.597
 169   6 C     -0.091  1.068  3.023  0.000    22.241     6.715
 170   6 C      0.363  1.033  2.604  0.000    20.845     7.471
 171   8 O     -0.642  1.780  4.863  0.000    27.187     6.991
 172   8 O     -0.638  1.772  4.866  0.000    27.080     6.977
 173   1 H      0.222  0.778  0.000  0.000     1.002     1.568
 174   1 H      0.043  0.957  0.000  0.000     2.416     2.431
 175   1 H      0.036  0.964  0.000  0.000     2.500     2.473
 176   1 H      0.056  0.944  0.000  0.000     2.251     2.346
 177   1 H      0.034  0.966  0.000  0.000     2.536     2.490
 178   1 H      0.015  0.985  0.000  0.000     2.813     2.623
 179   7 N     -0.177  1.250  3.927  0.000    24.835     7.401
 180   6 C      0.024  1.057  2.919  0.000    20.149     6.388
 181   6 C      0.276  1.043  2.681  0.000    22.334     7.740
 182   8 O     -0.489  1.753  4.736  0.000    23.547     6.506
 183   6 C     -0.016  1.057  2.959  0.000    20.823     6.489
 184   6 C     -0.121  1.041  3.080  0.000    22.874     6.819
 185   6 C     -0.125  1.042  3.083  0.000    22.936     6.826
 186   1 H      0.237  0.763  0.000  0.000     0.934     1.514
 187   1 H      0.078  0.922  0.000  0.000     2.003     2.213
 188   1 H      0.044  0.956  0.000  0.000     2.395     2.420
 189   1 H      0.073  0.927  0.000  0.000     2.053     2.241
 190   1 H      0.032  0.968  0.000  0.000     2.560     2.502
 191   1 H      0.060  0.940  0.000  0.000     2.196     2.318
 192   1 H      0.064  0.936  0.000  0.000     2.147     2.292
 193   1 H      0.053  0.947  0.000  0.000     2.280     2.361
 194   1 H      0.046  0.954  0.000  0.000     2.365     2.405
 195   7 N     -0.213  1.262  3.951  0.000    25.638     7.520
 196   6 C      0.031  1.068  2.901  0.000    20.038     6.371
 197   6 C      0.298  1.039  2.663  0.000    21.940     7.670
 198   8 O     -0.505  1.751  4.753  0.000    23.885     6.552
 199   6 C     -0.054  1.055  2.999  0.000    21.543     6.609
 200   6 C     -0.096  1.077  3.019  0.000    22.343     6.732
 201   6 C      0.370  1.030  2.599  0.000    20.722     7.449
 202   8 O     -0.630  1.769  4.861  0.000    26.858     6.948
 203   8 O     -0.630  1.767  4.863  0.000    26.880     6.951
 204   1 H      0.228  0.772  0.000  0.000     0.973     1.545
 205   1 H      0.061  0.939  0.000  0.000     2.191     2.315
 206   1 H      0.050  0.950  0.000  0.000     2.320     2.382
 207   1 H      0.029  0.971  0.000  0.000     2.601     2.522
 208   1 H      0.003  0.997  0.000  0.000     3.012     2.714
 209   1 H      0.026  0.974  0.000  0.000     2.649     2.545
 210   7 N     -0.217  1.258  3.960  0.000    25.742     7.535
 211   6 C      0.053  1.049  2.897  0.000    19.687     6.318
 212   6 C      0.292  1.040  2.667  0.000    22.047     7.691
 213   8 O     -0.482  1.754  4.728  0.000    23.395     6.485
 214   6 C     -0.049  1.053  2.996  0.000    21.457     6.595
 215   6 C     -0.096  1.075  3.021  0.000    22.345     6.732
 216   6 C      0.369  1.032  2.599  0.000    20.749     7.454
 217   8 O     -0.630  1.767  4.862  0.000    26.866     6.949
 218   8 O     -0.647  1.774  4.873  0.000    27.296     7.005
 219   1 H      0.220  0.780  0.000  0.000     1.011     1.575
 220   1 H      0.032  0.968  0.000  0.000     2.559     2.502
 221   1 H      0.044  0.956  0.000  0.000     2.391     2.418
 222   1 H      0.038  0.962  0.000  0.000     2.478     2.462
 223   1 H      0.014  0.986  0.000  0.000     2.832     2.632
 224   1 H      0.026  0.974  0.000  0.000     2.641     2.541
 225   7 N     -0.195  1.280  3.915  0.000    25.228     7.460
 226   6 C      0.039  1.060  2.901  0.000    19.898     6.348
 227   6 C      0.224  1.077  2.699  0.000    23.287     7.903
 228   8 O     -0.386  1.743  4.643  0.000    21.407     6.203
 229   6 C     -0.074  1.053  3.022  0.000    21.917     6.664
 230   6 C     -0.081  1.055  3.026  0.000    22.044     6.684
 231   6 C     -0.023  1.055  2.968  0.000    21.063     6.549
 232   7 N     -0.138  1.212  3.926  0.000    23.989     7.274
 233   6 C      0.232  1.024  2.745  0.000    23.141     7.876
 234   7 N     -0.238  1.224  4.015  0.000    26.236     7.607
 235   7 N     -0.261  1.252  4.010  0.000    26.778     7.685
 236   1 H      0.220  0.780  0.000  0.000     1.011     1.575
 237   1 H      0.064  0.936  0.000  0.000     2.148     2.292
 238   1 H      0.064  0.936  0.000  0.000     2.151     2.293
 239   1 H      0.076  0.924  0.000  0.000     2.025     2.225
 240   1 H      0.082  0.918  0.000  0.000     1.963     2.191
 241   1 H      0.060  0.940  0.000  0.000     2.204     2.322
 242   1 H      0.080  0.920  0.000  0.000     1.979     2.200
 243   1 H      0.096  0.904  0.000  0.000     1.823     2.112
 244   1 H      0.227  0.773  0.000  0.000     0.979     1.550
 245   1 H      0.242  0.758  0.000  0.000     0.916     1.499
 246   1 H      0.268  0.732  0.000  0.000     0.818     1.416
 247   1 H      0.243  0.757  0.000  0.000     0.909     1.494
 248   1 H      0.265  0.735  0.000  0.000     0.827     1.425
 249   1 H      0.192  0.808  0.000  0.000     1.147     1.678
 250   1 H      0.070  0.930  0.000  0.000     2.084     2.257
 251   1 H      0.171  0.829  0.000  0.000     1.264     1.761
 252   1 H      0.056  0.944  0.000  0.000     2.241     2.341

 Mol. C6AA /au·bohr⁶  :     611466.358013
 Mol. C8AA /au·bohr⁸  :   13483615.660991
 Mol. α(0) /au        :       1160.923993

 
molecular dipole:
                 x           y           z       tot (Debye)
 q only:      109.219    -391.757    -101.637
   full:      112.002    -391.122    -100.839    1065.403
molecular quadrupole (traceless):
                xx          xy          yy          xz          yz          zz
 q only:    23117.788   20711.427  -47750.589    4543.375  -20161.780   24632.800
  q+dip:    22803.982   21257.481  -47475.717    4662.813  -19963.292   24671.735
   full:    22800.221   21253.694  -47470.903    4664.746  -19962.650   24670.682
speedup  1.98
cpu  time for grad    8.99 s
wall time for grad    4.53 s

SCC energy    :    -418.6735370
rep           :       4.5504364
ES            :       2.3428211
AES           :      -0.0800623
AXC           :       0.1026790
disp          :      -0.3191159
XB            :       0.0000000
fix           :       0.0000000
Gborn         :       0.0000000
Gsasa         :       0.0000000
Ghb           :       0.0000000
Gshift        :       0.0000000
Gsolv         :      -0.9706544     -609.09
Etot ala COSMO:    -418.6735370
grad norm     :       0.3360776
total E       :    -414.1032664
atomizationE  :      72.7434215    45647.19
(atE without considering molecular charge,
 total energy contains solvation terms)
H-L gap (eV)  :          1.8922

------------------------------------------------------------------------
 * finished run on 2019/05/11 at 04:47:22.178     
------------------------------------------------------------------------
 total:
 * wall-time:     0 d,  0 h,  0 min,  4.908 sec
 *  cpu-time:     0 d,  0 h,  0 min,  9.572 sec
 * ratio c/w:     1.950 speedup
 SCF:
 * wall-time:     0 d,  0 h,  0 min,  4.708 sec
 *  cpu-time:     0 d,  0 h,  0 min,  9.345 sec
 * ratio c/w:     1.985 speedup

