      -----------------------------------------------------------      
     |                   =====================                   |     
     |                           x T B                           |     
     |                   =====================                   |     
     |                         S. Grimme                         |     
     |          Mulliken Center for Theoretical Chemistry        |     
     |                    University of Bonn                     |     
     |                 Version 6.0.1 (SAW181210)                 |     
      -----------------------------------------------------------      

   This program is distributed in the hope that it will be useful,
   but WITHOUT ANY WARRANTY; without even the implied warranty of
   MERCHANTABILITY or FITNESS FOR A PARTICULAR PURPOSE.
   
   FOR NON-COMMERCIAL, ACADEMIA USE ONLY.
   
   Cite this work as:
   S. Grimme, C. Bannwarth, P. Shushkov, J. Comput. Theory Chem., 2017,
   13, 1989-2009.
   C. Bannwarth, S. Ehlert and S. Grimme., ChemRxiv, 2018, preprint.
   http://doi.org/10.26434/chemrxiv.7246238.v1
   
   for sTDA-xTB:
   S. Grimme and C. Bannwarth, J. Chem. Phys., 2016, 145, 054103.
   
   in the mass-spec context:
   V. Asgeirsson, C. Bauer and S. Grimme, Chem. Sci., 2017, 8, 4879.
   
   if GBSA is used:
   P. Shushkov, F. März and S. Grimme, unpublished.
   
   for ANC optimizer:
   S. Grimme, unpublished.
   Rational Function algorithm used in ANCopt:
   F. Eckert, P. Pulay, H.-J. Werner, J. Comput. Chem., 1997, 18, 1473.
   
   with help from (in alphabetical order)
   C. Bannwarth, F. Bohle, G. Brandenburg, E. Caldeweyher, M. Checinski,
   S. Dohm, S. Ehlert, S. Ehrlich, F. März, H. Neugebauer, J. Pisarek,
   P. Pracht, P. Shushkov, and S. Spicher.
   
 * started run on 2019/05/05 at 17:08:07.022     
========================================================================
 # omp threads = 2
========================================================================
number of atoms            : 58
number of electrons        : 164
charge                     : -1
spin                       : .0
first test random number   : .3308

########################################################################
# WARNING! Please study the warnings concerning your input carefully
#  - Process number higher than OMP_NUM_THREADS, I hope you know what you are doing.
########################################################################

           ------------------------------------------------- 
          |                 G F N 2 - x T B                 |
          | Geometry, Frequencies, Noncovalent interactions |
          |            JCTC 2018 parametrisation            |
           ------------------------------------------------- 
 
      method parameters     
 k(s)        :  1.8500
 k(p)        :  2.2300
 k(d)        :  2.2300
 k(f)        :  2.0000
 kEN (H0ij)  : -2.0000
 D4 a1       :  0.5200
 D4 a2       :  5.0000
 D4 s6       :  1.0000
 D4 s8       :  2.7000
 D4 s9       :  5.0000
 alphaj      :  2.0000

 Solvent             : h2o
 Using internal parameter file: .param_gbsa2_h2o
 Gsolv ref. state (COSMO-RS): gsolv [1 M gas/solution]
 temperature (mdtemp)       :    298.150000000000     
 dielectric constant        :    80.2000000000000     
 rho                        :    1.00000000000000     
 mass                       :    18.0000000000000     
 surface tension            :    15.5689454083859     
 probe radius               :   0.975313790000000     
 vdW radii scaling          :    1.00000000000000     
 Gshift (Eh)                :   1.857443126794793E-003
 c1                         :    1.55243817000000     
 soset                      :   0.130326360000000     
 HB correction              :  T

            Z     q(EN)     CN     RAES       Cart. coordinates
     1  N   5.0   -0.22    3.22    1.96    39.26726    28.84451    28.19963
     2  C   4.0    0.02    4.31    4.22    39.52552    27.96883    30.84422
     3  C   4.0    0.14    3.41    3.08    41.07250    29.76782    32.41115
     4  O   6.0   -0.32    1.29    1.80    40.57553    30.18849    34.65951
     5  C   4.0   -0.04    4.26    4.13    40.59902    25.22083    30.94670
     6  C   4.0   -0.04    4.23    4.06    38.64119    23.51968    29.72163
     7  C   4.0    0.24    3.13    3.03    39.64485    20.82622    29.50130
     8  O   6.0   -0.30    1.20    1.80    41.97115    20.58399    29.22471
     9  O   6.0   -0.31    1.17    1.80    38.07455    19.06484    29.42549
    10  H   1.0    0.07    1.02    1.43    40.00125    27.81346    26.76543
    11  H   1.0    0.04    1.05    1.44    37.62714    27.94799    31.68385
    12  H   1.0    0.06    1.03    1.43    42.38165    25.13828    29.92515
    13  H   1.0    0.06    1.02    1.43    40.92545    24.68053    32.90460
    14  H   1.0    0.04    1.02    1.43    36.88357    23.52356    30.80046
    15  H   1.0    0.04    1.03    1.43    38.24076    24.15286    27.80005
    16  N   5.0   -0.15    3.45    2.05    43.03279    30.84653    31.21881
    17  C   4.0    0.04    4.32    4.24    44.59003    32.63837    32.61284
    18  C   4.0    0.07    3.19    3.03    43.13938    35.14534    33.09241
    19  O   6.0   -0.32    1.14    1.80    43.25838    36.21176    35.15490
    20  C   4.0   -0.05    4.28    4.15    47.09839    33.03072    31.21787
    21  C   4.0   -0.04    4.21    4.02    48.94767    34.63884    32.66505
    22  C   4.0    0.14    3.20    3.04    51.50682    35.05190    31.36372
    23  O   6.0   -0.32    1.19    1.80    52.85022    36.86180    31.88341
    24  N   5.0   -0.20    3.19    1.95    52.25717    33.24967    29.72296
    25  H   1.0    0.07    1.06    1.44    43.58706    30.28698    29.47653
    26  H   1.0    0.06    1.06    1.44    44.97244    31.83876    34.48941
    27  H   1.0    0.04    1.04    1.43    47.86550    31.13882    30.92647
    28  H   1.0    0.03    1.03    1.43    46.68946    33.87572    29.37632
    29  H   1.0    0.05    1.03    1.43    48.17521    36.50606    33.06839
    30  H   1.0    0.05    1.03    1.43    49.37516    33.75988    34.48539
    31  H   1.0    0.07    1.03    1.43    51.07528    31.92551    29.05718
    32  H   1.0    0.08    1.03    1.43    53.89354    33.52369    28.78964
    33  N   5.0   -0.22    3.20    1.95    39.18145    34.20784    38.55036
    34  C   4.0    0.04    4.15    3.90    40.53105    32.75673    40.43479
    35  C   4.0    0.06    3.20    3.04    39.35677    33.16172    43.08902
    36  O   6.0   -0.31    1.11    1.80    39.29830    31.37958    44.57431
    37  C   4.0   -0.07    4.12    3.84    43.27684    33.51720    40.60382
    38  H   1.0    0.11    1.05    1.44    40.26195    35.14410    37.27664
    39  H   1.0    0.05    1.05    1.44    40.34088    30.73206    40.02888
    40  H   1.0    0.04    1.00    1.43    44.26817    32.22153    41.84924
    41  H   1.0    0.06    1.00    1.43    44.14420    33.45673    38.74433
    42  H   1.0    0.04    1.00    1.43    43.44137    35.42228    41.35620
    43  O   6.0   -0.33    2.03    1.83    42.53859    26.58919    37.78006
    44  H   1.0    0.12    0.96    1.43    42.90939    26.77685    39.57629
    45  H   1.0    0.15    1.01    1.43    41.63883    28.06247    37.17733
    46  O   6.0   -0.32    1.97    1.82    48.19036    25.50718    30.66986
    47  H   1.0    0.11    0.97    1.43    49.96988    25.69885    30.36065
    48  H   1.0    0.12    0.97    1.43    47.28607    26.46073    29.39166
    49  O   6.0   -0.31    1.93    1.82    47.43147    27.25244    35.56804
    50  H   1.0    0.15    1.01    1.43    47.61147    26.33649    33.99354
    51  H   1.0    0.15    1.00    1.43    45.80235    26.76022    36.23375
    52  O   6.0   -0.30    1.92    1.82    41.38932    21.57335    37.51095
    53  H   1.0    0.15    1.02    1.43    41.75277    23.37370    37.66477
    54  H   1.0    0.12    0.97    1.43    40.65262    21.06747    39.08786
    55  H   1.0    0.08    1.07    1.44    37.61850    28.97470    27.80315
    56  H   1.0    0.04    1.04    1.43    42.09394    35.91012    31.71646
    57  H   1.0    0.10    1.07    1.44    38.17944    33.17242    37.64678
    58  H   1.0    0.04    1.04    1.43    38.66289    34.85317    43.56717

  Z AO/shell   Hii/eV     exponent
  1     Wed Apr 25 08:07:45 CEST 2018   EN: 2.200 GM2: 0.406  GM3: 0.0800  RAES: 1.40
     1s    -10.707211    1.230000
  6     Wed Apr 25 08:07:45 CEST 2018   EN: 2.550 GM2: 0.538  GM3: 0.1500  RAES: 3.00
     2s    -13.970922    2.096432
     2p    -10.063292    1.800000
  7     Wed Apr 25 08:07:45 CEST 2018   EN: 3.040 GM2: 0.461  GM3:-0.0640  RAES: 1.90
     2s    -16.686243    2.339881
     2p    -12.523956    2.014332
  8     Wed Apr 25 08:07:45 CEST 2018   EN: 3.440 GM2: 0.452  GM3:-0.0517  RAES: 1.80
     2s    -20.229985    2.439742
     2p    -15.503117    2.137023
 no old-style atom pair restraining (fixing) potential

molecular fragmentation (1/2 indicates fragments):
1111111111111111111111111111111122222222222222222222221122
# atoms in fragment 1/2:    34    24
 fragment masses (1/2) :      258.25      145.16
CMA distance (Bohr)    :   7.220
constraining FC (au)   :  0.0500
           ------------------------------------------------- 
          |        Self-Consistent Charge Iterations        |
           ------------------------------------------------- 

 Ncao       : 139
 Nao        : 139
 Nshell     : 85
 Nel        : 164
 T(el)      :   500.0
 intcut     :    35.0
 scfconv/Eh :  0.100E-06
   qconv/e  :  0.100E-04
 intneglect :  0.100E-08
 broydamp   :      0.400
 iter      E             dE          RMSdq      gap      omega  full diag
   1    -96.9181772 -0.969182E+02  0.544E+00    3.75       0.0  T
   2    -97.2138676 -0.295690E+00  0.254E+00    2.00       1.0  T
   3    -97.2360724 -0.222048E-01  0.141E+00    2.16       1.0  T
   4    -97.2583113 -0.222389E-01  0.329E-01    1.28       1.0  T
   5    -97.2591826 -0.871282E-03  0.154E-01    1.40       1.0  T
   6    -97.2594588 -0.276134E-03  0.547E-02    1.37       1.0  T
   7    -97.2594890 -0.302363E-04  0.264E-02    1.38       1.0  T
   8    -97.2594934 -0.437303E-05  0.896E-03    1.39       1.5  T
   9    -97.2594947 -0.137146E-05  0.348E-03    1.40       3.8  T
  10    -97.2594949 -0.125942E-06  0.139E-03    1.40       9.4  T
  11    -97.2594949 -0.238586E-07  0.514E-04    1.40      25.5  T
  12    -97.2594949 -0.265295E-08  0.162E-04    1.40      81.0  T
  13    -97.2594949 -0.343562E-09  0.819E-05    1.40     160.3  T
  14    -97.2594949 -0.525091E-10  0.225E-05    1.40     582.6  T
speedup  1.01
cpu  time for SCC    0.19 s
wall time for SCC    0.18 s

   *** convergence criteria satisfied after 14 iterations ***

          eigenvalues
 #    :          70         71         72         73         74         75         76         77
 occ. :        2.000      2.000      2.000      2.000      2.000      2.000      2.000      2.000
 eps  :       -11.855    -11.656    -11.540    -11.421    -11.383    -11.273    -11.134    -10.942
 #    :          78         79         80         81         82         83         84         85
 occ. :        2.000      2.000      2.000      2.000      2.000      0.000      0.000      0.000
 eps  :       -10.411    -10.287     -9.926     -9.842     -9.497     -8.100     -7.631     -6.353
 #    :          86         87         88         89         90         91         92         93
 occ. :        0.000      0.000      0.000      0.000      0.000      0.000      0.000      0.000
 eps  :        -5.849     -4.292     -0.701      0.176      0.332      0.482      0.988      1.215


   #   Z            q   n(s)   n(p)   n(d)      C6AA      α(0)
   1   7 N     -0.391  1.307  4.084  0.000    30.134     8.153
   2   6 C      0.027  1.066  2.907  0.000    20.140     6.392
   3   6 C      0.269  1.049  2.682  0.000    22.451     7.760
   4   8 O     -0.505  1.746  4.759  0.000    23.891     6.553
   5   6 C     -0.047  1.054  2.993  0.000    21.419     6.589
   6   6 C     -0.081  1.061  3.020  0.000    22.042     6.683
   7   6 C      0.372  1.022  2.606  0.000    20.696     7.445
   8   8 O     -0.650  1.770  4.879  0.000    27.368     7.014
   9   8 O     -0.672  1.777  4.894  0.000    27.944     7.087
  10   1 H      0.159  0.841  0.000  0.000     1.344     1.816
  11   1 H      0.039  0.961  0.000  0.000     2.463     2.454
  12   1 H      0.049  0.951  0.000  0.000     2.336     2.390
  13   1 H      0.037  0.963  0.000  0.000     2.493     2.469
  14   1 H      0.012  0.988  0.000  0.000     2.856     2.643
  15   1 H      0.025  0.975  0.000  0.000     2.654     2.548
  16   7 N     -0.160  1.242  3.917  0.000    24.455     7.345
  17   6 C      0.024  1.063  2.913  0.000    20.173     6.396
  18   6 C      0.199  1.091  2.710  0.000    23.760     7.982
  19   8 O     -0.352  1.757  4.595  0.000    20.738     6.106
  20   6 C     -0.077  1.054  3.022  0.000    21.963     6.672
  21   6 C     -0.098  1.052  3.046  0.000    22.358     6.732
  22   6 C      0.290  1.041  2.669  0.000    22.082     7.694
  23   8 O     -0.505  1.758  4.747  0.000    23.899     6.554
  24   7 N     -0.289  1.267  4.022  0.000    27.463     7.783
  25   1 H      0.220  0.780  0.000  0.000     1.010     1.575
  26   1 H      0.099  0.901  0.000  0.000     1.792     2.093
  27   1 H      0.081  0.919  0.000  0.000     1.964     2.192
  28   1 H      0.073  0.927  0.000  0.000     2.049     2.239
  29   1 H      0.069  0.931  0.000  0.000     2.093     2.263
  30   1 H      0.086  0.914  0.000  0.000     1.916     2.165
  31   1 H      0.224  0.776  0.000  0.000     0.991     1.560
  32   1 H      0.231  0.769  0.000  0.000     0.961     1.535
  33   7 N     -0.388  1.311  4.077  0.000    30.028     8.138
  34   6 C      0.050  1.052  2.898  0.000    19.764     6.333
  35   6 C      0.197  1.100  2.703  0.000    23.793     7.988
  36   8 O     -0.387  1.759  4.628  0.000    21.429     6.206
  37   6 C     -0.118  1.040  3.078  0.000    22.813     6.809
  38   1 H      0.171  0.829  0.000  0.000     1.266     1.763
  39   1 H      0.038  0.962  0.000  0.000     2.479     2.462
  40   1 H      0.051  0.949  0.000  0.000     2.313     2.378
  41   1 H      0.073  0.927  0.000  0.000     2.050     2.239
  42   1 H      0.060  0.940  0.000  0.000     2.194     2.316
  43   8 O     -0.628  1.761  4.867  0.000    25.872     6.865
  44   1 H      0.332  0.668  0.000  0.000     0.633     1.250
  45   1 H      0.327  0.673  0.000  0.000     0.645     1.261
  46   8 O     -0.637  1.777  4.860  0.000    26.097     6.895
  47   1 H      0.346  0.654  0.000  0.000     0.596     1.213
  48   1 H      0.316  0.684  0.000  0.000     0.675     1.290
  49   8 O     -0.654  1.758  4.896  0.000    26.521     6.951
  50   1 H      0.311  0.689  0.000  0.000     0.689     1.304
  51   1 H      0.297  0.703  0.000  0.000     0.730     1.342
  52   8 O     -0.683  1.790  4.893  0.000    27.257     7.046
  53   1 H      0.321  0.679  0.000  0.000     0.660     1.277
  54   1 H      0.328  0.672  0.000  0.000     0.642     1.258
  55   1 H      0.180  0.820  0.000  0.000     1.216     1.727
  56   1 H      0.084  0.916  0.000  0.000     1.934     2.175
  57   1 H      0.174  0.826  0.000  0.000     1.249     1.750
  58   1 H      0.079  0.921  0.000  0.000     1.993     2.207

 Mol. C6AA /au·bohr⁶  :      28614.378394
 Mol. C8AA /au·bohr⁸  :     607957.721981
 Mol. α(0) /au        :        249.325291

 
molecular dipole:
                 x           y           z       tot (Debye)
 q only:      -39.609     -20.150     -33.879
   full:      -40.178     -20.454     -34.586     144.432
molecular quadrupole (traceless):
                xx          xy          yy          xz          yz          zz
 q only:     -775.186   -1218.727     926.421   -2041.769   -1093.227    -151.235
  q+dip:     -790.045   -1265.044     947.452   -2117.336   -1142.443    -157.406
   full:     -788.920   -1264.015     946.414   -2116.305   -1143.129    -157.494
speedup  1.09
cpu  time for grad    0.24 s
wall time for grad    0.22 s

SCC energy    :     -97.2585207
rep           :       1.0098663
ES            :       0.5666998
AES           :      -0.0130304
AXC           :       0.0213027
disp          :      -0.0498689
XB            :       0.0000000
fix           :       0.0000000
Gborn         :       0.0000000
Gsasa         :       0.0000000
Ghb           :       0.0000000
Gshift        :       0.0000000
Gsolv         :      -0.1694853     -106.35
Etot ala COSMO:     -97.2585207
grad norm     :       0.3276970
total E       :     -96.2471257
atomizationE  :      15.1710932     9520.00
(atE without considering molecular charge,
 total energy contains solvation terms)
H-L gap (eV)  :          1.3964

------------------------------------------------------------------------
 * finished run on 2019/05/05 at 17:08:07.527     
------------------------------------------------------------------------
 total:
 * wall-time:     0 d,  0 h,  0 min,  0.503 sec
 *  cpu-time:     0 d,  0 h,  0 min,  0.384 sec
 * ratio c/w:     0.765 speedup
 SCF:
 * wall-time:     0 d,  0 h,  0 min,  0.249 sec
 *  cpu-time:     0 d,  0 h,  0 min,  0.271 sec
 * ratio c/w:     1.087 speedup

