      -----------------------------------------------------------      
     |                   =====================                   |     
     |                           x T B                           |     
     |                   =====================                   |     
     |                         S. Grimme                         |     
     |          Mulliken Center for Theoretical Chemistry        |     
     |                    University of Bonn                     |     
     |                 Version 6.0.1 (SAW181210)                 |     
      -----------------------------------------------------------      

   This program is distributed in the hope that it will be useful,
   but WITHOUT ANY WARRANTY; without even the implied warranty of
   MERCHANTABILITY or FITNESS FOR A PARTICULAR PURPOSE.
   
   FOR NON-COMMERCIAL, ACADEMIA USE ONLY.
   
   Cite this work as:
   S. Grimme, C. Bannwarth, P. Shushkov, J. Comput. Theory Chem., 2017,
   13, 1989-2009.
   C. Bannwarth, S. Ehlert and S. Grimme., ChemRxiv, 2018, preprint.
   http://doi.org/10.26434/chemrxiv.7246238.v1
   
   for sTDA-xTB:
   S. Grimme and C. Bannwarth, J. Chem. Phys., 2016, 145, 054103.
   
   in the mass-spec context:
   V. Asgeirsson, C. Bauer and S. Grimme, Chem. Sci., 2017, 8, 4879.
   
   if GBSA is used:
   P. Shushkov, F. März and S. Grimme, unpublished.
   
   for ANC optimizer:
   S. Grimme, unpublished.
   Rational Function algorithm used in ANCopt:
   F. Eckert, P. Pulay, H.-J. Werner, J. Comput. Chem., 1997, 18, 1473.
   
   with help from (in alphabetical order)
   C. Bannwarth, F. Bohle, G. Brandenburg, E. Caldeweyher, M. Checinski,
   S. Dohm, S. Ehlert, S. Ehrlich, F. März, H. Neugebauer, J. Pisarek,
   P. Pracht, P. Shushkov, and S. Spicher.
   
 * started run on 2019/05/05 at 23:28:56.896     
========================================================================
 # omp threads = 2
========================================================================
number of atoms            : 815
number of electrons        : 2202
charge                     : 2
spin                       : .0
first test random number   : .0010

########################################################################
# WARNING! Please study the warnings concerning your input carefully
#  - Process number higher than OMP_NUM_THREADS, I hope you know what you are doing.
########################################################################

           ------------------------------------------------- 
          |                 G F N 2 - x T B                 |
          | Geometry, Frequencies, Noncovalent interactions |
          |            JCTC 2018 parametrisation            |
           ------------------------------------------------- 
 
      method parameters     
 k(s)        :  1.8500
 k(p)        :  2.2300
 k(d)        :  2.2300
 k(f)        :  2.0000
 kEN (H0ij)  : -2.0000
 D4 a1       :  0.5200
 D4 a2       :  5.0000
 D4 s6       :  1.0000
 D4 s8       :  2.7000
 D4 s9       :  5.0000
 alphaj      :  2.0000

 Solvent             : h2o
 Using internal parameter file: .param_gbsa2_h2o
 Gsolv ref. state (COSMO-RS): gsolv [1 M gas/solution]
 temperature (mdtemp)       :    298.150000000000     
 dielectric constant        :    80.2000000000000     
 rho                        :    1.00000000000000     
 mass                       :    18.0000000000000     
 surface tension            :    15.5689454083859     
 probe radius               :   0.975313790000000     
 vdW radii scaling          :    1.00000000000000     
 Gshift (Eh)                :   1.857443126794793E-003
 c1                         :    1.55243817000000     
 soset                      :   0.130326360000000     
 HB correction              :  T

            Z     q(EN)     CN     RAES       Cart. coordinates
     1  N   5.0   -0.18    3.18    1.95   -31.95338    76.50178    -6.92018
     2  C   4.0    0.03    4.31    4.22   -29.33611    76.87594    -6.08870
     3  C   4.0    0.15    3.40    3.08   -28.74462    79.62171    -5.57091
     4  O   6.0   -0.27    1.22    1.80   -29.28130    81.26011    -7.14127
     5  C   4.0   -0.04    4.35    4.29   -27.39536    75.78746    -7.95764
     6  C   4.0   -0.03    4.19    3.98   -26.73584    72.98689    -7.72898
     7  C   4.0   -0.07    4.10    3.80   -25.32989    72.06659   -10.08169
     8  C   4.0   -0.07    4.12    3.83   -25.15981    72.46721    -5.40840
     9  H   1.0    0.09    1.03    1.43   -32.07432    75.64762    -8.64361
    10  H   1.0    0.04    1.07    1.44   -29.14713    75.82903    -4.32558
    11  H   1.0    0.05    1.04    1.43   -28.12857    76.07092    -9.86059
    12  H   1.0    0.05    1.04    1.43   -25.63791    76.83248    -7.71764
    13  H   1.0    0.05    1.06    1.44   -28.50085    71.93998    -7.55323
    14  H   1.0    0.05    1.00    1.43   -24.88769    70.06726    -9.85870
    15  H   1.0    0.05    1.00    1.43   -26.53175    72.34060   -11.73142
    16  H   1.0    0.05    1.00    1.43   -23.59134    73.15129   -10.29145
    17  H   1.0    0.05    1.00    1.43   -24.73651    70.45276    -5.32336
    18  H   1.0    0.05    1.00    1.43   -23.40993    73.54813    -5.52934
    19  H   1.0    0.04    1.00    1.43   -26.22184    73.03413    -3.73599
    20  N   5.0   -0.14    3.46    2.05   -27.66559    80.10170    -3.33915
    21  C   4.0    0.03    4.48    4.51   -26.90592    82.57913    -2.44908
    22  C   4.0    0.16    3.41    3.08   -24.89714    83.64305    -4.23677
    23  O   6.0   -0.29    1.21    1.80   -23.05655    82.33158    -4.85471
    24  C   4.0   -0.03    4.29    4.17   -26.03475    82.40150     0.31936
    25  C   4.0   -0.08    4.14    3.88   -24.73840    84.81090     1.14517
    26  C   4.0   -0.07    4.11    3.82   -28.26463    81.82135     2.05980
    27  H   1.0    0.07    1.07    1.44   -27.27630    78.72976    -2.04279
    28  H   1.0    0.05    1.06    1.44   -28.49896    83.88493    -2.49255
    29  H   1.0    0.05    1.06    1.44   -24.67604    80.85948     0.46676
    30  H   1.0    0.03    1.00    1.43   -24.15070    84.61626     3.10860
    31  H   1.0    0.05    1.01    1.43   -23.09434    85.13215    -0.05291
    32  H   1.0    0.04    1.00    1.43   -26.05932    86.38126     0.95998
    33  H   1.0    0.04    1.00    1.43   -27.58811    81.70797     4.00244
    34  H   1.0    0.05    1.00    1.43   -29.65925    83.32747     1.88784
    35  H   1.0    0.05    1.00    1.43   -29.09989    80.02422     1.50233
    36  N   5.0   -0.13    3.38    2.01   -25.33745    85.98820    -5.15706
    37  C   4.0    0.04    4.36    4.32   -23.72173    87.27888    -7.02222
    38  C   4.0    0.16    3.42    3.08   -20.99863    87.70029    -6.18885
    39  O   6.0   -0.29    1.29    1.80   -20.45817    88.48453    -4.05157
    40  C   4.0    0.03    4.14    3.88   -24.88391    89.77521    -7.90283
    41  O   6.0   -0.24    2.04    1.83   -24.50597    91.74997    -6.13405
    42  H   1.0    0.08    1.06    1.44   -26.84356    87.06723    -4.62794
    43  H   1.0    0.05    1.07    1.44   -23.62157    85.98820    -8.62471
    44  H   1.0    0.04    1.01    1.43   -24.01086    90.31378    -9.68862
    45  H   1.0    0.05    1.02    1.43   -26.90970    89.50309    -8.16362
    46  H   1.0    0.11    1.01    1.43   -25.27319    93.31467    -6.75955
    47  N   5.0   -0.15    3.52    2.09   -19.30922    87.23353    -7.95953
    48  C   4.0    0.05    4.40    4.38   -16.60691    87.55856    -7.59481
    49  C   4.0    0.16    3.35    3.07   -15.83590    90.30622    -8.27511
    50  O   6.0   -0.28    1.21    1.80   -13.61925    91.00542    -7.95764
    51  C   4.0    0.06    4.19    3.98   -15.17828    85.57813    -9.22942
    52  O   6.0   -0.25    2.09    1.84   -15.55622    86.10536   -11.86748
    53  C   4.0   -0.06    4.04    3.69   -15.92094    82.81913    -8.59636
    54  H   1.0    0.08    1.07    1.44   -19.76275    86.60803    -9.72642
    55  H   1.0    0.07    1.05    1.44   -16.03432    87.20329    -5.64839
    56  H   1.0    0.05    1.04    1.43   -13.16950    85.72175    -8.79667
    57  H   1.0    0.12    1.01    1.43   -14.65671    84.85625   -12.89738
    58  H   1.0    0.05    0.99    1.43   -14.86836    81.51333    -9.79256
    59  H   1.0    0.05    1.00    1.43   -15.49575    82.40906    -6.62349
    60  H   1.0    0.06    1.00    1.43   -17.93728    82.54134    -8.91762
    61  N   5.0   -0.13    3.44    2.04   -17.67272    91.83879    -9.21808
    62  C   4.0    0.04    4.37    4.33   -17.15115    94.37102   -10.16295
    63  C   4.0    0.14    3.35    3.06   -18.63837    96.53665    -8.90817
    64  O   6.0   -0.29    1.24    1.80   -19.00875    98.51141   -10.10814
    65  C   4.0   -0.03    4.24    4.09   -17.49886    94.43527   -13.06179
    66  C   4.0   -0.03    4.20    3.99   -15.71874    92.67783   -14.56979
    67  C   4.0    0.16    3.22    3.04   -12.96730    92.77799   -13.75909
    68  O   6.0   -0.27    1.20    1.80   -11.77488    94.79432   -13.63626
    69  N   5.0   -0.16    3.19    1.95   -11.91472    90.57456   -13.17895
    70  H   1.0    0.08    1.07    1.44   -19.53032    91.33990    -9.33525
    71  H   1.0    0.08    1.07    1.44   -15.19151    94.76409    -9.66406
    72  H   1.0    0.05    1.03    1.43   -19.43205    93.87214   -13.49642
    73  H   1.0    0.07    1.03    1.43   -17.16060    96.35902   -13.71374
    74  H   1.0    0.05    1.03    1.43   -16.36314    90.73519   -14.33546
    75  H   1.0    0.06    1.03    1.43   -15.79811    93.21262   -16.55778
    76  H   1.0    0.10    1.04    1.43   -12.95029    88.95318   -13.29233
    77  H   1.0    0.11    1.02    1.43   -10.07224    90.50464   -12.61959
    78  N   5.0   -0.12    3.43    2.03   -19.35268    96.24752    -6.48554
    79  C   4.0    0.04    4.39    4.36   -20.61502    98.26008    -5.06824
    80  C   4.0    0.16    3.42    3.08   -18.67616    99.40336    -3.27678
    81  O   6.0   -0.24    1.25    1.80   -17.53855    98.02008    -1.79713
    82  C   4.0   -0.03    4.25    4.11   -22.90726    97.23774    -3.58292
    83  C   4.0    0.23    3.10    3.02   -24.51164    99.17660    -2.15429
    84  O   6.0   -0.32    1.29    1.80   -23.44016   101.06443    -1.20753
    85  O   6.0   -0.30    1.17    1.80   -26.82466    98.75141    -1.90673
    86  H   1.0    0.11    1.05    1.44   -19.07678    94.63559    -5.46698
    87  H   1.0    0.05    1.06    1.44   -21.32367    99.71139    -6.34570
    88  H   1.0    0.05    1.03    1.43   -24.15826    96.28910    -4.91518
    89  H   1.0    0.06    1.03    1.43   -22.21373    95.89036    -2.18830
    90  N   5.0   -0.13    3.43    2.03   -18.34168   101.92615    -3.36371
    91  C   4.0    0.05    4.36    4.31   -16.54833   103.30187    -1.75556
    92  C   4.0    0.17    3.38    3.07   -16.97541   102.95227     1.07714
    93  O   6.0   -0.29    1.22    1.80   -15.15560   103.11857     2.51334
    94  C   4.0    0.03    4.15    3.90   -16.48597   106.10055    -2.43019
    95  O   6.0   -0.23    2.07    1.83   -18.95962   107.10400    -2.67018
    96  H   1.0    0.09    1.06    1.44   -19.30922   103.09022    -4.55613
    97  H   1.0    0.09    1.07    1.44   -14.69262   102.50251    -2.15807
    98  H   1.0    0.05    1.02    1.43   -15.49386   107.12289    -0.94108
    99  H   1.0    0.04    1.01    1.43   -15.49764   106.33110    -4.22165
   100  H   1.0    0.12    1.01    1.43   -18.87458   108.90302    -3.10482
   101  N   5.0   -0.13    3.44    2.04   -19.34323   102.42315     1.88028
   102  C   4.0    0.03    4.36    4.31   -19.98007   102.09055     4.55424
   103  C   4.0    0.15    3.35    3.07   -19.95362    99.31644     5.41218
   104  O   6.0   -0.31    1.23    1.80   -19.59079    98.84967     7.65906
   105  C   4.0   -0.05    4.25    4.10   -22.47640   103.42092     5.26478
   106  C   4.0   -0.03    4.21    4.03   -24.84801   102.26441     4.15362
   107  C   4.0   -0.00    4.23    4.07   -27.19505   103.76107     4.79235
   108  N   5.0   -0.14    3.40    2.02   -29.45327   102.43637     3.91173
   109  C   4.0    0.10    3.35    3.06   -30.76852   100.82255     5.31013
   110  N   5.0   -0.17    3.29    1.98   -30.09767   100.35768     7.67985
   111  N   5.0   -0.17    3.26    1.97   -32.77919    99.67171     4.35582
   112  H   1.0    0.12    1.10    1.44   -20.85502   102.21528     0.70298
   113  H   1.0    0.06    1.07    1.44   -18.54577   103.05620     5.67296
   114  H   1.0    0.05    1.03    1.43   -22.67482   103.37557     7.31513
   115  H   1.0    0.05    1.03    1.43   -22.38002   105.37112     4.60904
   116  H   1.0    0.08    1.06    1.44   -24.67037   102.20016     2.10326
   117  H   1.0    0.05    1.03    1.43   -25.08233   100.35957     4.90006
   118  H   1.0    0.06    1.04    1.43   -27.32733   103.99918     6.83325
   119  H   1.0    0.04    1.03    1.43   -27.11190   105.60167     3.87205
   120  H   1.0    0.08    1.06    1.44   -30.05609   102.77275     2.11271
   121  H   1.0    0.10    1.04    1.43   -28.56321   101.24207     8.43763
   122  H   1.0    0.11    1.06    1.44   -31.11623    99.11424     8.74376
   123  H   1.0    0.09    1.02    1.43   -33.32154   100.02508     2.53979
   124  H   1.0    0.13    1.11    1.44   -33.78452    98.43205     5.43674
   125  N   5.0   -0.13    3.42    2.03   -20.32211    97.50041     3.66607
   126  C   4.0    0.04    4.44    4.45   -20.23708    94.78298     4.25944
   127  C   4.0    0.15    3.38    3.07   -17.55177    93.76820     3.68497
   128  O   6.0   -0.25    1.23    1.80   -16.81100    93.64348     1.47777
   129  C   4.0   -0.02    4.31    4.22   -22.25530    93.26742     2.80246
   130  C   4.0   -0.05    4.14    3.88   -24.94060    94.37669     3.12183
   131  C   4.0   -0.07    4.14    3.87   -22.13625    90.53866     3.59804
   132  C   4.0   -0.06    3.95    3.54   -26.91159    93.37136     1.10738
   133  H   1.0    0.10    1.06    1.44   -20.68683    97.86324     1.80847
   134  H   1.0    0.06    1.06    1.44   -20.58290    94.57134     6.27956
   135  H   1.0    0.06    1.06    1.44   -21.83389    93.40726     0.79180
   136  H   1.0    0.04    1.02    1.43   -25.64358    93.87781     4.99266
   137  H   1.0    0.05    1.03    1.43   -24.83667    96.42516     2.93096
   138  H   1.0    0.04    1.00    1.43   -23.56488    89.47474     2.56436
   139  H   1.0    0.06    1.01    1.43   -20.26353    89.79600     3.17096
   140  H   1.0    0.04    1.00    1.43   -22.49530    90.41394     5.62193
   141  H   1.0    0.06    0.99    1.43   -28.74273    94.24441     1.46832
   142  H   1.0    0.06    0.99    1.43   -26.25585    93.87025    -0.78046
   143  H   1.0    0.04    0.99    1.43   -27.06277    91.32479     1.28123
   144  N   5.0   -0.13    3.40    2.02   -16.10991    93.04255     5.65028
   145  C   4.0    0.04    4.37    4.33   -13.51721    92.10335     5.34603
   146  C   4.0    0.14    3.35    3.07   -13.24509    89.38971     6.29657
   147  O   6.0   -0.32    1.26    1.80   -14.03499    88.80011     8.43196
   148  C   4.0   -0.04    4.25    4.10   -11.59158    93.84946     6.66317
   149  C   4.0   -0.04    4.18    3.96   -11.34969    96.47996     5.49910
   150  C   4.0   -0.05    4.19    3.98    -9.52989    98.11646     7.01088
   151  C   4.0   -0.03    4.14    3.88    -9.31635   100.75830     5.96209
   152  N   5.0   -0.12    4.00    2.87    -7.57024   102.34000     7.49276
   153  H   1.0    0.11    1.08    1.44   -16.69951    93.08790     7.48520
   154  H   1.0    0.07    1.07    1.44   -13.09769    92.05800     3.32970
   155  H   1.0    0.05    1.03    1.43   -12.16417    94.09134     8.62660
   156  H   1.0    0.04    1.03    1.43    -9.73587    92.95940     6.57625
   157  H   1.0    0.06    1.03    1.43   -10.63349    96.31555     3.57536
   158  H   1.0    0.07    1.03    1.43   -13.19407    97.39648     5.48776
   159  H   1.0    0.05    1.03    1.43   -10.19885    98.25252     8.95352
   160  H   1.0    0.04    1.03    1.43    -7.65717    97.25853     6.96931
   161  H   1.0    0.05    1.02    1.43    -8.59069   100.66948     4.03645
   162  H   1.0    0.06    1.02    1.43   -11.17395   101.64836     5.97342
   163  H   1.0    0.05    1.01    1.43    -7.45686   104.14847     6.72931
   164  H   1.0    0.06    1.02    1.43    -8.22409   102.46850     9.34092
   165  H   1.0    0.05    1.02    1.43    -5.77500   101.54064     7.50599
   166  N   5.0   -0.14    3.43    2.03   -12.15661    87.74565     4.64873
   167  C   4.0    0.03    4.36    4.30   -11.68229    85.07357     5.17974
   168  C   4.0    0.15    3.34    3.06    -8.92896    84.83925     6.05846
   169  O   6.0   -0.27    1.21    1.80    -7.33025    83.72242     4.74888
   170  C   4.0   -0.03    4.25    4.10   -12.24731    83.42006     2.84215
   171  C   4.0   -0.04    4.20    4.01   -15.04222    83.35014     2.05602
   172  C   4.0    0.15    3.21    3.04   -15.84346    85.35514     0.16063
   173  O   6.0   -0.28    1.22    1.80   -14.43751    87.09180    -0.53857
   174  N   5.0   -0.18    3.20    1.96   -18.15649    85.14727    -0.73321
   175  H   1.0    0.10    1.06    1.44   -11.57457    88.25398     2.88372
   176  H   1.0    0.05    1.06    1.44   -12.94651    84.39516     6.65750
   177  H   1.0    0.07    1.03    1.43   -11.17206    84.15328     1.24533
   178  H   1.0    0.05    1.03    1.43   -11.66906    81.48687     3.25222
   179  H   1.0    0.04    1.03    1.43   -15.43150    81.51522     1.20753
   180  H   1.0    0.04    1.03    1.43   -16.19684    83.60526     3.74166
   181  H   1.0    0.08    1.03    1.43   -19.29032    83.70352    -0.14740
   182  H   1.0    0.13    1.08    1.44   -18.81411    86.43040    -2.01256
   183  N   5.0   -0.14    3.40    2.02    -8.40361    86.02599     8.26755
   184  C   4.0    0.03    4.24    4.09    -6.02067    86.27355     9.65650
   185  C   4.0    0.10    3.23    3.04    -4.14417    84.12682     9.37304
   186  O   6.0   -0.26    1.11    1.80    -2.08059    84.48020     8.33936
   187  C   4.0   -0.05    4.35    4.30    -6.57058    86.57590    12.51754
   188  C   4.0   -0.02    4.18    3.96    -6.42885    89.22530    13.66650
   189  C   4.0   -0.07    4.11    3.82    -8.56424    90.91849    12.71408
   190  C   4.0   -0.07    4.12    3.84    -6.56869    89.07979    16.51809
   191  H   1.0    0.08    1.08    1.44    -9.78311    86.94629     9.25210
   192  H   1.0    0.06    1.06    1.44    -5.11549    87.93084     8.83258
   193  H   1.0    0.05    1.04    1.43    -8.48109    85.88615    12.86147
   194  H   1.0    0.05    1.04    1.44    -5.20808    85.41750    13.53989
   195  H   1.0    0.05    1.06    1.44    -4.63361    90.06056    13.09580
   196  H   1.0    0.05    1.00    1.43    -8.38471    92.77799    13.58335
   197  H   1.0    0.04    1.00    1.43    -8.42629    91.08479    10.66561
   198  H   1.0    0.05    1.00    1.43   -10.37082    90.07379    13.22997
   199  H   1.0    0.05    1.00    1.43    -6.46475    90.98464    17.29288
   200  H   1.0    0.05    1.00    1.43    -8.35070    88.19918    17.05856
   201  H   1.0    0.05    1.00    1.43    -4.98888    87.95351    17.20973
   202  N   5.0   -0.19    3.22    1.96   -15.67717    81.91206    13.59847
   203  C   4.0    0.03    4.28    4.17   -17.06612    83.66951    12.01110
   204  C   4.0    0.15    3.41    3.08   -17.76342    85.93151    13.64949
   205  O   6.0   -0.29    1.23    1.80   -18.93127    85.58947    15.64504
   206  C   4.0   -0.04    4.32    4.24   -19.44906    82.37126    10.90750
   207  C   4.0   -0.02    4.19    3.97   -21.30099    83.98509     9.34469
   208  C   4.0   -0.08    4.12    3.84   -20.20684    84.65405     6.81246
   209  C   4.0   -0.08    4.09    3.79   -23.85212    82.66228     9.03478
   210  H   1.0    0.10    1.03    1.43   -16.63337    81.41317    15.19718
   211  H   1.0    0.04    1.06    1.44   -15.91527    84.33091    10.43696
   212  H   1.0    0.04    1.03    1.43   -18.81411    80.84626     9.67729
   213  H   1.0    0.05    1.03    1.43   -20.52620    81.60215    12.48542
   214  H   1.0    0.05    1.06    1.44   -21.62791    85.74065    10.37082
   215  H   1.0    0.04    1.00    1.43   -21.57122    85.79167     5.77122
   216  H   1.0    0.05    1.00    1.43   -18.47018    85.72364     7.09403
   217  H   1.0    0.04    1.00    1.43   -19.80433    82.91928     5.77689
   218  H   1.0    0.04    1.00    1.43   -25.10123    83.86415     7.92173
   219  H   1.0    0.04    1.00    1.43   -23.56299    80.86515     8.06913
   220  H   1.0    0.05    1.00    1.43   -24.66848    82.33536    10.89805
   221  N   5.0   -0.14    3.40    2.02   -16.99431    88.23130    12.85392
   222  C   4.0    0.04    4.39    4.36   -17.65193    90.52732    14.26365
   223  C   4.0    0.14    3.39    3.07   -19.31489    92.29799    12.70085
   224  O   6.0   -0.31    1.26    1.80   -18.73852    92.81200    10.48987
   225  C   4.0   -0.04    4.25    4.09   -15.30678    91.90682    15.29355
   226  C   4.0   -0.03    4.24    4.09   -15.94173    94.18583    16.95840
   227  C   4.0    0.15    3.23    3.04   -13.67028    95.78265    17.54422
   228  O   6.0   -0.30    1.21    1.80   -12.14905    96.43838    15.89448
   229  N   5.0   -0.18    3.19    1.95   -13.45107    96.52153    19.91204
   230  H   1.0    0.11    1.09    1.44   -15.93795    88.53933    11.27222
   231  H   1.0    0.06    1.08    1.44   -18.78766    89.95096    15.88126
   232  H   1.0    0.05    1.03    1.43   -14.20507    90.58590    16.42739
   233  H   1.0    0.06    1.03    1.43   -14.18239    92.58145    13.70429
   234  H   1.0    0.05    1.03    1.43   -17.31745    95.36880    15.98141
   235  H   1.0    0.05    1.04    1.43   -16.72785    93.51687    18.74041
   236  H   1.0    0.09    1.03    1.43   -14.77766    96.00375    21.21028
   237  H   1.0    0.10    1.02    1.43   -11.95441    97.61190    20.44683
   238  N   5.0   -0.15    3.41    2.03   -21.39170    93.20317    13.86492
   239  C   4.0    0.04    4.48    4.51   -23.10001    94.97763    12.64227
   240  C   4.0    0.15    3.40    3.08   -23.26820    97.40214    14.17672
   241  O   6.0   -0.29    1.22    1.80   -24.33967    97.38892    16.24408
   242  C   4.0   -0.02    4.33    4.26   -25.72295    93.84190    11.96763
   243  C   4.0   -0.05    4.26    4.11   -25.49807    91.72541    10.00610
   244  C   4.0   -0.06    4.13    3.86   -27.49740    95.87714    10.96797
   245  C   4.0   -0.07    4.08    3.77   -25.50752    89.24420    11.01521
   246  H   1.0    0.09    1.05    1.44   -21.91704    92.72507    15.65638
   247  H   1.0    0.06    1.08    1.44   -22.22507    95.51809    10.85837
   248  H   1.0    0.05    1.06    1.44   -26.49207    93.05011    13.70807
   249  H   1.0    0.04    1.05    1.44   -27.08922    91.86903     8.70597
   250  H   1.0    0.05    1.05    1.44   -23.72740    91.96918     8.98376
   251  H   1.0    0.05    1.00    1.43   -29.31343    95.01920    10.51444
   252  H   1.0    0.06    1.00    1.43   -27.74496    97.32089    12.41550
   253  H   1.0    0.05    1.00    1.43   -26.67348    96.71239     9.27477
   254  H   1.0    0.04    1.01    1.43   -25.33934    87.89115     9.47131
   255  H   1.0    0.05    1.01    1.43   -23.91448    89.03822    12.30401
   256  H   1.0    0.05    1.01    1.43   -27.27441    88.93806    12.02811
   257  N   5.0   -0.13    3.44    2.04   -22.15704    99.46006    13.17328
   258  C   4.0    0.03    4.37    4.32   -22.22129   101.97717    14.31656
   259  C   4.0    0.15    3.39    3.07   -24.55888   103.36801    13.34524
   260  O   6.0   -0.30    1.24    1.80   -25.56232   102.68582    11.34780
   261  C   4.0   -0.05    4.30    4.20   -19.86291   103.52675    13.60603
   262  C   4.0   -0.04    4.18    3.97   -17.43650   102.80298    14.93261
   263  C   4.0   -0.01    4.25    4.09   -15.51654   104.89491    14.61136
   264  N   5.0   -0.14    3.39    2.02   -12.92384   103.94438    14.51499
   265  C   4.0    0.09    3.34    3.06   -10.88104   105.40702    14.52254
   266  N   5.0   -0.18    3.27    1.97   -11.10592   107.90524    14.65105
   267  N   5.0   -0.18    3.23    1.96    -8.59258   104.38468    14.42050
   268  H   1.0    0.10    1.07    1.44   -21.17060    99.42793    11.51788
   269  H   1.0    0.05    1.05    1.44   -22.27042   101.80143    16.36881
   270  H   1.0    0.05    1.03    1.43   -19.53788   103.31132    11.58402
   271  H   1.0    0.04    1.04    1.43   -20.23330   105.50340    14.05389
   272  H   1.0    0.05    1.03    1.43   -17.79366   102.53086    16.94328
   273  H   1.0    0.05    1.03    1.43   -16.67872   101.07199    14.11058
   274  H   1.0    0.03    1.04    1.43   -15.89637   105.89457    12.85014
   275  H   1.0    0.05    1.03    1.43   -15.66205   106.19315    16.20440
   276  H   1.0    0.09    1.06    1.44   -12.66494   102.03575    14.43751
   277  H   1.0    0.08    1.03    1.43   -12.85392   108.71215    14.74553
   278  H   1.0    0.09    1.03    1.43    -9.52989   109.01640    14.65671
   279  H   1.0    0.09    1.02    1.43    -8.39605   102.46850    14.33546
   280  H   1.0    0.09    1.03    1.43    -7.03167   105.51474    14.42617
   281  N   5.0   -0.14    3.40    2.02   -25.36768   105.35789    14.73986
   282  C   4.0    0.03    4.34    4.28   -27.49740   107.05298    14.16539
   283  C   4.0    0.16    3.36    3.07   -29.79342   105.61111    13.12226
   284  O   6.0   -0.29    1.21    1.80   -30.44160   105.85867    10.89049
   285  C   4.0   -0.03    4.29    4.18   -26.65836   109.26773    12.44762
   286  C   4.0   -0.02    3.53    3.13   -24.29999   110.61133    13.36225
   287  C   4.0   -0.04    3.46    3.10   -24.42471   112.46326    15.22363
   288  C   4.0   -0.05    3.47    3.10   -21.94161   110.01984    12.37393
   289  C   4.0   -0.03    3.42    3.08   -22.25341   113.69347    16.07779
   290  C   4.0   -0.05    3.44    3.09   -19.75708   111.22360    13.22052
   291  C   4.0    0.07    3.44    3.09   -19.91960   113.06608    15.06301
   292  O   6.0   -0.22    2.10    1.84   -17.74831   114.23582    15.86992
   293  H   1.0    0.08    1.06    1.44   -24.51730   105.86812    16.39337
   294  H   1.0    0.04    1.06    1.44   -28.14369   107.91091    15.92283
   295  H   1.0    0.05    1.03    1.43   -26.27097   108.53263    10.56168
   296  H   1.0    0.05    1.03    1.43   -28.17959   110.65479    12.36448
   297  H   1.0    0.05    1.03    1.43   -26.23507   112.95837    16.02299
   298  H   1.0    0.04    1.03    1.43   -21.79799   108.59688    10.91884
   299  H   1.0    0.07    1.03    1.43   -22.38947   115.12777    17.52343
   300  H   1.0    0.04    1.03    1.43   -17.94106   110.71715    12.43818
   301  H   1.0    0.12    1.04    1.43   -16.28755   113.56119    14.95340
   302  N   5.0   -0.13    3.38    2.01   -30.93859   104.01996    14.76443
   303  C   4.0    0.04    4.30    4.19   -33.02674   102.29276    14.17105
   304  C   4.0    0.16    3.34    3.06   -35.52496   103.56454    13.39060
   305  O   6.0   -0.27    1.21    1.80   -36.53596   105.14057    14.76065
   306  C   4.0   -0.06    4.10    3.81   -33.46327   100.47862    16.35369
   307  H   1.0    0.08    1.06    1.44   -30.42459   103.88768    16.61636
   308  H   1.0    0.06    1.07    1.44   -32.42014   101.25908    12.49676
   309  H   1.0    0.06    1.00    1.43   -35.01662    99.21439    15.87370
   310  H   1.0    0.05    1.00    1.43   -31.74551    99.38825    16.67305
   311  H   1.0    0.06    1.00    1.43   -33.93381   101.56143    18.04121
   312  N   5.0   -0.12    3.44    2.04   -36.49061   102.83889    11.15127
   313  C   4.0    0.04    4.26    4.12   -38.87922   103.72328    10.06090
   314  C   4.0    0.09    3.20    3.04   -41.02973   102.05465    11.05301
   315  O   6.0   -0.28    1.15    1.80   -40.56864    99.99107    12.04322
   316  C   4.0   -0.05    4.25    4.09   -38.82442   103.56454     7.14316
   317  C   4.0   -0.04    4.16    3.92   -36.89879   105.28230     5.84303
   318  C   4.0   -0.05    4.16    3.93   -37.16902   105.28986     2.95364
   319  C   4.0   -0.04    4.12    3.85   -39.17969   107.07187     1.95776
   320  N   5.0   -0.12    4.00    2.87   -38.44836   109.77418     2.23555
   321  H   1.0    0.10    1.08    1.44   -35.60811   101.57277     9.99665
   322  H   1.0    0.06    1.05    1.44   -39.19859   105.69048    10.58436
   323  H   1.0    0.05    1.03    1.43   -38.37844   101.62568     6.60837
   324  H   1.0    0.04    1.03    1.43   -40.68769   104.08044     6.43074
   325  H   1.0    0.05    1.03    1.43   -37.16146   107.21360     6.51200
   326  H   1.0    0.05    1.03    1.43   -34.99961   104.63035     6.30224
   327  H   1.0    0.04    1.03    1.43   -35.37000   105.85678     2.12594
   328  H   1.0    0.04    1.03    1.43   -37.66224   103.38880     2.33381
   329  H   1.0    0.05    1.02    1.43   -39.48393   106.69393    -0.04346
   330  H   1.0    0.04    1.02    1.43   -40.92768   106.77141     3.00655
   331  H   1.0    0.06    1.01    1.43   -39.87322   110.93258     1.53257
   332  H   1.0    0.06    1.02    1.43   -38.15735   110.19937     4.13283
   333  H   1.0    0.06    1.02    1.43   -36.79107   110.12756     1.24155
   334  N   5.0   -0.20    3.18    1.95   -41.73838    95.53132     8.11070
   335  C   4.0    0.04    4.22    4.04   -39.84298    93.62647     8.76833
   336  C   4.0    0.09    3.19    3.04   -41.03162    91.53077    10.35381
   337  O   6.0   -0.26    1.12    1.80   -39.77684    89.65994    10.94340
   338  C   4.0   -0.02    4.27    4.14   -37.58287    94.80377    10.16673
   339  C   4.0    0.24    3.14    3.03   -35.72338    96.22862     8.49999
   340  O   6.0   -0.31    1.25    1.80   -35.51362    95.58234     6.22476
   341  O   6.0   -0.33    1.26    1.80   -34.40246    97.92182     9.48831
   342  H   1.0    0.11    1.04    1.43   -41.71381    97.06577     9.27666
   343  H   1.0    0.07    1.06    1.44   -39.04930    92.81767     7.04868
   344  H   1.0    0.07    1.04    1.43   -38.30286    96.13603    11.56323
   345  H   1.0    0.06    1.03    1.43   -36.53785    93.29577    11.10403
   346  O   6.0   -0.36    2.03    1.83    -2.35529   105.06041    -9.23761
   347  H   1.0    0.18    1.02    1.43    -2.33798   103.47278    -9.26596
   348  H   1.0    0.16    1.02    1.43    -0.84835   105.53889    -9.39257
   349  N   5.0   -0.14    3.44    2.04   -28.88363   122.19858    -9.14879
   350  C   4.0    0.03    4.45    4.46   -27.39954   120.54746    -7.46694
   351  C   4.0    0.15    3.39    3.07   -26.48059   122.04841    -5.18793
   352  O   6.0   -0.28    1.25    1.80   -25.99492   124.31448    -5.42981
   353  C   4.0   -0.04    4.35    4.30   -25.16789   119.69980    -9.12234
   354  C   4.0   -0.04    4.30    4.20   -25.71071   120.65691   -11.72827
   355  C   4.0    0.01    4.27    4.13   -27.44041   122.84260   -11.44103
   356  H   1.0    0.04    1.05    1.44   -28.47340   118.89156    -6.87923
   357  H   1.0    0.05    1.03    1.43   -23.42061   120.51521    -8.39668
   358  H   1.0    0.03    1.03    1.43   -25.04321   117.64431    -9.11289
   359  H   1.0    0.06    1.03    1.43   -23.95109   121.24045   -12.62589
   360  H   1.0    0.05    1.03    1.43   -26.60522   119.16803   -12.83376
   361  H   1.0    0.06    1.02    1.43   -26.38138   124.58998   -11.17647
   362  H   1.0    0.05    1.02    1.43   -28.68733   123.01480   -13.07186
   363  N   5.0   -0.14    3.42    2.03   -26.32705   120.84037    -2.96561
   364  C   4.0    0.04    4.47    4.50   -25.51538   122.14795    -0.66392
   365  C   4.0    0.14    3.42    3.09   -23.28762   120.79847     0.55873
   366  O   6.0   -0.32    1.30    1.80   -23.48136   118.55806     1.15210
   367  C   4.0   -0.02    4.24    4.08   -27.75275   122.60397     1.17856
   368  C   4.0   -0.07    4.11    3.83   -26.84739   123.37086     3.81095
   369  C   4.0   -0.06    4.10    3.79   -29.56991   124.57394     0.11464
   370  H   1.0    0.12    1.09    1.44   -26.75046   118.97695    -2.71239
   371  H   1.0    0.06    1.08    1.44   -24.75832   123.98457    -1.20439
   372  H   1.0    0.06    1.06    1.44   -28.76811   120.82264     1.38076
   373  H   1.0    0.05    1.00    1.43   -28.48566   123.66646     5.02415
   374  H   1.0    0.06    1.00    1.43   -25.66852   121.86760     4.57818
   375  H   1.0    0.05    1.00    1.43   -25.75813   125.11388     3.66355
   376  H   1.0    0.05    1.00    1.43   -31.11451   124.85037     1.44879
   377  H   1.0    0.06    1.00    1.43   -28.55437   126.34425    -0.15937
   378  H   1.0    0.06    1.00    1.43   -30.30960   123.90124    -1.68627
   379  N   5.0   -0.14    3.43    2.03   -21.16551   122.14593     0.90833
   380  C   4.0    0.04    4.51    4.54   -18.97325   120.98061     2.10075
   381  C   4.0    0.15    3.39    3.08   -19.13984   121.36482     4.93722
   382  O   6.0   -0.28    1.21    1.80   -19.06700   123.50920     5.84240
   383  C   4.0   -0.02    4.30    4.20   -16.37924   121.71302     0.94423
   384  C   4.0   -0.05    4.22    4.04   -16.37936   121.31596    -1.93949
   385  C   4.0   -0.06    4.11    3.83   -14.27297   120.18711     2.21791
   386  C   4.0   -0.06    4.05    3.70   -14.32049   122.56900    -3.29253
   387  H   1.0    0.08    1.05    1.44   -20.93299   123.98864     0.39621
   388  H   1.0    0.06    1.09    1.44   -19.09736   118.95529     1.74737
   389  H   1.0    0.05    1.06    1.44   -16.04146   123.71535     1.28816
   390  H   1.0    0.04    1.04    1.43   -16.22873   119.29786    -2.31932
   391  H   1.0    0.05    1.04    1.43   -18.15071   122.04625    -2.69727
   392  H   1.0    0.05    1.00    1.43   -12.46483   120.71864     1.38832
   393  H   1.0    0.06    1.00    1.43   -14.27088   120.60269     4.23614
   394  H   1.0    0.06    1.00    1.43   -14.62201   118.18038     1.91555
   395  H   1.0    0.05    1.00    1.43   -14.49784   122.16734    -5.30509
   396  H   1.0    0.05    1.01    1.43   -14.44248   124.59893    -2.96750
   397  H   1.0    0.05    1.01    1.43   -12.52213   121.85149    -2.58955
   398  N   5.0   -0.14    3.44    2.04   -19.40682   119.25833     6.30917
   399  C   4.0    0.04    4.34    4.28   -19.65156   119.14434     9.05872
   400  C   4.0    0.15    3.33    3.06   -17.04569   118.95999    10.39286
   401  O   6.0   -0.27    1.21    1.80   -16.55789   120.38691    12.17487
   402  C   4.0   -0.05    4.23    4.07   -21.42881   116.96934     9.80138
   403  C   4.0   -0.05    4.16    3.93   -24.03504   117.02079     8.47479
   404  C   4.0   -0.01    4.20    4.00   -25.97501   118.83473     9.58973
   405  N   5.0   -0.14    3.39    2.02   -26.67253   118.15950    12.18054
   406  C   4.0    0.09    3.35    3.06   -25.65024   119.18183    14.23657
   407  N   5.0   -0.17    3.27    1.97   -23.88370   120.95278    14.02870
   408  N   5.0   -0.18    3.24    1.96   -26.38228   118.43925    16.51369
   409  H   1.0    0.09    1.07    1.44   -19.46316   117.50157     5.51926
   410  H   1.0    0.06    1.06    1.44   -20.52609   120.87993     9.74091
   411  H   1.0    0.04    1.03    1.43   -20.52074   115.18601     9.31572
   412  H   1.0    0.06    1.03    1.43   -21.76289   117.05966    11.83094
   413  H   1.0    0.05    1.03    1.43   -23.74993   117.56753     6.50948
   414  H   1.0    0.04    1.03    1.43   -24.84533   115.12979     8.56928
   415  H   1.0    0.05    1.04    1.43   -25.18601   120.73801     9.61430
   416  H   1.0    0.04    1.02    1.43   -27.68088   118.79404     8.43511
   417  H   1.0    0.08    1.06    1.44   -28.03331   116.81545    12.42432
   418  H   1.0    0.09    1.04    1.43   -23.30425   121.53689    12.28448
   419  H   1.0    0.10    1.02    1.43   -23.10720   121.73079    15.61229
   420  H   1.0    0.09    1.02    1.43   -27.73564   117.07782    16.69510
   421  H   1.0    0.09    1.03    1.43   -25.59237   119.22915    18.08405
   422  N   5.0   -0.13    3.44    2.04   -15.39623   117.22867     9.52737
   423  C   4.0    0.04    4.40    4.38   -12.83188   116.93083    10.49680
   424  C   4.0    0.15    3.41    3.08   -11.07686   117.32500     8.24802
   425  O   6.0   -0.31    1.29    1.80   -11.36553   116.08423     6.29405
   426  C   4.0   -0.04    4.24    4.08   -12.44289   114.32779    11.73835
   427  C   4.0   -0.03    4.22    4.03    -9.93746   114.06396    13.17265
   428  C   4.0    0.16    3.22    3.04    -9.80089   115.67621    15.52725
   429  O   6.0   -0.26    1.20    1.80   -11.11014   115.21888    17.40564
   430  N   5.0   -0.17    3.18    1.95    -8.17627   117.57929    15.48378
   431  H   1.0    0.09    1.06    1.44   -15.81220   115.98285     8.11763
   432  H   1.0    0.06    1.06    1.44   -12.41618   118.32737    11.95189
   433  H   1.0    0.05    1.04    1.43   -13.97024   114.00292    13.08194
   434  H   1.0    0.04    1.03    1.43   -12.47792   112.88384    10.27003
   435  H   1.0    0.05    1.04    1.43    -9.69823   112.09726    13.73957
   436  H   1.0    0.05    1.04    1.43    -8.39637   114.63183    11.92921
   437  H   1.0    0.10    1.03    1.43    -7.10089   117.89234    13.91531
   438  H   1.0    0.11    1.02    1.43    -8.00120   118.73290    17.01824
   439  N   5.0   -0.13    3.35    2.00    -9.38622   119.15723     8.48991
   440  C   4.0    0.02    4.25    4.11    -7.62373   119.85912     6.48869
   441  C   4.0    0.15    3.37    3.07    -4.88617   119.24524     7.05939
   442  O   6.0   -0.27    1.25    1.80    -4.30308   118.43727     9.17021
   443  H   1.0    0.09    1.06    1.44    -9.18108   120.21929    10.08484
   444  H   1.0    0.06    1.04    1.43    -8.14734   118.86528     4.76148
   445  H   1.0    0.05    1.03    1.43    -7.76096   121.88912     6.16177
   446  N   5.0   -0.08    3.63    2.19    -3.13462   119.59560     5.22635
   447  C   4.0    0.04    4.48    4.51    -0.47305   118.97104     5.72902
   448  C   4.0    0.10    3.21    3.04     0.61747   120.52350     7.89276
   449  O   6.0   -0.25    1.14    1.80    -0.07522   122.72145     8.18377
   450  C   4.0   -0.04    4.37    4.32     0.83447   119.51230     3.19679
   451  C   4.0   -0.04    4.30    4.19    -0.85575   121.35442     1.88343
   452  C   4.0   -0.01    4.35    4.28    -3.47151   120.52764     2.62042
   453  H   1.0    0.06    1.05    1.44    -0.27122   116.97358     6.18822
   454  H   1.0    0.05    1.03    1.43     2.69684   120.32673     3.52938
   455  H   1.0    0.04    1.03    1.43     1.01094   117.76949     2.11208
   456  H   1.0    0.06    1.03    1.43    -0.46657   123.26816     2.53916
   457  H   1.0    0.04    1.03    1.43    -0.58577   121.24001    -0.15559
   458  H   1.0    0.04    1.02    1.43    -4.78338   122.11424     2.57318
   459  H   1.0    0.04    1.03    1.43    -4.14178   119.02277     1.38454
   460  N   5.0   -0.18    3.21    1.96     0.78557   109.95252     4.31928
   461  C   4.0    0.04    4.30    4.19    -1.77076   108.94523     4.07929
   462  C   4.0    0.15    3.38    3.07    -3.75088   111.00710     3.80150
   463  O   6.0   -0.29    1.23    1.80    -3.23097   113.22286     4.26070
   464  C   4.0    0.03    4.14    3.89    -2.40405   107.11134     6.21468
   465  O   6.0   -0.24    2.04    1.83    -1.59855   108.03407     8.59951
   466  H   1.0    0.11    1.03    1.43     1.24173   110.48561     6.11452
   467  H   1.0    0.05    1.07    1.44    -1.85855   107.86342     2.32940
   468  H   1.0    0.04    1.02    1.43    -4.44567   106.83681     6.26759
   469  H   1.0    0.03    1.02    1.43    -1.46111   105.31660     5.84618
   470  H   1.0    0.12    1.01    1.43    -2.03057   106.81715     9.92799
   471  N   5.0   -0.14    3.47    2.06    -6.00884   110.25959     2.96435
   472  C   4.0    0.04    4.48    4.51    -8.11588   111.92778     2.42200
   473  C   4.0    0.14    3.39    3.08   -10.62438   110.50446     2.36720
   474  O   6.0   -0.30    1.22    1.80   -10.85982   108.58488     1.04628
   475  C   4.0   -0.02    4.21    4.02    -7.65675   113.28616    -0.06488
   476  S   6.0   -0.03    2.42    3.10    -8.98450   116.41373    -0.15937
   477  H   1.0    0.10    1.08    1.44    -6.44647   108.41311     2.62987
   478  H   1.0    0.06    1.09    1.44    -8.28889   113.29108     3.95646
   479  H   1.0    0.05    1.08    1.44    -5.62593   113.45127    -0.36724
   480  H   1.0    0.05    1.08    1.44    -8.50896   112.19182    -1.58800
   481  N   5.0   -0.14    3.43    2.04   -12.50928   111.47270     3.77882
   482  C   4.0    0.04    4.46    4.48   -15.05588   110.38778     3.93378
   483  C   4.0    0.14    3.42    3.08   -16.96403   112.29463     2.89443
   484  O   6.0   -0.31    1.25    1.80   -17.01861   114.46020     3.76559
   485  C   4.0   -0.02    4.26    4.13   -15.71586   109.56213     6.65687
   486  C   4.0   -0.08    4.13    3.86   -18.48099   108.82813     6.87041
   487  C   4.0   -0.07    4.11    3.82   -14.03645   107.39893     7.52426
   488  H   1.0    0.11    1.10    1.44   -12.30933   113.05490     4.86163
   489  H   1.0    0.06    1.07    1.44   -15.14952   108.72892     2.71680
   490  H   1.0    0.04    1.06    1.44   -15.37985   111.16834     7.90220
   491  H   1.0    0.03    1.00    1.43   -18.87496   108.25914     8.81116
   492  H   1.0    0.05    1.01    1.43   -19.64597   110.44994     6.36208
   493  H   1.0    0.04    1.00    1.43   -18.85948   107.26172     5.58729
   494  H   1.0    0.04    1.00    1.43   -14.55821   106.87317     9.44611
   495  H   1.0    0.06    1.00    1.43   -14.30377   105.79452     6.26003
   496  H   1.0    0.05    1.00    1.43   -12.07089   108.01414     7.47324
   497  N   5.0   -0.14    3.43    2.04   -18.48611   111.52158     1.02360
   498  C   4.0    0.04    4.37    4.32   -20.35844   113.20700    -0.07811
   499  C   4.0    0.14    3.39    3.08   -22.95576   111.99644    -0.16882
   500  O   6.0   -0.29    1.23    1.80   -23.19233   109.71965    -0.65259
   501  C   4.0   -0.07    4.11    3.83   -19.54630   114.04299    -2.68782
   502  H   1.0    0.09    1.07    1.44   -18.45249   109.75433     0.25259
   503  H   1.0    0.06    1.08    1.44   -20.55100   114.86526     1.12943
   504  H   1.0    0.04    1.00    1.43   -20.98034   115.30080    -3.46639
   505  H   1.0    0.04    1.00    1.43   -17.74620   115.03302    -2.54420
   506  H   1.0    0.04    1.00    1.43   -19.34109   112.38397    -3.88969
   507  N   5.0   -0.14    3.46    2.06   -24.90866   113.53854     0.30740
   508  C   4.0    0.04    4.45    4.47   -27.53658   112.72095     0.34141
   509  C   4.0    0.15    3.39    3.08   -29.05005   113.88279    -1.80343
   510  O   6.0   -0.31    1.28    1.80   -28.58146   116.04744    -2.53664
   511  C   4.0    0.05    4.22    4.05   -28.74999   113.31023     2.91333
   512  O   6.0   -0.24    2.09    1.84   -28.77281   115.97680     3.35552
   513  C   4.0   -0.07    4.07    3.74   -27.46557   111.92932     5.09218
   514  H   1.0    0.12    1.11    1.44   -24.70528   115.41771     0.68534
   515  H   1.0    0.05    1.07    1.44   -27.61221   110.68511     0.03905
   516  H   1.0    0.04    1.05    1.44   -30.69335   112.62766     2.86797
   517  H   1.0    0.11    1.01    1.43   -29.54774   116.33911     4.99770
   518  H   1.0    0.04    1.00    1.43   -28.38860   112.40550     6.87041
   519  H   1.0    0.04    1.00    1.43   -27.58269   109.89343     4.80305
   520  H   1.0    0.05    1.00    1.43   -25.48297   112.47578     5.20179
   521  N   5.0   -0.14    3.34    2.00   -30.89455   112.44924    -2.73506
   522  C   4.0    0.02    4.15    3.89   -32.61273   113.27540    -4.72306
   523  C   4.0    0.08    3.11    3.03   -33.89487   111.16804    -6.17625
   524  O   6.0   -0.28    1.13    1.80   -33.12531   108.96717    -6.03452
   525  H   1.0    0.09    1.06    1.44   -31.25718   110.65329    -2.13413
   526  H   1.0    0.05    1.03    1.43   -34.08892   114.43753    -3.87835
   527  H   1.0    0.05    1.03    1.43   -31.55640   114.41336    -6.07799
   528  N   5.0   -0.14    3.40    2.02   -35.71697   110.29109   -13.73327
   529  C   4.0    0.03    4.45    4.46   -34.39165   107.82827   -13.69736
   530  C   4.0    0.15    3.34    3.06   -31.94167   107.79720   -12.14212
   531  O   6.0   -0.29    1.23    1.80   -31.15025   109.76891   -11.18970
   532  C   4.0   -0.04    4.36    4.32   -33.91530   107.31540   -16.51117
   533  C   4.0   -0.04    4.30    4.19   -33.58176   109.89623   -17.61288
   534  C   4.0   -0.00    4.26    4.11   -35.48018   111.51380   -16.23338
   535  H   1.0    0.04    1.05    1.44   -35.61750   106.36267   -12.92636
   536  H   1.0    0.05    1.03    1.43   -32.21681   106.17548   -16.74927
   537  H   1.0    0.05    1.02    1.43   -35.53270   106.35081   -17.34453
   538  H   1.0    0.05    1.03    1.43   -31.66051   110.56320   -17.28028
   539  H   1.0    0.05    1.03    1.43   -33.97361   109.85626   -19.63488
   540  H   1.0    0.05    1.02    1.43   -34.78528   113.44305   -16.03684
   541  H   1.0    0.05    1.02    1.43   -37.28947   111.51319   -17.21792
   542  N   5.0   -0.14    3.42    2.03   -30.76543   105.54483   -11.89079
   543  C   4.0    0.04    4.47    4.49   -28.43852   105.14186   -10.45081
   544  C   4.0    0.15    3.46    3.10   -26.25574   106.63976   -11.63378
   545  O   6.0   -0.27    1.22    1.80   -25.53369   106.08759   -13.78618
   546  C   4.0   -0.02    4.26    4.12   -27.81428   102.31135   -10.13334
   547  C   4.0   -0.06    4.11    3.83   -25.57738   101.96034    -8.36456
   548  C   4.0   -0.07    4.11    3.83   -30.11157   100.83810    -9.17903
   549  H   1.0    0.07    1.06    1.44   -31.41748   103.92033   -12.69770
   550  H   1.0    0.05    1.08    1.44   -28.72340   105.91077    -8.56109
   551  H   1.0    0.06    1.06    1.44   -27.30294   101.54917   -11.97771
   552  H   1.0    0.05    1.00    1.43   -25.18083    99.94865    -8.17558
   553  H   1.0    0.07    1.00    1.43   -23.94028   102.92884    -9.15446
   554  H   1.0    0.06    1.00    1.43   -26.04589   102.75890    -6.52396
   555  H   1.0    0.05    1.00    1.43   -29.59912    98.85331    -8.97872
   556  H   1.0    0.05    1.00    1.43   -30.68712   101.60244    -7.35544
   557  H   1.0    0.05    1.00    1.43   -31.64574   101.03432   -10.53963
   558  N   5.0   -0.09    3.61    2.17   -25.26186   108.59932   -10.29019
   559  C   4.0    0.04    4.57    4.63   -23.28913   110.19449   -11.41646
   560  C   4.0    0.16    3.38    3.07   -20.81255   108.87156   -12.00039
   561  O   6.0   -0.30    1.26    1.80   -19.96960   107.20221   -10.60388
   562  C   4.0   -0.05    4.37    4.33   -22.95918   112.33445    -9.49083
   563  C   4.0   -0.04    4.30    4.20   -25.28423   112.26065    -7.87701
   564  C   4.0   -0.00    4.36    4.31   -25.95665   109.53507    -7.75229
   565  H   1.0    0.06    1.07    1.44   -24.00898   110.92432   -13.20226
   566  H   1.0    0.04    1.03    1.43   -21.27068   112.00112    -8.36078
   567  H   1.0    0.04    1.02    1.43   -22.80348   114.13859   -10.47349
   568  H   1.0    0.05    1.03    1.43   -24.87024   113.00793    -6.00240
   569  H   1.0    0.05    1.03    1.43   -26.78978   113.35682    -8.75573
   570  H   1.0    0.06    1.02    1.43   -24.86795   108.57483    -6.29153
   571  H   1.0    0.06    1.03    1.43   -27.97283   109.28949    -7.40458
   572  N   5.0   -0.12    3.51    2.08   -19.70083   109.60660   -14.14145
   573  C   4.0    0.04    4.46    4.48   -17.28810   108.63038   -15.03529
   574  C   4.0    0.14    3.46    3.10   -15.30751   110.41304   -14.01106
   575  O   6.0   -0.31    1.33    1.80   -15.68803   112.70570   -14.07909
   576  C   4.0    0.06    4.24    4.07   -17.21427   108.57685   -17.93602
   577  O   6.0   -0.22    2.10    1.84   -19.54219   107.59479   -18.88088
   578  C   4.0   -0.06    4.07    3.74   -14.99998   107.04530   -18.95080
   579  H   1.0    0.11    1.10    1.44   -20.45676   110.92022   -15.33198
   580  H   1.0    0.07    1.06    1.44   -16.93925   106.69860   -14.41168
   581  H   1.0    0.05    1.05    1.44   -16.94975   110.50145   -18.62010
   582  H   1.0    0.12    1.01    1.43   -19.50815   107.55549   -20.73281
   583  H   1.0    0.05    1.00    1.43   -15.01961   107.05664   -21.01060
   584  H   1.0    0.05    1.00    1.43   -13.22247   107.85636   -18.29507
   585  H   1.0    0.07    1.00    1.43   -15.12960   105.09736   -18.29129
   586  N   5.0   -0.14    3.43    2.04   -13.21700   109.40029   -13.04541
   587  C   4.0    0.04    4.47    4.49   -11.22173   111.00427   -12.03063
   588  C   4.0    0.15    3.39    3.07    -9.00589   111.13457   -13.86177
   589  O   6.0   -0.29    1.23    1.80    -8.11839   109.20601   -14.80663
   590  C   4.0   -0.02    4.23    4.07   -10.41411   110.29796    -9.26407
   591  C   4.0   -0.04    4.14    3.88   -12.72698   109.90510    -7.47261
   592  C   4.0   -0.07    4.06    3.73    -8.47943   112.19005    -8.13023
   593  C   4.0   -0.07    3.99    3.60   -14.55923   112.11727    -7.15702
   594  H   1.0    0.11    1.08    1.44   -12.86235   107.50879   -12.94336
   595  H   1.0    0.07    1.10    1.44   -11.98509   112.91353   -11.91535
   596  H   1.0    0.05    1.06    1.44    -9.45814   108.48043    -9.41902
   597  H   1.0    0.05    1.03    1.43   -13.82701   108.32104    -8.19826
   598  H   1.0    0.04    1.03    1.43   -12.00445   109.45958    -5.59611
   599  H   1.0    0.04    1.00    1.43    -8.00040   111.59490    -6.21783
   600  H   1.0    0.06    1.00    1.43    -6.78868   112.20455    -9.30564
   601  H   1.0    0.05    1.01    1.43    -9.32332   114.06943    -8.08866
   602  H   1.0    0.04    1.00    1.43   -16.06135   111.56399    -5.86256
   603  H   1.0    0.04    1.00    1.43   -13.53430   113.73377    -6.39357
   604  H   1.0    0.05    1.00    1.43   -15.35686   112.59523    -8.99573
   605  N   5.0   -0.13    3.48    2.06    -8.16658   113.43868   -14.39278
   606  C   4.0    0.03    4.42    4.41    -5.95541   113.94262   -15.94047
   607  C   4.0    0.14    3.42    3.08    -4.11297   115.44063   -14.31341
   608  O   6.0   -0.32    1.31    1.80    -4.89096   116.85210   -12.61644
   609  C   4.0   -0.05    4.34    4.27    -6.62384   115.43049   -18.35554
   610  C   4.0   -0.02    4.19    3.97    -7.63959   113.98106   -20.62888
   611  C   4.0   -0.07    4.12    3.84    -6.47607   111.34762   -20.84431
   612  C   4.0   -0.07    4.10    3.81   -10.49705   113.93753   -20.62888
   613  H   1.0    0.11    1.09    1.44    -9.01307   115.04898   -13.75217
   614  H   1.0    0.05    1.07    1.44    -5.07604   112.18896   -16.56975
   615  H   1.0    0.05    1.04    1.43    -8.06294   116.81560   -17.85287
   616  H   1.0    0.05    1.04    1.43    -4.91365   116.38951   -18.98671
   617  H   1.0    0.05    1.07    1.44    -7.06864   114.97376   -22.34097
   618  H   1.0    0.05    1.00    1.43    -7.26364   110.39925   -22.49404
   619  H   1.0    0.05    1.00    1.43    -4.43485   111.53074   -21.04840
   620  H   1.0    0.06    1.01    1.43    -6.91868   110.27865   -19.13977
   621  H   1.0    0.05    1.00    1.43   -11.15263   112.88896   -22.27672
   622  H   1.0    0.06    1.00    1.43   -11.15322   113.02022   -18.90545
   623  H   1.0    0.05    1.00    1.43   -11.19700   115.87346   -20.70447
   624  N   5.0   -0.14    3.47    2.06    -1.67492   115.09788   -14.81041
   625  C   4.0    0.04    4.36    4.32     0.28922   116.39471   -13.42524
   626  C   4.0    0.08    3.23    3.04     1.70611   118.17987   -15.11466
   627  O   6.0   -0.27    1.13    1.80     2.36801   117.54242   -17.24816
   628  C   4.0   -0.03    4.30    4.20     2.06592   114.49828   -12.16480
   629  C   4.0   -0.02    3.70    3.24     0.79936   113.10201   -10.07476
   630  C   4.0   -0.00    3.60    3.17    -0.41408   110.84153   -10.24672
   631  C   4.0    0.01    3.88    3.44     0.41303   113.98623    -7.55009
   632  N   5.0   -0.12    3.49    2.07    -1.43140   110.19819    -7.94882
   633  C   4.0    0.03    3.88    3.44    -0.97448   112.11209    -6.26129
   634  C   4.0   -0.05    3.40    3.08     1.20778   116.12622    -6.21405
   635  C   4.0   -0.04    3.39    3.08    -1.61807   112.33529    -3.70260
   636  C   4.0   -0.04    3.37    3.07     0.60347   116.32674    -3.67426
   637  C   4.0   -0.04    3.37    3.07    -0.79997   114.45526    -2.44594
   638  H   1.0    0.08    1.06    1.44    -1.01099   113.91592   -16.18046
   639  H   1.0    0.05    1.07    1.44    -0.55415   117.54934   -11.94181
   640  H   1.0    0.05    1.03    1.43     2.69900   113.12684   -13.56697
   641  H   1.0    0.05    1.03    1.43     3.68490   115.50342   -11.38245
   642  H   1.0    0.05    1.01    1.43    -0.55691   109.71731   -11.94370
   643  H   1.0    0.09    1.06    1.44    -2.37368   108.56233    -7.55953
   644  H   1.0    0.05    1.03    1.43     2.27378   117.59464    -7.14757
   645  H   1.0    0.06    1.02    1.43    -2.71441   110.89748    -2.75585
   646  H   1.0    0.05    1.03    1.43     1.22814   117.96050    -2.62357
   647  H   1.0    0.06    1.03    1.43    -1.25042   114.68041    -0.46739
   648  N   5.0   -0.19    3.22    1.96     5.70444    98.92113   -12.25172
   649  C   4.0    0.03    4.29    4.17     3.15319    99.84640   -11.72071
   650  C   4.0    0.16    3.34    3.06     1.57359    97.57910   -10.84199
   651  O   6.0   -0.26    1.21    1.80    -0.19296    96.75300   -12.15157
   652  C   4.0   -0.02    4.25    4.10     2.00372   101.16248   -14.05830
   653  C   4.0   -0.04    4.20    4.01     3.34062   103.61790   -14.84443
   654  C   4.0    0.15    3.21    3.04     5.47763   103.30930   -16.73982
   655  O   6.0   -0.27    1.22    1.80     6.27864   101.22337   -17.43902
   656  N   5.0   -0.17    3.18    1.95     6.45412   105.41637   -17.63366
   657  H   1.0    0.11    1.03    1.43     5.85365    98.16291   -14.01673
   658  H   1.0    0.05    1.05    1.44     3.19778   101.28045   -10.24294
   659  H   1.0    0.07    1.03    1.43     2.10108    99.86468   -15.65512
   660  H   1.0    0.06    1.03    1.43     0.04041   101.62829   -13.64823
   661  H   1.0    0.05    1.03    1.43     1.94618   104.87249   -15.69291
   662  H   1.0    0.04    1.03    1.43     4.13887   104.49027   -13.15879
   663  H   1.0    0.09    1.03    1.43     5.77071   107.12017   -17.04785
   664  H   1.0    0.11    1.02    1.43     7.89415   105.34433   -18.91301
   665  N   5.0   -0.13    3.40    2.02     2.33868    96.53077    -8.63290
   666  C   4.0    0.03    4.35    4.29     1.36159    94.34330    -7.24395
   667  C   4.0    0.16    3.41    3.08    -1.43578    93.79157    -7.52741
   668  O   6.0   -0.27    1.21    1.80    -2.16153    91.82777    -8.56109
   669  C   4.0   -0.05    4.38    4.34     1.89840    94.66836    -4.38290
   670  C   4.0   -0.02    4.18    3.96     4.12198    93.22092    -3.23395
   671  C   4.0   -0.07    4.11    3.81     6.65602    94.22363    -4.18637
   672  C   4.0   -0.07    4.12    3.84     4.06588    93.41478    -0.38235
   673  H   1.0    0.08    1.07    1.44     3.82543    97.26530    -7.64835
   674  H   1.0    0.06    1.06    1.44     2.34426    92.73075    -8.06787
   675  H   1.0    0.05    1.04    1.43     2.25631    96.66779    -4.03897
   676  H   1.0    0.04    1.05    1.44     0.21394    94.06761    -3.36056
   677  H   1.0    0.05    1.06    1.44     3.94771    91.24857    -3.80465
   678  H   1.0    0.05    1.00    1.43     8.17662    93.13841    -3.31710
   679  H   1.0    0.05    1.00    1.43     6.73106    94.02101    -6.23484
   680  H   1.0    0.05    1.00    1.43     6.82777    96.21052    -3.67048
   681  H   1.0    0.05    1.00    1.43     5.66356    92.37235     0.39243
   682  H   1.0    0.04    1.00    1.43     4.19425    95.39835     0.15811
   683  H   1.0    0.05    1.00    1.43     2.30059    92.60976     0.30929
   684  N   5.0   -0.12    3.53    2.10    -2.97995    95.58430    -6.68081
   685  C   4.0    0.04    4.37    4.33    -5.71806    95.49804    -6.81687
   686  C   4.0    0.15    3.43    3.09    -6.61037    98.13637    -7.61623
   687  O   6.0   -0.29    1.28    1.80    -5.06191    99.88485    -7.77118
   688  C   4.0   -0.04    4.28    4.15    -6.70159    94.81119    -4.16181
   689  C   4.0   -0.02    4.18    3.97    -9.35024    93.70446    -4.04653
   690  C   4.0    0.26    3.12    3.03   -11.36708    95.52132    -3.12813
   691  O   6.0   -0.27    1.18    1.80   -10.84179    97.05098    -1.39525
   692  O   6.0   -0.24    1.18    1.80   -13.50896    95.36795    -4.12023
   693  H   1.0    0.09    1.08    1.44    -2.34855    97.20326    -5.84744
   694  H   1.0    0.07    1.05    1.44    -6.42586    94.14358    -8.19826
   695  H   1.0    0.05    1.03    1.43    -5.42378    93.41883    -3.34356
   696  H   1.0    0.06    1.05    1.44    -6.70639    96.52252    -3.01474
   697  H   1.0    0.07    1.04    1.43    -9.88670    93.08898    -5.93815
   698  H   1.0    0.06    1.03    1.43    -9.33420    92.09574    -2.75963
   699  N   5.0   -0.12    3.46    2.05    -9.06789    98.42272    -8.17747
   700  C   4.0    0.04    4.41    4.40   -10.12111   100.87683    -8.80675
   701  C   4.0    0.15    3.44    3.09   -10.06423   102.33216    -6.30287
   702  O   6.0   -0.28    1.25    1.80   -11.39799   101.63586    -4.51896
   703  C   4.0   -0.02    4.33    4.25   -12.82220   100.57500    -9.79319
   704  C   4.0    0.15    3.22    3.04   -13.99589   102.92628   -10.89490
   705  O   6.0   -0.29    1.24    1.80   -13.27873   103.80183   -12.93391
   706  N   5.0   -0.17    3.20    1.96   -15.97725   103.86729    -9.68170
   707  H   1.0    0.09    1.06    1.44   -10.35126    96.98598    -8.20582
   708  H   1.0    0.06    1.05    1.44    -9.06691   101.85237   -10.28263
   709  H   1.0    0.07    1.03    1.43   -12.81592    99.14213   -11.27285
   710  H   1.0    0.07    1.04    1.43   -14.01938    99.96786    -8.23039
   711  H   1.0    0.12    1.06    1.44   -16.84704   105.45613   -10.34310
   712  H   1.0    0.10    1.03    1.43   -16.63107   103.00318    -8.08866
   713  N   5.0   -0.14    3.36    2.00    -8.31348   104.13623    -6.11767
   714  C   4.0    0.02    4.25    4.10    -7.97553   105.70423    -3.87268
   715  C   4.0    0.15    3.33    3.06    -5.47798   105.40785    -2.51963
   716  O   6.0   -0.32    1.30    1.80    -4.91702   106.84055    -0.79431
   717  H   1.0    0.09    1.06    1.44    -7.07210   104.56293    -7.52930
   718  H   1.0    0.04    1.03    1.43    -8.15074   107.67978    -4.42448
   719  H   1.0    0.07    1.04    1.43    -9.46761   105.24771    -2.52719
   720  N   5.0   -0.13    3.50    2.08    -3.97626   103.55672    -3.22450
   721  C   4.0    0.04    4.41    4.40    -1.56762   103.18948    -1.95650
   722  C   4.0    0.07    3.22    3.04     0.52975   103.34891    -3.87835
   723  O   6.0   -0.29    1.14    1.80     0.44215   102.10115    -5.84933
   724  C   4.0   -0.02    4.24    4.07    -1.34907   100.73722    -0.32944
   725  C   4.0   -0.08    4.09    3.79     0.06245   101.26207     2.11964
   726  C   4.0   -0.07    4.11    3.82    -3.90900    99.50070     0.20913
   727  H   1.0    0.11    1.08    1.44    -4.35968   102.30301    -4.63613
   728  H   1.0    0.05    1.09    1.44    -1.37479   104.75180    -0.62613
   729  H   1.0    0.04    1.07    1.44    -0.27340    99.37646    -1.43871
   730  H   1.0    0.04    1.00    1.43     0.18383    99.51834     3.21001
   731  H   1.0    0.04    1.00    1.43     1.95330   101.94441     1.66989
   732  H   1.0    0.04    1.00    1.43    -0.96252   102.69175     3.19112
   733  H   1.0    0.04    1.00    1.43    -3.61088    97.80986     1.34674
   734  H   1.0    0.05    1.00    1.43    -5.09705   100.83688     1.23336
   735  H   1.0    0.05    1.00    1.43    -4.79866    98.99532    -1.57855
   736  N   5.0   -0.19    3.23    1.96    -3.55136   122.44159    -6.42948
   737  C   4.0    0.03    4.40    4.38    -5.29125   120.33886    -6.58821
   738  C   4.0    0.15    3.48    3.11    -7.64280   121.26229    -7.97149
   739  O   6.0   -0.30    1.25    1.80    -8.98406   122.88113    -6.98128
   740  C   4.0   -0.04    4.20    4.01    -5.92414   119.38628    -3.94638
   741  S   6.0   -0.03    2.48    3.10    -8.70018   117.41262    -3.83677
   742  H   1.0    0.09    1.03    1.43    -3.95359   123.59684    -4.93848
   743  H   1.0    0.05    1.06    1.44    -4.46678   118.78490    -7.65780
   744  H   1.0    0.04    1.07    1.44    -4.33542   118.27920    -3.24151
   745  H   1.0    0.05    1.08    1.44    -6.25445   121.00625    -2.71806
   746  N   5.0   -0.14    3.42    2.03    -8.15219   120.25151   -10.24483
   747  C   4.0    0.03    4.43    4.43   -10.33500   121.00988   -11.79063
   748  C   4.0    0.14    3.37    3.07   -12.44530   118.99880   -11.83409
   749  O   6.0   -0.31    1.27    1.80   -12.07754   116.94481   -12.89045
   750  C   4.0   -0.02    4.32    4.23    -9.47629   121.77534   -14.49483
   751  C   4.0   -0.04    4.23    4.05    -7.48544   123.91212   -14.42869
   752  C   4.0   -0.07    4.09    3.79   -11.74897   122.46122   -16.16157
   753  C   4.0   -0.07    4.07    3.75    -5.31765   123.41118   -15.95937
   754  H   1.0    0.11    1.11    1.44    -7.06997   118.88697   -11.07064
   755  H   1.0    0.06    1.07    1.44   -11.21720   122.60370   -10.83065
   756  H   1.0    0.05    1.07    1.44    -8.56219   120.13473   -15.34143
   757  H   1.0    0.05    1.04    1.43    -8.35387   125.65073   -15.11277
   758  H   1.0    0.06    1.05    1.44    -6.84302   124.16311   -12.48794
   759  H   1.0    0.05    1.00    1.43   -11.07322   122.98536   -18.03617
   760  H   1.0    0.06    1.00    1.43   -12.99923   120.82860   -16.29574
   761  H   1.0    0.05    1.00    1.43   -12.75286   124.04456   -15.30930
   762  H   1.0    0.05    1.01    1.43    -4.01182   124.99643   -15.81197
   763  H   1.0    0.05    1.01    1.43    -4.40767   121.68784   -15.29229
   764  H   1.0    0.05    1.01    1.43    -5.91852   123.17547   -17.91523
   765  N   5.0   -0.14    3.41    2.03   -14.66392   119.61201   -10.75128
   766  C   4.0    0.04    4.33    4.25   -16.81757   117.86599   -10.73805
   767  C   4.0    0.15    3.39    3.08   -18.58409   118.52149   -12.92636
   768  O   6.0   -0.30    1.24    1.80   -19.54412   120.63812   -13.01517
   769  C   4.0   -0.08    4.11    3.81   -18.20457   118.00343    -8.23228
   770  H   1.0    0.08    1.05    1.44   -15.01247   121.29487    -9.87823
   771  H   1.0    0.06    1.07    1.44   -16.14853   115.93700   -11.01206
   772  H   1.0    0.04    1.00    1.43   -19.79117   116.69156    -8.27196
   773  H   1.0    0.04    1.00    1.43   -16.90621   117.48948    -6.71861
   774  H   1.0    0.05    1.00    1.43   -18.88841   119.92569    -7.94882
   775  N   5.0   -0.14    3.40    2.02   -18.97455   116.74160   -14.71215
   776  C   4.0    0.04    4.36    4.32   -20.48464   117.24031   -16.96659
   777  C   4.0    0.14    3.32    3.06   -22.80581   115.51027   -17.37855
   778  O   6.0   -0.30    1.23    1.80   -22.65904   113.20201   -17.05352
   779  C   4.0    0.04    4.14    3.89   -18.79838   117.19413   -19.30040
   780  O   6.0   -0.23    2.03    1.83   -19.88795   118.59128   -21.30918
   781  H   1.0    0.11    1.09    1.44   -18.26152   114.95304   -14.62711
   782  H   1.0    0.06    1.08    1.44   -21.33779   119.09231   -16.67746
   783  H   1.0    0.05    1.02    1.43   -16.97321   118.02349   -18.82230
   784  H   1.0    0.06    1.02    1.43   -18.54737   115.24028   -19.90511
   785  H   1.0    0.13    1.01    1.43   -20.12668   120.35475   -20.79706
   786  N   5.0   -0.13    3.44    2.04   -24.95241   116.71688   -18.09854
   787  C   4.0    0.04    4.27    4.14   -27.45448   115.68263   -18.77128
   788  C   4.0    0.10    3.23    3.04   -28.56343   117.51865   -20.77628
   789  O   6.0   -0.26    1.17    1.80   -27.68702   119.67914   -20.85942
   790  C   4.0    0.05    4.20    4.00   -29.28790   115.63266   -16.47337
   791  O   6.0   -0.24    2.10    1.84   -30.18252   118.11958   -15.91212
   792  C   4.0   -0.06    4.07    3.75   -28.19721   114.38106   -14.14334
   793  H   1.0    0.10    1.09    1.44   -25.01066   118.63800   -18.24782
   794  H   1.0    0.05    1.04    1.43   -27.25628   113.76581   -19.50071
   795  H   1.0    0.04    1.05    1.44   -30.89101   114.45470   -17.00816
   796  H   1.0    0.11    1.01    1.43   -31.33457   118.06681   -14.46270
   797  H   1.0    0.05    1.00    1.43   -29.57789   114.41229   -12.61455
   798  H   1.0    0.06    1.00    1.43   -27.70502   112.42543   -14.55908
   799  H   1.0    0.05    1.00    1.43   -26.50231   115.38164   -13.53485
   800  H   1.0    0.09    1.10    1.44   -30.46113   121.58178    -9.30247
   801  H   1.0    0.07    1.04    1.43     1.88617   119.75337     9.06253
   802  H   1.0    0.10    1.07    1.44   -32.77142    75.52163    -5.79649
   803  H   1.0    0.07    1.04    1.44    -4.57183    82.40568    10.02561
   804  H   1.0    0.10    1.07    1.44   -15.35932    80.48764    12.72523
   805  H   1.0    0.06    1.04    1.43   -42.82208   102.63387    10.90121
   806  H   1.0    0.10    1.07    1.44   -41.45924    96.08710     6.52775
   807  H   1.0    0.07    1.04    1.44   -42.83028    91.67519    10.91509
   808  H   1.0    0.09    1.07    1.44     1.90942   108.76871     3.84166
   809  H   1.0    0.06    1.04    1.44   -35.38766   111.54758    -7.27105
   810  H   1.0    0.09    1.10    1.44   -37.27671   110.10601   -13.08094
   811  H   1.0    0.06    1.05    1.44     2.12650   119.92015   -14.50986
   812  H   1.0    0.11    1.07    1.44     6.81053   100.20790   -12.13612
   813  H   1.0    0.05    1.04    1.44     2.01483   104.47471    -3.56503
   814  H   1.0    0.09    1.07    1.44    -1.96713   121.85419    -6.23522
   815  H   1.0    0.06    1.04    1.43   -29.93491   116.93352   -21.93719

  Z AO/shell   Hii/eV     exponent
  1     Wed Apr 25 08:07:45 CEST 2018   EN: 2.200 GM2: 0.406  GM3: 0.0800  RAES: 1.40
     1s    -10.707211    1.230000
  6     Wed Apr 25 08:07:45 CEST 2018   EN: 2.550 GM2: 0.538  GM3: 0.1500  RAES: 3.00
     2s    -13.970922    2.096432
     2p    -10.063292    1.800000
  7     Wed Apr 25 08:07:45 CEST 2018   EN: 3.040 GM2: 0.461  GM3:-0.0640  RAES: 1.90
     2s    -16.686243    2.339881
     2p    -12.523956    2.014332
  8     Wed Apr 25 08:07:45 CEST 2018   EN: 3.440 GM2: 0.452  GM3:-0.0517  RAES: 1.80
     2s    -20.229985    2.439742
     2p    -15.503117    2.137023
 16     Tue Apr 24 11:44:34 CEST 2018   EN: 2.580 GM2: 0.340  GM3:-0.0502  RAES: 3.10
     3s    -20.029654    1.981333
     3p    -11.377694    2.025643
     3d     -0.420282    1.702555
 no old-style atom pair restraining (fixing) potential

molecular fragmentation (1/2 indicates fragments):
111111111111111111111111111111111111111111111111111111111111111111111111
111111111111111111111111111111111111111111111111111111111111111111111111
111111111111111111111111111111111111111111111111111111111222222222222222
222222222222222222222222222222222222222222222222222222222222222222222222
222222222222222222222222222222222222222222222222222222222222222222222222
222222222222222222222222222222222222222222222222222222222222222222222222
222222222222222222222222222222222222222222222222222222222222222222222222
222222222222222222222222222222222222222222222222222222222222222222222222
222222222222222222222222222222222222222222222222222222222222222222222222
222222222222222222222222222222222222222222222222222222222222222222222222
222222222222222222222222222222222222222222222222222222222222222222222222
22222222211222222222222
# atoms in fragment 1/2:   203   612
 fragment masses (1/2) :     1372.60     4209.00
CMA distance (Bohr)    :  17.664
constraining FC (au)   :  0.0500
           ------------------------------------------------- 
          |        Self-Consistent Charge Iterations        |
           ------------------------------------------------- 

 Ncao       : 1997
 Nao        : 1995
 Nshell     : 1207
 Nel        : 2202
 T(el)      :   500.0
 intcut     :    35.0
 scfconv/Eh :  0.100E-06
   qconv/e  :  0.100E-04
 intneglect :  0.100E-08
 broydamp   :      0.400
 iter      E             dE          RMSdq      gap      omega  full diag
   1  -1260.1373838 -0.126014E+04  0.459E+00    2.80       0.0  T
   2  -1263.3184241 -0.318104E+01  0.211E+00    1.32       1.0  T
   3  -1263.5296984 -0.211274E+00  0.120E+00    1.29       1.0  T
   4  -1263.7190298 -0.189331E+00  0.277E-01    0.59       1.0  T
   5  -1263.7316103 -0.125805E-01  0.142E-01    0.78       1.0  T
   6  -1263.7346848 -0.307447E-02  0.719E-02    0.71       1.0  T
   7  -1263.7359119 -0.122714E-02  0.387E-02    0.69       1.0  T
   8  -1263.7361280 -0.216084E-03  0.234E-02    0.69       1.0  T
   9  -1263.7362294 -0.101349E-03  0.120E-02    0.68       1.0  T
  10  -1263.7362482 -0.187972E-04  0.720E-03    0.68       1.0  T
  11  -1263.7362555 -0.735587E-05  0.356E-03    0.69       1.0  T
  12  -1263.7362571 -0.152265E-05  0.193E-03    0.69       1.8  T
  13  -1263.7362576 -0.593815E-06  0.942E-04    0.69       3.7  T
  14  -1263.7362578 -0.108526E-06  0.444E-04    0.69       7.9  T
  15  -1263.7362578 -0.379061E-07  0.196E-04    0.69      17.8  T
  16  -1263.7362578 -0.624391E-08  0.958E-05    0.69      36.6  T
  17  -1263.7362578 -0.149521E-08  0.432E-05    0.69      81.1  T
speedup  1.68
cpu  time for SCC    2 m 20.1 s
wall time for SCC    1 m 23.6 s

   *** convergence criteria satisfied after 17 iterations ***

          eigenvalues
 #    :        1089       1090       1091       1092       1093       1094       1095       1096
 occ. :        2.000      2.000      2.000      2.000      2.000      2.000      2.000      2.000
 eps  :       -10.164    -10.131    -10.126    -10.104    -10.093    -10.076    -10.060    -10.048
 #    :        1097       1098       1099       1100       1101       1102       1103       1104
 occ. :        2.000      2.000      2.000      2.000      1.999      0.001      0.000      0.000
 eps  :        -9.738     -9.628     -9.622     -9.407     -9.076     -8.387     -8.259     -8.194
 #    :        1105       1106       1107       1108       1109       1110       1111       1112
 occ. :        0.000      0.000      0.000      0.000      0.000      0.000      0.000      0.000
 eps  :        -8.008     -7.996     -7.796     -7.711     -7.675     -6.970     -6.891     -6.891


   #   Z            q   n(s)   n(p)   n(d)      C6AA      α(0)
   1   7 N     -0.395  1.333  4.062  0.000    30.239     8.167
   2   6 C      0.035  1.056  2.909  0.000    20.006     6.371
   3   6 C      0.274  1.045  2.681  0.000    22.369     7.745
   4   8 O     -0.501  1.756  4.745  0.000    23.802     6.541
   5   6 C     -0.068  1.058  3.010  0.000    21.798     6.646
   6   6 C     -0.013  1.055  2.957  0.000    20.765     6.481
   7   6 C     -0.116  1.046  3.070  0.000    22.776     6.804
   8   6 C     -0.116  1.043  3.073  0.000    22.768     6.803
   9   1 H      0.163  0.837  0.000  0.000     1.313     1.795
  10   1 H      0.026  0.974  0.000  0.000     2.645     2.544
  11   1 H      0.047  0.953  0.000  0.000     2.361     2.403
  12   1 H      0.033  0.967  0.000  0.000     2.550     2.497
  13   1 H      0.031  0.969  0.000  0.000     2.574     2.509
  14   1 H      0.048  0.952  0.000  0.000     2.344     2.394
  15   1 H      0.037  0.963  0.000  0.000     2.489     2.467
  16   1 H      0.040  0.960  0.000  0.000     2.442     2.444
  17   1 H      0.048  0.952  0.000  0.000     2.351     2.398
  18   1 H      0.040  0.960  0.000  0.000     2.445     2.445
  19   1 H      0.035  0.965  0.000  0.000     2.513     2.479
  20   7 N     -0.171  1.244  3.927  0.000    24.700     7.381
  21   6 C      0.019  1.062  2.919  0.000    20.260     6.409
  22   6 C      0.277  1.048  2.675  0.000    22.314     7.735
  23   8 O     -0.490  1.754  4.737  0.000    23.572     6.509
  24   6 C     -0.021  1.061  2.961  0.000    20.919     6.505
  25   6 C     -0.119  1.041  3.078  0.000    22.833     6.813
  26   6 C     -0.128  1.047  3.081  0.000    23.014     6.840
  27   1 H      0.208  0.792  0.000  0.000     1.067     1.618
  28   1 H      0.063  0.937  0.000  0.000     2.167     2.302
  29   1 H      0.052  0.948  0.000  0.000     2.299     2.371
  30   1 H      0.069  0.931  0.000  0.000     2.092     2.262
  31   1 H      0.032  0.968  0.000  0.000     2.552     2.498
  32   1 H      0.044  0.956  0.000  0.000     2.394     2.419
  33   1 H      0.069  0.931  0.000  0.000     2.101     2.267
  34   1 H      0.055  0.945  0.000  0.000     2.257     2.349
  35   1 H      0.051  0.949  0.000  0.000     2.305     2.374
  36   7 N     -0.171  1.248  3.922  0.000    24.693     7.380
  37   6 C      0.017  1.059  2.924  0.000    20.296     6.416
  38   6 C      0.282  1.034  2.684  0.000    22.225     7.720
  39   8 O     -0.475  1.754  4.721  0.000    23.233     6.462
  40   6 C      0.072  1.039  2.889  0.000    19.586     6.339
  41   8 O     -0.473  1.729  4.744  0.000    22.321     6.378
  42   1 H      0.218  0.782  0.000  0.000     1.019     1.581
  43   1 H      0.076  0.924  0.000  0.000     2.024     2.225
  44   1 H      0.044  0.956  0.000  0.000     2.397     2.421
  45   1 H      0.075  0.925  0.000  0.000     2.032     2.229
  46   1 H      0.322  0.678  0.000  0.000     0.658     1.275
  47   7 N     -0.171  1.243  3.928  0.000    24.701     7.381
  48   6 C      0.023  1.064  2.913  0.000    20.207     6.402
  49   6 C      0.282  1.048  2.670  0.000    22.225     7.719
  50   8 O     -0.482  1.768  4.714  0.000    23.396     6.485
  51   6 C      0.106  1.053  2.841  0.000    18.949     6.217
  52   8 O     -0.489  1.730  4.759  0.000    22.669     6.427
  53   6 C     -0.141  1.050  3.091  0.000    23.284     6.883
  54   1 H      0.231  0.769  0.000  0.000     0.960     1.535
  55   1 H      0.086  0.914  0.000  0.000     1.920     2.167
  56   1 H      0.043  0.957  0.000  0.000     2.410     2.428
  57   1 H      0.354  0.646  0.000  0.000     0.580     1.196
  58   1 H      0.081  0.919  0.000  0.000     1.971     2.196
  59   1 H      0.057  0.943  0.000  0.000     2.230     2.335
  60   1 H      0.069  0.931  0.000  0.000     2.094     2.263
  61   7 N     -0.180  1.242  3.938  0.000    24.906     7.412
  62   6 C      0.032  1.056  2.912  0.000    20.044     6.377
  63   6 C      0.265  1.048  2.687  0.000    22.525     7.771
  64   8 O     -0.496  1.748  4.748  0.000    23.697     6.527
  65   6 C     -0.067  1.055  3.012  0.000    21.781     6.645
  66   6 C     -0.107  1.063  3.044  0.000    22.535     6.758
  67   6 C      0.289  1.040  2.671  0.000    22.102     7.698
  68   8 O     -0.541  1.765  4.776  0.000    24.712     6.665
  69   7 N     -0.271  1.268  4.003  0.000    27.024     7.721
  70   1 H      0.196  0.804  0.000  0.000     1.127     1.663
  71   1 H      0.064  0.936  0.000  0.000     2.149     2.292
  72   1 H      0.071  0.929  0.000  0.000     2.071     2.250
  73   1 H      0.072  0.928  0.000  0.000     2.063     2.246
  74   1 H      0.074  0.926  0.000  0.000     2.044     2.236
  75   1 H      0.094  0.906  0.000  0.000     1.837     2.120
  76   1 H      0.232  0.768  0.000  0.000     0.957     1.532
  77   1 H      0.215  0.785  0.000  0.000     1.031     1.590
  78   7 N     -0.168  1.247  3.921  0.000    24.629     7.371
  79   6 C      0.043  1.054  2.903  0.000    19.870     6.348
  80   6 C      0.290  1.035  2.675  0.000    22.084     7.695
  81   8 O     -0.476  1.767  4.709  0.000    23.253     6.465
  82   6 C     -0.087  1.064  3.023  0.000    22.164     6.703
  83   6 C      0.362  1.021  2.617  0.000    20.856     7.474
  84   8 O     -0.603  1.748  4.855  0.000    26.200     6.863
  85   8 O     -0.588  1.757  4.831  0.000    25.816     6.812
  86   1 H      0.191  0.809  0.000  0.000     1.152     1.681
  87   1 H      0.051  0.949  0.000  0.000     2.304     2.374
  88   1 H      0.031  0.969  0.000  0.000     2.579     2.511
  89   1 H      0.031  0.969  0.000  0.000     2.577     2.510
  90   7 N     -0.196  1.250  3.946  0.000    25.245     7.462
  91   6 C      0.029  1.055  2.916  0.000    20.103     6.386
  92   6 C      0.275  1.044  2.681  0.000    22.343     7.740
  93   8 O     -0.470  1.722  4.747  0.000    23.124     6.447
  94   6 C      0.073  1.037  2.890  0.000    19.565     6.336
  95   8 O     -0.458  1.725  4.733  0.000    22.013     6.334
  96   1 H      0.199  0.801  0.000  0.000     1.113     1.652
  97   1 H      0.079  0.921  0.000  0.000     1.992     2.207
  98   1 H      0.067  0.933  0.000  0.000     2.121     2.277
  99   1 H      0.027  0.973  0.000  0.000     2.628     2.535
 100   1 H      0.327  0.673  0.000  0.000     0.646     1.263
 101   7 N     -0.194  1.255  3.940  0.000    25.219     7.458
 102   6 C      0.014  1.065  2.921  0.000    20.345     6.424
 103   6 C      0.269  1.049  2.682  0.000    22.463     7.761
 104   8 O     -0.463  1.718  4.745  0.000    22.973     6.426
 105   6 C     -0.088  1.059  3.029  0.000    22.175     6.704
 106   6 C     -0.085  1.046  3.040  0.000    22.124     6.696
 107   6 C     -0.028  1.056  2.972  0.000    21.153     6.562
 108   7 N     -0.149  1.211  3.938  0.000    24.219     7.309
 109   6 C      0.237  1.016  2.747  0.000    23.039     7.859
 110   7 N     -0.251  1.234  4.017  0.000    26.528     7.649
 111   7 N     -0.273  1.249  4.024  0.000    27.058     7.726
 112   1 H      0.222  0.778  0.000  0.000     1.000     1.567
 113   1 H      0.112  0.888  0.000  0.000     1.680     2.027
 114   1 H      0.095  0.905  0.000  0.000     1.834     2.118
 115   1 H      0.086  0.914  0.000  0.000     1.921     2.168
 116   1 H      0.073  0.927  0.000  0.000     2.055     2.242
 117   1 H      0.023  0.977  0.000  0.000     2.690     2.565
 118   1 H      0.107  0.893  0.000  0.000     1.725     2.054
 119   1 H      0.094  0.906  0.000  0.000     1.844     2.123
 120   1 H      0.218  0.782  0.000  0.000     1.018     1.580
 121   1 H      0.241  0.759  0.000  0.000     0.917     1.500
 122   1 H      0.232  0.768  0.000  0.000     0.958     1.533
 123   1 H      0.225  0.775  0.000  0.000     0.989     1.558
 124   1 H      0.247  0.753  0.000  0.000     0.896     1.483
 125   7 N     -0.170  1.245  3.925  0.000    24.681     7.378
 126   6 C      0.026  1.069  2.906  0.000    20.148     6.393
 127   6 C      0.282  1.044  2.673  0.000    22.215     7.718
 128   8 O     -0.514  1.788  4.727  0.000    24.108     6.583
 129   6 C     -0.004  1.055  2.950  0.000    20.624     6.459
 130   6 C     -0.067  1.060  3.008  0.000    21.799     6.649
 131   6 C     -0.113  1.038  3.074  0.000    22.704     6.793
 132   6 C     -0.107  1.046  3.061  0.000    22.617     6.785
 133   1 H      0.171  0.829  0.000  0.000     1.267     1.763
 134   1 H      0.079  0.921  0.000  0.000     1.994     2.208
 135   1 H      0.011  0.989  0.000  0.000     2.881     2.655
 136   1 H      0.053  0.947  0.000  0.000     2.289     2.366
 137   1 H      0.034  0.966  0.000  0.000     2.536     2.490
 138   1 H      0.057  0.943  0.000  0.000     2.235     2.338
 139   1 H      0.019  0.981  0.000  0.000     2.754     2.595
 140   1 H      0.056  0.944  0.000  0.000     2.245     2.343
 141   1 H      0.057  0.943  0.000  0.000     2.236     2.338
 142   1 H      0.028  0.972  0.000  0.000     2.610     2.527
 143   1 H      0.034  0.966  0.000  0.000     2.536     2.490
 144   7 N     -0.187  1.253  3.934  0.000    25.055     7.434
 145   6 C      0.030  1.054  2.915  0.000    20.076     6.381
 146   6 C      0.261  1.057  2.683  0.000    22.606     7.785
 147   8 O     -0.463  1.726  4.736  0.000    22.980     6.427
 148   6 C     -0.078  1.058  3.019  0.000    21.982     6.675
 149   6 C     -0.061  1.043  3.018  0.000    21.674     6.628
 150   6 C     -0.102  1.056  3.047  0.000    22.445     6.744
 151   6 C     -0.054  1.059  2.995  0.000    21.632     6.638
 152   7 N     -0.126  1.229  3.897  0.000    23.725     7.234
[...]
 529   6 C      0.019  1.065  2.915  0.000    20.242     6.404
 530   6 C      0.266  1.052  2.682  0.000    22.515     7.769
 531   8 O     -0.465  1.738  4.726  0.000    23.014     6.432
 532   6 C     -0.061  1.050  3.011  0.000    21.646     6.619
 533   6 C     -0.058  1.043  3.015  0.000    21.599     6.612
 534   6 C      0.007  1.048  2.945  0.000    20.508     6.455
 535   1 H      0.039  0.961  0.000  0.000     2.456     2.451
 536   1 H      0.023  0.977  0.000  0.000     2.691     2.565
 537   1 H      0.046  0.954  0.000  0.000     2.365     2.405
 538   1 H      0.030  0.970  0.000  0.000     2.580     2.512
 539   1 H      0.040  0.960  0.000  0.000     2.451     2.449
 540   1 H      0.045  0.955  0.000  0.000     2.384     2.414
 541   1 H      0.032  0.968  0.000  0.000     2.556     2.500
 542   7 N     -0.182  1.246  3.936  0.000    24.948     7.418
 543   6 C      0.021  1.064  2.915  0.000    20.226     6.405
 544   6 C      0.265  1.050  2.684  0.000    22.527     7.772
 545   8 O     -0.524  1.769  4.756  0.000    24.334     6.614
 546   6 C     -0.013  1.057  2.955  0.000    20.769     6.482
 547   6 C     -0.101  1.037  3.064  0.000    22.482     6.761
 548   6 C     -0.125  1.047  3.078  0.000    22.950     6.831
 549   1 H      0.191  0.809  0.000  0.000     1.153     1.682
 550   1 H      0.071  0.929  0.000  0.000     2.072     2.251
 551   1 H      0.031  0.969  0.000  0.000     2.576     2.510
 552   1 H      0.029  0.971  0.000  0.000     2.596     2.519
 553   1 H      0.022  0.978  0.000  0.000     2.703     2.571
 554   1 H      0.054  0.946  0.000  0.000     2.273     2.358
 555   1 H      0.047  0.953  0.000  0.000     2.356     2.400
 556   1 H      0.070  0.930  0.000  0.000     2.090     2.261
 557   1 H      0.054  0.946  0.000  0.000     2.271     2.357
 558   7 N     -0.085  1.242  3.843  0.000    22.894     7.106
 559   6 C      0.023  1.060  2.917  0.000    20.169     6.391
 560   6 C      0.278  1.041  2.681  0.000    22.299     7.732
 561   8 O     -0.505  1.746  4.759  0.000    23.894     6.554
 562   6 C     -0.065  1.050  3.015  0.000    21.721     6.630
 563   6 C     -0.066  1.041  3.025  0.000    21.736     6.633
 564   6 C     -0.012  1.051  2.960  0.000    20.813     6.500
 565   1 H      0.063  0.937  0.000  0.000     2.164     2.301
 566   1 H      0.056  0.944  0.000  0.000     2.252     2.347
 567   1 H      0.052  0.948  0.000  0.000     2.299     2.371
 568   1 H      0.078  0.922  0.000  0.000     1.998     2.211
 569   1 H      0.072  0.928  0.000  0.000     2.063     2.246
 570   1 H      0.073  0.927  0.000  0.000     2.055     2.242
 571   1 H      0.091  0.909  0.000  0.000     1.868     2.137
 572   7 N     -0.173  1.249  3.925  0.000    24.750     7.389
 573   6 C      0.024  1.054  2.922  0.000    20.182     6.397
 574   6 C      0.267  1.042  2.691  0.000    22.497     7.768
 575   8 O     -0.474  1.729  4.745  0.000    23.206     6.459
 576   6 C      0.121  1.043  2.837  0.000    18.700     6.174
 577   8 O     -0.490  1.738  4.752  0.000    22.674     6.428
 578   6 C     -0.132  1.046  3.086  0.000    23.109     6.856
 579   1 H      0.235  0.765  0.000  0.000     0.944     1.522
 580   1 H      0.061  0.939  0.000  0.000     2.183     2.311
 581   1 H      0.027  0.973  0.000  0.000     2.636     2.539
 582   1 H      0.344  0.656  0.000  0.000     0.601     1.218
 583   1 H      0.068  0.932  0.000  0.000     2.109     2.271
 584   1 H      0.047  0.953  0.000  0.000     2.358     2.401
 585   1 H      0.053  0.947  0.000  0.000     2.283     2.363
 586   7 N     -0.167  1.248  3.919  0.000    24.604     7.367
 587   6 C      0.005  1.064  2.931  0.000    20.506     6.448
 588   6 C      0.275  1.039  2.686  0.000    22.345     7.740
 589   8 O     -0.513  1.755  4.758  0.000    24.063     6.577
 590   6 C     -0.026  1.074  2.953  0.000    21.017     6.522
 591   6 C     -0.067  1.053  3.014  0.000    21.789     6.647
 592   6 C     -0.113  1.044  3.069  0.000    22.732     6.800
 593   6 C     -0.115  1.040  3.075  0.000    22.774     6.806
 594   1 H      0.208  0.792  0.000  0.000     1.068     1.619
 595   1 H      0.100  0.900  0.000  0.000     1.781     2.087
 596   1 H      0.025  0.975  0.000  0.000     2.661     2.551
 597   1 H      0.013  0.987  0.000  0.000     2.842     2.636
 598   1 H      0.053  0.947  0.000  0.000     2.287     2.365
 599   1 H      0.060  0.940  0.000  0.000     2.198     2.318
 600   1 H      0.040  0.960  0.000  0.000     2.452     2.449
 601   1 H      0.058  0.942  0.000  0.000     2.220     2.330
 602   1 H      0.050  0.950  0.000  0.000     2.321     2.383
 603   1 H      0.062  0.938  0.000  0.000     2.180     2.309
 604   1 H      0.034  0.966  0.000  0.000     2.531     2.488
 605   7 N     -0.167  1.244  3.923  0.000    24.612     7.368
 606   6 C      0.014  1.058  2.927  0.000    20.344     6.423
 607   6 C      0.265  1.046  2.690  0.000    22.535     7.774
 608   8 O     -0.478  1.735  4.743  0.000    23.301     6.472
 609   6 C     -0.076  1.058  3.018  0.000    21.952     6.670
 610   6 C     -0.015  1.055  2.961  0.000    20.812     6.489
 611   6 C     -0.120  1.043  3.077  0.000    22.868     6.819
 612   6 C     -0.111  1.041  3.070  0.000    22.675     6.790
 613   1 H      0.232  0.768  0.000  0.000     0.957     1.533
 614   1 H      0.079  0.921  0.000  0.000     1.985     2.203
 615   1 H      0.061  0.939  0.000  0.000     2.187     2.313
 616   1 H      0.054  0.946  0.000  0.000     2.274     2.358
 617   1 H      0.045  0.955  0.000  0.000     2.386     2.415
 618   1 H      0.040  0.960  0.000  0.000     2.443     2.444
 619   1 H      0.041  0.959  0.000  0.000     2.430     2.438
 620   1 H      0.046  0.954  0.000  0.000     2.373     2.409
 621   1 H      0.040  0.960  0.000  0.000     2.446     2.446
 622   1 H      0.027  0.973  0.000  0.000     2.630     2.536
 623   1 H      0.044  0.956  0.000  0.000     2.401     2.423
 624   7 N     -0.150  1.235  3.915  0.000    24.244     7.313
 625   6 C      0.026  1.050  2.924  0.000    20.142     6.390
 626   6 C      0.195  1.083  2.722  0.000    23.840     7.997
 627   8 O     -0.367  1.760  4.607  0.000    21.025     6.148
 628   6 C     -0.069  1.049  3.019  0.000    21.806     6.647
 629   6 C     -0.039  1.062  2.977  0.000    28.915     8.819
 630   6 C     -0.011  1.068  2.942  0.000    28.253     8.719
 631   6 C     -0.021  1.072  2.948  0.000    28.349     8.721
 632   7 N     -0.112  1.229  3.883  0.000    23.439     7.191
 633   6 C      0.042  1.064  2.893  0.000    26.979     8.516
 634   6 C     -0.045  1.080  2.964  0.000    29.110     8.847
 635   6 C     -0.056  1.073  2.984  0.000    29.401     8.891
 636   6 C     -0.050  1.078  2.972  0.000    29.240     8.867
 637   6 C     -0.039  1.076  2.963  0.000    28.975     8.827
 638   1 H      0.214  0.786  0.000  0.000     1.038     1.596
 639   1 H      0.096  0.904  0.000  0.000     1.822     2.111
 640   1 H      0.063  0.937  0.000  0.000     2.163     2.300
 641   1 H      0.075  0.925  0.000  0.000     2.030     2.228
 642   1 H      0.034  0.966  0.000  0.000     2.535     2.490
 643   1 H      0.185  0.815  0.000  0.000     1.187     1.707
 644   1 H      0.031  0.969  0.000  0.000     2.577     2.510
 645   1 H      0.037  0.963  0.000  0.000     2.488     2.467
 646   1 H      0.037  0.963  0.000  0.000     2.484     2.465
 647   1 H      0.046  0.954  0.000  0.000     2.364     2.404
 648   7 N     -0.387  1.324  4.063  0.000    30.008     8.136
 649   6 C      0.028  1.062  2.910  0.000    20.125     6.390
 650   6 C      0.273  1.053  2.674  0.000    22.379     7.746
 651   8 O     -0.527  1.777  4.750  0.000    24.395     6.622
 652   6 C     -0.057  1.048  3.010  0.000    21.608     6.618
 653   6 C     -0.101  1.060  3.041  0.000    22.417     6.740
 654   6 C      0.287  1.037  2.676  0.000    22.138     7.704
 655   8 O     -0.530  1.766  4.764  0.000    24.447     6.629
 656   7 N     -0.282  1.269  4.013  0.000    27.281     7.757
 657   1 H      0.158  0.842  0.000  0.000     1.348     1.818
 658   1 H      0.060  0.940  0.000  0.000     2.193     2.316
 659   1 H      0.041  0.959  0.000  0.000     2.431     2.438
 660   1 H      0.036  0.964  0.000  0.000     2.501     2.473
 661   1 H      0.069  0.931  0.000  0.000     2.095     2.264
 662   1 H      0.077  0.923  0.000  0.000     2.005     2.215
 663   1 H      0.233  0.767  0.000  0.000     0.951     1.528
 664   1 H      0.239  0.761  0.000  0.000     0.929     1.510
 665   7 N     -0.182  1.255  3.927  0.000    24.948     7.418
 666   6 C      0.016  1.063  2.920  0.000    20.317     6.420
 667   6 C      0.288  1.036  2.676  0.000    22.114     7.701
 668   8 O     -0.515  1.762  4.752  0.000    24.111     6.583
 669   6 C     -0.085  1.065  3.019  0.000    22.109     6.693
 670   6 C     -0.014  1.054  2.960  0.000    20.794     6.486
 671   6 C     -0.126  1.047  3.080  0.000    22.977     6.834
 672   6 C     -0.125  1.046  3.079  0.000    22.938     6.828
 673   1 H      0.229  0.771  0.000  0.000     0.968     1.541
 674   1 H      0.071  0.929  0.000  0.000     2.069     2.249
 675   1 H      0.069  0.931  0.000  0.000     2.098     2.265
 676   1 H      0.051  0.949  0.000  0.000     2.304     2.374
 677   1 H      0.029  0.971  0.000  0.000     2.605     2.524
 678   1 H      0.055  0.945  0.000  0.000     2.264     2.353
 679   1 H      0.036  0.964  0.000  0.000     2.503     2.474
 680   1 H      0.054  0.946  0.000  0.000     2.270     2.356
 681   1 H      0.057  0.943  0.000  0.000     2.234     2.338
 682   1 H      0.062  0.938  0.000  0.000     2.174     2.306
 683   1 H      0.042  0.958  0.000  0.000     2.424     2.435
 684   7 N     -0.164  1.236  3.928  0.000    24.556     7.360
 685   6 C      0.035  1.056  2.910  0.000    20.004     6.370
 686   6 C      0.268  1.050  2.682  0.000    22.473     7.763
 687   8 O     -0.477  1.727  4.750  0.000    23.282     6.469
 688   6 C     -0.061  1.055  3.006  0.000    21.666     6.626
 689   6 C     -0.082  1.058  3.025  0.000    22.067     6.688
 690   6 C      0.368  1.021  2.611  0.000    20.753     7.455
 691   8 O     -0.620  1.752  4.868  0.000    26.623     6.918
 692   8 O     -0.665  1.786  4.878  0.000    27.759     7.064
 693   1 H      0.222  0.778  0.000  0.000     1.001     1.567
 694   1 H      0.047  0.953  0.000  0.000     2.358     2.401
 695   1 H      0.053  0.947  0.000  0.000     2.282     2.362
 696   1 H      0.064  0.936  0.000  0.000     2.153     2.294
 697   1 H      0.005  0.995  0.000  0.000     2.968     2.694
 698   1 H      0.020  0.980  0.000  0.000     2.727     2.582
 699   7 N     -0.162  1.243  3.919  0.000    24.500     7.351
 700   6 C      0.043  1.051  2.906  0.000    19.865     6.346
 701   6 C      0.272  1.038  2.689  0.000    22.395     7.750
 702   8 O     -0.472  1.762  4.710  0.000    23.169     6.454
 703   6 C     -0.081  1.050  3.031  0.000    22.037     6.682
 704   6 C      0.286  1.035  2.679  0.000    22.155     7.707
 705   8 O     -0.498  1.741  4.757  0.000    23.745     6.533
 706   7 N     -0.261  1.266  3.995  0.000    26.766     7.684
 707   1 H      0.182  0.818  0.000  0.000     1.205     1.720
 708   1 H      0.067  0.933  0.000  0.000     2.124     2.279
 709   1 H      0.071  0.929  0.000  0.000     2.072     2.251
 710   1 H      0.042  0.958  0.000  0.000     2.416     2.431
 711   1 H      0.250  0.750  0.000  0.000     0.884     1.473
 712   1 H      0.198  0.802  0.000  0.000     1.116     1.655
 713   7 N     -0.172  1.241  3.931  0.000    24.720     7.384
 714   6 C     -0.038  1.051  2.987  0.000    21.320     6.587
 715   6 C      0.273  1.032  2.694  0.000    22.381     7.747
 716   8 O     -0.460  1.716  4.744  0.000    22.918     6.418
 717   1 H      0.210  0.790  0.000  0.000     1.057     1.610
 718   1 H      0.096  0.904  0.000  0.000     1.824     2.112
 719   1 H      0.123  0.877  0.000  0.000     1.587     1.970
 720   7 N     -0.148  1.229  3.920  0.000    24.212     7.308
 721   6 C      0.008  1.061  2.931  0.000    20.452     6.439
 722   6 C      0.192  1.087  2.721  0.000    23.905     8.007
 723   8 O     -0.375  1.768  4.606  0.000    21.185     6.171
 724   6 C     -0.022  1.064  2.957  0.000    20.930     6.507
 725   6 C     -0.140  1.050  3.090  0.000    23.247     6.875
 726   6 C     -0.118  1.044  3.074  0.000    22.823     6.813
 727   1 H      0.193  0.807  0.000  0.000     1.141     1.673
 728   1 H      0.110  0.890  0.000  0.000     1.699     2.038
 729   1 H      0.037  0.963  0.000  0.000     2.485     2.465
 730   1 H      0.083  0.917  0.000  0.000     1.952     2.185
 731   1 H      0.058  0.942  0.000  0.000     2.228     2.334
 732   1 H      0.072  0.928  0.000  0.000     2.067     2.248
 733   1 H      0.072  0.928  0.000  0.000     2.063     2.246
 734   1 H      0.063  0.937  0.000  0.000     2.160     2.298
 735   1 H      0.013  0.987  0.000  0.000     2.848     2.639
 736   7 N     -0.383  1.334  4.049  0.000    29.914     8.123
 737   6 C      0.040  1.049  2.912  0.000    19.898     6.349
 738   6 C      0.273  1.046  2.681  0.000    22.385     7.748
 739   8 O     -0.486  1.746  4.740  0.000    23.472     6.496
 740   6 C     -0.018  1.073  2.946  0.000    20.902     6.509
 741  16 S     -0.161  1.942  4.120  0.099   147.858    20.466
 742   1 H      0.173  0.827  0.000  0.000     1.255     1.755
 743   1 H      0.037  0.963  0.000  0.000     2.493     2.469
 744   1 H      0.049  0.951  0.000  0.000     2.327     2.385
 745   1 H      0.058  0.942  0.000  0.000     2.225     2.333
 746   7 N     -0.193  1.259  3.934  0.000    25.196     7.455
 747   6 C      0.015  1.068  2.917  0.000    20.338     6.423
 748   6 C      0.265  1.052  2.683  0.000    22.537     7.773
 749   8 O     -0.481  1.748  4.733  0.000    23.379     6.483
 750   6 C     -0.024  1.070  2.953  0.000    20.965     6.513
 751   6 C     -0.062  1.040  3.022  0.000    21.694     6.631
 752   6 C     -0.114  1.043  3.071  0.000    22.746     6.802
 753   6 C     -0.106  1.030  3.076  0.000    22.569     6.773
 754   1 H      0.228  0.772  0.000  0.000     0.974     1.546
 755   1 H      0.065  0.935  0.000  0.000     2.140     2.288
 756   1 H      0.045  0.955  0.000  0.000     2.380     2.413
 757   1 H      0.046  0.954  0.000  0.000     2.375     2.410
 758   1 H      0.042  0.958  0.000  0.000     2.418     2.432
 759   1 H      0.058  0.942  0.000  0.000     2.226     2.333
 760   1 H      0.028  0.972  0.000  0.000     2.620     2.531
 761   1 H      0.047  0.953  0.000  0.000     2.358     2.401
 762   1 H      0.048  0.952  0.000  0.000     2.350     2.397
 763   1 H      0.033  0.967  0.000  0.000     2.546     2.495
 764   1 H      0.038  0.962  0.000  0.000     2.478     2.462
 765   7 N     -0.161  1.249  3.913  0.000    24.493     7.350
 766   6 C      0.018  1.058  2.925  0.000    20.286     6.414
 767   6 C      0.270  1.048  2.682  0.000    22.442     7.757
 768   8 O     -0.474  1.744  4.730  0.000    23.211     6.459
 769   6 C     -0.132  1.045  3.087  0.000    23.087     6.851
 770   1 H      0.211  0.789  0.000  0.000     1.051     1.606
 771   1 H      0.078  0.922  0.000  0.000     2.002     2.213
 772   1 H      0.066  0.934  0.000  0.000     2.133     2.284
 773   1 H      0.080  0.920  0.000  0.000     1.982     2.202
 774   1 H      0.073  0.927  0.000  0.000     2.054     2.241
 775   7 N     -0.191  1.253  3.938  0.000    25.138     7.446
 776   6 C      0.005  1.063  2.931  0.000    20.498     6.448
 777   6 C      0.266  1.052  2.682  0.000    22.507     7.768
 778   8 O     -0.482  1.749  4.733  0.000    23.391     6.484
 779   6 C      0.077  1.037  2.886  0.000    19.502     6.325
 780   8 O     -0.480  1.728  4.751  0.000    22.458     6.397
 781   1 H      0.222  0.778  0.000  0.000     1.001     1.567
 782   1 H      0.082  0.918  0.000  0.000     1.954     2.186
 783   1 H      0.048  0.952  0.000  0.000     2.346     2.395
 784   1 H      0.056  0.944  0.000  0.000     2.247     2.344
 785   1 H      0.346  0.654  0.000  0.000     0.597     1.214
 786   7 N     -0.160  1.241  3.920  0.000    24.470     7.347
 787   6 C      0.018  1.071  2.911  0.000    20.303     6.420
 788   6 C      0.202  1.090  2.709  0.000    23.712     7.975
 789   8 O     -0.335  1.757  4.578  0.000    20.422     6.059
 790   6 C      0.118  1.045  2.837  0.000    18.748     6.183
 791   8 O     -0.480  1.732  4.748  0.000    22.464     6.398
 792   6 C     -0.121  1.040  3.080  0.000    22.872     6.820
 793   1 H      0.226  0.774  0.000  0.000     0.981     1.552
 794   1 H      0.088  0.912  0.000  0.000     1.900     2.156
 795   1 H      0.046  0.954  0.000  0.000     2.373     2.409
 796   1 H      0.341  0.659  0.000  0.000     0.609     1.226
 797   1 H      0.084  0.916  0.000  0.000     1.938     2.177
 798   1 H      0.043  0.957  0.000  0.000     2.406     2.426
 799   1 H      0.049  0.951  0.000  0.000     2.336     2.390
 800   1 H      0.172  0.828  0.000  0.000     1.260     1.758
 801   1 H      0.076  0.924  0.000  0.000     2.025     2.225
 802   1 H      0.187  0.813  0.000  0.000     1.175     1.698
 803   1 H      0.077  0.923  0.000  0.000     2.014     2.219
 804   1 H      0.184  0.816  0.000  0.000     1.192     1.710
 805   1 H      0.085  0.915  0.000  0.000     1.923     2.168
 806   1 H      0.186  0.814  0.000  0.000     1.181     1.702
 807   1 H      0.077  0.923  0.000  0.000     2.011     2.217
 808   1 H      0.181  0.819  0.000  0.000     1.206     1.720
 809   1 H      0.095  0.905  0.000  0.000     1.835     2.118
 810   1 H      0.179  0.821  0.000  0.000     1.218     1.729
 811   1 H      0.087  0.913  0.000  0.000     1.910     2.161
 812   1 H      0.192  0.808  0.000  0.000     1.147     1.678
 813   1 H      0.097  0.903  0.000  0.000     1.808     2.102
 814   1 H      0.190  0.810  0.000  0.000     1.160     1.687
 815   1 H      0.100  0.900  0.000  0.000     1.787     2.090

 Mol. C6AA /au·bohr⁶  :    6036625.870921
 Mol. C8AA /au·bohr⁸  :  134600066.592032
 Mol. α(0) /au        :       3667.904866

 
molecular dipole:
                 x           y           z       tot (Debye)
 q only:      -48.890     243.780      47.101
   full:      -48.794     238.105      41.505     626.735
molecular quadrupole (traceless):
                xx          xy          yy          xz          yz          zz
 q only:   -12952.434   -8861.512   28026.890    -953.896    7601.173  -15074.457
  q+dip:   -12397.243   -8638.310   26868.717    -840.368    6745.406  -14471.474
   full:   -12393.201   -8641.328   26862.535    -837.973    6737.105  -14469.334
speedup  1.72
cpu  time for grad    2 m 53.7 s
wall time for grad    1 m 40.8 s

SCC energy    :   -1263.7634726
rep           :      14.6524830
ES            :       4.0723242
AES           :      -0.1628071
AXC           :       0.3858497
disp          :      -1.1010059
XB            :       0.0000000
fix           :       0.0000000
Gborn         :       0.0000000
Gsasa         :       0.0000000
Ghb           :       0.0000000
Gshift        :       0.0000000
Gsolv         :      -1.1343243     -711.80
Etot ala COSMO:   -1263.7634726
grad norm     :       0.8153427
total E       :   -1248.9812137
atomizationE  :     226.7138576   142265.09
(atE without considering molecular charge,
 total energy contains solvation terms)
H-L gap (eV)  :          0.6895

------------------------------------------------------------------------
 * finished run on 2019/05/05 at 23:30:44.476     
------------------------------------------------------------------------
 total:
 * wall-time:     0 d,  0 h,  1 min, 47.578 sec
 *  cpu-time:     0 d,  0 h,  3 min,  1.479 sec
 * ratio c/w:     1.687 speedup
 SCF:
 * wall-time:     0 d,  0 h,  1 min, 44.546 sec
 *  cpu-time:     0 d,  0 h,  2 min, 58.644 sec
 * ratio c/w:     1.709 speedup

