      -----------------------------------------------------------      
     |                   =====================                   |     
     |                           x T B                           |     
     |                   =====================                   |     
     |                         S. Grimme                         |     
     |          Mulliken Center for Theoretical Chemistry        |     
     |                    University of Bonn                     |     
     |                 Version 6.0.1 (SAW181210)                 |     
      -----------------------------------------------------------      

   This program is distributed in the hope that it will be useful,
   but WITHOUT ANY WARRANTY; without even the implied warranty of
   MERCHANTABILITY or FITNESS FOR A PARTICULAR PURPOSE.
   
   FOR NON-COMMERCIAL, ACADEMIA USE ONLY.
   
   Cite this work as:
   S. Grimme, C. Bannwarth, P. Shushkov, J. Comput. Theory Chem., 2017,
   13, 1989-2009.
   C. Bannwarth, S. Ehlert and S. Grimme., ChemRxiv, 2018, preprint.
   http://doi.org/10.26434/chemrxiv.7246238.v1
   
   for sTDA-xTB:
   S. Grimme and C. Bannwarth, J. Chem. Phys., 2016, 145, 054103.
   
   in the mass-spec context:
   V. Asgeirsson, C. Bauer and S. Grimme, Chem. Sci., 2017, 8, 4879.
   
   if GBSA is used:
   P. Shushkov, F. März and S. Grimme, unpublished.
   
   for ANC optimizer:
   S. Grimme, unpublished.
   Rational Function algorithm used in ANCopt:
   F. Eckert, P. Pulay, H.-J. Werner, J. Comput. Chem., 1997, 18, 1473.
   
   with help from (in alphabetical order)
   C. Bannwarth, F. Bohle, G. Brandenburg, E. Caldeweyher, M. Checinski,
   S. Dohm, S. Ehlert, S. Ehrlich, F. März, H. Neugebauer, J. Pisarek,
   P. Pracht, P. Shushkov, and S. Spicher.
   
 * started run on 2019/05/12 at 13:11:26.882     
========================================================================
 # omp threads = 2
========================================================================
number of atoms            : 460
number of electrons        : 1202
charge                     : 5
spin                       : .0
first test random number   : .6904

########################################################################
# WARNING! Please study the warnings concerning your input carefully
#  - Process number higher than OMP_NUM_THREADS, I hope you know what you are doing.
########################################################################

           ------------------------------------------------- 
          |                 G F N 2 - x T B                 |
          | Geometry, Frequencies, Noncovalent interactions |
          |            JCTC 2018 parametrisation            |
           ------------------------------------------------- 
 
      method parameters     
 k(s)        :  1.8500
 k(p)        :  2.2300
 k(d)        :  2.2300
 k(f)        :  2.0000
 kEN (H0ij)  : -2.0000
 D4 a1       :  0.5200
 D4 a2       :  5.0000
 D4 s6       :  1.0000
 D4 s8       :  2.7000
 D4 s9       :  5.0000
 alphaj      :  2.0000

 Solvent             : h2o
 Using internal parameter file: .param_gbsa2_h2o
 Gsolv ref. state (COSMO-RS): gsolv [1 M gas/solution]
 temperature (mdtemp)       :    298.150000000000     
 dielectric constant        :    80.2000000000000     
 rho                        :    1.00000000000000     
 mass                       :    18.0000000000000     
 surface tension            :    15.5689454083859     
 probe radius               :   0.975313790000000     
 vdW radii scaling          :    1.00000000000000     
 Gshift (Eh)                :   1.857443126794793E-003
 c1                         :    1.55243817000000     
 soset                      :   0.130326360000000     
 HB correction              :  T

            Z     q(EN)     CN     RAES       Cart. coordinates
     1  N   5.0   -0.22    3.25    1.97   124.09896   101.78395   395.79161
     2  C   4.0    0.02    4.47    4.50   122.31787    99.69075   395.52225
     3  C   4.0    0.14    3.44    3.09   121.21259    98.91574   398.08239
     4  O   6.0   -0.32    1.25    1.80   118.93122    98.39421   398.31860
     5  C   4.0   -0.03    4.48    4.50   123.41550    97.46606   394.07532
     6  C   4.0   -0.05    4.34    4.28   124.36113    98.21476   391.51225
     7  C   4.0   -0.08    4.29    4.18   121.50663    95.38819   394.06050
     8  C   4.0   -0.06    4.16    3.91   125.75762    96.16822   390.15103
     9  H   1.0    0.11    1.07    1.44   125.67218   101.44423   395.21867
    10  H   1.0    0.04    1.12    1.45   120.88415   100.37013   394.47752
    11  H   1.0    0.05    1.12    1.45   124.96210    96.82934   395.01642
    12  H   1.0    0.05    1.09    1.44   122.86413    98.65494   390.45876
    13  H   1.0    0.06    1.10    1.44   125.47581    99.68836   391.65776
    14  H   1.0    0.05    1.05    1.44   122.21113    93.87108   393.15600
    15  H   1.0    0.05    1.06    1.44   121.06978    94.85460   395.80906
    16  H   1.0    0.05    1.06    1.44   119.97066    95.94386   393.17888
    17  H   1.0    0.07    1.05    1.44   126.19858    96.69911   388.43426
    18  H   1.0    0.07    1.05    1.44   127.35365    95.77408   391.10325
    19  H   1.0    0.06    1.05    1.44   124.72223    94.60467   390.09076
    20  N   5.0   -0.16    3.47    2.06   122.86929    98.70850   400.03757
    21  C   4.0    0.03    4.44    4.45   122.07382    98.04907   402.59587
    22  C   4.0    0.16    3.48    3.11   120.10641    99.95927   403.53691
    23  O   6.0   -0.29    1.26    1.80   118.08112    99.28890   404.47025
    24  C   4.0   -0.05    4.33    4.25   124.22506    97.75768   404.38568
    25  C   4.0   -0.05    4.18    3.96   125.23710    95.12401   405.09314
    26  C   4.0   -0.05    4.13    3.86   127.16820    94.97448   407.41907
    27  C   4.0   -0.02    4.10    3.80   129.17612    92.85387   407.11132
    28  N   5.0   -0.15    3.99    2.85   130.74774    92.95741   404.50566
    29  H   1.0    0.09    1.11    1.45   124.54871    98.95399   399.89703
    30  H   1.0    0.06    1.12    1.45   121.21973    96.34164   402.47946
    31  H   1.0    0.05    1.09    1.44   125.69178    98.74170   403.70567
    32  H   1.0    0.06    1.09    1.44   123.73208    98.56605   406.03960
    33  H   1.0    0.05    1.08    1.44   123.80634    94.00610   405.49139
    34  H   1.0    0.05    1.07    1.44   126.14318    94.41790   403.56935
    35  H   1.0    0.06    1.07    1.44   128.08301    96.62566   407.47904
    36  H   1.0    0.06    1.08    1.44   126.22049    94.70382   408.94645
    37  H   1.0    0.07    1.07    1.44   130.37290    92.93755   408.49626
    38  H   1.0    0.06    1.06    1.44   128.28263    91.19975   407.10290
    39  H   1.0    0.10    1.06    1.44   131.89089    91.68715   404.52284
    40  H   1.0    0.08    1.06    1.44   129.67676    92.82292   403.20394
    41  H   1.0    0.09    1.06    1.44   131.56620    94.48341   404.46805
    42  N   5.0   -0.16    3.59    2.15   120.66887   102.41860   403.32451
    43  C   4.0    0.04    4.67    4.73   119.18264   104.34164   404.44065
    44  C   4.0    0.16    3.54    3.13   116.55361   104.30168   403.32043
    45  O   6.0   -0.31    1.25    1.80   114.59409   104.35677   404.64068
    46  C   4.0   -0.03    4.47    4.50   120.40278   106.83999   404.23211
    47  C   4.0   -0.07    4.28    4.15   118.53220   108.88065   405.00087
    48  C   4.0   -0.07    4.28    4.16   122.82421   106.89518   405.58220
    49  H   1.0    0.09    1.12    1.45   122.05958   102.95746   402.44838
    50  H   1.0    0.07    1.14    1.45   118.97922   103.92642   406.27949
    51  H   1.0    0.05    1.13    1.45   120.86156   107.28613   402.42469
    52  H   1.0    0.06    1.04    1.43   119.36903   110.58512   404.96904
    53  H   1.0    0.06    1.06    1.44   117.07292   108.90301   403.87225
    54  H   1.0    0.06    1.05    1.44   117.97763   108.54935   406.76600
    55  H   1.0    0.06    1.05    1.44   123.70232   108.56152   405.37378
    56  H   1.0    0.06    1.05    1.44   122.49018   106.68056   407.44970
    57  H   1.0    0.05    1.06    1.44   123.93906   105.54151   405.01634
    58  N   5.0   -0.16    3.55    2.12   116.46369   104.26773   400.74970
    59  C   4.0    0.03    4.59    4.65   114.20098   104.31266   399.26906
    60  C   4.0    0.15    3.53    3.13   112.57087   101.99683   399.84049
    61  O   6.0   -0.31    1.29    1.80   110.25222   102.12560   400.21197
    62  C   4.0   -0.03    4.52    4.57   114.79831   104.60948   396.53165
    63  C   4.0   -0.05    4.34    4.28   115.54407   107.32640   396.06101
    64  C   4.0   -0.09    4.25    4.11   112.67592   103.58821   394.80820
    65  C   4.0   -0.07    4.21    4.02   116.33732   107.50707   393.34010
    66  H   1.0    0.09    1.13    1.45   117.87604   104.22426   399.80366
    67  H   1.0    0.05    1.12    1.45   113.13808   105.80893   399.83331
    68  H   1.0    0.04    1.13    1.45   116.25642   103.49036   396.05904
    69  H   1.0    0.05    1.09    1.44   114.09390   108.44130   396.28655
    70  H   1.0    0.05    1.09    1.44   116.96508   107.80810   397.11289
    71  H   1.0    0.04    1.05    1.44   113.10947   103.83847   393.04194
    72  H   1.0    0.05    1.05    1.44   112.38726   101.78339   395.17778
    73  H   1.0    0.05    1.05    1.44   111.09579   104.54761   395.22348
    74  H   1.0    0.06    1.04    1.44   116.86902   109.32682   393.02141
    75  H   1.0    0.05    1.05    1.44   117.82237   106.42773   393.05384
    76  H   1.0    0.05    1.06    1.44   114.95772   107.08385   392.22933
    77  N   5.0   -0.16    3.57    2.13   113.73740    99.80443   399.88983
    78  C   4.0    0.04    4.49    4.52   112.51353    97.48075   400.60234
    79  C   4.0    0.17    3.45    3.10   111.24477    97.74008   403.21395
    80  O   6.0   -0.30    1.23    1.80   109.18186    96.74703   403.61843
    81  C   4.0    0.04    4.29    4.18   114.42964    95.37766   400.43182
    82  O   6.0   -0.27    2.14    1.84   113.19633    93.11626   400.33819
    83  H   1.0    0.11    1.15    1.45   115.40824    99.61160   399.48191
    84  H   1.0    0.06    1.13    1.45   111.10410    97.08840   399.43635
    85  H   1.0    0.05    1.08    1.44   115.48846    95.59483   398.93438
    86  H   1.0    0.06    1.07    1.44   115.53143    95.43902   401.98585
    87  H   1.0    0.12    1.07    1.44   114.33401    91.83329   400.31870
    88  N   5.0   -0.15    3.53    2.10   112.44446    99.10210   404.98129
    89  C   4.0    0.05    4.48    4.51   111.40013    99.64367   407.39359
    90  C   4.0    0.18    3.54    3.13   109.16931   101.46466   407.16021
    91  O   6.0   -0.29    1.28    1.80   107.15605   101.07762   408.28793
    92  C   4.0    0.04    4.26    4.12   113.34399   100.66028   409.24842
    93  O   6.0   -0.24    2.12    1.84   112.12623   101.92666   411.23587
    94  H   1.0    0.12    1.13    1.45   114.03618    99.77585   404.74547
    95  H   1.0    0.06    1.12    1.45   110.74464    98.00184   408.13172
    96  H   1.0    0.06    1.06    1.44   114.38668    99.24497   409.91885
    97  H   1.0    0.07    1.07    1.44   114.46159   101.85640   408.33681
    98  H   1.0    0.14    1.06    1.44   113.30385   102.48487   412.34056
    99  N   5.0   -0.14    3.58    2.14   109.45625   103.45656   405.79102
   100  C   4.0    0.04    4.50    4.53   107.40273   105.22042   405.38401
   101  C   4.0    0.17    3.53    3.13   105.13605   103.91137   404.35368
   102  O   6.0   -0.32    1.30    1.80   103.03665   104.47183   405.10593
   103  C   4.0   -0.07    4.24    4.07   108.12905   107.40575   403.74364
   104  H   1.0    0.12    1.14    1.45   110.93321   103.87338   404.94119
   105  H   1.0    0.06    1.13    1.45   106.98358   105.94105   407.08241
   106  H   1.0    0.06    1.05    1.44   106.73055   108.59870   403.55652
   107  H   1.0    0.06    1.05    1.44   109.62790   108.31256   404.47112
   108  H   1.0    0.06    1.05    1.44   108.63659   106.76403   402.03232
   109  N   5.0   -0.15    3.60    2.16   105.45166   102.10063   402.66552
   110  C   4.0    0.04    4.68    4.74   103.33896   100.80599   401.49930
   111  C   4.0    0.16    3.55    3.14   102.02895    99.00204   403.29170
   112  O   6.0   -0.29    1.40    1.80    99.73144    98.73595   403.25345
   113  C   4.0   -0.04    4.25    4.10   103.93722    99.38714   399.16512
   114  S   6.0   -0.06    2.55    3.10   104.87122   101.37526   396.77927
   115  H   1.0    0.12    1.14    1.45   106.99562   101.51747   402.12594
   116  H   1.0    0.05    1.16    1.45   102.14924   102.22392   401.05414
   117  H   1.0    0.06    1.16    1.45   105.38312    98.19534   399.53085
   118  H   1.0    0.05    1.17    1.46   102.48938    98.40228   398.57460
   119  H   1.0    0.06    1.00    1.43   106.72361   102.61659   397.43552
   120  N   5.0   -0.15    3.55    2.11   103.37396    97.63031   404.82835
   121  C   4.0    0.04    4.52    4.57   102.09174    95.98235   406.62920
   122  C   4.0    0.17    3.47    3.10   100.35944    97.51957   408.29460
   123  O   6.0   -0.23    1.20    1.80    98.15386    96.71667   408.82803
   124  C   4.0   -0.05    4.23    4.05   103.94641    94.19741   408.00642
   125  C   4.0   -0.04    4.20    4.01   104.03595    91.58191   406.46358
   126  C   4.0   -0.04    4.21    4.01   106.56886    90.68525   405.31170
   127  C   4.0   -0.02    4.23    4.07   106.27953    88.76112   403.18422
   128  N   5.0   -0.14    4.11    3.18   108.67937    87.70744   402.23521
   129  H   1.0    0.11    1.12    1.45   105.10159    97.57635   404.91729
   130  H   1.0    0.07    1.13    1.45   100.92876    94.75952   405.70232
   131  H   1.0    0.06    1.08    1.44   105.64793    94.95641   407.94994
   132  H   1.0    0.07    1.08    1.44   103.39044    93.89914   409.71259
   133  H   1.0    0.06    1.07    1.44   103.44324    90.23618   407.63324
   134  H   1.0    0.05    1.09    1.44   102.83108    91.70344   405.02875
   135  H   1.0    0.07    1.08    1.44   107.49986    92.17191   404.67337
   136  H   1.0    0.06    1.07    1.44   107.60148    89.90447   406.71668
   137  H   1.0    0.06    1.08    1.44   105.26557    87.30621   403.84747
   138  H   1.0    0.06    1.08    1.44   105.39127    89.55695   401.78502
   139  H   1.0    0.08    1.07    1.44   108.42104    86.56229   400.96480
   140  H   1.0    0.08    1.08    1.44   109.70123    88.99186   401.60020
   141  H   1.0    0.07    1.07    1.44   109.58915    86.91734   403.50542
   142  N   5.0   -0.14    3.52    2.09   101.13111    99.83201   408.87551
   143  C   4.0    0.04    4.56    4.61    99.81475   101.41132   410.70044
   144  C   4.0    0.16    3.46    3.10    97.72609   102.96480   409.57639
   145  O   6.0   -0.25    1.26    1.80    95.69362   103.00707   410.61964
   146  C   4.0    0.05    4.34    4.28   101.58975   103.08291   412.22874
   147  O   6.0   -0.25    2.12    1.84   103.76507   101.72449   413.16816
   148  C   4.0   -0.05    4.24    4.08   100.23731   104.32078   414.30024
   149  H   1.0    0.11    1.12    1.45   102.52407   100.58380   408.20987
   150  H   1.0    0.08    1.14    1.45    99.03556   100.18723   411.93269
   151  H   1.0    0.05    1.11    1.44   102.25989   104.43171   411.05786
   152  H   1.0    0.16    1.07    1.44   104.70067   101.23390   411.86215
   153  H   1.0    0.07    1.05    1.44   101.34814   105.55131   415.21672
   154  H   1.0    0.07    1.06    1.44    98.72681   105.22492   413.72328
   155  H   1.0    0.07    1.05    1.44    99.69540   103.03631   415.58781
   156  N   5.0   -0.15    3.53    2.10    98.13384   104.29945   407.46553
   157  C   4.0    0.04    4.49    4.52    96.29219   105.90272   406.21539
   158  C   4.0    0.15    3.42    3.08    95.10827   104.82975   403.82704
   159  O   6.0   -0.26    1.25    1.80    93.42242   105.95495   402.64055
   160  C   4.0   -0.02    4.48    4.50    97.36296   108.52669   405.65485
   161  C   4.0   -0.00    3.72    3.26    98.41827   109.72896   407.89937
   162  C   4.0   -0.01    3.65    3.20    96.93508   110.98079   409.59845
   163  C   4.0   -0.03    3.66    3.20   100.80394   109.52182   408.49072
   164  C   4.0   -0.01    3.57    3.15    97.84357   111.97416   411.74437
   165  C   4.0   -0.03    3.60    3.16   101.77663   110.51683   410.71527
   166  C   4.0    0.08    3.52    3.12   100.33378   111.77679   412.36690
   167  O   6.0   -0.21    2.11    1.84   101.37383   112.87036   414.55620
   168  H   1.0    0.11    1.14    1.45    99.66061   104.29681   406.65768
   169  H   1.0    0.08    1.13    1.45    94.87320   106.08290   407.48653
   170  H   1.0    0.06    1.10    1.44    98.70215   108.35868   404.37312
   171  H   1.0    0.07    1.09    1.44    95.98448   109.61802   404.97105
   172  H   1.0    0.08    1.09    1.44    95.11939   111.15855   409.22367
   173  H   1.0    0.07    1.10    1.44   101.96451   108.60364   407.39255
   174  H   1.0    0.09    1.09    1.44    96.71695   112.88700   412.91957
   175  H   1.0    0.06    1.08    1.44   103.60748   110.32671   411.08616
   176  H   1.0    0.15    1.08    1.44   103.00641   112.59318   414.55161
   177  N   5.0   -0.14    3.54    2.11    95.97631   102.69863   402.95126
   178  C   4.0    0.05    4.69    4.75    95.16077   101.52401   400.59692
   179  C   4.0    0.17    3.51    3.12    93.04828    99.69305   401.30705
   180  O   6.0   -0.24    1.23    1.80    93.48595    97.38251   401.87016
   181  C   4.0   -0.03    4.26    4.12    97.38121   100.19855   399.26476
   182  S   6.0   -0.01    2.67    3.10    96.95920   100.55936   396.22961
   183  H   1.0    0.12    1.13    1.45    97.20690   101.74515   403.78421
   184  H   1.0    0.06    1.19    1.46    94.51811   102.80318   399.45576
   185  H   1.0    0.05    1.20    1.47    98.98921   100.99922   399.78896
   186  H   1.0    0.08    1.18    1.46    97.40343    98.38866   399.74596
   187  H   1.0    0.05    1.00    1.43    98.35715    99.04050   395.06444
   188  N   5.0   -0.13    3.42    2.03    90.77343   100.67092   401.41587
   189  C   4.0    0.03    4.37    4.32    88.65545    99.03908   401.89903
   190  C   4.0    0.17    3.40    3.08    88.35402    97.11852   399.76981
   191  O   6.0   -0.25    1.21    1.80    88.77445    97.69511   397.48211
   192  H   1.0    0.12    1.11    1.45    90.39022   102.32142   401.23587
   193  H   1.0    0.07    1.09    1.44    88.87548    98.12343   403.50408
   194  H   1.0    0.06    1.08    1.44    87.06124   100.04649   402.00945
   195  N   5.0   -0.14    3.45    2.05    87.70619    94.78271   400.50872
   196  C   4.0    0.04    4.42    4.42    87.17598    92.72878   398.77082
   197  C   4.0    0.17    3.41    3.08    89.58837    91.86592   397.40593
   198  O   6.0   -0.24    1.21    1.80    91.49885    91.15141   398.64422
   199  C   4.0   -0.04    4.36    4.31    85.02481    93.51666   396.93514
   200  C   4.0   -0.04    4.26    4.11    82.39988    93.79060   398.29026
   201  C   4.0   -0.04    4.26    4.12    80.29432    94.59011   396.56736
   202  C   4.0   -0.02    4.25    4.09    77.71434    94.46691   397.87512
   203  N   5.0   -0.14    4.10    3.15    75.59308    95.35819   396.26397
   204  H   1.0    0.11    1.11    1.45    87.54683    94.33107   402.14671
   205  H   1.0    0.06    1.12    1.45    86.58211    91.22188   399.71879
   206  H   1.0    0.07    1.09    1.44    85.48351    95.15774   396.18249
   207  H   1.0    0.06    1.08    1.44    84.87719    92.21943   395.61428
   208  H   1.0    0.06    1.08    1.44    81.93956    92.14761   399.06735
   209  H   1.0    0.06    1.08    1.44    82.55815    95.07784   399.66478
   210  H   1.0    0.06    1.09    1.44    80.58171    96.35220   396.00959
   211  H   1.0    0.06    1.09    1.44    80.25092    93.46173   395.08329
   212  H   1.0    0.07    1.08    1.44    77.36345    92.69928   398.36008
   213  H   1.0    0.07    1.08    1.44    77.75754    95.54176   399.40737
   214  H   1.0    0.11    1.07    1.44    74.08409    95.28864   397.12476
   215  H   1.0    0.10    1.07    1.44    75.85097    97.00421   395.75772
   216  H   1.0    0.10    1.07    1.44    75.44842    94.37307   394.83635
   217  N   5.0   -0.13    3.51    2.08    89.53903    91.92467   394.87673
   218  C   4.0    0.05    4.49    4.52    91.71813    91.27513   393.32097
   219  C   4.0    0.16    3.43    3.09    94.09098    92.72260   394.11060
   220  O   6.0   -0.27    1.24    1.80    93.95802    95.01896   394.51639
   221  C   4.0    0.05    4.32    4.24    91.15088    91.82364   390.50265
   222  O   6.0   -0.25    2.18    1.85    88.55882    91.34622   390.04827
   223  C   4.0   -0.07    4.16    3.93    92.79265    90.39726   388.64292
   224  H   1.0    0.11    1.14    1.45    88.14305    92.34754   393.96969
   225  H   1.0    0.06    1.12    1.45    92.05552    89.44092   393.54661
   226  H   1.0    0.05    1.11    1.45    91.56538    93.64216   390.21168
   227  H   1.0    0.15    1.07    1.44    88.14406    91.90615   388.53099
   228  H   1.0    0.06    1.05    1.44    92.44600    90.91704   386.91761
   229  H   1.0    0.05    1.05    1.44    94.61218    90.68626   389.02958
   230  H   1.0    0.07    1.05    1.44    92.46748    88.55050   388.81599
   231  N   5.0   -0.15    3.49    2.07    96.27262    91.46696   394.23610
   232  C   4.0    0.04    4.42    4.42    98.68335    92.54798   395.07155
   233  C   4.0    0.14    3.51    3.12   100.63979    91.45458   393.23485
   234  O   6.0   -0.26    1.25    1.80   100.54701    89.15580   392.74140
   235  C   4.0    0.05    4.22    4.04    99.15192    91.93926   397.85607
   236  O   6.0   -0.26    2.07    1.83   101.36057    93.04343   398.86719
   237  H   1.0    0.11    1.13    1.45    96.41229    89.80731   393.81249
   238  H   1.0    0.05    1.12    1.45    98.72801    94.43084   394.95903
   239  H   1.0    0.07    1.07    1.44    97.70578    92.54541   398.85192
   240  H   1.0    0.06    1.07    1.44    99.26866    90.06117   397.99890
   241  H   1.0    0.14    1.07    1.44   102.13924    91.88742   399.80736
   242  N   5.0   -0.09    3.73    2.31   102.32286    92.99400   392.13995
   243  C   4.0    0.04    4.67    4.74   104.10494    92.07686   390.32962
   244  C   4.0    0.09    3.27    3.05   106.35519    90.67628   391.34193
   245  O   6.0   -0.28    1.15    1.80   107.06291    90.94894   393.49894
   246  C   4.0   -0.05    4.59    4.65   105.05068    94.41961   389.06006
   247  C   4.0   -0.05    4.51    4.55   104.55116    96.41471   390.67445
   248  C   4.0   -0.01    4.53    4.58   103.01826    95.50432   392.86168
   249  H   1.0    0.06    1.11    1.45   103.16626    90.90744   389.12859
   250  H   1.0    0.04    1.11    1.44   106.84833    94.27308   388.60590
   251  H   1.0    0.04    1.08    1.44   104.08179    94.66630   387.37670
   252  H   1.0    0.04    1.10    1.44   106.18525    97.13693   391.27124
   253  H   1.0    0.04    1.10    1.44   103.59983    97.78813   389.78580
   254  H   1.0    0.05    1.07    1.44   104.06344    95.54109   394.48648
   255  H   1.0    0.04    1.07    1.44   101.51185    96.60825   393.19139
   256  N   5.0   -0.21    3.26    1.97   113.99912    88.19484   391.88044
   257  C   4.0    0.03    4.30    4.20   116.40675    89.40017   391.81132
   258  C   4.0    0.09    3.23    3.04   117.59136    89.28497   389.24093
   259  O   6.0   -0.27    1.12    1.80   118.71199    91.12986   388.36686
   260  C   4.0   -0.05    4.33    4.26   118.08334    88.36156   393.88888
   261  C   4.0   -0.06    4.21    4.02   117.48012    89.26028   396.67681
   262  C   4.0   -0.05    4.22    4.05   116.85516    87.06620   398.44727
   263  C   4.0   -0.03    4.23    4.06   114.13470    85.98989   397.98497
   264  N   5.0   -0.14    4.11    3.18   113.59992    83.70111   399.43159
   265  H   1.0    0.10    1.08    1.44   113.85133    86.90020   392.98320
   266  H   1.0    0.04    1.13    1.45   116.21792    91.25480   392.21325
   267  H   1.0    0.06    1.09    1.44   117.97000    86.47789   393.87629
   268  H   1.0    0.06    1.08    1.44   119.89171    88.82734   393.54620
   269  H   1.0    0.05    1.08    1.44   118.91968    90.19401   397.35016
   270  H   1.0    0.04    1.08    1.44   115.97314    90.37949   396.57410
   271  H   1.0    0.06    1.08    1.44   118.06216    85.66192   398.12231
   272  H   1.0    0.05    1.08    1.44   116.98424    87.62358   400.19680
   273  H   1.0    0.05    1.07    1.44   112.90429    87.32214   398.50021
   274  H   1.0    0.05    1.08    1.44   113.92287    85.61623   396.18244
   275  H   1.0    0.08    1.08    1.44   111.98172    83.14452   399.18588
   276  H   1.0    0.09    1.08    1.44   114.69795    82.41748   399.01551
   277  H   1.0    0.08    1.07    1.44   113.79448    83.99236   401.16847
   278  N   5.0   -0.19    3.26    1.97   114.42198    94.51765   385.24988
   279  C   4.0    0.03    4.40    4.38   115.25867    96.99170   386.07369
   280  C   4.0    0.10    3.27    3.05   117.75527    97.63197   384.90927
   281  O   6.0   -0.24    1.12    1.80   118.14057    99.65609   383.81263
   282  C   4.0   -0.03    4.48    4.51   115.30962    97.22081   388.95149
   283  C   4.0   -0.06    4.37    4.33   112.60028    96.85503   389.95424
   284  C   4.0   -0.08    4.27    4.14   116.42816    99.63718   389.82053
   285  C   4.0   -0.08    4.19    3.99   112.44284    96.33900   392.59943
   286  H   1.0    0.10    1.07    1.44   114.29355    93.37847   386.55626
   287  H   1.0    0.05    1.12    1.45   113.97045    98.23176   385.40588
   288  H   1.0    0.05    1.13    1.45   116.38655    95.84804   389.62805
   289  H   1.0    0.04    1.10    1.44   111.64662    98.44892   389.63990
   290  H   1.0    0.04    1.10    1.44   111.77922    95.46098   389.02369
   291  H   1.0    0.04    1.06    1.44   116.36620    99.76189   391.64961
   292  H   1.0    0.06    1.06    1.44   118.20512    99.74907   389.21337
   293  H   1.0    0.05    1.05    1.44   115.45990   101.07276   389.04656
   294  H   1.0    0.05    1.06    1.44   110.65181    96.14471   393.14099
   295  H   1.0    0.04    1.06    1.44   113.33571    94.70147   392.98405
   296  H   1.0    0.04    1.06    1.44   113.24337    97.68936   393.60318
   297  N   5.0   -0.21    3.25    1.97   100.65585   101.16383   374.17776
   298  C   4.0    0.03    4.38    4.34    98.95352   100.06540   376.04066
   299  C   4.0    0.15    3.40    3.08   100.06815   100.20697   378.74721
   300  O   6.0   -0.29    1.20    1.80    98.73787   100.92550   380.57041
   301  C   4.0   -0.05    4.39    4.36    98.26760    97.43936   375.35517
   302  C   4.0   -0.04    4.25    4.10    96.21719    97.16787   373.35464
   303  C   4.0   -0.04    4.24    4.08    96.27994    94.53830   371.98823
   304  C   4.0   -0.02    4.26    4.13    93.67502    93.48863   371.48634
   305  N   5.0   -0.14    4.13    3.22    93.59943    91.52318   369.55203
   306  H   1.0    0.11    1.07    1.44   101.28179   100.03460   373.05897
   307  H   1.0    0.06    1.12    1.45    97.37694   101.10487   376.08728
   308  H   1.0    0.06    1.09    1.44    99.81491    96.55761   374.70557
   309  H   1.0    0.06    1.09    1.44    97.68739    96.50949   376.89549
   310  H   1.0    0.06    1.08    1.44    94.54093    97.36399   374.15113
   311  H   1.0    0.06    1.08    1.44    96.45831    98.48573   372.05664
   312  H   1.0    0.07    1.08    1.44    97.19287    94.68725   370.38484
   313  H   1.0    0.06    1.08    1.44    97.19214    93.31077   373.11110
   314  H   1.0    0.06    1.08    1.44    92.96453    92.77617   373.07333
   315  H   1.0    0.07    1.08    1.44    92.56102    94.91011   370.92891
   316  H   1.0    0.10    1.08    1.44    91.97527    90.98380   369.26384
   317  H   1.0    0.10    1.08    1.44    94.23320    92.14167   368.04207
   318  H   1.0    0.10    1.08    1.44    94.56211    90.16669   370.02355
   319  N   5.0   -0.14    3.47    2.06   102.49233    99.56358   378.99811
   320  C   4.0    0.04    4.41    4.40   104.01353    99.88951   381.22359
   321  C   4.0    0.08    3.25    3.04   103.95518   102.63974   382.15354
   322  O   6.0   -0.31    1.15    1.80   103.50247   103.19926   384.44963
   323  C   4.0    0.05    4.34    4.28   106.75995    99.05148   380.88074
   324  O   6.0   -0.26    2.16    1.85   107.03692    96.65714   379.68266
   325  C   4.0   -0.07    4.25    4.11   108.04996    98.84459   383.32112
   326  H   1.0    0.10    1.12    1.45   103.43016    98.86774   377.68224
   327  H   1.0    0.06    1.12    1.45   103.19646    98.79084   382.55024
   328  H   1.0    0.06    1.11    1.45   107.52975   100.38314   379.79600
   329  H   1.0    0.15    1.08    1.44   108.60001    96.28420   379.49477
   330  H   1.0    0.05    1.05    1.44   109.85268    98.34233   383.10982
   331  H   1.0    0.05    1.05    1.44   108.04409   100.49104   384.25972
   332  H   1.0    0.05    1.05    1.44   107.23121    97.57169   384.43218
   333  N   5.0   -0.20    3.16    1.95   100.04945   107.17093   381.23087
   334  C   4.0    0.03    4.21    4.01    97.57559   107.82200   382.15135
   335  C   4.0    0.16    3.32    3.06    97.06621   106.91092   384.88353
   336  O   6.0   -0.27    1.21    1.80    96.09086   108.39241   386.45472
   337  H   1.0    0.11    1.07    1.44   100.00122   106.15903   379.82686
   338  H   1.0    0.07    1.08    1.44    97.37342   109.67146   382.14912
   339  H   1.0    0.07    1.08    1.44    96.24038   107.06560   381.07773
   340  N   5.0   -0.14    3.46    2.05    97.68643   104.51046   385.45615
   341  C   4.0    0.04    4.48    4.51    97.77616   103.55010   388.02417
   342  C   4.0    0.15    3.46    3.10    99.50458   105.17908   389.69932
   343  O   6.0   -0.28    1.19    1.80    98.72960   106.05393   391.83566
   344  C   4.0   -0.05    4.58    4.64    98.61657   100.86472   388.22520
   345  C   4.0   -0.02    4.42    4.41    96.74871    98.97962   387.42137
   346  C   4.0   -0.07    4.35    4.29    98.19245    96.66110   386.82874
   347  C   4.0   -0.07    4.32    4.24    94.82682    98.29189   389.25426
   348  H   1.0    0.11    1.12    1.45    98.14180   103.34239   384.27711
   349  H   1.0    0.07    1.12    1.45    95.99811   103.73427   388.65001
   350  H   1.0    0.05    1.12    1.45   100.13909   100.66369   387.16441
   351  H   1.0    0.04    1.11    1.45    99.03584   100.50801   390.00706
   352  H   1.0    0.06    1.14    1.45    95.73486    99.66671   385.95397
   353  H   1.0    0.05    1.05    1.44    97.05619    95.28621   386.15177
   354  H   1.0    0.05    1.05    1.44    99.45182    97.02695   385.41536
   355  H   1.0    0.04    1.06    1.44    99.10737    96.03801   388.28282
   356  H   1.0    0.05    1.05    1.44    93.64503    97.00168   388.57839
   357  H   1.0    0.06    1.06    1.44    95.65950    97.58348   390.79488
   358  H   1.0    0.06    1.05    1.44    93.83684    99.80604   389.76867
   359  N   5.0   -0.16    3.50    2.08   101.92275   105.54178   388.88650
   360  C   4.0    0.04    4.61    4.67   103.74976   106.80621   390.49103
   361  C   4.0    0.10    3.37    3.07   102.93320   109.43430   391.10711
   362  O   6.0   -0.29    1.15    1.80   103.00294   110.16566   393.25800
   363  C   4.0   -0.02    4.49    4.52   106.31918   106.74309   389.37456
   364  C   4.0   -0.07    4.35    4.29   107.94241   108.57887   390.73766
   365  C   4.0   -0.08    4.32    4.24   107.28115   104.16787   389.51730
   366  H   1.0    0.12    1.15    1.45   102.45652   105.05885   387.36371
   367  H   1.0    0.06    1.14    1.45   103.76708   105.82153   392.10180
   368  H   1.0    0.06    1.13    1.45   106.34717   107.25679   387.54545
   369  H   1.0    0.05    1.05    1.44   109.74465   108.42805   390.13885
   370  H   1.0    0.07    1.06    1.44   107.36433   110.31479   390.43514
   371  H   1.0    0.05    1.06    1.44   107.90966   108.20166   392.56796
   372  H   1.0    0.04    1.05    1.44   108.97563   104.03906   388.64593
   373  H   1.0    0.04    1.06    1.44   107.48470   103.64279   391.28053
   374  H   1.0    0.05    1.06    1.44   106.11110   102.98606   388.63421
   375  N   5.0   -0.19    3.18    1.95    97.52274   111.93486   391.01951
   376  C   4.0    0.04    4.27    4.13    95.41836   111.89478   392.78089
   377  C   4.0    0.17    3.34    3.06    96.14181   111.98429   395.47063
   378  O   6.0   -0.22    1.20    1.80    95.03042   113.44406   396.96482
   379  H   1.0    0.13    1.07    1.44    97.47962   110.69505   389.86852
   380  H   1.0    0.08    1.08    1.44    94.26265   113.39436   392.41228
   381  H   1.0    0.07    1.08    1.44    94.33303   110.36004   392.45906
   382  N   5.0   -0.14    3.49    2.07    98.07612   110.46046   396.10723
   383  C   4.0    0.05    4.33    4.26    99.27206   110.38052   398.59110
   384  C   4.0    0.11    3.26    3.05   100.51879   112.86521   399.18172
   385  O   6.0   -0.23    1.13    1.80    99.86684   114.06115   401.01762
   386  C   4.0   -0.07    4.23    4.07   101.15649   108.28857   398.80366
   387  H   1.0    0.12    1.13    1.45    98.81350   109.37652   394.99801
   388  H   1.0    0.07    1.12    1.45    97.84439   110.06345   399.82450
   389  H   1.0    0.05    1.05    1.44   101.81953   108.20552   400.54505
   390  H   1.0    0.05    1.05    1.44   100.29969   106.62400   398.42324
   391  H   1.0    0.07    1.06    1.44   102.52300   108.54509   397.59483
   392  O   6.0   -0.31    1.99    1.83   108.10318    92.13074   398.72942
   393  H   1.0    0.15    1.01    1.43   109.56446    92.77190   398.17428
   394  H   1.0    0.15    1.01    1.43   106.98828    93.23964   398.10756
   395  N   5.0   -0.18    3.22    1.96    99.83201   101.13111   425.51030
   396  C   4.0    0.04    4.38    4.34   101.41132    99.81475   423.68536
   397  C   4.0    0.11    3.26    3.04   102.96480    97.72609   424.80942
   398  O   6.0   -0.22    1.14    1.80   103.00707    95.69362   423.76616
   399  C   4.0    0.05    4.34    4.27   103.08291   101.58975   422.15707
   400  O   6.0   -0.24    2.12    1.84   101.72449   103.76507   421.21765
   401  C   4.0   -0.05    4.24    4.08   104.32078   100.23731   420.08557
   402  H   1.0    0.12    1.07    1.44   100.58380   102.52407   426.17593
   403  H   1.0    0.08    1.13    1.45   100.18723    99.03556   422.45311
   404  H   1.0    0.06    1.10    1.44   104.43171   102.25989   423.32794
   405  H   1.0    0.15    1.06    1.44   101.23390   104.70067   422.52365
   406  H   1.0    0.07    1.05    1.44   105.55131   101.34814   419.16908
   407  H   1.0    0.07    1.06    1.44   105.22492    98.72681   420.66252
   408  H   1.0    0.07    1.05    1.44   103.03631    99.69540   418.79800
   409  N   5.0   -0.17    3.25    1.97   123.51764    97.76719   419.42684
   410  C   4.0    0.04    4.28    4.16   124.07045    99.57177   417.45673
   411  C   4.0    0.10    3.23    3.04   126.71086   100.68944   417.75215
   412  O   6.0   -0.20    1.11    1.80   128.01039   100.39154   419.77507
   413  C   4.0   -0.04    4.42    4.41   122.24731   101.77671   417.23172
   414  C   4.0   -0.03    4.35    4.30   119.47394   101.17753   417.18286
   415  C   4.0    0.16    3.31    3.05   118.66803    99.99611   414.80220
   416  O   6.0   -0.27    1.20    1.80   119.88462   100.49783   412.79933
   417  N   5.0   -0.22    3.20    1.96   116.55921    98.51653   414.93888
   418  H   1.0    0.13    1.07    1.44   123.85232    98.33648   421.02673
   419  H   1.0    0.06    1.12    1.45   123.97383    98.52186   415.87612
   420  H   1.0    0.06    1.09    1.44   122.51572   102.86932   418.76944
   421  H   1.0    0.07    1.10    1.44   122.62553   102.74236   415.71960
   422  H   1.0    0.05    1.10    1.44   119.04362   100.01518   418.59226
   423  H   1.0    0.06    1.09    1.44   118.48017   102.76858   417.39592
   424  H   1.0    0.12    1.07    1.44   115.75357    98.28613   416.36146
   425  H   1.0    0.12    1.07    1.44   116.01601    97.72818   413.51014
   426  N   5.0   -0.19    3.24    1.97   125.02207   111.61840   412.07775
   427  C   4.0    0.04    4.32    4.24   122.40758   112.07751   412.69693
   428  C   4.0    0.11    3.22    3.04   122.06866   114.90841   413.08664
   429  O   6.0   -0.23    1.12    1.80   120.20653   115.98727   412.18615
   430  C   4.0   -0.04    4.41    4.39   121.48817   110.43213   414.83990
   431  C   4.0   -0.02    4.33    4.26   118.76915   110.12366   415.07593
   432  C   4.0    0.16    3.25    3.04   117.53000   108.34858   413.22420
   433  O   6.0   -0.28    1.22    1.80   118.66654   106.48392   412.59132
   434  N   5.0   -0.22    3.16    1.95   115.07960   108.91643   412.32156
   435  H   1.0    0.11    1.07    1.44   125.81826   110.59373   413.26571
   436  H   1.0    0.06    1.13    1.45   121.30757   111.63063   411.22584
   437  H   1.0    0.06    1.10    1.44   122.24177   108.73330   414.63915
   438  H   1.0    0.07    1.09    1.44   122.16082   111.19234   416.45019
   439  H   1.0    0.06    1.09    1.44   118.31788   109.50756   416.82097
   440  H   1.0    0.07    1.09    1.44   117.91337   111.83555   414.88575
   441  H   1.0    0.12    1.06    1.44   114.32073   110.32127   412.91321
   442  H   1.0    0.12    1.06    1.44   114.34603   107.93300   411.23670
   443  H   1.0    0.10    1.07    1.44   123.53083   103.12867   394.91897
   444  H   1.0    0.06    1.05    1.44   107.30704    89.48486   390.22589
   445  H   1.0    0.10    1.08    1.44   112.80866    89.32907   392.31505
   446  H   1.0    0.08    1.05    1.44   117.47660    87.70031   388.21782
   447  H   1.0    0.10    1.08    1.44   112.88922    94.64908   384.52465
   448  H   1.0    0.08    1.05    1.44   119.18543    96.40037   385.00347
   449  H   1.0    0.12    1.08    1.44    99.82911   102.35100   373.28351
   450  H   1.0    0.07    1.04    1.43   104.27865   104.05376   380.94235
   451  H   1.0    0.12    1.08    1.44   100.89292   108.58891   380.81800
   452  H   1.0    0.07    1.05    1.44   102.32982   110.58283   389.73311
   453  H   1.0    0.13    1.08    1.44    97.52414   113.40832   390.17011
   454  H   1.0    0.08    1.05    1.44   101.88550   113.52747   398.05719
   455  H   1.0    0.13    1.08    1.44    98.39328   101.63558   424.75655
   456  H   1.0    0.09    1.05    1.44   103.94432    98.02651   426.39729
   457  H   1.0    0.11    1.08    1.44   121.86670    97.36149   419.37817
   458  H   1.0    0.07    1.04    1.43   127.47694   101.68884   416.34311
   459  H   1.0    0.11    1.08    1.44   125.12023   110.84610   410.56564
   460  H   1.0    0.09    1.04    1.43   123.35215   115.88726   414.06926

  Z AO/shell   Hii/eV     exponent
  1     Wed Apr 25 08:07:45 CEST 2018   EN: 2.200 GM2: 0.406  GM3: 0.0800  RAES: 1.40
     1s    -10.707211    1.230000
  6     Wed Apr 25 08:07:45 CEST 2018   EN: 2.550 GM2: 0.538  GM3: 0.1500  RAES: 3.00
     2s    -13.970922    2.096432
     2p    -10.063292    1.800000
  7     Wed Apr 25 08:07:45 CEST 2018   EN: 3.040 GM2: 0.461  GM3:-0.0640  RAES: 1.90
     2s    -16.686243    2.339881
     2p    -12.523956    2.014332
  8     Wed Apr 25 08:07:45 CEST 2018   EN: 3.440 GM2: 0.452  GM3:-0.0517  RAES: 1.80
     2s    -20.229985    2.439742
     2p    -15.503117    2.137023
 16     Tue Apr 24 11:44:34 CEST 2018   EN: 2.580 GM2: 0.340  GM3:-0.0502  RAES: 3.10
     3s    -20.029654    1.981333
     3p    -11.377694    2.025643
     3d     -0.420282    1.702555
 no old-style atom pair restraining (fixing) potential

molecular fragmentation (1/2 indicates fragments):
111111111111111111111111111111111111111111111111111111111111111111111111
111111111111111111111111111111111111111111111111111111111111111111111111
111111111111111111111111111111111111111111111111111111111111111111111111
111111111111111111111111111111111111111222222222222222222222222222222222
222222222222222222222222222222222222222222222222222222222222222222222222
222222222222222222222222222222222222222222222222222222222222222222222222
2222222222112222222222222222
# atoms in fragment 1/2:   257   203
 fragment masses (1/2) :     1773.15     1261.61
CMA distance (Bohr)    :   6.338
constraining FC (au)   :  0.0500
           ------------------------------------------------- 
          |        Self-Consistent Charge Iterations        |
           ------------------------------------------------- 

 Ncao       : 1099
 Nao        : 1097
 Nshell     : 671
 Nel        : 1202
 T(el)      :   500.0
 intcut     :    35.0
 scfconv/Eh :  0.100E-06
   qconv/e  :  0.100E-04
 intneglect :  0.100E-08
 broydamp   :      0.400
 iter      E             dE          RMSdq      gap      omega  full diag
   1   -690.4458732 -0.690446E+03  0.462E+00    2.54       0.0  T
   2   -691.9845547 -0.153868E+01  0.221E+00    1.39       1.0  T
   3   -692.0676439 -0.830892E-01  0.125E+00    1.80       1.0  T
   4   -692.1893492 -0.121705E+00  0.295E-01    1.11       1.0  T
   5   -692.1984611 -0.911186E-02  0.143E-01    1.43       1.0  T
   6   -692.2004130 -0.195192E-02  0.631E-02    1.34       1.0  T
   7   -692.2008577 -0.444726E-03  0.288E-02    1.38       1.0  T
   8   -692.2008981 -0.404071E-04  0.134E-02    1.37       1.0  T
   9   -692.2009130 -0.148969E-04  0.589E-03    1.37       1.0  T
  10   -692.2009156 -0.260190E-05  0.272E-03    1.37       1.7  T
  11   -692.2009162 -0.611491E-06  0.126E-03    1.38       3.7  T
  12   -692.2009163 -0.852564E-07  0.562E-04    1.38       8.3  T
  13   -692.2009164 -0.352580E-07  0.244E-04    1.38      19.1  T
  14   -692.2009164 -0.350121E-08  0.106E-04    1.38      44.2  T
  15   -692.2009164 -0.712248E-09  0.449E-05    1.38     103.8  T
  16   -692.2009164 -0.182922E-09  0.194E-05    1.38     240.0  T
speedup  1.98
cpu  time for SCC   26.71 s
wall time for SCC   13.48 s

   *** convergence criteria satisfied after 16 iterations ***

          eigenvalues
 #    :         589        590        591        592        593        594        595        596
 occ. :        2.000      2.000      2.000      2.000      2.000      2.000      2.000      2.000
 eps  :       -10.558    -10.443    -10.326    -10.297    -10.243    -10.207    -10.105    -10.094
 #    :         597        598        599        600        601        602        603        604
 occ. :        2.000      2.000      2.000      2.000      2.000      0.000      0.000      0.000
 eps  :       -10.092     -9.931     -9.896     -9.852     -9.810     -8.434     -8.091     -7.929
 #    :         605        606        607        608        609        610        611        612
 occ. :        0.000      0.000      0.000      0.000      0.000      0.000      0.000      0.000
 eps  :        -7.761     -7.639     -7.574     -7.565     -7.419     -7.215     -6.990     -6.721


   #   Z            q   n(s)   n(p)   n(d)      C6AA      α(0)
   1   7 N     -0.418  1.291  4.127  0.000    30.870     8.252
   2   6 C      0.015  1.045  2.940  0.000    20.323     6.418
   3   6 C      0.252  1.063  2.685  0.000    22.762     7.812
   4   8 O     -0.491  1.746  4.745  0.000    23.577     6.510
   5   6 C     -0.033  1.040  2.993  0.000    21.118     6.535
   6   6 C     -0.074  1.002  3.072  0.000    21.901     6.660
   7   6 C     -0.146  0.986  3.160  0.000    23.350     6.884
   8   6 C     -0.137  0.983  3.154  0.000    23.175     6.860
   9   1 H      0.174  0.826  0.000  0.000     1.246     1.749
  10   1 H      0.058  0.942  0.000  0.000     2.216     2.328
  11   1 H      0.052  0.948  0.000  0.000     2.295     2.369
  12   1 H      0.040  0.960  0.000  0.000     2.442     2.444
  13   1 H      0.039  0.961  0.000  0.000     2.463     2.454
  14   1 H      0.057  0.943  0.000  0.000     2.231     2.336
  15   1 H      0.067  0.933  0.000  0.000     2.117     2.275
  16   1 H      0.063  0.937  0.000  0.000     2.164     2.300
  17   1 H      0.037  0.963  0.000  0.000     2.490     2.468
  18   1 H      0.043  0.957  0.000  0.000     2.410     2.428
  19   1 H      0.057  0.943  0.000  0.000     2.229     2.334
  20   7 N     -0.188  1.225  3.963  0.000    25.085     7.439
  21   6 C      0.003  1.045  2.953  0.000    20.541     6.454
  22   6 C      0.266  1.048  2.685  0.000    22.506     7.769
  23   8 O     -0.483  1.749  4.734  0.000    23.404     6.486
  24   6 C     -0.106  1.015  3.091  0.000    22.512     6.753
  25   6 C     -0.112  1.030  3.082  0.000    22.646     6.776
  26   6 C     -0.115  1.030  3.085  0.000    22.707     6.785
  27   6 C     -0.067  1.059  3.009  0.000    21.927     6.691
  28   7 N     -0.165  1.171  3.994  0.000    24.558     7.360
  29   1 H      0.224  0.776  0.000  0.000     0.990     1.558
  30   1 H      0.119  0.881  0.000  0.000     1.624     1.993
  31   1 H      0.080  0.920  0.000  0.000     1.973     2.197
  32   1 H      0.075  0.925  0.000  0.000     2.031     2.228
  33   1 H      0.090  0.910  0.000  0.000     1.881     2.144
  34   1 H      0.083  0.917  0.000  0.000     1.947     2.182
  35   1 H      0.088  0.912  0.000  0.000     1.895     2.153
  36   1 H      0.106  0.894  0.000  0.000     1.732     2.058
  37   1 H      0.129  0.871  0.000  0.000     1.542     1.942
  38   1 H      0.140  0.860  0.000  0.000     1.463     1.891
  39   1 H      0.288  0.712  0.000  0.000     0.750     1.357
  40   1 H      0.289  0.711  0.000  0.000     0.746     1.353
  41   1 H      0.287  0.713  0.000  0.000     0.752     1.358
  42   7 N     -0.186  1.212  3.974  0.000    25.025     7.430
  43   6 C      0.019  1.030  2.951  0.000    20.241     6.401
  44   6 C      0.264  1.054  2.682  0.000    22.553     7.777
  45   8 O     -0.500  1.759  4.741  0.000    23.786     6.539
  46   6 C     -0.029  1.028  3.002  0.000    21.052     6.524
  47   6 C     -0.142  0.986  3.155  0.000    23.255     6.871
  48   6 C     -0.150  0.985  3.165  0.000    23.411     6.893
  49   1 H      0.214  0.786  0.000  0.000     1.036     1.594
  50   1 H      0.094  0.906  0.000  0.000     1.838     2.120
  51   1 H      0.060  0.940  0.000  0.000     2.201     2.320
  52   1 H      0.054  0.946  0.000  0.000     2.266     2.354
  53   1 H      0.053  0.947  0.000  0.000     2.280     2.361
  54   1 H      0.050  0.950  0.000  0.000     2.324     2.384
  55   1 H      0.057  0.943  0.000  0.000     2.237     2.338
  56   1 H      0.055  0.945  0.000  0.000     2.263     2.352
  57   1 H      0.076  0.924  0.000  0.000     2.018     2.221
  58   7 N     -0.190  1.218  3.972  0.000    25.117     7.443
  59   6 C      0.009  1.041  2.950  0.000    20.412     6.431
  60   6 C      0.263  1.046  2.691  0.000    22.561     7.778
  61   8 O     -0.515  1.750  4.765  0.000    24.128     6.586
  62   6 C     -0.046  1.044  3.002  0.000    21.348     6.569
  63   6 C     -0.091  1.006  3.085  0.000    22.209     6.706
  64   6 C     -0.159  0.992  3.166  0.000    23.614     6.926
  65   6 C     -0.146  0.985  3.161  0.000    23.345     6.884
  66   1 H      0.213  0.787  0.000  0.000     1.040     1.598
  67   1 H      0.078  0.922  0.000  0.000     2.000     2.212
  68   1 H      0.069  0.931  0.000  0.000     2.101     2.266
  69   1 H      0.057  0.943  0.000  0.000     2.239     2.340
  70   1 H      0.053  0.947  0.000  0.000     2.284     2.363
  71   1 H      0.086  0.914  0.000  0.000     1.915     2.164
  72   1 H      0.073  0.927  0.000  0.000     2.053     2.241
  73   1 H      0.056  0.944  0.000  0.000     2.248     2.344
  74   1 H      0.036  0.964  0.000  0.000     2.501     2.473
  75   1 H      0.055  0.945  0.000  0.000     2.255     2.348
  76   1 H      0.069  0.931  0.000  0.000     2.095     2.263
  77   7 N     -0.172  1.217  3.955  0.000    24.722     7.385
  78   6 C     -0.002  1.045  2.957  0.000    20.613     6.464
  79   6 C      0.265  1.047  2.689  0.000    22.532     7.773
  80   8 O     -0.469  1.736  4.733  0.000    23.104     6.445
  81   6 C      0.051  0.999  2.951  0.000    19.886     6.378
  82   8 O     -0.457  1.667  4.790  0.000    21.987     6.330
  83   1 H      0.231  0.769  0.000  0.000     0.960     1.535
  84   1 H      0.122  0.878  0.000  0.000     1.594     1.974
  85   1 H      0.085  0.915  0.000  0.000     1.928     2.171
  86   1 H      0.056  0.944  0.000  0.000     2.241     2.341
  87   1 H      0.361  0.639  0.000  0.000     0.564     1.179
  88   7 N     -0.182  1.215  3.968  0.000    24.951     7.419
  89   6 C      0.012  1.038  2.950  0.000    20.371     6.425
  90   6 C      0.280  1.035  2.685  0.000    22.260     7.727
  91   8 O     -0.532  1.752  4.780  0.000    24.513     6.638
  92   6 C      0.064  1.001  2.935  0.000    19.676     6.347
  93   8 O     -0.489  1.702  4.787  0.000    22.656     6.426
  94   1 H      0.218  0.782  0.000  0.000     1.017     1.580
  95   1 H      0.102  0.898  0.000  0.000     1.763     2.076
  96   1 H      0.066  0.934  0.000  0.000     2.127     2.280
  97   1 H      0.065  0.935  0.000  0.000     2.136     2.285
  98   1 H      0.327  0.673  0.000  0.000     0.645     1.261
  99   7 N     -0.171  1.220  3.951  0.000    24.692     7.380
 100   6 C      0.024  1.029  2.947  0.000    20.158     6.390
 101   6 C      0.285  1.033  2.683  0.000    22.178     7.713
 102   8 O     -0.521  1.744  4.778  0.000    24.263     6.604
 103   6 C     -0.155  0.990  3.165  0.000    23.523     6.910
 104   1 H      0.238  0.762  0.000  0.000     0.932     1.512
 105   1 H      0.083  0.917  0.000  0.000     1.947     2.182
 106   1 H      0.075  0.925  0.000  0.000     2.030     2.228
 107   1 H      0.083  0.917  0.000  0.000     1.950     2.184
 108   1 H      0.082  0.918  0.000  0.000     1.961     2.190
 109   7 N     -0.193  1.219  3.974  0.000    25.187     7.454
 110   6 C      0.027  1.029  2.944  0.000    20.056     6.366
 111   6 C      0.266  1.035  2.699  0.000    22.518     7.772
 112   8 O     -0.521  1.763  4.758  0.000    24.248     6.602
 113   6 C     -0.018  1.010  3.008  0.000    20.881     6.502
 114  16 S     -0.302  1.885  4.376  0.041   154.169    20.898
 115   1 H      0.236  0.764  0.000  0.000     0.940     1.518
 116   1 H      0.065  0.935  0.000  0.000     2.144     2.290
 117   1 H      0.093  0.907  0.000  0.000     1.845     2.124
 118   1 H      0.089  0.911  0.000  0.000     1.885     2.147
 119   1 H      0.224  0.776  0.000  0.000     0.983     1.551
 120   7 N     -0.168  1.218  3.950  0.000    24.639     7.372
 121   6 C      0.008  1.051  2.941  0.000    20.426     6.433
 122   6 C      0.275  1.046  2.680  0.000    22.357     7.743
 123   8 O     -0.530  1.787  4.743  0.000    24.463     6.631
 124   6 C     -0.108  1.028  3.080  0.000    22.564     6.764
 125   6 C     -0.107  1.031  3.076  0.000    22.550     6.762
 126   6 C     -0.123  1.023  3.100  0.000    22.842     6.804
 127   6 C     -0.078  1.022  3.055  0.000    22.062     6.701
 128   7 N     -0.131  1.157  3.973  0.000    23.823     7.249
 129   1 H      0.239  0.761  0.000  0.000     0.928     1.509
 130   1 H      0.111  0.889  0.000  0.000     1.686     2.031
 131   1 H      0.097  0.903  0.000  0.000     1.812     2.105
 132   1 H      0.077  0.923  0.000  0.000     2.008     2.216
 133   1 H      0.078  0.922  0.000  0.000     2.004     2.214
 134   1 H      0.067  0.933  0.000  0.000     2.123     2.278
 135   1 H      0.110  0.890  0.000  0.000     1.700     2.039
 136   1 H      0.096  0.904  0.000  0.000     1.819     2.109
 137   1 H      0.125  0.875  0.000  0.000     1.572     1.961
 138   1 H      0.130  0.870  0.000  0.000     1.533     1.936
 139   1 H      0.297  0.703  0.000  0.000     0.722     1.331
 140   1 H      0.299  0.701  0.000  0.000     0.715     1.325
 141   1 H      0.295  0.705  0.000  0.000     0.727     1.335
 142   7 N     -0.184  1.214  3.970  0.000    24.984     7.424
 143   6 C      0.005  1.044  2.951  0.000    20.494     6.444
 144   6 C      0.279  1.038  2.683  0.000    22.281     7.730
 145   8 O     -0.490  1.744  4.746  0.000    23.563     6.508
 146   6 C      0.112  1.023  2.864  0.000    18.821     6.191
 147   8 O     -0.478  1.698  4.780  0.000    22.421     6.392
 148   6 C     -0.148  0.983  3.166  0.000    23.392     6.891
 149   1 H      0.215  0.785  0.000  0.000     1.033     1.592
 150   1 H      0.095  0.905  0.000  0.000     1.828     2.114
 151   1 H      0.041  0.959  0.000  0.000     2.441     2.443
 152   1 H      0.333  0.667  0.000  0.000     0.629     1.246
 153   1 H      0.082  0.918  0.000  0.000     1.961     2.190
 154   1 H      0.055  0.945  0.000  0.000     2.260     2.351
 155   1 H      0.074  0.926  0.000  0.000     2.039     2.233
 156   7 N     -0.203  1.222  3.981  0.000    25.417     7.488
 157   6 C      0.021  1.041  2.937  0.000    20.214     6.401
 158   6 C      0.269  1.041  2.690  0.000    22.449     7.759
 159   8 O     -0.521  1.757  4.765  0.000    24.258     6.604
 160   6 C     -0.084  1.010  3.074  0.000    22.066     6.683
 161   6 C      0.007  1.053  2.941  0.000    27.862     8.659
 162   6 C     -0.050  1.057  2.993  0.000    29.230     8.869
 163   6 C     -0.055  1.052  3.003  0.000    29.349     8.887
 164   6 C     -0.063  1.050  3.012  0.000    29.550     8.917
 165   6 C     -0.086  1.056  3.030  0.000    30.144     9.006
 166   6 C      0.140  1.038  2.822  0.000    24.949     8.187
 167   8 O     -0.470  1.711  4.759  0.000    22.246     6.367
 168   1 H      0.225  0.775  0.000  0.000     0.987     1.556
 169   1 H      0.090  0.910  0.000  0.000     1.878     2.143
 170   1 H      0.071  0.929  0.000  0.000     2.071     2.250
 171   1 H      0.077  0.923  0.000  0.000     2.012     2.218
 172   1 H      0.051  0.949  0.000  0.000     2.307     2.375
 173   1 H      0.067  0.933  0.000  0.000     2.115     2.274
 174   1 H      0.059  0.941  0.000  0.000     2.207     2.323
 175   1 H      0.063  0.937  0.000  0.000     2.158     2.297
 176   1 H      0.347  0.653  0.000  0.000     0.594     1.210
 177   7 N     -0.181  1.226  3.955  0.000    24.925     7.415
 178   6 C      0.043  1.032  2.926  0.000    19.788     6.320
 179   6 C      0.266  1.047  2.688  0.000    22.519     7.772
 180   8 O     -0.510  1.775  4.735  0.000    24.013     6.570
 181   6 C      0.018  0.995  2.987  0.000    20.262     6.407
 182  16 S     -0.338  1.897  4.365  0.075   155.803    21.008
 183   1 H      0.215  0.785  0.000  0.000     1.033     1.592
 184   1 H      0.074  0.926  0.000  0.000     2.041     2.234
 185   1 H      0.065  0.935  0.000  0.000     2.136     2.285
 186   1 H      0.081  0.919  0.000  0.000     1.969     2.194
 187   1 H      0.228  0.772  0.000  0.000     0.965     1.537
 188   7 N     -0.157  1.208  3.949  0.000    24.397     7.336
 189   6 C     -0.038  1.011  3.027  0.000    21.281     6.574
 190   6 C      0.272  1.044  2.684  0.000    22.399     7.750
 191   8 O     -0.492  1.770  4.722  0.000    23.613     6.515
 192   1 H      0.221  0.779  0.000  0.000     1.003     1.569
 193   1 H      0.091  0.909  0.000  0.000     1.871     2.139
 194   1 H      0.109  0.891  0.000  0.000     1.705     2.042
 195   7 N     -0.162  1.212  3.950  0.000    24.515     7.354
 196   6 C      0.007  1.045  2.948  0.000    20.474     6.443
 197   6 C      0.268  1.050  2.681  0.000    22.466     7.761
 198   8 O     -0.522  1.774  4.748  0.000    24.282     6.607
 199   6 C     -0.114  1.026  3.088  0.000    22.670     6.778
 200   6 C     -0.097  1.018  3.079  0.000    22.333     6.727
 201   6 C     -0.111  1.015  3.096  0.000    22.602     6.767
 202   6 C     -0.070  1.026  3.044  0.000    21.925     6.680
 203   7 N     -0.144  1.163  3.981  0.000    24.109     7.293
 204   1 H      0.221  0.779  0.000  0.000     1.004     1.570
 205   1 H      0.101  0.899  0.000  0.000     1.778     2.085
 206   1 H      0.083  0.917  0.000  0.000     1.943     2.179
 207   1 H      0.084  0.916  0.000  0.000     1.941     2.178
 208   1 H      0.077  0.923  0.000  0.000     2.010     2.217
 209   1 H      0.061  0.939  0.000  0.000     2.182     2.310
 210   1 H      0.087  0.913  0.000  0.000     1.910     2.161
 211   1 H      0.096  0.904  0.000  0.000     1.821     2.110
 212   1 H      0.130  0.870  0.000  0.000     1.535     1.937
 213   1 H      0.124  0.876  0.000  0.000     1.580     1.966
 214   1 H      0.295  0.705  0.000  0.000     0.730     1.338
 215   1 H      0.291  0.709  0.000  0.000     0.742     1.349
 216   1 H      0.295  0.705  0.000  0.000     0.729     1.338
 217   7 N     -0.162  1.217  3.945  0.000    24.500     7.351
 218   6 C      0.009  1.044  2.947  0.000    20.431     6.436
 219   6 C      0.274  1.042  2.684  0.000    22.371     7.745
 220   8 O     -0.481  1.761  4.721  0.000    23.378     6.483
 221   6 C      0.106  1.025  2.869  0.000    18.922     6.209
 222   8 O     -0.495  1.695  4.800  0.000    22.780     6.443
 223   6 C     -0.168  0.991  3.178  0.000    23.816     6.955
 224   1 H      0.237  0.763  0.000  0.000     0.935     1.515
 225   1 H      0.080  0.920  0.000  0.000     1.978     2.199
 226   1 H      0.049  0.951  0.000  0.000     2.331     2.387
 227   1 H      0.351  0.649  0.000  0.000     0.585     1.201
 228   1 H      0.087  0.913  0.000  0.000     1.908     2.160
 229   1 H      0.065  0.935  0.000  0.000     2.138     2.286
 230   1 H      0.074  0.926  0.000  0.000     2.038     2.233
 231   7 N     -0.187  1.220  3.966  0.000    25.045     7.433
 232   6 C      0.012  1.041  2.948  0.000    20.388     6.430
 233   6 C      0.249  1.046  2.704  0.000    22.813     7.822
 234   8 O     -0.505  1.756  4.749  0.000    23.905     6.555
 235   6 C      0.062  1.001  2.937  0.000    19.716     6.356
 236   8 O     -0.478  1.688  4.790  0.000    22.430     6.393
 237   1 H      0.223  0.777  0.000  0.000     0.996     1.563
 238   1 H      0.077  0.923  0.000  0.000     2.005     2.214
 239   1 H      0.044  0.956  0.000  0.000     2.389     2.417
 240   1 H      0.065  0.935  0.000  0.000     2.143     2.289
 241   1 H      0.347  0.653  0.000  0.000     0.594     1.211
 242   7 N     -0.056  1.217  3.838  0.000    22.316     7.016
 243   6 C      0.011  1.037  2.951  0.000    20.330     6.410
 244   6 C      0.190  1.081  2.729  0.000    23.935     8.013
 245   8 O     -0.324  1.724  4.600  0.000    20.226     6.030
 246   6 C     -0.080  1.004  3.076  0.000    21.972     6.664
 247   6 C     -0.099  0.997  3.102  0.000    22.330     6.718
 248   6 C     -0.028  1.017  3.011  0.000    21.064     6.532
 249   1 H      0.095  0.905  0.000  0.000     1.833     2.117
 250   1 H      0.091  0.909  0.000  0.000     1.871     2.139
 251   1 H      0.074  0.926  0.000  0.000     2.037     2.232
 252   1 H      0.098  0.902  0.000  0.000     1.800     2.098
 253   1 H      0.082  0.918  0.000  0.000     1.963     2.191
 254   1 H      0.090  0.910  0.000  0.000     1.875     2.141
 255   1 H      0.054  0.946  0.000  0.000     2.266     2.354
 256   7 N     -0.410  1.290  4.120  0.000    30.662     8.224
 257   6 C      0.028  1.028  2.944  0.000    20.105     6.385
 258   6 C      0.192  1.088  2.720  0.000    23.898     8.006
 259   8 O     -0.396  1.771  4.625  0.000    21.598     6.231
 260   6 C     -0.105  1.030  3.075  0.000    22.492     6.751
 261   6 C     -0.109  1.024  3.085  0.000    22.580     6.765
 262   6 C     -0.127  1.028  3.099  0.000    22.933     6.817
 263   6 C     -0.092  1.027  3.065  0.000    22.333     6.743
 264   7 N     -0.134  1.157  3.978  0.000    23.903     7.261
 265   1 H      0.196  0.804  0.000  0.000     1.125     1.662
 266   1 H      0.074  0.926  0.000  0.000     2.041     2.234
 267   1 H      0.078  0.922  0.000  0.000     1.998     2.210
 268   1 H      0.052  0.948  0.000  0.000     2.296     2.369
 269   1 H      0.083  0.917  0.000  0.000     1.947     2.182
 270   1 H      0.086  0.914  0.000  0.000     1.918     2.166
 271   1 H      0.093  0.907  0.000  0.000     1.853     2.128
 272   1 H      0.108  0.892  0.000  0.000     1.710     2.045
 273   1 H      0.138  0.862  0.000  0.000     1.475     1.899
 274   1 H      0.124  0.876  0.000  0.000     1.582     1.967
 275   1 H      0.293  0.707  0.000  0.000     0.735     1.343
 276   1 H      0.287  0.713  0.000  0.000     0.754     1.360
 277   1 H      0.295  0.705  0.000  0.000     0.729     1.337
 278   7 N     -0.409  1.306  4.103  0.000    30.634     8.220
 279   6 C      0.028  1.036  2.936  0.000    20.102     6.384
 280   6 C      0.205  1.086  2.709  0.000    23.646     7.964
 281   8 O     -0.413  1.774  4.639  0.000    21.934     6.279
 282   6 C     -0.038  1.042  2.996  0.000    21.213     6.550
 283   6 C     -0.090  1.005  3.085  0.000    22.198     6.705
 284   6 C     -0.140  0.981  3.159  0.000    23.228     6.867
 285   6 C     -0.146  0.980  3.166  0.000    23.343     6.885
 286   1 H      0.184  0.816  0.000  0.000     1.192     1.710
 287   1 H      0.061  0.939  0.000  0.000     2.184     2.311
 288   1 H      0.066  0.934  0.000  0.000     2.124     2.279
 289   1 H      0.058  0.942  0.000  0.000     2.226     2.333
 290   1 H      0.054  0.946  0.000  0.000     2.265     2.353
 291   1 H      0.077  0.923  0.000  0.000     2.008     2.216
 292   1 H      0.030  0.970  0.000  0.000     2.587     2.515
 293   1 H      0.048  0.952  0.000  0.000     2.344     2.394
 294   1 H      0.066  0.934  0.000  0.000     2.126     2.280
 295   1 H      0.055  0.945  0.000  0.000     2.252     2.346
 296   1 H      0.054  0.946  0.000  0.000     2.266     2.354
 297   7 N     -0.421  1.299  4.122  0.000    30.967     8.265
 298   6 C      0.022  1.036  2.942  0.000    20.208     6.402
 299   6 C      0.252  1.061  2.687  0.000    22.760     7.812
 300   8 O     -0.509  1.766  4.743  0.000    23.992     6.567
 301   6 C     -0.096  1.017  3.079  0.000    22.315     6.723
 302   6 C     -0.095  1.019  3.077  0.000    22.311     6.724
 303   6 C     -0.117  1.021  3.095  0.000    22.722     6.785
 304   6 C     -0.067  1.018  3.050  0.000    21.866     6.671
 305   7 N     -0.139  1.159  3.980  0.000    24.005     7.277
 306   1 H      0.188  0.812  0.000  0.000     1.166     1.692
 307   1 H      0.059  0.941  0.000  0.000     2.214     2.327
 308   1 H      0.070  0.930  0.000  0.000     2.081     2.256
 309   1 H      0.067  0.933  0.000  0.000     2.119     2.276
 310   1 H      0.067  0.933  0.000  0.000     2.122     2.278
 311   1 H      0.063  0.937  0.000  0.000     2.168     2.302
 312   1 H      0.088  0.912  0.000  0.000     1.896     2.153
 313   1 H      0.089  0.911  0.000  0.000     1.884     2.146
 314   1 H      0.127  0.873  0.000  0.000     1.556     1.951
 315   1 H      0.119  0.881  0.000  0.000     1.619     1.990
 316   1 H      0.293  0.707  0.000  0.000     0.733     1.341
 317   1 H      0.289  0.711  0.000  0.000     0.747     1.353
 318   1 H      0.294  0.706  0.000  0.000     0.730     1.338
 319   7 N     -0.159  1.213  3.946  0.000    24.441     7.343
 320   6 C      0.010  1.044  2.946  0.000    20.411     6.433
 321   6 C      0.185  1.103  2.713  0.000    24.034     8.029
 322   8 O     -0.354  1.765  4.589  0.000    20.778     6.111
 323   6 C      0.109  1.018  2.872  0.000    18.866     6.198
 324   8 O     -0.493  1.678  4.815  0.000    22.737     6.437
 325   6 C     -0.164  0.987  3.176  0.000    23.701     6.936
 326   1 H      0.231  0.769  0.000  0.000     0.960     1.534
 327   1 H      0.115  0.885  0.000  0.000     1.654     2.011
 328   1 H      0.049  0.951  0.000  0.000     2.331     2.387
 329   1 H      0.346  0.654  0.000  0.000     0.596     1.213
 330   1 H      0.072  0.928  0.000  0.000     2.062     2.246
 331   1 H      0.068  0.932  0.000  0.000     2.103     2.268
 332   1 H      0.092  0.908  0.000  0.000     1.863     2.134
 333   7 N     -0.394  1.284  4.109  0.000    30.197     8.161
 334   6 C     -0.022  1.006  3.016  0.000    21.035     6.543
 335   6 C      0.257  1.060  2.682  0.000    22.670     7.796
 336   8 O     -0.541  1.777  4.764  0.000    24.716     6.665
 337   1 H      0.174  0.826  0.000  0.000     1.246     1.749
 338   1 H      0.055  0.945  0.000  0.000     2.255     2.348
 339   1 H      0.062  0.938  0.000  0.000     2.176     2.307
 340   7 N     -0.177  1.222  3.954  0.000    24.831     7.401
 341   6 C      0.020  1.039  2.941  0.000    20.247     6.406
 342   6 C      0.251  1.067  2.682  0.000    22.777     7.815
 343   8 O     -0.521  1.791  4.730  0.000    24.250     6.602
 344   6 C     -0.109  1.015  3.094  0.000    22.537     6.751
 345   6 C     -0.019  1.014  3.005  0.000    20.868     6.496
 346   6 C     -0.150  0.993  3.157  0.000    23.379     6.881
 347   6 C     -0.141  0.984  3.157  0.000    23.215     6.860
 348   1 H      0.234  0.766  0.000  0.000     0.949     1.526
 349   1 H      0.077  0.923  0.000  0.000     2.013     2.218
 350   1 H      0.096  0.904  0.000  0.000     1.822     2.111
 351   1 H      0.085  0.915  0.000  0.000     1.927     2.171
 352   1 H      0.047  0.953  0.000  0.000     2.362     2.403
 353   1 H      0.055  0.945  0.000  0.000     2.256     2.348
 354   1 H      0.054  0.946  0.000  0.000     2.270     2.356
 355   1 H      0.070  0.930  0.000  0.000     2.090     2.260
 356   1 H      0.050  0.950  0.000  0.000     2.314     2.379
 357   1 H      0.053  0.947  0.000  0.000     2.278     2.360
 358   1 H      0.031  0.969  0.000  0.000     2.569     2.506
 359   7 N     -0.179  1.221  3.958  0.000    24.881     7.408
 360   6 C      0.007  1.040  2.953  0.000    20.439     6.432
 361   6 C      0.215  1.071  2.713  0.000    23.447     7.931
 362   8 O     -0.365  1.740  4.626  0.000    21.001     6.144
 363   6 C     -0.027  1.023  3.004  0.000    21.007     6.517
 364   6 C     -0.148  0.986  3.162  0.000    23.371     6.885
 365   6 C     -0.170  0.990  3.180  0.000    23.820     6.950
 366   1 H      0.243  0.757  0.000  0.000     0.911     1.495
 367   1 H      0.114  0.886  0.000  0.000     1.658     2.014
 368   1 H      0.064  0.936  0.000  0.000     2.149     2.292
 369   1 H      0.072  0.928  0.000  0.000     2.063     2.246
 370   1 H      0.038  0.962  0.000  0.000     2.480     2.462
 371   1 H      0.065  0.935  0.000  0.000     2.138     2.286
 372   1 H      0.074  0.926  0.000  0.000     2.039     2.233
 373   1 H      0.085  0.915  0.000  0.000     1.929     2.172
 374   1 H      0.078  0.922  0.000  0.000     1.999     2.211
 375   7 N     -0.398  1.279  4.119  0.000    30.314     8.177
 376   6 C     -0.012  1.007  3.005  0.000    20.850     6.511
 377   6 C      0.271  1.045  2.685  0.000    22.429     7.755
 378   8 O     -0.540  1.773  4.767  0.000    24.694     6.662
 379   1 H      0.180  0.820  0.000  0.000     1.214     1.726
 380   1 H      0.050  0.950  0.000  0.000     2.325     2.384
 381   1 H      0.068  0.932  0.000  0.000     2.112     2.272
 382   7 N     -0.175  1.224  3.951  0.000    24.797     7.396
 383   6 C      0.028  1.033  2.939  0.000    20.103     6.384
 384   6 C      0.208  1.079  2.713  0.000    23.584     7.954
 385   8 O     -0.366  1.754  4.612  0.000    21.011     6.146
 386   6 C     -0.150  0.986  3.164  0.000    23.427     6.896
 387   1 H      0.238  0.762  0.000  0.000     0.931     1.512
 388   1 H      0.075  0.925  0.000  0.000     2.033     2.229
 389   1 H      0.071  0.929  0.000  0.000     2.073     2.251
 390   1 H      0.076  0.924  0.000  0.000     2.019     2.222
 391   1 H      0.108  0.892  0.000  0.000     1.716     2.048
 392   8 O     -0.604  1.684  4.919  0.000    25.268     6.785
 393   1 H      0.318  0.682  0.000  0.000     0.669     1.285
 394   1 H      0.284  0.716  0.000  0.000     0.771     1.379
 395   7 N     -0.414  1.304  4.110  0.000    30.755     8.236
 396   6 C      0.012  1.040  2.948  0.000    20.381     6.428
 397   6 C      0.202  1.080  2.718  0.000    23.709     7.974
 398   8 O     -0.360  1.746  4.614  0.000    20.889     6.128
 399   6 C      0.113  1.024  2.863  0.000    18.811     6.189
 400   8 O     -0.496  1.711  4.785  0.000    22.805     6.447
 401   6 C     -0.154  0.984  3.170  0.000    23.516     6.909
 402   1 H      0.177  0.823  0.000  0.000     1.231     1.738
 403   1 H      0.079  0.921  0.000  0.000     1.993     2.207
 404   1 H      0.036  0.964  0.000  0.000     2.506     2.476
 405   1 H      0.323  0.677  0.000  0.000     0.655     1.271
 406   1 H      0.081  0.919  0.000  0.000     1.967     2.193
 407   1 H      0.067  0.933  0.000  0.000     2.113     2.273
 408   1 H      0.072  0.928  0.000  0.000     2.060     2.244
 409   7 N     -0.398  1.299  4.099  0.000    30.307     8.176
 410   6 C      0.032  1.036  2.932  0.000    20.042     6.376
 411   6 C      0.181  1.099  2.720  0.000    24.109     8.042
 412   8 O     -0.413  1.798  4.615  0.000    21.945     6.281
 413   6 C     -0.082  1.008  3.074  0.000    22.049     6.682
 414   6 C     -0.103  1.011  3.093  0.000    22.456     6.743
 415   6 C      0.270  1.045  2.685  0.000    22.432     7.755
 416   8 O     -0.494  1.768  4.725  0.000    23.649     6.520
 417   7 N     -0.305  1.213  4.092  0.000    27.850     7.838
 418   1 H      0.168  0.832  0.000  0.000     1.284     1.775
 419   1 H      0.107  0.893  0.000  0.000     1.720     2.051
 420   1 H      0.051  0.949  0.000  0.000     2.312     2.378
 421   1 H      0.089  0.911  0.000  0.000     1.884     2.146
 422   1 H      0.072  0.928  0.000  0.000     2.061     2.245
 423   1 H      0.089  0.911  0.000  0.000     1.892     2.151
 424   1 H      0.231  0.769  0.000  0.000     0.962     1.536
 425   1 H      0.230  0.770  0.000  0.000     0.963     1.537
 426   7 N     -0.407  1.308  4.099  0.000    30.564     8.211
 427   6 C      0.030  1.030  2.939  0.000    20.074     6.381
 428   6 C      0.195  1.094  2.710  0.000    23.830     7.995
 429   8 O     -0.392  1.767  4.625  0.000    21.520     6.220
 430   6 C     -0.078  1.007  3.071  0.000    21.969     6.670
 431   6 C     -0.108  1.014  3.094  0.000    22.541     6.757
 432   6 C      0.277  1.050  2.673  0.000    22.314     7.735
 433   8 O     -0.443  1.731  4.712  0.000    22.568     6.369
 434   7 N     -0.334  1.218  4.116  0.000    28.608     7.944
 435   1 H      0.186  0.814  0.000  0.000     1.180     1.702
 436   1 H      0.072  0.928  0.000  0.000     2.058     2.243
 437   1 H      0.090  0.910  0.000  0.000     1.877     2.143
 438   1 H      0.060  0.940  0.000  0.000     2.194     2.316
 439   1 H      0.090  0.910  0.000  0.000     1.882     2.145
 440   1 H      0.060  0.940  0.000  0.000     2.200     2.319
 441   1 H      0.215  0.785  0.000  0.000     1.032     1.592
 442   1 H      0.223  0.777  0.000  0.000     0.995     1.563
 443   1 H      0.169  0.831  0.000  0.000     1.277     1.770
 444   1 H      0.084  0.916  0.000  0.000     1.933     2.174
 445   1 H      0.187  0.813  0.000  0.000     1.175     1.698
 446   1 H      0.062  0.938  0.000  0.000     2.178     2.308
 447   1 H      0.185  0.815  0.000  0.000     1.187     1.707
 448   1 H      0.064  0.936  0.000  0.000     2.155     2.296
 449   1 H      0.173  0.827  0.000  0.000     1.255     1.754
 450   1 H      0.089  0.911  0.000  0.000     1.890     2.150
 451   1 H      0.185  0.815  0.000  0.000     1.187     1.707
 452   1 H      0.048  0.952  0.000  0.000     2.349     2.396
 453   1 H      0.179  0.821  0.000  0.000     1.218     1.729
 454   1 H      0.084  0.916  0.000  0.000     1.941     2.178
 455   1 H      0.190  0.810  0.000  0.000     1.159     1.686
 456   1 H      0.072  0.928  0.000  0.000     2.063     2.246
 457   1 H      0.189  0.811  0.000  0.000     1.166     1.691
 458   1 H      0.085  0.915  0.000  0.000     1.925     2.170
 459   1 H      0.191  0.809  0.000  0.000     1.150     1.680
 460   1 H      0.072  0.928  0.000  0.000     2.065     2.247

 Mol. C6AA /au·bohr⁶  :    1798457.454820
 Mol. C8AA /au·bohr⁸  :   40189678.973322
 Mol. α(0) /au        :       2000.963317

 
molecular dipole:
                 x           y           z       tot (Debye)
 q only:      543.590     444.972    1961.471
   full:      544.184     447.195    1960.555    5295.183
molecular quadrupole (traceless):
                xx          xy          yy          xz          yz          zz
 q only:  -344107.746   72819.103 -376088.249  321003.270  261627.653  720195.995
  q+dip:  -343829.035   73264.458 -375392.500  321239.216  262829.783  719221.535
   full:  -343828.395   73265.417 -375393.246  321238.728  262829.711  719221.641
speedup  1.88
cpu  time for grad   35.21 s
wall time for grad   18.73 s

SCC energy    :    -692.2217866
rep           :      12.8908948
ES            :       2.8226433
AES           :      -0.1064231
AXC           :       0.1363544
disp          :      -0.5461952
XB            :       0.0000000
fix           :       0.0000000
Gborn         :       0.0000000
Gsasa         :       0.0000000
Ghb           :       0.0000000
Gshift        :       0.0000000
Gsolv         :      -1.2774609     -801.62
Etot ala COSMO:    -692.2217866
grad norm     :       1.8876132
total E       :    -679.2821349
atomizationE  :     119.8954026    75235.50
(atE without considering molecular charge,
 total energy contains solvation terms)
H-L gap (eV)  :          1.3761

------------------------------------------------------------------------
 * finished run on 2019/05/12 at 13:11:46.713     
------------------------------------------------------------------------
 total:
 * wall-time:     0 d,  0 h,  0 min, 19.830 sec
 *  cpu-time:     0 d,  0 h,  0 min, 37.185 sec
 * ratio c/w:     1.875 speedup
 SCF:
 * wall-time:     0 d,  0 h,  0 min, 19.555 sec
 *  cpu-time:     0 d,  0 h,  0 min, 36.851 sec
 * ratio c/w:     1.884 speedup

