      -----------------------------------------------------------      
     |                   =====================                   |     
     |                           x T B                           |     
     |                   =====================                   |     
     |                         S. Grimme                         |     
     |          Mulliken Center for Theoretical Chemistry        |     
     |                    University of Bonn                     |     
     |                 Version 6.0.1 (SAW181210)                 |     
      -----------------------------------------------------------      

   This program is distributed in the hope that it will be useful,
   but WITHOUT ANY WARRANTY; without even the implied warranty of
   MERCHANTABILITY or FITNESS FOR A PARTICULAR PURPOSE.
   
   FOR NON-COMMERCIAL, ACADEMIA USE ONLY.
   
   Cite this work as:
   S. Grimme, C. Bannwarth, P. Shushkov, J. Comput. Theory Chem., 2017,
   13, 1989-2009.
   C. Bannwarth, S. Ehlert and S. Grimme., ChemRxiv, 2018, preprint.
   http://doi.org/10.26434/chemrxiv.7246238.v1
   
   for sTDA-xTB:
   S. Grimme and C. Bannwarth, J. Chem. Phys., 2016, 145, 054103.
   
   in the mass-spec context:
   V. Asgeirsson, C. Bauer and S. Grimme, Chem. Sci., 2017, 8, 4879.
   
   if GBSA is used:
   P. Shushkov, F. März and S. Grimme, unpublished.
   
   for ANC optimizer:
   S. Grimme, unpublished.
   Rational Function algorithm used in ANCopt:
   F. Eckert, P. Pulay, H.-J. Werner, J. Comput. Chem., 1997, 18, 1473.
   
   with help from (in alphabetical order)
   C. Bannwarth, F. Bohle, G. Brandenburg, E. Caldeweyher, M. Checinski,
   S. Dohm, S. Ehlert, S. Ehrlich, F. März, H. Neugebauer, J. Pisarek,
   P. Pracht, P. Shushkov, and S. Spicher.
   
 * started run on 2019/05/04 at 19:49:27.557     
========================================================================
 # omp threads = 2
========================================================================
number of atoms            : 362
number of electrons        : 988
charge                     : 0
spin                       : .0
first test random number   : .5435

########################################################################
# WARNING! Please study the warnings concerning your input carefully
#  - Process number higher than OMP_NUM_THREADS, I hope you know what you are doing.
########################################################################

           ------------------------------------------------- 
          |                 G F N 2 - x T B                 |
          | Geometry, Frequencies, Noncovalent interactions |
          |            JCTC 2018 parametrisation            |
           ------------------------------------------------- 
 
      method parameters     
 k(s)        :  1.8500
 k(p)        :  2.2300
 k(d)        :  2.2300
 k(f)        :  2.0000
 kEN (H0ij)  : -2.0000
 D4 a1       :  0.5200
 D4 a2       :  5.0000
 D4 s6       :  1.0000
 D4 s8       :  2.7000
 D4 s9       :  5.0000
 alphaj      :  2.0000

 Solvent             : h2o
 Using internal parameter file: .param_gbsa2_h2o
 Gsolv ref. state (COSMO-RS): gsolv [1 M gas/solution]
 temperature (mdtemp)       :    298.150000000000     
 dielectric constant        :    80.2000000000000     
 rho                        :    1.00000000000000     
 mass                       :    18.0000000000000     
 surface tension            :    15.5689454083859     
 probe radius               :   0.975313790000000     
 vdW radii scaling          :    1.00000000000000     
 Gshift (Eh)                :   1.857443126794793E-003
 c1                         :    1.55243817000000     
 soset                      :   0.130326360000000     
 HB correction              :  T

            Z     q(EN)     CN     RAES       Cart. coordinates
     1  N   5.0   -0.11    4.12    3.19    45.82019    86.79133    30.36223
     2  C   4.0    0.01    4.29    4.19    45.10398    85.98820    27.77141
     3  C   4.0    0.16    3.36    3.07    46.40978    83.56368    26.80009
     4  O   6.0   -0.30    1.25    1.80    45.60476    82.73976    24.80076
     5  C   4.0    0.04    4.14    3.88    45.61232    88.16705    25.90058
     6  O   6.0   -0.24    2.11    1.84    48.02739    89.07601    26.52041
     7  H   1.0    0.08    1.04    1.43    47.60976    87.59636    30.25073
     8  H   1.0    0.05    1.02    1.43    44.59186    88.18028    30.94048
     9  H   1.0    0.09    1.09    1.44    45.72192    85.19263    31.61512
    10  H   1.0    0.04    1.05    1.44    43.08008    85.55167    27.70149
    11  H   1.0    0.06    1.01    1.43    45.51972    87.45463    23.96173
    12  H   1.0    0.04    1.00    1.43    44.16479    89.63915    26.09334
    13  H   1.0    0.13    1.02    1.43    48.52438    90.41961    25.40359
    14  N   5.0   -0.13    3.46    2.05    48.24659    82.41662    28.13613
    15  C   4.0    0.04    4.48    4.51    49.62798    80.24532    27.08733
    16  C   4.0    0.16    3.47    3.10    48.84942    77.66396    28.17581
    17  O   6.0   -0.31    1.32    1.80    49.98892    75.77423    27.48984
    18  C   4.0   -0.02    4.43    4.43    52.42667    80.39461    27.68260
    19  C   4.0    0.16    3.31    3.05    53.29027    82.85314    26.57333
    20  O   6.0   -0.27    1.20    1.80    53.59641    84.73342    27.87157
    21  N   5.0   -0.17    3.22    1.96    53.46791    82.77189    24.05810
    22  H   1.0    0.09    1.07    1.44    49.22358    83.36715    29.47972
    23  H   1.0    0.07    1.06    1.44    49.27460    80.16784    25.04643
    24  H   1.0    0.07    1.03    1.43    52.76493    80.33792    29.71216
    25  H   1.0    0.06    1.04    1.43    53.38098    78.79779    26.81143
    26  H   1.0    0.10    1.03    1.43    53.05028    81.21286    23.05655
    27  H   1.0    0.11    1.03    1.43    53.90632    84.34792    23.08111
    28  N   5.0   -0.13    3.50    2.07    47.16567    77.65262    30.05231
    29  C   4.0    0.04    4.43    4.43    46.19435    75.24511    30.99906
    30  C   4.0    0.15    3.48    3.11    45.12288    73.71443    28.79564
    31  O   6.0   -0.32    1.28    1.80    44.01739    74.81614    27.07977
    32  C   4.0   -0.04    4.31    4.21    44.02495    75.91974    32.76596
    33  C   4.0   -0.03    4.18    3.95    43.01772    73.55569    34.21349
    34  C   4.0    0.24    3.14    3.03    41.27917    74.44575    36.32242
    35  O   6.0   -0.35    1.37    1.80    42.14656    75.87250    38.03451
    36  O   6.0   -0.34    1.29    1.80    39.05875    73.68419    36.28085
    37  H   1.0    0.10    1.09    1.44    46.01483    79.17196    30.26018
    38  H   1.0    0.05    1.05    1.44    47.70046    74.21521    31.95527
    39  H   1.0    0.06    1.03    1.43    44.72225    77.23310    34.18892
    40  H   1.0    0.07    1.03    1.43    42.49427    76.79468    31.69637
    41  H   1.0    0.05    1.02    1.43    41.98026    72.28769    32.97383
    42  H   1.0    0.05    1.02    1.43    44.59942    72.52957    35.04875
    43  N   5.0   -0.14    3.46    2.05    45.42334    71.19543    28.99784
    44  C   4.0    0.03    4.32    4.24    44.28762    69.57026    27.07977
    45  C   4.0    0.07    3.21    3.04    42.68135    67.51613    28.28542
    46  O   6.0   -0.31    1.17    1.80    43.12544    66.61851    30.37168
    47  C   4.0   -0.03    4.31    4.21    46.44002    68.25690    25.62468
    48  C   4.0   -0.03    4.25    4.09    47.98959    70.18253    24.15826
    49  C   4.0    0.16    3.22    3.04    50.41033    68.98634    23.13403
    50  O   6.0   -0.28    1.23    1.80    51.25693    66.97945    23.96550
    51  N   5.0   -0.17    3.19    1.95    51.45157    70.22789    21.24619
    52  H   1.0    0.10    1.08    1.44    46.43246    70.39985    30.43215
    53  H   1.0    0.05    1.06    1.44    43.16512    70.75512    25.82122
    54  H   1.0    0.07    1.03    1.43    47.64377    67.24590    26.95127
    55  H   1.0    0.05    1.03    1.43    45.65767    66.86984    24.31888
    56  H   1.0    0.05    1.03    1.43    46.92001    70.96299    22.58223
    57  H   1.0    0.07    1.03    1.43    48.55084    71.75100    25.37713
    58  H   1.0    0.12    1.06    1.44    50.77505    71.91541    20.64148
    59  H   1.0    0.11    1.03    1.43    53.10319    69.62317    20.49786
    60  N   5.0   -0.19    3.24    1.96    40.16801    73.32326    19.86102
    61  C   4.0    0.03    4.30    4.21    41.84042    74.81992    21.41060
    62  C   4.0    0.15    3.44    3.09    40.49305    77.35593    21.86791
    63  O   6.0   -0.28    1.23    1.80    39.47826    78.46898    20.08212
    64  C   4.0   -0.03    4.27    4.14    44.27817    75.41707    19.91771
    65  C   4.0   -0.02    4.18    3.96    46.19246    76.90240    21.53532
    66  C   4.0    0.26    3.11    3.03    48.70202    77.22176    20.10668
    67  O   6.0   -0.29    1.23    1.80    49.75648    75.23377    19.44906
    68  O   6.0   -0.27    1.16    1.80    49.55617    79.37605    19.67205
    69  H   1.0    0.10    1.02    1.43    39.88834    73.90340    18.04499
    70  H   1.0    0.05    1.05    1.44    42.23915    73.83915    23.17182
    71  H   1.0    0.05    1.02    1.43    45.13610    73.64262    19.29977
    72  H   1.0    0.07    1.03    1.43    43.76794    76.49422    18.23397
    73  H   1.0    0.07    1.02    1.43    45.42145    78.74488    22.05310
    74  H   1.0    0.06    1.03    1.43    46.57985    75.85171    23.26820
    75  N   5.0   -0.13    3.38    2.01    40.65934    78.30646    24.18660
    76  C   4.0    0.02    4.26    4.12    39.81464    80.82169    24.82911
    77  C   4.0    0.15    3.36    3.07    39.41212    81.05224    27.64291
    78  O   6.0   -0.30    1.30    1.80    39.72393    79.24188    29.02430
    79  H   1.0    0.11    1.09    1.44    41.53429    77.31058    25.57366
    80  H   1.0    0.06    1.03    1.43    41.26028    82.19741    24.25274
    81  H   1.0    0.06    1.02    1.43    38.09310    81.29034    23.78787
    82  N   5.0   -0.14    3.43    2.03    38.86977    83.37660    28.50274
    83  C   4.0    0.03    4.42    4.41    38.63545    83.77533    31.24851
    84  C   4.0    0.16    3.49    3.11    36.59076    82.11426    32.35022
    85  O   6.0   -0.31    1.30    1.80    34.46860    82.00277    31.39780
    86  C   4.0   -0.05    4.29    4.17    37.99105    86.60614    31.70960
    87  C   4.0   -0.05    4.22    4.04    37.97971    87.21841    34.50262
    88  C   4.0   -0.01    4.23    4.06    37.42224    90.04355    34.88623
    89  N   5.0   -0.14    3.45    2.05    39.58976    91.40982    34.03774
    90  C   4.0    0.09    3.35    3.06    39.61055    93.80789    33.26863
    91  N   5.0   -0.18    3.26    1.97    37.59043    95.25731    33.62011
    92  N   5.0   -0.18    3.24    1.96    41.71003    94.77165    32.31053
    93  H   1.0    0.07    1.05    1.44    38.19703    84.71641    27.29520
    94  H   1.0    0.05    1.05    1.44    40.44958    83.26510    32.09888
    95  H   1.0    0.04    1.03    1.43    39.33843    87.77777    30.68537
    96  H   1.0    0.05    1.03    1.43    36.11833    86.94629    30.91592
    97  H   1.0    0.04    1.03    1.43    36.50195    86.12993    35.44181
    98  H   1.0    0.04    1.03    1.43    39.77873    86.73653    35.37945
    99  H   1.0    0.04    1.03    1.43    35.76306    90.56890    33.77318
   100  H   1.0    0.04    1.02    1.43    37.01973    90.43095    36.87989
   101  H   1.0    0.08    1.08    1.44    41.27917    90.58590    34.39112
   102  H   1.0    0.08    1.03    1.43    35.91235    94.53732    34.14735
   103  H   1.0    0.09    1.03    1.43    37.47138    96.92782    32.70549
   104  H   1.0    0.08    1.03    1.43    43.34842    93.81356    32.17825
   105  H   1.0    0.09    1.03    1.43    41.69869    96.62547    31.80787
   106  N   5.0   -0.15    3.44    2.04    37.28429    80.77634    34.38923
   107  C   4.0    0.04    4.40    4.38    35.41724    79.23810    35.74228
   108  C   4.0    0.17    3.50    3.12    34.10199    77.32003    34.04719
   109  O   6.0   -0.30    1.35    1.80    31.99495    76.46587    34.64435
   110  C   4.0   -0.02    4.29    4.18    33.27052    80.70075    37.07264
   111  C   4.0    0.25    3.15    3.03    31.89479    79.22487    39.14756
   112  O   6.0   -0.35    1.43    1.80    33.26107    78.23087    40.88233
   113  O   6.0   -0.34    1.35    1.80    29.54209    79.06802    39.14378
   114  H   1.0    0.10    1.10    1.44    39.02662    80.99176    35.19237
   115  H   1.0    0.06    1.06    1.44    36.46793    78.15907    37.16335
   116  H   1.0    0.04    1.03    1.43    34.08877    82.35237    38.01184
   117  H   1.0    0.07    1.03    1.43    31.87590    81.33003    35.69692
   118  N   5.0   -0.13    3.49    2.07    35.45504    76.41674    32.15558
   119  C   4.0    0.04    4.49    4.52    34.13412    74.75189    30.31498
   120  C   4.0    0.15    3.49    3.11    33.49728    72.22533    31.55842
   121  O   6.0   -0.28    1.27    1.80    31.70582    70.88740    30.73639
   122  C   4.0   -0.02    4.22    4.04    35.73283    74.47221    27.87913
   123  C   4.0   -0.06    4.10    3.81    38.20081    73.09460    28.46116
   124  C   4.0   -0.06    4.09    3.78    34.02830    73.14751    25.88925
   125  H   1.0    0.10    1.08    1.44    37.02729    77.31247    31.54708
   126  H   1.0    0.06    1.05    1.44    32.32754    75.64573    29.82177
   127  H   1.0    0.06    1.05    1.44    36.15802    76.37894    27.20827
   128  H   1.0    0.05    1.00    1.43    39.27228    72.83382    26.72828
   129  H   1.0    0.06    1.00    1.43    39.33654    74.19253    29.76696
   130  H   1.0    0.05    1.00    1.43    37.83609    71.24267    29.26808
   131  H   1.0    0.05    1.00    1.43    35.13756    72.70532    24.21684
   132  H   1.0    0.06    1.01    1.43    33.24406    71.41841    26.65458
   133  H   1.0    0.05    1.00    1.43    32.50140    74.40418    25.34878
   134  N   5.0   -0.14    3.47    2.06    34.88623    71.34093    33.46894
   135  C   4.0    0.04    4.50    4.54    34.11333    68.91075    34.52151
   136  C   4.0    0.16    3.49    3.11    31.52630    69.20365    35.81787
   137  O   6.0   -0.27    1.22    1.80    29.80476    67.74101    35.21882
   138  C   4.0   -0.02    4.23    4.07    36.09943    67.96777    36.53596
   139  C   4.0   -0.07    4.13    3.85    35.09221    65.72845    38.00428
   140  C   4.0   -0.06    4.10    3.80    38.55419    67.22511    35.16969
   141  H   1.0    0.11    1.08    1.44    36.32431    72.31225    34.28152
   142  H   1.0    0.06    1.05    1.44    33.91491    67.52936    33.00028
   143  H   1.0    0.06    1.05    1.44    36.49628    69.54947    37.79830
   144  H   1.0    0.05    1.00    1.43    36.53029    65.01413    39.28740
   145  H   1.0    0.05    1.00    1.43    33.41035    66.21978    39.07386
   146  H   1.0    0.05    1.00    1.43    34.59521    64.19399    36.72682
   147  H   1.0    0.05    1.00    1.43    39.98660    66.66575    36.53029
   148  H   1.0    0.05    1.00    1.43    38.23294    65.62073    33.92814
   149  H   1.0    0.05    1.00    1.43    39.29118    68.78791    34.06609
   150  N   5.0   -0.14    3.45    2.05    31.32599    70.98945    37.61122
   151  C   4.0    0.04    4.46    4.48    28.90903    71.21999    38.93024
   152  C   4.0    0.16    3.48    3.11    26.77364    72.12328    37.24650
   153  O   6.0   -0.27    1.23    1.80    24.66092    71.12740    37.44492
   154  C   4.0   -0.04    4.27    4.13    29.05643    72.99822    41.21492
   155  C   4.0   -0.04    4.22    4.04    30.67403    71.93053    43.34275
   156  C   4.0   -0.05    4.15    3.89    29.84444    69.34727    44.41801
   157  C   4.0   -0.04    4.10    3.81    32.03463    67.51991    44.91501
   158  N   5.0   -0.11    4.14    3.25    34.47616    68.88051    44.90367
   159  H   1.0    0.10    1.09    1.44    32.79619    72.12328    38.10632
   160  H   1.0    0.06    1.06    1.44    28.36101    69.31515    39.53874
   161  H   1.0    0.07    1.03    1.43    29.81610    74.80858    40.60643
   162  H   1.0    0.06    1.03    1.43    27.12513    73.32326    41.86499
   163  H   1.0    0.06    1.07    1.44    32.56187    71.89273    42.56230
   164  H   1.0    0.05    1.03    1.43    30.64947    73.31570    44.85831
   165  H   1.0    0.05    1.03    1.43    28.84100    69.70632    46.17734
   166  H   1.0    0.05    1.03    1.43    28.48384    68.45343    43.16701
   167  H   1.0    0.04    1.02    1.43    31.80220    66.62796    46.74993
   168  H   1.0    0.04    1.02    1.43    32.11589    66.01758    43.50716
   169  H   1.0    0.08    1.08    1.44    36.02574    67.77313    45.48003
   170  H   1.0    0.06    1.04    1.43    34.92403    69.43987    43.11032
   171  H   1.0    0.07    1.02    1.43    34.37600    70.50568    46.06018
   172  N   5.0   -0.13    3.48    2.07    27.34056    73.97899    35.71393
   173  C   4.0    0.05    4.39    4.37    25.40170    74.98055    34.03963
   174  C   4.0    0.10    3.23    3.04    24.68549    73.00200    32.04408
   175  O   6.0   -0.26    1.11    1.80    22.47262    72.77713    31.30898
   176  C   4.0    0.06    4.20    4.01    26.23318    77.50711    32.87178
   177  O   6.0   -0.24    2.11    1.84    26.35979    79.29479    34.89757
   178  C   4.0   -0.05    4.09    3.78    24.37558    78.43874    30.89135
   179  H   1.0    0.12    1.10    1.44    29.06021    74.81425    35.69692
   180  H   1.0    0.07    1.06    1.44    23.69338    75.32259    35.16969
   181  H   1.0    0.06    1.03    1.43    28.12290    77.27467    32.03841
   182  H   1.0    0.15    1.04    1.43    27.73362    78.94897    36.08054
   183  H   1.0    0.06    1.00    1.43    24.94249    80.31146    30.27530
   184  H   1.0    0.06    1.00    1.43    24.35290    77.15751    29.29453
   185  H   1.0    0.06    1.00    1.43    22.49530    78.54835    31.70582
   186  N   5.0   -0.20    3.23    1.96    35.97093    59.87219    41.68357
   187  C   4.0    0.03    4.29    4.17    37.67736    61.50680    43.09520
   188  C   4.0    0.15    3.47    3.10    39.93747    62.15309    41.47948
   189  O   6.0   -0.31    1.31    1.80    40.42502    60.91910    39.53496
   190  C   4.0    0.03    4.15    3.90    38.62600    60.20667    45.51594
   191  O   6.0   -0.23    2.05    1.83    40.35321    58.30938    44.84698
   192  H   1.0    0.11    1.04    1.43    36.79107    58.72134    40.40801
   193  H   1.0    0.04    1.05    1.44    36.60966    63.18488    43.66023
   194  H   1.0    0.05    1.01    1.43    39.55952    61.61829    46.72347
   195  H   1.0    0.04    1.01    1.43    37.01595    59.38842    46.54017
   196  H   1.0    0.11    0.98    1.43    40.94658    57.36830    46.39655
   197  N   5.0   -0.15    3.45    2.05    41.36799    64.19021    42.19569
   198  C   4.0    0.04    4.48    4.51    43.58842    64.80815    40.65178
   199  C   4.0    0.15    3.47    3.10    45.45925    62.63686    40.52895
   200  O   6.0   -0.30    1.25    1.80    46.55718    62.04915    38.52584
   201  C   4.0   -0.02    4.27    4.13    44.72225    67.26480    41.74216
   202  C   4.0   -0.06    4.12    3.85    47.46992    67.59739    40.97682
   203  C   4.0   -0.06    4.09    3.79    43.06874    69.52680    40.99194
   204  H   1.0    0.10    1.09    1.44    41.11477    65.01791    43.90211
   205  H   1.0    0.06    1.06    1.44    42.97993    65.10862    38.69403
   206  H   1.0    0.05    1.06    1.44    44.66367    67.04370    43.80385
   207  H   1.0    0.05    1.00    1.43    48.14833    69.44365    41.56452
   208  H   1.0    0.06    1.00    1.43    48.62454    66.14608    41.86310
   209  H   1.0    0.06    1.01    1.43    47.61165    67.41975    38.93402
   210  H   1.0    0.05    1.00    1.43    43.76605    71.24645    41.86499
   211  H   1.0    0.05    1.00    1.43    43.12355    69.76301    38.95103
   212  H   1.0    0.05    1.00    1.43    41.12422    69.20554    41.54940
   213  N   5.0   -0.14    3.43    2.04    45.98459    61.40287    42.75883
   214  C   4.0    0.05    4.34    4.28    47.78739    59.36763    42.72292
   215  C   4.0    0.09    3.21    3.04    46.87654    57.07728    41.19225
   216  O   6.0   -0.27    1.11    1.80    48.38832    55.91510    39.78440
   217  C   4.0   -0.04    4.24    4.08    48.61320    58.57017    45.38177
   218  C   4.0   -0.03    4.19    3.97    50.00026    60.75658    46.67245
   219  C   4.0    0.25    3.12    3.03    52.49848    61.48979    45.40256
   220  O   6.0   -0.28    1.18    1.80    53.88931    59.76069    44.60320
   221  O   6.0   -0.32    1.27    1.80    52.94256    63.78770    44.94335
   222  H   1.0    0.10    1.09    1.44    45.03406    61.82994    44.36321
   223  H   1.0    0.07    1.06    1.44    49.47869    60.05738    41.71948
   224  H   1.0    0.05    1.02    1.43    46.97481    57.97679    46.49482
   225  H   1.0    0.06    1.03    1.43    49.87743    56.95067    45.22492
   226  H   1.0    0.05    1.03    1.43    48.78517    62.42332    46.73859
   227  H   1.0    0.05    1.02    1.43    50.44057    60.23879    48.63399
   228  N   5.0   -0.19    3.27    1.97    43.11032    57.47790    36.35833
   229  C   4.0    0.04    4.23    4.06    43.26528    58.14687    33.70137
   230  C   4.0    0.16    3.46    3.10    45.91278    57.72735    32.76596
   231  O   6.0   -0.27    1.29    1.80    46.37010    56.76548    30.73261
   232  C   4.0   -0.06    4.12    3.84    42.51505    60.93610    33.48027
   233  H   1.0    0.12    1.06    1.44    42.53773    58.77048    37.63956
   234  H   1.0    0.06    1.05    1.44    41.99349    56.95067    32.57321
   235  H   1.0    0.06    1.00    1.43    42.78340    61.58239    31.55086
   236  H   1.0    0.05    1.00    1.43    40.55730    61.20066    34.01885
   237  H   1.0    0.07    1.00    1.43    43.71692    62.03781    34.73127
   238  N   5.0   -0.13    3.47    2.06    47.87810    58.38875    34.26073
   239  C   4.0    0.05    4.34    4.27    50.38576    58.04482    33.26296
   240  C   4.0    0.10    3.22    3.04    50.96969    55.21023    32.76785
   241  O   6.0   -0.25    1.10    1.80    52.23014    54.53560    30.88190
   242  C   4.0   -0.04    4.27    4.14    52.37564    59.09362    35.13378
   243  C   4.0   -0.04    4.18    3.97    52.11108    61.94711    35.38701
   244  C   4.0   -0.04    4.20    3.99    54.09907    62.85417    37.32965
   245  C   4.0   -0.03    4.12    3.85    53.84963    65.63396    37.92491
   246  N   5.0   -0.11    4.03    2.95    55.17055    66.17253    40.35132
   247  H   1.0    0.11    1.08    1.44    47.58708    59.29771    35.91991
   248  H   1.0    0.07    1.05    1.44    50.56340    59.00858    31.43559
   249  H   1.0    0.06    1.03    1.43    52.09596    58.17521    36.95548
   250  H   1.0    0.06    1.03    1.43    54.25025    58.61363    34.42514
   251  H   1.0    0.06    1.02    1.43    52.44178    62.84473    33.56531
   252  H   1.0    0.07    1.03    1.43    50.22325    62.44599    36.03896
   253  H   1.0    0.06    1.03    1.43    53.81184    61.76758    39.06064
   254  H   1.0    0.05    1.03    1.43    55.97557    62.41576    36.60777
   255  H   1.0    0.05    1.02    1.43    54.69056    66.77725    36.43581
   256  H   1.0    0.05    1.03    1.43    51.85975    66.11773    38.14223
   257  H   1.0    0.08    1.05    1.44    55.00425    68.09061    40.72359
   258  H   1.0    0.09    1.04    1.43    54.37308    65.18043    41.87255
   259  H   1.0    0.07    1.02    1.43    57.03760    65.66987    40.23038
   260  O   6.0   -0.31    1.99    1.83    37.12367    80.19430    42.96481
   261  H   1.0    0.14    0.97    1.43    36.48683    80.44941    44.64478
   262  H   1.0    0.17    1.09    1.44    35.70448    79.46865    42.01806
   263  O   6.0   -0.32    2.07    1.83    45.46681    82.32969    32.74517
   264  H   1.0    0.13    0.97    1.43    47.03339    81.77600    33.48972
   265  H   1.0    0.14    1.00    1.43    44.17045    81.92718    33.99239
   266  O   6.0   -0.30    1.98    1.82    40.79729    76.41107    43.00449
   267  H   1.0    0.16    1.02    1.43    41.21681    76.13706    41.23760
   268  H   1.0    0.15    1.01    1.43    39.59354    77.80569    43.01961
   269  O   6.0   -0.29    1.92    1.82    32.20282    77.87750    45.96191
   270  H   1.0    0.16    1.02    1.43    32.48439    77.88317    44.13833
   271  H   1.0    0.14    0.97    1.43    30.41514    78.11560    46.16600
   272  O   6.0   -0.32    2.03    1.83    47.00315    75.71376    39.35921
   273  H   1.0    0.16    1.06    1.44    47.22425    75.39062    41.17146
   274  H   1.0    0.16    1.04    1.43    45.19658    75.74022    39.00016
   275  O   6.0   -0.33    2.05    1.83    35.46449    73.55191    39.91479
   276  H   1.0    0.16    1.02    1.43    36.85910    73.76734    38.70537
   277  H   1.0    0.16    1.01    1.43    34.77852    75.22054    40.29085
   278  O   6.0   -0.30    1.95    1.82    46.12821    66.54103    34.81253
   279  H   1.0    0.15    1.05    1.44    47.47370    67.50668    34.03963
   280  H   1.0    0.15    1.01    1.43    44.90178    66.30103    33.49539
   281  O   6.0   -0.29    1.92    1.82    25.91192    78.52000    42.94024
   282  H   1.0    0.15    1.01    1.43    27.10245    78.55969    41.55129
   283  H   1.0    0.14    0.96    1.43    24.35101    77.85104    42.23349
   284  O   6.0   -0.30    1.93    1.82    29.31532    83.02889    32.04408
   285  H   1.0    0.16    1.01    1.43    31.08032    82.71519    31.67559
   286  H   1.0    0.13    0.97    1.43    28.79375    84.37059    30.94426
   287  O   6.0   -0.33    2.03    1.83    42.00105    81.02578    36.70604
   288  H   1.0    0.16    1.01    1.43    42.16168    79.25700    37.22004
   289  H   1.0    0.13    0.97    1.43    42.05963    81.96686    38.26128
   290  O   6.0   -0.30    1.95    1.82    53.35263    71.96076    28.61234
   291  H   1.0    0.15    1.02    1.43    55.09118    72.48422    28.35723
   292  H   1.0    0.16    1.01    1.43    52.29439    73.19476    27.79976
   293  O   6.0   -0.33    2.06    1.83    53.76081    71.39952    39.78818
   294  H   1.0    0.14    0.97    1.43    54.95134    72.76579    39.69558
   295  H   1.0    0.15    1.01    1.43    52.46446    71.75289    38.53151
   296  O   6.0   -0.28    1.93    1.82    51.80306    66.10450    29.42681
   297  H   1.0    0.16    0.99    1.43    51.75959    67.09850    27.90369
   298  H   1.0    0.14    0.98    1.43    50.33852    66.51079    30.42081
   299  O   6.0   -0.32    1.98    1.82    44.20069    63.38141    47.49637
   300  H   1.0    0.15    1.04    1.43    45.25516    64.69477    48.23337
   301  H   1.0    0.12    0.97    1.43    44.09298    62.02647    48.70580
   302  O   6.0   -0.33    2.07    1.83    39.17780    67.38196    45.80507
   303  H   1.0    0.14    0.99    1.43    39.45748    69.19043    45.70113
   304  H   1.0    0.12    0.97    1.43    38.94158    66.91709    47.56251
   305  O   6.0   -0.33    2.07    1.84    49.24437    69.74223    32.69415
   306  H   1.0    0.14    0.98    1.43    50.63332    70.04269    31.53953
   307  H   1.0    0.15    1.04    1.43    49.60720    70.83449    34.15869
   308  O   6.0   -0.29    1.95    1.82    55.15732    76.89484    30.90647
   309  H   1.0    0.15    1.01    1.43    56.65209    76.43941    29.97861
   310  H   1.0    0.14    0.98    1.43    54.08018    75.43219    30.76474
   311  O   6.0   -0.33    2.07    1.83    50.42734    73.12484    36.18825
   312  H   1.0    0.13    0.97    1.43    51.32496    74.54591    35.48905
   313  H   1.0    0.15    1.00    1.43    49.11398    73.87695    37.26918
   314  O   6.0   -0.31    2.01    1.83    37.81531    72.38784    44.35376
   315  H   1.0    0.15    1.03    1.43    36.92713    72.76390    42.79284
   316  H   1.0    0.15    1.01    1.43    39.12300    73.68797    44.34620
   317  O   6.0   -0.30    2.04    1.83    48.09211    74.91174    44.06274
   318  H   1.0    0.16    1.05    1.44    49.55981    73.71889    44.15156
   319  H   1.0    0.13    0.97    1.43    46.78693    74.24330    45.13232
   320  O   6.0   -0.31    2.02    1.83    51.25529    67.95519    47.35086
   321  H   1.0    0.16    1.03    1.43    51.94426    66.46329    46.52127
   322  H   1.0    0.15    1.03    1.43    49.57930    67.49816    47.94046
   323  O   6.0   -0.31    2.02    1.83    58.27253    73.60932    28.65958
   324  H   1.0    0.13    0.96    1.42    58.79716    72.30704    27.43504
   325  H   1.0    0.13    0.97    1.43    59.23449    73.18923    30.14302
   326  O   6.0   -0.31    2.07    1.83    52.05511    71.99337    44.43124
   327  H   1.0    0.15    1.04    1.43    52.72892    71.43101    42.82308
   328  H   1.0    0.16    1.04    1.43    51.86389    70.51045    45.50460
   329  O   6.0   -0.28    1.92    1.82    48.66993    80.58923    40.83509
   330  H   1.0    0.15    1.00    1.43    48.22686    78.97181    40.08109
   331  H   1.0    0.13    0.97    1.43    49.30752    81.63161    39.50283
   332  O   6.0   -0.33    2.08    1.84    46.63491    67.32566    49.35586
   333  H   1.0    0.13    0.96    1.43    46.76334    67.32998    51.19457
   334  H   1.0    0.13    0.97    1.43    45.78092    68.87284    48.90989
   335  N   5.0   -0.21    3.16    1.95    22.51844    89.57196    36.37533
   336  C   4.0    0.03    4.19    3.98    23.19306    87.24696    37.80019
   337  C   4.0    0.08    3.19    3.04    21.03333    86.35790    39.57842
   338  O   6.0   -0.28    1.12    1.80    20.84310    84.12492    40.16990
   339  C   4.0   -0.05    4.35    4.29    25.57048    87.78165    39.34976
   340  C   4.0   -0.02    4.19    3.98    26.38044    85.54352    40.99760
   341  C   4.0   -0.06    4.17    3.94    27.71879    83.65627    39.30063
   342  C   4.0   -0.07    4.06    3.73    28.07677    86.38106    43.24638
   343  H   1.0    0.08    1.02    1.43    23.42882    91.20388    36.81753
   344  H   1.0    0.05    1.05    1.44    23.49165    85.72825    36.43203
   345  H   1.0    0.04    1.03    1.43    27.08920    88.29189    38.05530
   346  H   1.0    0.04    1.03    1.43    25.16729    89.42108    40.54029
   347  H   1.0    0.07    1.07    1.44    24.72222    84.62106    41.80641
   348  H   1.0    0.08    1.06    1.44    28.32004    82.01773    40.37588
   349  H   1.0    0.06    1.00    1.43    26.49180    83.01115    37.78696
   350  H   1.0    0.04    1.00    1.43    29.38836    84.50237    38.45025
   351  H   1.0    0.05    1.00    1.43    28.62678    84.72165    44.31785
   352  H   1.0    0.04    1.00    1.43    29.76161    87.32543    42.54907
   353  H   1.0    0.05    1.00    1.43    27.02783    87.64985    44.47092
   354  H   1.0    0.05    1.05    1.44    41.17743    66.83226    27.36803
   355  H   1.0    0.09    1.07    1.44    40.77250    71.73814    19.74040
   356  H   1.0    0.08    1.04    1.43    26.01261    71.87026    31.31679
   357  H   1.0    0.10    1.08    1.44    35.13044    58.86158    42.76283
   358  H   1.0    0.07    1.04    1.43    45.07774    56.51189    41.31763
   359  H   1.0    0.10    1.07    1.44    42.01439    56.19262    36.55718
   360  H   1.0    0.07    1.04    1.43    50.33619    53.89200    33.96451
   361  H   1.0    0.10    1.07    1.44    22.82703    89.33296    34.71998
   362  H   1.0    0.06    1.04    1.43    19.78618    87.60925    40.24911

  Z AO/shell   Hii/eV     exponent
  1     Wed Apr 25 08:07:45 CEST 2018   EN: 2.200 GM2: 0.406  GM3: 0.0800  RAES: 1.40
     1s    -10.707211    1.230000
  6     Wed Apr 25 08:07:45 CEST 2018   EN: 2.550 GM2: 0.538  GM3: 0.1500  RAES: 3.00
     2s    -13.970922    2.096432
     2p    -10.063292    1.800000
  7     Wed Apr 25 08:07:45 CEST 2018   EN: 3.040 GM2: 0.461  GM3:-0.0640  RAES: 1.90
     2s    -16.686243    2.339881
     2p    -12.523956    2.014332
  8     Wed Apr 25 08:07:45 CEST 2018   EN: 3.440 GM2: 0.452  GM3:-0.0517  RAES: 1.80
     2s    -20.229985    2.439742
     2p    -15.503117    2.137023
 no old-style atom pair restraining (fixing) potential

molecular fragmentation (1/2 indicates fragments):
111111111111111111111111111111111111111111111111111111111112222222222222
222222222222222222222222222222222222222222222222222222222222222222222222
222222222222222222222222222222222222222222222222222222222222222222222222
222222222222222222222222222222222222222222222222222222222222222222222222
222222222222222222222222222222222222222222222222222222222222222221222222
22
# atoms in fragment 1/2:    60   302
 fragment masses (1/2) :      460.44     1971.17
CMA distance (Bohr)    :  11.494
constraining FC (au)   :  0.0500
           ------------------------------------------------- 
          |        Self-Consistent Charge Iterations        |
           ------------------------------------------------- 

 Ncao       : 851
 Nao        : 851
 Nshell     : 525
 Nel        : 988
 T(el)      :   500.0
 intcut     :    35.0
 scfconv/Eh :  0.100E-06
   qconv/e  :  0.100E-04
 intneglect :  0.100E-08
 broydamp   :      0.400
 iter      E             dE          RMSdq      gap      omega  full diag
   1   -582.4453994 -0.582445E+03  0.501E+00    3.12       0.0  T
   2   -583.8380738 -0.139267E+01  0.239E+00    1.71       1.0  T
   3   -583.9401027 -0.102029E+00  0.123E+00    1.78       1.0  T
   4   -584.0559433 -0.115841E+00  0.320E-01    1.17       1.0  T
   5   -584.0608468 -0.490354E-02  0.145E-01    1.34       1.0  T
   6   -584.0626990 -0.185218E-02  0.535E-02    1.31       1.0  T
   7   -584.0628893 -0.190267E-03  0.277E-02    1.28       1.0  T
   8   -584.0629227 -0.334389E-04  0.988E-03    1.27       1.0  T
   9   -584.0629321 -0.938434E-05  0.434E-03    1.26       1.2  T
  10   -584.0629332 -0.114834E-05  0.185E-03    1.26       2.8  T
  11   -584.0629335 -0.294734E-06  0.742E-04    1.26       7.1  T
  12   -584.0629336 -0.348015E-07  0.311E-04    1.26      16.9  T
  13   -584.0629336 -0.760986E-08  0.149E-04    1.26      35.3  T
  14   -584.0629336 -0.138266E-08  0.571E-05    1.26      92.0  T
  15   -584.0629336 -0.214527E-09  0.253E-05    1.26     208.0  T
speedup  1.74
cpu  time for SCC   11.25 s
wall time for SCC    6.47 s

   *** convergence criteria satisfied after 15 iterations ***

          eigenvalues
 #    :         482        483        484        485        486        487        488        489
 occ. :        2.000      2.000      2.000      2.000      2.000      2.000      2.000      2.000
 eps  :       -10.494    -10.484    -10.468    -10.425    -10.283    -10.251    -10.210    -10.208
 #    :         490        491        492        493        494        495        496        497
 occ. :        2.000      2.000      2.000      2.000      2.000      0.000      0.000      0.000
 eps  :        -9.883     -9.846     -9.828     -9.710     -9.419     -8.158     -7.967     -7.732
 #    :         498        499        500        501        502        503        504        505
 occ. :        0.000      0.000      0.000      0.000      0.000      0.000      0.000      0.000
 eps  :        -7.571     -7.508     -6.715     -6.609     -6.426     -6.415     -6.347     -6.316


   #   Z            q   n(s)   n(p)   n(d)      C6AA      α(0)
   1   7 N     -0.175  1.244  3.931  0.000    24.772     7.392
   2   6 C     -0.028  1.074  2.954  0.000    21.103     6.544
   3   6 C      0.277  1.035  2.688  0.000    22.317     7.735
   4   8 O     -0.483  1.767  4.716  0.000    23.417     6.488
   5   6 C      0.057  1.039  2.903  0.000    19.835     6.381
   6   8 O     -0.466  1.700  4.765  0.000    22.167     6.356
   7   1 H      0.311  0.689  0.000  0.000     0.683     1.294
   8   1 H      0.299  0.701  0.000  0.000     0.718     1.327
   9   1 H      0.316  0.684  0.000  0.000     0.667     1.280
  10   1 H      0.129  0.871  0.000  0.000     1.540     1.941
  11   1 H      0.053  0.947  0.000  0.000     2.285     2.364
  12   1 H      0.090  0.910  0.000  0.000     1.884     2.146
  13   1 H      0.353  0.647  0.000  0.000     0.582     1.198
  14   7 N     -0.183  1.254  3.929  0.000    24.957     7.420
  15   6 C      0.021  1.059  2.919  0.000    20.214     6.400
  16   6 C      0.277  1.043  2.680  0.000    22.317     7.737
  17   8 O     -0.502  1.745  4.757  0.000    23.835     6.546
  18   6 C     -0.113  1.060  3.053  0.000    22.635     6.769
  19   6 C      0.292  1.029  2.679  0.000    22.057     7.691
  20   8 O     -0.472  1.731  4.742  0.000    23.183     6.456
  21   7 N     -0.280  1.258  4.023  0.000    27.244     7.752
  22   1 H      0.247  0.753  0.000  0.000     0.894     1.481
  23   1 H      0.068  0.932  0.000  0.000     2.104     2.268
  24   1 H      0.115  0.885  0.000  0.000     1.652     2.010
  25   1 H      0.083  0.917  0.000  0.000     1.946     2.182
  26   1 H      0.199  0.801  0.000  0.000     1.110     1.651
  27   1 H      0.228  0.772  0.000  0.000     0.973     1.545
  28   7 N     -0.170  1.252  3.918  0.000    24.672     7.377
  29   6 C      0.008  1.068  2.925  0.000    20.452     6.439
  30   6 C      0.278  1.042  2.681  0.000    22.304     7.734
  31   8 O     -0.500  1.749  4.751  0.000    23.792     6.540
  32   6 C     -0.083  1.060  3.023  0.000    22.072     6.687
  33   6 C     -0.107  1.062  3.045  0.000    22.540     6.760
  34   6 C      0.371  1.024  2.605  0.000    20.707     7.447
  35   8 O     -0.588  1.749  4.839  0.000    25.833     6.814
  36   8 O     -0.591  1.762  4.830  0.000    25.904     6.824
  37   1 H      0.233  0.767  0.000  0.000     0.951     1.528
  38   1 H      0.101  0.899  0.000  0.000     1.776     2.084
  39   1 H      0.103  0.897  0.000  0.000     1.761     2.075
  40   1 H      0.061  0.939  0.000  0.000     2.188     2.313
  41   1 H      0.017  0.983  0.000  0.000     2.781     2.608
  42   1 H      0.079  0.921  0.000  0.000     1.994     2.208
  43   7 N     -0.184  1.251  3.932  0.000    24.977     7.423
  44   6 C      0.028  1.057  2.915  0.000    20.102     6.384
  45   6 C      0.193  1.085  2.722  0.000    23.883     8.004
  46   8 O     -0.346  1.745  4.601  0.000    20.627     6.089
  47   6 C     -0.061  1.051  3.010  0.000    21.669     6.626
  48   6 C     -0.088  1.053  3.035  0.000    22.171     6.703
  49   6 C      0.289  1.035  2.676  0.000    22.101     7.698
  50   8 O     -0.511  1.752  4.758  0.000    24.018     6.571
  51   7 N     -0.284  1.269  4.015  0.000    27.323     7.763
  52   1 H      0.246  0.754  0.000  0.000     0.899     1.485
  53   1 H      0.077  0.923  0.000  0.000     2.007     2.215
  54   1 H      0.087  0.913  0.000  0.000     1.906     2.159
  55   1 H      0.050  0.950  0.000  0.000     2.318     2.381
  56   1 H      0.048  0.952  0.000  0.000     2.343     2.394
  57   1 H      0.080  0.920  0.000  0.000     1.979     2.200
  58   1 H      0.228  0.772  0.000  0.000     0.975     1.547
  59   1 H      0.229  0.771  0.000  0.000     0.971     1.543
  60   7 N     -0.390  1.316  4.074  0.000    30.096     8.148
  61   6 C      0.034  1.062  2.904  0.000    20.017     6.373
  62   6 C      0.272  1.049  2.679  0.000    22.407     7.752
  63   8 O     -0.519  1.754  4.765  0.000    24.199     6.595
  64   6 C     -0.040  1.054  2.986  0.000    21.291     6.569
  65   6 C     -0.091  1.064  3.027  0.000    22.232     6.713
  66   6 C      0.370  1.024  2.606  0.000    20.725     7.450
  67   8 O     -0.643  1.760  4.884  0.000    27.210     6.994
  68   8 O     -0.647  1.767  4.880  0.000    27.302     7.005
  69   1 H      0.156  0.844  0.000  0.000     1.362     1.828
  70   1 H      0.042  0.958  0.000  0.000     2.425     2.435
  71   1 H      0.017  0.983  0.000  0.000     2.773     2.604
  72   1 H      0.011  0.989  0.000  0.000     2.867     2.648
  73   1 H      0.022  0.978  0.000  0.000     2.696     2.568
  74   1 H      0.028  0.972  0.000  0.000     2.616     2.529
  75   7 N     -0.168  1.238  3.930  0.000    24.635     7.372
  76   6 C     -0.034  1.046  2.988  0.000    21.245     6.574
  77   6 C      0.271  1.038  2.691  0.000    22.425     7.755
  78   8 O     -0.477  1.739  4.738  0.000    23.283     6.469
  79   1 H      0.228  0.772  0.000  0.000     0.976     1.548
  80   1 H      0.099  0.901  0.000  0.000     1.795     2.095
  81   1 H      0.087  0.913  0.000  0.000     1.905     2.158
  82   7 N     -0.181  1.248  3.933  0.000    24.927     7.415
  83   6 C     -0.007  1.075  2.932  0.000    20.698     6.478
  84   6 C      0.282  1.037  2.681  0.000    22.224     7.720
  85   8 O     -0.513  1.759  4.754  0.000    24.080     6.579
  86   6 C     -0.100  1.063  3.036  0.000    22.395     6.737
  87   6 C     -0.095  1.054  3.041  0.000    22.303     6.723
  88   6 C     -0.031  1.050  2.981  0.000    21.206     6.570
  89   7 N     -0.143  1.207  3.936  0.000    24.098     7.291
  90   6 C      0.228  1.017  2.755  0.000    23.210     7.888
  91   7 N     -0.249  1.243  4.006  0.000    26.476     7.642
  92   7 N     -0.249  1.232  4.017  0.000    26.492     7.644
  93   1 H      0.230  0.770  0.000  0.000     0.967     1.540
  94   1 H      0.106  0.894  0.000  0.000     1.736     2.060
  95   1 H      0.104  0.896  0.000  0.000     1.751     2.069
  96   1 H      0.079  0.921  0.000  0.000     1.987     2.204
  97   1 H      0.057  0.943  0.000  0.000     2.230     2.335
  98   1 H      0.096  0.904  0.000  0.000     1.826     2.113
  99   1 H      0.085  0.915  0.000  0.000     1.927     2.171
 100   1 H      0.086  0.914  0.000  0.000     1.923     2.169
 101   1 H      0.245  0.755  0.000  0.000     0.903     1.489
 102   1 H      0.240  0.760  0.000  0.000     0.921     1.504
 103   1 H      0.246  0.754  0.000  0.000     0.897     1.484
 104   1 H      0.264  0.736  0.000  0.000     0.832     1.429
 105   1 H      0.253  0.747  0.000  0.000     0.870     1.461
 106   7 N     -0.211  1.274  3.937  0.000    25.603     7.515
 107   6 C      0.032  1.056  2.911  0.000    20.033     6.373
 108   6 C      0.288  1.038  2.674  0.000    22.123     7.703
 109   8 O     -0.525  1.757  4.768  0.000    24.344     6.615
 110   6 C     -0.093  1.061  3.032  0.000    22.267     6.717
 111   6 C      0.368  1.026  2.605  0.000    20.758     7.456
 112   8 O     -0.608  1.758  4.850  0.000    26.313     6.878
 113   8 O     -0.555  1.770  4.785  0.000    25.045     6.710
 114   1 H      0.256  0.744  0.000  0.000     0.861     1.453
 115   1 H      0.086  0.914  0.000  0.000     1.914     2.164
 116   1 H      0.066  0.934  0.000  0.000     2.135     2.285
 117   1 H      0.061  0.939  0.000  0.000     2.184     2.311
 118   7 N     -0.186  1.264  3.922  0.000    25.034     7.431
 119   6 C      0.035  1.068  2.896  0.000    19.980     6.364
 120   6 C      0.276  1.047  2.677  0.000    22.325     7.738
 121   8 O     -0.546  1.778  4.768  0.000    24.827     6.680
 122   6 C     -0.013  1.066  2.947  0.000    20.776     6.484
 123   6 C     -0.114  1.036  3.078  0.000    22.732     6.799
 124   6 C     -0.121  1.042  3.079  0.000    22.878     6.821
 125   1 H      0.223  0.777  0.000  0.000     0.994     1.562
 126   1 H      0.051  0.949  0.000  0.000     2.303     2.373
 127   1 H      0.050  0.950  0.000  0.000     2.321     2.382
 128   1 H      0.048  0.952  0.000  0.000     2.348     2.396
 129   1 H      0.063  0.937  0.000  0.000     2.159     2.298
 130   1 H      0.029  0.971  0.000  0.000     2.599     2.521
 131   1 H      0.053  0.947  0.000  0.000     2.282     2.362
 132   1 H      0.048  0.952  0.000  0.000     2.348     2.396
 133   1 H      0.042  0.958  0.000  0.000     2.421     2.433
 134   7 N     -0.182  1.255  3.927  0.000    24.935     7.416
 135   6 C      0.026  1.071  2.903  0.000    20.139     6.389
 136   6 C      0.282  1.044  2.673  0.000    22.219     7.719
 137   8 O     -0.522  1.768  4.754  0.000    24.288     6.607
 138   6 C     -0.027  1.070  2.957  0.000    21.030     6.523
 139   6 C     -0.125  1.039  3.086  0.000    22.951     6.831
 140   6 C     -0.114  1.040  3.074  0.000    22.728     6.798
 141   1 H      0.235  0.765  0.000  0.000     0.946     1.523
 142   1 H      0.056  0.944  0.000  0.000     2.242     2.341
 143   1 H      0.075  0.925  0.000  0.000     2.034     2.230
 144   1 H      0.073  0.927  0.000  0.000     2.053     2.241
 145   1 H      0.047  0.953  0.000  0.000     2.358     2.401
 146   1 H      0.038  0.962  0.000  0.000     2.477     2.461
 147   1 H      0.065  0.935  0.000  0.000     2.136     2.286
 148   1 H      0.029  0.971  0.000  0.000     2.597     2.520
 149   1 H      0.039  0.961  0.000  0.000     2.460     2.453
 150   7 N     -0.203  1.257  3.946  0.000    25.411     7.487
 151   6 C      0.023  1.061  2.916  0.000    20.178     6.395
 152   6 C      0.281  1.036  2.683  0.000    22.242     7.724
 153   8 O     -0.535  1.762  4.773  0.000    24.566     6.645
 154   6 C     -0.071  1.052  3.019  0.000    21.852     6.654
 155   6 C     -0.102  1.054  3.049  0.000    22.451     6.746
 156   6 C     -0.096  1.051  3.045  0.000    22.326     6.727
 157   6 C     -0.049  1.055  2.993  0.000    21.542     6.625
 158   7 N     -0.171  1.244  3.928  0.000    24.696     7.381
 159   1 H      0.235  0.765  0.000  0.000     0.942     1.520
 160   1 H      0.074  0.926  0.000  0.000     2.039     2.233
 161   1 H      0.066  0.934  0.000  0.000     2.127     2.281
 162   1 H      0.048  0.952  0.000  0.000     2.348     2.396
 163   1 H      0.086  0.914  0.000  0.000     1.918     2.166
 164   1 H      0.086  0.914  0.000  0.000     1.922     2.168
 165   1 H      0.081  0.919  0.000  0.000     1.970     2.195
 166   1 H      0.059  0.941  0.000  0.000     2.210     2.325
 167   1 H      0.123  0.877  0.000  0.000     1.591     1.972
 168   1 H      0.095  0.905  0.000  0.000     1.829     2.115
 169   1 H      0.297  0.703  0.000  0.000     0.722     1.331
 170   1 H      0.268  0.732  0.000  0.000     0.818     1.416
 171   1 H      0.303  0.697  0.000  0.000     0.705     1.316
 172   7 N     -0.183  1.246  3.936  0.000    24.955     7.419
 173   6 C      0.025  1.065  2.910  0.000    20.156     6.392
 174   6 C      0.203  1.088  2.709  0.000    23.679     7.969
 175   8 O     -0.371  1.756  4.615  0.000    21.114     6.161
 176   6 C      0.131  1.045  2.824  0.000    18.554     6.151
 177   8 O     -0.462  1.710  4.752  0.000    22.085     6.344
 178   6 C     -0.127  1.040  3.087  0.000    22.986     6.837
 179   1 H      0.233  0.767  0.000  0.000     0.951     1.528
 180   1 H      0.088  0.912  0.000  0.000     1.896     2.154
 181   1 H      0.025  0.975  0.000  0.000     2.659     2.550
 182   1 H      0.324  0.676  0.000  0.000     0.653     1.269
 183   1 H      0.086  0.914  0.000  0.000     1.922     2.168
 184   1 H      0.042  0.958  0.000  0.000     2.418     2.432
 185   1 H      0.066  0.934  0.000  0.000     2.134     2.285
 186   7 N     -0.386  1.314  4.072  0.000    29.987     8.133
 187   6 C      0.020  1.060  2.920  0.000    20.250     6.410
 188   6 C      0.270  1.050  2.680  0.000    22.442     7.758
 189   8 O     -0.506  1.765  4.740  0.000    23.916     6.557
 190   6 C      0.068  1.046  2.886  0.000    19.651     6.350
 191   8 O     -0.491  1.743  4.748  0.000    22.709     6.433
 192   1 H      0.153  0.847  0.000  0.000     1.378     1.839
 193   1 H      0.071  0.929  0.000  0.000     2.070     2.250
 194   1 H      0.052  0.948  0.000  0.000     2.292     2.368
 195   1 H      0.037  0.963  0.000  0.000     2.484     2.465
 196   1 H      0.328  0.672  0.000  0.000     0.643     1.260
 197   7 N     -0.206  1.271  3.935  0.000    25.479     7.497
 198   6 C      0.023  1.065  2.912  0.000    20.195     6.399
 199   6 C      0.275  1.055  2.670  0.000    22.346     7.741
 200   8 O     -0.492  1.759  4.732  0.000    23.605     6.514
 201   6 C     -0.024  1.067  2.958  0.000    20.967     6.513
 202   6 C     -0.141  1.042  3.099  0.000    23.275     6.879
 203   6 C     -0.136  1.043  3.093  0.000    23.173     6.864
 204   1 H      0.248  0.752  0.000  0.000     0.890     1.478
 205   1 H      0.075  0.925  0.000  0.000     2.027     2.227
 206   1 H      0.065  0.935  0.000  0.000     2.144     2.290
 207   1 H      0.082  0.918  0.000  0.000     1.955     2.187
 208   1 H      0.037  0.963  0.000  0.000     2.485     2.465
 209   1 H      0.065  0.935  0.000  0.000     2.140     2.288
 210   1 H      0.073  0.927  0.000  0.000     2.048     2.238
 211   1 H      0.039  0.961  0.000  0.000     2.456     2.451
 212   1 H      0.061  0.939  0.000  0.000     2.182     2.310
 213   7 N     -0.197  1.252  3.944  0.000    25.268     7.466
 214   6 C      0.045  1.051  2.905  0.000    19.830     6.341
 215   6 C      0.196  1.095  2.709  0.000    23.822     7.993
 216   8 O     -0.387  1.774  4.614  0.000    21.433     6.207
 217   6 C     -0.054  1.051  3.002  0.000    21.534     6.607
 218   6 C     -0.103  1.065  3.038  0.000    22.462     6.748
 219   6 C      0.363  1.028  2.609  0.000    20.845     7.472
 220   8 O     -0.634  1.784  4.850  0.000    26.973     6.963
 221   8 O     -0.615  1.747  4.868  0.000    26.491     6.901
 222   1 H      0.236  0.764  0.000  0.000     0.940     1.519
 223   1 H      0.075  0.925  0.000  0.000     2.031     2.229
 224   1 H      0.051  0.949  0.000  0.000     2.310     2.377
 225   1 H      0.045  0.955  0.000  0.000     2.389     2.417
 226   1 H      0.067  0.933  0.000  0.000     2.117     2.275
 227   1 H      0.039  0.961  0.000  0.000     2.466     2.456
 228   7 N     -0.410  1.311  4.099  0.000    30.640     8.221
 229   6 C      0.047  1.051  2.902  0.000    19.797     6.338
 230   6 C      0.274  1.049  2.677  0.000    22.376     7.747
 231   8 O     -0.525  1.750  4.774  0.000    24.333     6.614
 232   6 C     -0.117  1.043  3.074  0.000    22.789     6.806
 233   1 H      0.187  0.813  0.000  0.000     1.173     1.697
 234   1 H      0.016  0.984  0.000  0.000     2.797     2.616
 235   1 H      0.032  0.968  0.000  0.000     2.554     2.499
 236   1 H      0.052  0.948  0.000  0.000     2.294     2.369
 237   1 H      0.080  0.920  0.000  0.000     1.980     2.200
 238   7 N     -0.171  1.246  3.925  0.000    24.693     7.380
 239   6 C      0.036  1.061  2.904  0.000    19.980     6.364
 240   6 C      0.204  1.096  2.700  0.000    23.665     7.967
 241   8 O     -0.395  1.768  4.627  0.000    21.579     6.228
 242   6 C     -0.069  1.058  3.011  0.000    21.811     6.648
 243   6 C     -0.081  1.055  3.026  0.000    22.048     6.685
 244   6 C     -0.084  1.052  3.032  0.000    22.105     6.693
 245   6 C     -0.045  1.057  2.988  0.000    21.477     6.615
 246   7 N     -0.157  1.236  3.921  0.000    24.384     7.334
 247   1 H      0.229  0.771  0.000  0.000     0.967     1.541
 248   1 H      0.080  0.920  0.000  0.000     1.977     2.199
 249   1 H      0.060  0.940  0.000  0.000     2.202     2.321
 250   1 H      0.059  0.941  0.000  0.000     2.211     2.325
 251   1 H      0.069  0.931  0.000  0.000     2.097     2.265
 252   1 H      0.077  0.923  0.000  0.000     2.012     2.218
 253   1 H      0.056  0.944  0.000  0.000     2.252     2.347
 254   1 H      0.066  0.934  0.000  0.000     2.134     2.284
 255   1 H      0.125  0.875  0.000  0.000     1.570     1.960
 256   1 H      0.118  0.882  0.000  0.000     1.626     1.994
 257   1 H      0.303  0.697  0.000  0.000     0.706     1.316
 258   1 H      0.279  0.721  0.000  0.000     0.780     1.384
 259   1 H      0.280  0.720  0.000  0.000     0.777     1.381
 260   8 O     -0.662  1.758  4.905  0.000    26.725     6.977
 261   1 H      0.312  0.688  0.000  0.000     0.685     1.300
 262   1 H      0.321  0.679  0.000  0.000     0.661     1.277
 263   8 O     -0.614  1.745  4.870  0.000    25.530     6.819
 264   1 H      0.338  0.662  0.000  0.000     0.617     1.234
 265   1 H      0.344  0.656  0.000  0.000     0.603     1.220
 266   8 O     -0.660  1.763  4.898  0.000    26.682     6.972
 267   1 H      0.313  0.687  0.000  0.000     0.683     1.298
 268   1 H      0.314  0.686  0.000  0.000     0.681     1.296
 269   8 O     -0.642  1.755  4.887  0.000    26.223     6.911
 270   1 H      0.317  0.683  0.000  0.000     0.673     1.289
 271   1 H      0.295  0.705  0.000  0.000     0.736     1.348
 272   8 O     -0.678  1.754  4.925  0.000    27.144     7.032
 273   1 H      0.328  0.672  0.000  0.000     0.643     1.260
 274   1 H      0.311  0.689  0.000  0.000     0.689     1.304
 275   8 O     -0.634  1.750  4.884  0.000    26.018     6.884
 276   1 H      0.321  0.679  0.000  0.000     0.661     1.277
 277   1 H      0.316  0.684  0.000  0.000     0.676     1.292
 278   8 O     -0.652  1.757  4.895  0.000    26.470     6.944
 279   1 H      0.322  0.678  0.000  0.000     0.659     1.275
 280   1 H      0.285  0.715  0.000  0.000     0.766     1.375
 281   8 O     -0.639  1.759  4.880  0.000    26.142     6.901
 282   1 H      0.312  0.688  0.000  0.000     0.687     1.302
 283   1 H      0.300  0.700  0.000  0.000     0.721     1.334
 284   8 O     -0.652  1.778  4.873  0.000    26.453     6.942
 285   1 H      0.313  0.687  0.000  0.000     0.684     1.300
 286   1 H      0.322  0.678  0.000  0.000     0.658     1.274
 287   8 O     -0.618  1.739  4.879  0.000    25.627     6.832
 288   1 H      0.320  0.680  0.000  0.000     0.665     1.281
 289   1 H      0.346  0.654  0.000  0.000     0.598     1.215
 290   8 O     -0.660  1.756  4.904  0.000    26.668     6.970
 291   1 H      0.323  0.677  0.000  0.000     0.655     1.271
 292   1 H      0.301  0.699  0.000  0.000     0.718     1.331
 293   8 O     -0.643  1.752  4.891  0.000    26.247     6.915
 294   1 H      0.340  0.660  0.000  0.000     0.612     1.228
 295   1 H      0.340  0.660  0.000  0.000     0.611     1.228
 296   8 O     -0.630  1.754  4.876  0.000    25.926     6.872
 297   1 H      0.304  0.696  0.000  0.000     0.710     1.323
 298   1 H      0.314  0.686  0.000  0.000     0.681     1.296
 299   8 O     -0.645  1.757  4.888  0.000    26.284     6.919
 300   1 H      0.333  0.667  0.000  0.000     0.630     1.247
 301   1 H      0.301  0.699  0.000  0.000     0.718     1.331
 302   8 O     -0.620  1.762  4.858  0.000    25.670     6.838
 303   1 H      0.354  0.646  0.000  0.000     0.579     1.195
 304   1 H      0.344  0.656  0.000  0.000     0.603     1.220
 305   8 O     -0.653  1.768  4.885  0.000    26.488     6.946
 306   1 H      0.322  0.678  0.000  0.000     0.658     1.275
 307   1 H      0.349  0.651  0.000  0.000     0.590     1.207
 308   8 O     -0.645  1.757  4.887  0.000    26.285     6.920
 309   1 H      0.320  0.680  0.000  0.000     0.665     1.281
 310   1 H      0.308  0.692  0.000  0.000     0.699     1.313
 311   8 O     -0.627  1.760  4.867  0.000    25.835     6.860
 312   1 H      0.333  0.667  0.000  0.000     0.629     1.246
 313   1 H      0.345  0.655  0.000  0.000     0.600     1.217
 314   8 O     -0.670  1.752  4.918  0.000    26.917     7.002
 315   1 H      0.306  0.694  0.000  0.000     0.703     1.317
 316   1 H      0.319  0.681  0.000  0.000     0.666     1.282
 317   8 O     -0.657  1.774  4.883  0.000    26.584     6.959
 318   1 H      0.345  0.655  0.000  0.000     0.600     1.217
 319   1 H      0.304  0.696  0.000  0.000     0.710     1.324
 320   8 O     -0.670  1.764  4.906  0.000    26.919     7.002
 321   1 H      0.313  0.687  0.000  0.000     0.683     1.298
 322   1 H      0.321  0.679  0.000  0.000     0.662     1.279
 323   8 O     -0.640  1.773  4.867  0.000    26.169     6.904
 324   1 H      0.333  0.667  0.000  0.000     0.631     1.248
 325   1 H      0.353  0.647  0.000  0.000     0.582     1.198
 326   8 O     -0.678  1.770  4.909  0.000    27.139     7.031
 327   1 H      0.330  0.670  0.000  0.000     0.638     1.255
 328   1 H      0.328  0.672  0.000  0.000     0.642     1.259
 329   8 O     -0.677  1.785  4.892  0.000    27.099     7.026
 330   1 H      0.327  0.673  0.000  0.000     0.646     1.263
 331   1 H      0.322  0.678  0.000  0.000     0.659     1.275
 332   8 O     -0.622  1.766  4.856  0.000    25.730     6.846
 333   1 H      0.355  0.645  0.000  0.000     0.578     1.194
 334   1 H      0.350  0.650  0.000  0.000     0.589     1.205
 335   7 N     -0.405  1.328  4.077  0.000    30.526     8.206
 336   6 C      0.036  1.064  2.900  0.000    19.996     6.371
 337   6 C      0.200  1.095  2.706  0.000    23.749     7.981
 338   8 O     -0.387  1.768  4.619  0.000    21.424     6.206
 339   6 C     -0.069  1.063  3.007  0.000    21.820     6.649
 340   6 C     -0.013  1.058  2.956  0.000    20.779     6.484
 341   6 C     -0.122  1.043  3.079  0.000    22.886     6.820
 342   6 C     -0.118  1.046  3.072  0.000    22.828     6.814
 343   1 H      0.172  0.828  0.000  0.000     1.258     1.757
 344   1 H      0.056  0.944  0.000  0.000     2.241     2.341
 345   1 H      0.063  0.937  0.000  0.000     2.169     2.303
 346   1 H      0.047  0.953  0.000  0.000     2.356     2.400
 347   1 H      0.023  0.977  0.000  0.000     2.689     2.564
 348   1 H      0.064  0.936  0.000  0.000     2.147     2.291
 349   1 H      0.038  0.962  0.000  0.000     2.475     2.460
 350   1 H      0.028  0.972  0.000  0.000     2.616     2.529
 351   1 H      0.037  0.963  0.000  0.000     2.483     2.464
 352   1 H      0.050  0.950  0.000  0.000     2.322     2.383
 353   1 H      0.035  0.965  0.000  0.000     2.510     2.477
 354   1 H      0.073  0.927  0.000  0.000     2.056     2.242
 355   1 H      0.176  0.824  0.000  0.000     1.235     1.741
 356   1 H      0.061  0.939  0.000  0.000     2.189     2.314
 357   1 H      0.184  0.816  0.000  0.000     1.190     1.709
 358   1 H      0.073  0.927  0.000  0.000     2.049     2.238
 359   1 H      0.165  0.835  0.000  0.000     1.304     1.789
 360   1 H      0.069  0.931  0.000  0.000     2.100     2.266
 361   1 H      0.183  0.817  0.000  0.000     1.196     1.713
 362   1 H      0.075  0.925  0.000  0.000     2.028     2.227

 Mol. C6AA /au·bohr⁶  :    1050483.014908
 Mol. C8AA /au·bohr⁸  :   22346771.521683
 Mol. α(0) /au        :       1508.530106

 
molecular dipole:
                 x           y           z       tot (Debye)
 q only:        9.879      37.943      18.015
   full:        9.778      37.776      16.177     107.367
molecular quadrupole (traceless):
                xx          xy          yy          xz          yz          zz
 q only:    -2968.386    3598.101    5105.220    1672.463    3725.210   -2136.834
  q+dip:    -2953.786    3584.929    5149.468    1547.779    3469.788   -2195.682
   full:    -2954.398    3585.903    5149.623    1550.068    3469.747   -2195.225
speedup  1.74
cpu  time for grad   13.58 s
wall time for grad    7.80 s

SCC energy    :    -584.0693216
rep           :       5.8490491
ES            :       2.7216778
AES           :      -0.2532699
AXC           :       0.1178831
disp          :      -0.4418723
XB            :       0.0000000
fix           :       0.0000000
Gborn         :       0.0000000
Gsasa         :       0.0000000
Ghb           :       0.0000000
Gshift        :       0.0000000
Gsolv         :      -0.6431624     -403.59
Etot ala COSMO:    -584.0693216
grad norm     :       0.5252553
total E       :    -578.1703332
atomizationE  :      92.6398395    58132.38
(atE without considering molecular charge,
 total energy contains solvation terms)
H-L gap (eV)  :          1.2605

------------------------------------------------------------------------
 * finished run on 2019/05/04 at 19:49:36.211     
------------------------------------------------------------------------
 total:
 * wall-time:     0 d,  0 h,  0 min,  8.652 sec
 *  cpu-time:     0 d,  0 h,  0 min, 14.575 sec
 * ratio c/w:     1.685 speedup
 SCF:
 * wall-time:     0 d,  0 h,  0 min,  8.283 sec
 *  cpu-time:     0 d,  0 h,  0 min, 14.318 sec
 * ratio c/w:     1.729 speedup

