      -----------------------------------------------------------      
     |                   =====================                   |     
     |                           x T B                           |     
     |                   =====================                   |     
     |                         S. Grimme                         |     
     |          Mulliken Center for Theoretical Chemistry        |     
     |                    University of Bonn                     |     
     |                 Version 6.0.1 (SAW181210)                 |     
      -----------------------------------------------------------      

   This program is distributed in the hope that it will be useful,
   but WITHOUT ANY WARRANTY; without even the implied warranty of
   MERCHANTABILITY or FITNESS FOR A PARTICULAR PURPOSE.
   
   FOR NON-COMMERCIAL, ACADEMIA USE ONLY.
   
   Cite this work as:
   S. Grimme, C. Bannwarth, P. Shushkov, J. Comput. Theory Chem., 2017,
   13, 1989-2009.
   C. Bannwarth, S. Ehlert and S. Grimme., ChemRxiv, 2018, preprint.
   http://doi.org/10.26434/chemrxiv.7246238.v1
   
   for sTDA-xTB:
   S. Grimme and C. Bannwarth, J. Chem. Phys., 2016, 145, 054103.
   
   in the mass-spec context:
   V. Asgeirsson, C. Bauer and S. Grimme, Chem. Sci., 2017, 8, 4879.
   
   if GBSA is used:
   P. Shushkov, F. März and S. Grimme, unpublished.
   
   for ANC optimizer:
   S. Grimme, unpublished.
   Rational Function algorithm used in ANCopt:
   F. Eckert, P. Pulay, H.-J. Werner, J. Comput. Chem., 1997, 18, 1473.
   
   with help from (in alphabetical order)
   C. Bannwarth, F. Bohle, G. Brandenburg, E. Caldeweyher, M. Checinski,
   S. Dohm, S. Ehlert, S. Ehrlich, F. März, H. Neugebauer, J. Pisarek,
   P. Pracht, P. Shushkov, and S. Spicher.
   
 * started run on 2019/05/07 at 20:37:29.278     
========================================================================
 # omp threads = 2
========================================================================
number of atoms            : 62
number of electrons        : 160
charge                     : 2
spin                       : .0
first test random number   : .9775

########################################################################
# WARNING! Please study the warnings concerning your input carefully
#  - Process number higher than OMP_NUM_THREADS, I hope you know what you are doing.
########################################################################

           ------------------------------------------------- 
          |                 G F N 2 - x T B                 |
          | Geometry, Frequencies, Noncovalent interactions |
          |            JCTC 2018 parametrisation            |
           ------------------------------------------------- 
 
      method parameters     
 k(s)        :  1.8500
 k(p)        :  2.2300
 k(d)        :  2.2300
 k(f)        :  2.0000
 kEN (H0ij)  : -2.0000
 D4 a1       :  0.5200
 D4 a2       :  5.0000
 D4 s6       :  1.0000
 D4 s8       :  2.7000
 D4 s9       :  5.0000
 alphaj      :  2.0000

 Solvent             : h2o
 Using internal parameter file: .param_gbsa2_h2o
 Gsolv ref. state (COSMO-RS): gsolv [1 M gas/solution]
 temperature (mdtemp)       :    298.150000000000     
 dielectric constant        :    80.2000000000000     
 rho                        :    1.00000000000000     
 mass                       :    18.0000000000000     
 surface tension            :    15.5689454083859     
 probe radius               :   0.975313790000000     
 vdW radii scaling          :    1.00000000000000     
 Gshift (Eh)                :   1.857443126794793E-003
 c1                         :    1.55243817000000     
 soset                      :   0.130326360000000     
 HB correction              :  T

            Z     q(EN)     CN     RAES       Cart. coordinates
     1  N   5.0   -0.18    3.24    1.97    63.31949    59.24290   189.63153
     2  C   4.0    0.04    4.33    4.26    62.57630    57.60593   187.56117
     3  C   4.0    0.15    3.44    3.09    63.11569    54.80409   187.97733
     4  O   6.0   -0.27    1.27    1.80    62.62353    53.25796   186.35306
     5  C   4.0   -0.01    4.32    4.24    63.83073    58.48143   185.09239
     6  C   4.0    0.19    3.23    3.04    62.41422    57.49724   182.79784
     7  O   6.0   -0.23    1.20    1.80    63.22623    55.83157   181.44380
     8  N   5.0   -0.14    3.20    1.96    60.20144    58.66991   182.39861
     9  H   1.0    0.12    1.03    1.43    65.19282    59.60198   189.75544
    10  H   1.0    0.07    1.06    1.44    60.51565    57.80691   187.41463
    11  H   1.0    0.08    1.03    1.43    63.81722    60.54377   185.05489
    12  H   1.0    0.08    1.03    1.43    65.78355    57.82826   185.01473
    13  H   1.0    0.15    1.03    1.43    59.09160    58.13293   180.94962
    14  H   1.0    0.12    1.03    1.43    59.62527    60.09453   183.51469
    15  N   5.0   -0.14    3.47    2.06    64.17994    54.21033   190.20660
    16  C   4.0    0.05    4.38    4.34    64.39172    51.61367   191.07975
    17  C   4.0    0.17    3.42    3.08    66.16062    49.95372   189.48265
    18  O   6.0   -0.24    1.25    1.80    66.30142    47.68606   189.90657
    19  C   4.0   -0.02    4.29    4.19    61.81505    50.23823   191.14585
    20  C   4.0   -0.03    4.16    3.91    59.97459    51.19260   193.15528
    21  C   4.0   -0.03    4.16    3.92    60.73382    50.57406   195.87860
    22  C   4.0   -0.01    4.12    3.85    60.74139    47.73768   196.39436
    23  N   5.0   -0.09    4.01    2.90    61.24094    47.24538   199.12332
    24  H   1.0    0.10    1.08    1.44    64.32470    55.63091   191.47565
    25  H   1.0    0.07    1.05    1.44    65.21076    51.67803   192.97597
    26  H   1.0    0.08    1.04    1.43    60.95281    50.46290   189.28792
    27  H   1.0    0.08    1.04    1.43    62.19780    48.23159   191.39130
    28  H   1.0    0.07    1.03    1.43    59.77832    53.23652   192.96639
    29  H   1.0    0.08    1.03    1.43    58.12842    50.36284   192.76513
    30  H   1.0    0.07    1.03    1.43    62.59640    51.36337   196.26820
    31  H   1.0    0.08    1.03    1.43    59.36973    51.49387   197.11993
    32  H   1.0    0.08    1.02    1.43    58.91268    46.93291   195.89203
    33  H   1.0    0.07    1.02    1.43    62.20452    46.80556   195.28415
    34  H   1.0    0.11    1.02    1.43    61.23181    45.33583   199.49080
    35  H   1.0    0.10    1.02    1.43    62.97797    47.96672   199.62761
    36  H   1.0    0.10    1.02    1.43    59.88818    48.11052   200.22961
    37  N   5.0   -0.11    3.51    2.08    67.46566    51.07214   187.62733
    38  C   4.0    0.05    4.33    4.25    69.15123    49.65409   186.00768
    39  C   4.0    0.12    3.21    3.04    71.85908    49.81756   186.99953
    40  O   6.0   -0.19    1.13    1.80    72.63894    51.66535   188.18058
    41  C   4.0   -0.03    4.26    4.12    69.05542    50.65677   183.29326
    42  C   4.0   -0.02    4.17    3.94    66.45280    50.35280   182.07033
    43  C   4.0    0.01    4.21    4.01    65.82765    47.60507   181.41441
    44  N   5.0   -0.12    3.38    2.01    67.33269    46.62528   179.33763
    45  C   4.0    0.13    3.34    3.06    66.78894    46.90445   176.89921
    46  N   5.0   -0.14    3.26    1.97    64.78582    48.23009   176.13050
    47  N   5.0   -0.13    3.24    1.97    68.28529    45.88986   175.15095
    48  H   1.0    0.10    1.08    1.44    67.48804    52.96746   187.46035
    49  H   1.0    0.07    1.07    1.44    68.52405    47.68836   186.12720
    50  H   1.0    0.08    1.03    1.43    69.53805    52.66140   183.34007
    51  H   1.0    0.07    1.03    1.43    70.49684    49.68183   182.19120
    52  H   1.0    0.08    1.03    1.43    65.00881    51.08627   183.34327
    53  H   1.0    0.08    1.03    1.43    66.40105    51.51785   180.37484
    54  H   1.0    0.07    1.03    1.43    66.17438    46.40220   183.04787
    55  H   1.0    0.07    1.03    1.43    63.82285    47.44784   180.96088
    56  H   1.0    0.11    1.06    1.44    68.96048    45.74615   179.82805
    57  H   1.0    0.12    1.03    1.43    63.53683    48.94313   177.37729
    58  H   1.0    0.13    1.03    1.43    64.28699    48.11298   174.29281
    59  H   1.0    0.13    1.03    1.43    69.78503    44.82543   175.62589
    60  H   1.0    0.14    1.03    1.43    67.85782    46.07672   173.29056
    61  H   1.0    0.13    1.07    1.44    62.54886    60.75022   189.46826
    62  H   1.0    0.10    1.05    1.44    73.06387    48.39356   186.69658

  Z AO/shell   Hii/eV     exponent
  1     Wed Apr 25 08:07:45 CEST 2018   EN: 2.200 GM2: 0.406  GM3: 0.0800  RAES: 1.40
     1s    -10.707211    1.230000
  6     Wed Apr 25 08:07:45 CEST 2018   EN: 2.550 GM2: 0.538  GM3: 0.1500  RAES: 3.00
     2s    -13.970922    2.096432
     2p    -10.063292    1.800000
  7     Wed Apr 25 08:07:45 CEST 2018   EN: 3.040 GM2: 0.461  GM3:-0.0640  RAES: 1.90
     2s    -16.686243    2.339881
     2p    -12.523956    2.014332
  8     Wed Apr 25 08:07:45 CEST 2018   EN: 3.440 GM2: 0.452  GM3:-0.0517  RAES: 1.80
     2s    -20.229985    2.439742
     2p    -15.503117    2.137023
 no old-style atom pair restraining (fixing) potential
           ------------------------------------------------- 
          |        Self-Consistent Charge Iterations        |
           ------------------------------------------------- 

 Ncao       : 146
 Nao        : 146
 Nshell     : 90
 Nel        : 160
 T(el)      :   500.0
 intcut     :    35.0
 scfconv/Eh :  0.100E-06
   qconv/e  :  0.100E-04
 intneglect :  0.100E-08
 broydamp   :      0.400
 iter      E             dE          RMSdq      gap      omega  full diag
   1    -91.5578385 -0.915578E+02  0.454E+00    3.63       0.0  T
   2    -91.7475865 -0.189748E+00  0.213E+00    2.39       1.0  T
   3    -91.7599776 -0.123912E-01  0.112E+00    2.64       1.0  T
   4    -91.7729603 -0.129827E-01  0.259E-01    2.31       1.0  T
   5    -91.7736857 -0.725413E-03  0.115E-01    2.47       1.0  T
   6    -91.7738456 -0.159915E-03  0.408E-02    2.45       1.0  T
   7    -91.7738648 -0.191723E-04  0.199E-02    2.46       1.0  T
   8    -91.7738670 -0.223800E-05  0.773E-03    2.46       1.6  T
   9    -91.7738678 -0.716862E-06  0.255E-03    2.46       5.0  T
  10    -91.7738678 -0.434113E-07  0.103E-03    2.46      12.3  T
  11    -91.7738678 -0.718640E-08  0.383E-04    2.46      33.2  T
  12    -91.7738678 -0.152149E-08  0.102E-04    2.46     124.1  T
  13    -91.7738678 -0.888747E-10  0.507E-05    2.46     250.7  T
  14    -91.7738678 -0.126334E-10  0.177E-05    2.46     717.8  T
speedup  1.99
cpu  time for SCC    0.20 s
wall time for SCC    0.10 s

   *** convergence criteria satisfied after 14 iterations ***

          eigenvalues
 #    :          68         69         70         71         72         73         74         75
 occ. :        2.000      2.000      2.000      2.000      2.000      2.000      2.000      2.000
 eps  :       -12.106    -12.027    -11.982    -11.946    -11.830    -11.624    -11.543    -11.404
 #    :          76         77         78         79         80         81         82         83
 occ. :        2.000      2.000      2.000      2.000      2.000      0.000      0.000      0.000
 eps  :       -11.259    -11.021    -10.949    -10.843    -10.444     -7.984     -6.148     -6.078
 #    :          84         85         86         87         88         89         90         91
 occ. :        0.000      0.000      0.000      0.000      0.000      0.000      0.000      0.000
 eps  :        -5.973     -5.698     -2.015     -1.488     -0.612     -0.364      0.285      0.351


   #   Z            q   n(s)   n(p)   n(d)      C6AA      α(0)
   1   7 N     -0.391  1.317  4.074  0.000    30.114     8.150
   2   6 C      0.025  1.060  2.914  0.000    20.165     6.396
   3   6 C      0.269  1.041  2.690  0.000    22.466     7.761
   4   8 O     -0.473  1.744  4.729  0.000    23.189     6.456
   5   6 C     -0.100  1.063  3.037  0.000    22.401     6.737
   6   6 C      0.292  1.034  2.674  0.000    22.043     7.687
   7   8 O     -0.475  1.741  4.734  0.000    23.239     6.463
   8   7 N     -0.296  1.264  4.032  0.000    27.623     7.806
   9   1 H      0.164  0.836  0.000  0.000     1.309     1.792
  10   1 H      0.061  0.939  0.000  0.000     2.184     2.311
  11   1 H      0.058  0.942  0.000  0.000     2.222     2.331
  12   1 H      0.056  0.944  0.000  0.000     2.252     2.347
  13   1 H      0.227  0.773  0.000  0.000     0.978     1.549
  14   1 H      0.218  0.782  0.000  0.000     1.020     1.582
  15   7 N     -0.188  1.250  3.938  0.000    25.083     7.438
  16   6 C      0.012  1.066  2.922  0.000    20.391     6.431
  17   6 C      0.274  1.043  2.683  0.000    22.371     7.745
  18   8 O     -0.488  1.744  4.743  0.000    23.513     6.501
  19   6 C     -0.079  1.052  3.026  0.000    21.997     6.677
  20   6 C     -0.075  1.050  3.025  0.000    21.926     6.667
  21   6 C     -0.093  1.053  3.040  0.000    22.278     6.720
  22   6 C     -0.049  1.059  2.991  0.000    21.558     6.628
  23   7 N     -0.148  1.230  3.918  0.000    24.181     7.304
  24   1 H      0.221  0.779  0.000  0.000     1.003     1.569
  25   1 H      0.088  0.912  0.000  0.000     1.901     2.156
  26   1 H      0.060  0.940  0.000  0.000     2.200     2.320
  27   1 H      0.078  0.922  0.000  0.000     2.001     2.212
  28   1 H      0.053  0.947  0.000  0.000     2.280     2.361
  29   1 H      0.061  0.939  0.000  0.000     2.184     2.311
  30   1 H      0.072  0.928  0.000  0.000     2.065     2.247
  31   1 H      0.079  0.921  0.000  0.000     1.985     2.203
  32   1 H      0.118  0.882  0.000  0.000     1.633     1.998
  33   1 H      0.116  0.884  0.000  0.000     1.648     2.008
  34   1 H      0.300  0.700  0.000  0.000     0.713     1.323
  35   1 H      0.296  0.704  0.000  0.000     0.726     1.335
  36   1 H      0.296  0.704  0.000  0.000     0.725     1.334
  37   7 N     -0.150  1.227  3.923  0.000    24.240     7.312
  38   6 C      0.021  1.059  2.920  0.000    20.236     6.406
  39   6 C      0.197  1.088  2.715  0.000    23.809     7.991
  40   8 O     -0.379  1.766  4.613  0.000    21.276     6.184
  41   6 C     -0.074  1.055  3.019  0.000    21.907     6.663
  42   6 C     -0.086  1.052  3.034  0.000    22.149     6.700
  43   6 C     -0.029  1.052  2.977  0.000    21.177     6.566
  44   7 N     -0.135  1.206  3.929  0.000    23.928     7.265
  45   6 C      0.233  1.019  2.748  0.000    23.109     7.871
  46   7 N     -0.247  1.234  4.014  0.000    26.442     7.637
  47   7 N     -0.258  1.234  4.024  0.000    26.698     7.674
  48   1 H      0.193  0.807  0.000  0.000     1.140     1.672
  49   1 H      0.106  0.894  0.000  0.000     1.731     2.058
  50   1 H      0.060  0.940  0.000  0.000     2.200     2.320
  51   1 H      0.074  0.926  0.000  0.000     2.039     2.233
  52   1 H      0.087  0.913  0.000  0.000     1.910     2.161
  53   1 H      0.081  0.919  0.000  0.000     1.969     2.194
  54   1 H      0.089  0.911  0.000  0.000     1.887     2.148
  55   1 H      0.087  0.913  0.000  0.000     1.913     2.163
  56   1 H      0.231  0.769  0.000  0.000     0.959     1.534
  57   1 H      0.245  0.755  0.000  0.000     0.902     1.487
  58   1 H      0.247  0.753  0.000  0.000     0.894     1.481
  59   1 H      0.248  0.752  0.000  0.000     0.891     1.478
  60   1 H      0.251  0.749  0.000  0.000     0.881     1.470
  61   1 H      0.187  0.813  0.000  0.000     1.174     1.697
  62   1 H      0.082  0.918  0.000  0.000     1.958     2.188

 Mol. C6AA /au·bohr⁶  :      31059.263929
 Mol. C8AA /au·bohr⁸  :     678693.388718
 Mol. α(0) /au        :        263.411377

 
molecular dipole:
                 x           y           z       tot (Debye)
 q only:      126.645      97.015     376.451
   full:      126.740      97.753     376.500    1039.876
molecular quadrupole (traceless):
                xx          xy          yy          xz          yz          zz
 q only:   -29886.140    9186.194  -34822.593   35662.597   27408.172   64708.733
  q+dip:   -29921.784    9260.773  -34756.368   35695.825   27618.724   64678.152
   full:   -29922.450    9261.704  -34756.960   35695.298   27618.184   64679.409
speedup  1.99
cpu  time for grad    0.28 s
wall time for grad    0.14 s

SCC energy    :     -91.7783533
rep           :       1.1398057
ES            :       0.4403672
AES           :      -0.0255904
AXC           :       0.0395411
disp          :      -0.0564039
XB            :       0.0000000
fix           :       0.0000000
Gborn         :       0.0000000
Gsasa         :       0.0000000
Ghb           :       0.0000000
Gshift        :       0.0000000
Gsolv         :      -0.2597101     -162.97
Etot ala COSMO:     -91.7783533
grad norm     :       0.2313350
total E       :     -90.6374848
atomizationE  :      15.9844169    10030.37
(atE without considering molecular charge,
 total energy contains solvation terms)
H-L gap (eV)  :          2.4608

------------------------------------------------------------------------
 * finished run on 2019/05/07 at 20:37:29.580     
------------------------------------------------------------------------
 total:
 * wall-time:     0 d,  0 h,  0 min,  0.299 sec
 *  cpu-time:     0 d,  0 h,  0 min,  0.440 sec
 * ratio c/w:     1.470 speedup
 SCF:
 * wall-time:     0 d,  0 h,  0 min,  0.158 sec
 *  cpu-time:     0 d,  0 h,  0 min,  0.315 sec
 * ratio c/w:     1.991 speedup

