      -----------------------------------------------------------      
     |                   =====================                   |     
     |                           x T B                           |     
     |                   =====================                   |     
     |                         S. Grimme                         |     
     |          Mulliken Center for Theoretical Chemistry        |     
     |                    University of Bonn                     |     
     |                 Version 6.0.1 (SAW181210)                 |     
      -----------------------------------------------------------      

   This program is distributed in the hope that it will be useful,
   but WITHOUT ANY WARRANTY; without even the implied warranty of
   MERCHANTABILITY or FITNESS FOR A PARTICULAR PURPOSE.
   
   FOR NON-COMMERCIAL, ACADEMIA USE ONLY.
   
   Cite this work as:
   S. Grimme, C. Bannwarth, P. Shushkov, J. Comput. Theory Chem., 2017,
   13, 1989-2009.
   C. Bannwarth, S. Ehlert and S. Grimme., ChemRxiv, 2018, preprint.
   http://doi.org/10.26434/chemrxiv.7246238.v1
   
   for sTDA-xTB:
   S. Grimme and C. Bannwarth, J. Chem. Phys., 2016, 145, 054103.
   
   in the mass-spec context:
   V. Asgeirsson, C. Bauer and S. Grimme, Chem. Sci., 2017, 8, 4879.
   
   if GBSA is used:
   P. Shushkov, F. März and S. Grimme, unpublished.
   
   for ANC optimizer:
   S. Grimme, unpublished.
   Rational Function algorithm used in ANCopt:
   F. Eckert, P. Pulay, H.-J. Werner, J. Comput. Chem., 1997, 18, 1473.
   
   with help from (in alphabetical order)
   C. Bannwarth, F. Bohle, G. Brandenburg, E. Caldeweyher, M. Checinski,
   S. Dohm, S. Ehlert, S. Ehrlich, F. März, H. Neugebauer, J. Pisarek,
   P. Pracht, P. Shushkov, and S. Spicher.
   
 * started run on 2019/05/10 at 10:20:24.241     
========================================================================
 # omp threads = 2
========================================================================
number of atoms            : 675
number of electrons        : 1752
charge                     : -1
spin                       : .0
first test random number   : .9932

########################################################################
# WARNING! Please study the warnings concerning your input carefully
#  - Process number higher than OMP_NUM_THREADS, I hope you know what you are doing.
########################################################################

           ------------------------------------------------- 
          |                 G F N 2 - x T B                 |
          | Geometry, Frequencies, Noncovalent interactions |
          |            JCTC 2018 parametrisation            |
           ------------------------------------------------- 
 
      method parameters     
 k(s)        :  1.8500
 k(p)        :  2.2300
 k(d)        :  2.2300
 k(f)        :  2.0000
 kEN (H0ij)  : -2.0000
 D4 a1       :  0.5200
 D4 a2       :  5.0000
 D4 s6       :  1.0000
 D4 s8       :  2.7000
 D4 s9       :  5.0000
 alphaj      :  2.0000

 Solvent             : h2o
 Using internal parameter file: .param_gbsa2_h2o
 Gsolv ref. state (COSMO-RS): gsolv [1 M gas/solution]
 temperature (mdtemp)       :    298.150000000000     
 dielectric constant        :    80.2000000000000     
 rho                        :    1.00000000000000     
 mass                       :    18.0000000000000     
 surface tension            :    15.5689454083859     
 probe radius               :   0.975313790000000     
 vdW radii scaling          :    1.00000000000000     
 Gshift (Eh)                :   1.857443126794793E-003
 c1                         :    1.55243817000000     
 soset                      :   0.130326360000000     
 HB correction              :  T

            Z     q(EN)     CN     RAES       Cart. coordinates
     1  N   5.0   -0.22    3.27    1.97    65.71862    -0.63295   -23.47056
     2  C   4.0    0.02    4.40    4.37    68.14983    -1.31605   -22.38819
     3  C   4.0    0.14    3.46    3.10    69.81973     1.05510   -22.37504
     4  O   6.0   -0.33    1.34    1.80    71.22124     1.55016   -20.59472
     5  C   4.0   -0.03    4.25    4.10    69.39146    -3.48062   -23.88633
     6  C   4.0   -0.08    4.12    3.85    71.97808    -4.09428   -22.75593
     7  C   4.0   -0.09    4.11    3.82    67.72869    -5.84246   -23.86274
     8  H   1.0    0.07    1.03    1.43    65.17264    -1.55883   -25.04344
     9  H   1.0    0.04    1.05    1.44    67.89806    -1.87120   -20.40737
    10  H   1.0    0.03    1.05    1.44    69.64116    -2.83664   -25.83759
    11  H   1.0    0.03    1.00    1.43    72.90042    -5.56225   -23.85262
    12  H   1.0    0.05    1.00    1.43    73.18763    -2.43509   -22.72263
    13  H   1.0    0.04    1.00    1.43    71.76525    -4.76066   -20.82356
    14  H   1.0    0.03    1.00    1.43    68.68531    -7.36261   -24.85581
    15  H   1.0    0.03    1.00    1.43    67.38069    -6.44582   -21.93069
    16  H   1.0    0.03    1.00    1.43    65.91832    -5.52268   -24.77612
    17  N   5.0   -0.15    3.49    2.07    69.63630     2.48909   -24.43312
    18  C   4.0    0.03    4.41    4.39    70.79283     4.96255   -24.66521
    19  C   4.0    0.16    3.52    3.12    71.10604     6.24335   -22.09665
    20  O   6.0   -0.33    1.29    1.80    73.17465     7.04462   -21.42298
    21  C   4.0   -0.06    4.38    4.34    69.13626     6.61555   -26.37408
    22  C   4.0   -0.03    4.18    3.97    70.15647     9.29513   -26.79974
    23  C   4.0   -0.08    4.10    3.80    72.61327     9.27635   -28.31252
    24  C   4.0   -0.08    4.10    3.81    68.14382    10.85741   -28.16253
    25  H   1.0    0.07    1.07    1.44    68.46472     1.99421   -25.88463
    26  H   1.0    0.04    1.05    1.44    72.69583     4.74952   -25.46152
    27  H   1.0    0.03    1.03    1.43    68.91175     5.65923   -28.18975
    28  H   1.0    0.04    1.03    1.43    67.27754     6.78082   -25.48795
    29  H   1.0    0.04    1.05    1.44    70.50923    10.15387   -24.94702
    30  H   1.0    0.04    1.00    1.43    73.17820    11.20000   -28.76066
    31  H   1.0    0.04    1.00    1.43    74.12700     8.41491   -27.22637
    32  H   1.0    0.03    1.00    1.43    72.35470     8.23853   -30.06581
    33  H   1.0    0.03    1.00    1.43    68.80305    12.77979   -28.46045
    34  H   1.0    0.03    1.00    1.43    67.70641    10.02065   -29.98728
    35  H   1.0    0.03    1.00    1.43    66.41891    10.94443   -27.04593
    36  N   5.0   -0.15    3.50    2.08    68.99209     6.59424   -20.76178
    37  C   4.0    0.04    4.45    4.46    68.97321     8.04126   -18.43755
    38  C   4.0    0.17    3.48    3.11    70.64305     6.85773   -16.40604
    39  O   6.0   -0.30    1.28    1.80    72.06649     8.12398   -15.08481
    40  C   4.0   -0.04    4.28    4.16    66.29606     8.27895   -17.42904
    41  C   4.0    0.25    3.13    3.03    66.35415     9.98609   -15.00679
    42  O   6.0   -0.29    1.16    1.80    65.92008     8.89957   -12.95847
    43  O   6.0   -0.30    1.17    1.80    66.82446    12.25705   -15.35029
    44  H   1.0    0.07    1.07    1.44    67.35027     5.72529   -21.22425
    45  H   1.0    0.06    1.05    1.44    69.72412     9.94336   -18.79768
    46  H   1.0    0.04    1.02    1.43    65.11476     9.17865   -18.85962
    47  H   1.0    0.05    1.02    1.43    65.53449     6.42865   -16.93509
    48  N   5.0   -0.14    3.54    2.10    70.40029     4.35971   -16.17593
    49  C   4.0    0.03    4.41    4.40    71.91109     2.87816   -14.43159
    50  C   4.0    0.16    3.46    3.10    74.72868     3.28681   -14.97821
    51  O   6.0   -0.32    1.25    1.80    76.28719     3.59425   -13.28968
    52  C   4.0   -0.05    4.36    4.31    71.17229     0.09553   -14.70699
    53  C   4.0   -0.02    4.18    3.95    72.57061    -1.70885   -12.92142
    54  C   4.0   -0.08    4.10    3.80    71.68193    -1.37463   -10.19753
    55  C   4.0   -0.09    4.10    3.81    72.14380    -4.43243   -13.78432
    56  H   1.0    0.09    1.09    1.44    69.32622     3.42475   -17.44736
    57  H   1.0    0.05    1.05    1.44    71.56051     3.58212   -12.51343
    58  H   1.0    0.04    1.03    1.43    69.13916    -0.04587   -14.37359
    59  H   1.0    0.05    1.04    1.43    71.55905    -0.44240   -16.66013
    60  H   1.0    0.05    1.05    1.44    74.59232    -1.27813   -13.01184
    61  H   1.0    0.03    1.00    1.43    72.63675    -2.70502    -8.95789
    62  H   1.0    0.04    1.00    1.43    72.09230     0.52296    -9.52561
    63  H   1.0    0.04    1.00    1.43    69.65492    -1.68851   -10.06161
    64  H   1.0    0.03    1.00    1.43    73.13553    -5.72964   -12.54098
    65  H   1.0    0.03    1.00    1.43    70.13847    -4.87688   -13.73503
    66  H   1.0    0.03    1.00    1.43    72.84206    -4.70033   -15.69671
    67  N   5.0   -0.14    3.51    2.09    75.34600     3.19036   -17.41961
    68  C   4.0    0.04    4.34    4.28    77.92113     3.59869   -18.26446
    69  C   4.0    0.16    3.49    3.11    78.81661     6.23593   -17.47274
    70  O   6.0   -0.32    1.31    1.80    80.81337     6.53862   -16.33143
    71  C   4.0   -0.07    4.11    3.82    78.09736     3.25311   -21.11298
    72  H   1.0    0.11    1.10    1.44    73.98899     2.89652   -18.74172
    73  H   1.0    0.05    1.05    1.44    79.15358     2.24508   -17.28423
    74  H   1.0    0.04    1.00    1.43    80.03129     3.53031   -21.74476
    75  H   1.0    0.04    1.00    1.43    77.50584     1.35376   -21.62220
    76  H   1.0    0.06    1.01    1.43    76.87430     4.61630   -22.04147
    77  N   5.0   -0.14    3.52    2.09    77.31472     8.14860   -18.12031
    78  C   4.0    0.03    4.52    4.56    77.94434    10.70723   -17.36626
    79  C   4.0    0.16    3.57    3.15    78.61163    10.69610   -14.55653
    80  O   6.0   -0.31    1.31    1.80    80.53389    11.69492   -13.72275
    81  C   4.0   -0.02    4.34    4.27    75.76963    12.57037   -17.87435
    82  C   4.0   -0.05    4.19    3.97    75.27632    12.81783   -20.71862
    83  C   4.0   -0.08    4.15    3.89    76.41013    15.13840   -16.72040
    84  C   4.0   -0.08    4.02    3.65    72.96674    14.43535   -21.31938
    85  H   1.0    0.11    1.10    1.44    75.66461     7.83430   -19.04219
    86  H   1.0    0.04    1.05    1.44    79.64186    11.32186   -18.39704
    87  H   1.0    0.06    1.05    1.44    74.06727    11.82544   -16.95829
    88  H   1.0    0.03    1.03    1.43    76.93604    13.64410   -21.61880
    89  H   1.0    0.06    1.04    1.43    74.97954    10.94198   -21.51647
    90  H   1.0    0.04    1.00    1.43    74.82276    16.41972   -16.92592
    91  H   1.0    0.05    1.01    1.43    76.81751    14.96071   -14.71442
    92  H   1.0    0.04    1.00    1.43    78.05455    15.94273   -17.65452
    93  H   1.0    0.04    1.00    1.43    72.50861    14.27549   -23.31485
    94  H   1.0    0.05    1.00    1.43    71.33859    13.81849   -20.21970
    95  H   1.0    0.04    1.00    1.43    73.30370    16.41464   -20.89689
    96  N   5.0   -0.13    3.52    2.09    76.92353     9.56344   -13.07379
    97  C   4.0    0.04    4.35    4.29    77.20813     9.57654   -10.35339
    98  C   4.0    0.17    3.50    3.12    79.87168     8.72728    -9.62113
    99  O   6.0   -0.31    1.29    1.80    81.16350     9.97318    -8.15206
   100  C   4.0   -0.07    4.11    3.83    75.23152     7.87828    -9.13480
   101  H   1.0    0.11    1.10    1.44    75.27289     8.90914   -13.79107
   102  H   1.0    0.05    1.05    1.44    77.00405    11.52448    -9.64974
   103  H   1.0    0.04    1.00    1.43    75.46180     7.88001    -7.09447
   104  H   1.0    0.05    1.00    1.43    73.34704     8.55858    -9.60197
   105  H   1.0    0.06    1.01    1.43    75.43377     5.96309    -9.84803
   106  N   5.0   -0.14    3.48    2.07    80.65861     6.52187   -10.55539
   107  C   4.0    0.04    4.51    4.56    83.06172     5.51745    -9.69227
   108  C   4.0    0.16    3.46    3.10    85.26126     7.18477   -10.57393
   109  O   6.0   -0.31    1.27    1.80    86.96916     7.76803    -9.11613
   110  C   4.0   -0.02    4.24    4.09    83.41745     2.71666   -10.39784
   111  C   4.0   -0.07    4.13    3.85    84.08657     2.32246   -13.17396
   112  C   4.0   -0.08    4.11    3.82    85.45761     1.55955    -8.71094
   113  H   1.0    0.11    1.07    1.44    79.56750     5.51811   -11.76326
   114  H   1.0    0.05    1.06    1.44    83.06611     5.67355    -7.61876
   115  H   1.0    0.04    1.05    1.44    81.60558     1.78771   -10.01704
   116  H   1.0    0.04    1.00    1.43    84.09204     0.31607   -13.60968
   117  H   1.0    0.06    1.01    1.43    82.72802     3.25725   -14.39540
   118  H   1.0    0.05    1.00    1.43    85.95922     3.06208   -13.58176
   119  H   1.0    0.04    1.00    1.43    85.83968    -0.37092    -9.29510
   120  H   1.0    0.05    1.00    1.43    87.19040     2.65157    -8.87379
   121  H   1.0    0.04    1.00    1.43    84.87538     1.55858    -6.74158
   122  N   5.0   -0.14    3.51    2.08    85.22189     7.89819   -12.98703
   123  C   4.0    0.04    4.52    4.56    87.32570     9.27073   -14.09703
   124  C   4.0    0.16    3.50    3.11    87.62104    11.84226   -12.83247
   125  O   6.0   -0.31    1.26    1.80    89.58764    12.56329   -11.84478
   126  C   4.0   -0.02    4.29    4.18    86.93345     9.61548   -16.94993
   127  C   4.0   -0.07    4.13    3.87    89.03175    11.26210   -18.04816
   128  C   4.0   -0.07    4.12    3.84    86.88570     7.05251   -18.26461
   129  H   1.0    0.11    1.09    1.44    83.69286     7.52836   -14.07489
   130  H   1.0    0.07    1.06    1.44    89.08194     8.21833   -13.75387
   131  H   1.0    0.05    1.05    1.44    85.10309    10.54475   -17.23328
   132  H   1.0    0.03    1.00    1.43    88.78851    11.45300   -20.07921
   133  H   1.0    0.05    1.00    1.43    89.02366    13.14759   -17.23134
   134  H   1.0    0.05    1.00    1.43    90.85948    10.39783   -17.67976
   135  H   1.0    0.04    1.00    1.43    86.76858     7.31314   -20.29819
   136  H   1.0    0.05    1.00    1.43    88.60760     6.01463   -17.84183
   137  H   1.0    0.05    1.00    1.43    85.26035     5.95640   -17.65866
   138  N   5.0   -0.15    3.56    2.12    85.55925    13.29505   -12.97679
   139  C   4.0    0.04    4.52    4.56    85.60380    15.84193   -12.01801
   140  C   4.0    0.15    3.43    3.09    85.65743    15.89280    -9.13951
   141  O   6.0   -0.33    1.30    1.80    86.63731    17.66355    -8.00597
   142  C   4.0   -0.05    4.32    4.23    83.41381    17.39333   -13.07565
   143  C   4.0   -0.04    4.06    3.73    83.59880    17.68770   -15.93727
   144  S   6.0   -0.06    2.57    3.10    86.70517    18.66889   -17.07127
   145  C   4.0   -0.07    3.89    3.45    87.01830    21.68583   -15.46224
   146  H   1.0    0.11    1.11    1.44    83.88100    12.58475   -13.56481
   147  H   1.0    0.05    1.10    1.44    87.39285    16.70033   -12.63672
   148  H   1.0    0.05    1.03    1.43    81.63565    16.44475   -12.63188
   149  H   1.0    0.04    1.03    1.43    83.42559    19.24085   -12.16219
   150  H   1.0    0.04    1.08    1.44    83.25991    15.88330   -16.86710
   151  H   1.0    0.03    1.06    1.44    82.21997    19.06248   -16.60641
   152  H   1.0    0.06    1.05    1.44    88.68148    22.60664   -16.22896
   153  H   1.0    0.04    1.04    1.43    85.34469    22.81896   -15.81028
   154  H   1.0    0.05    1.04    1.43    87.27623    21.38533   -13.45055
   155  N   5.0   -0.13    3.44    2.04    84.64649    13.90527    -7.97614
   156  C   4.0    0.02    4.26    4.12    84.81756    13.57596    -5.27418
   157  C   4.0    0.16    3.37    3.07    87.57155    13.28376    -4.45680
   158  O   6.0   -0.32    1.30    1.80    88.44048    14.52592    -2.70184
   159  H   1.0    0.12    1.10    1.44    83.68766    12.55756    -8.93519
   160  H   1.0    0.05    1.02    1.43    84.04107    15.22602    -4.29580
   161  H   1.0    0.05    1.03    1.43    83.73028    11.89789    -4.78145
   162  N   5.0   -0.14    3.50    2.08    88.94415    11.64736    -5.78562
   163  C   4.0    0.04    4.35    4.29    91.62461    11.32041    -5.28783
   164  C   4.0    0.16    3.47    3.10    92.99448    13.85065    -5.61895
   165  O   6.0   -0.31    1.27    1.80    94.51459    14.64517    -4.05909
   166  C   4.0   -0.06    4.11    3.83    92.71782     9.33867    -7.06384
   167  H   1.0    0.12    1.10    1.44    88.16261    10.52550    -7.13449
   168  H   1.0    0.05    1.05    1.44    91.88302    10.75105    -3.30814
   169  H   1.0    0.04    1.00    1.43    94.72691     9.11788    -6.70937
   170  H   1.0    0.05    1.00    1.43    91.77073     7.54349    -6.75944
   171  H   1.0    0.07    1.00    1.43    92.41540     9.90167    -9.01728
   172  N   5.0   -0.14    3.51    2.09    92.41500    15.09919    -7.72857
   173  C   4.0    0.04    4.35    4.29    93.59493    17.50864    -8.30708
   174  C   4.0    0.16    3.48    3.10    93.18310    19.33996    -6.09498
   175  O   6.0   -0.31    1.26    1.80    94.92643    20.51680    -5.11854
   176  C   4.0   -0.07    4.11    3.83    92.49032    18.55684   -10.74603
   177  H   1.0    0.11    1.09    1.44    91.29336    14.29753    -9.06590
   178  H   1.0    0.05    1.05    1.44    95.64597    17.23983    -8.48975
   179  H   1.0    0.04    1.00    1.43    93.50896    20.23890   -11.33202
   180  H   1.0    0.05    1.00    1.43    92.62349    17.13892   -12.22784
   181  H   1.0    0.05    1.00    1.43    90.51377    19.04163   -10.46947
   182  N   5.0   -0.14    3.53    2.10    90.78431    19.56795    -5.36980
   183  C   4.0    0.03    4.44    4.45    90.03955    21.19684    -3.29894
   184  C   4.0    0.16    3.53    3.13    91.57573    20.53135    -0.94931
   185  O   6.0   -0.32    1.32    1.80    92.64868    22.12853     0.34341
   186  C   4.0   -0.03    4.34    4.28    87.20936    20.89176    -2.76148
   187  C   4.0   -0.02    3.57    3.15    86.29791    22.88483    -0.95427
   188  C   4.0   -0.05    3.47    3.10    86.08139    25.37939    -1.74675
   189  C   4.0   -0.04    3.46    3.10    85.68229    22.27935     1.52029
   190  C   4.0   -0.05    3.37    3.07    85.27170    27.23384    -0.09269
   191  C   4.0   -0.05    3.38    3.07    84.85708    24.13313     3.17209
   192  C   4.0   -0.05    3.37    3.07    84.65407    26.61546     2.37376
   193  H   1.0    0.12    1.12    1.45    89.39489    18.58282    -6.25485
   194  H   1.0    0.05    1.05    1.44    90.46381    23.17153    -3.78304
   195  H   1.0    0.05    1.03    1.43    86.20087    21.04206    -4.55555
   196  H   1.0    0.06    1.03    1.43    86.87783    19.00545    -1.99742
   197  H   1.0    0.04    1.03    1.43    86.54138    25.86183    -3.67623
   198  H   1.0    0.05    1.03    1.43    85.84661    20.34562     2.15024
   199  H   1.0    0.04    1.03    1.43    85.11506    29.16422    -0.73263
   200  H   1.0    0.04    1.03    1.43    84.37519    23.63297     5.08928
   201  H   1.0    0.04    1.03    1.43    84.01337    28.06272     3.66063
   202  N   5.0   -0.14    3.53    2.10    91.65135    18.07729    -0.40730
   203  C   4.0    0.05    4.46    4.48    93.04991    17.21104     1.76803
   204  C   4.0    0.17    3.54    3.13    95.68223    18.40569     1.77669
   205  O   6.0   -0.31    1.33    1.80    96.52341    19.42752     3.67801
   206  C   4.0   -0.03    4.31    4.22    93.22476    14.33191     1.81145
   207  C   4.0    0.15    3.24    3.04    94.05534    13.47630     4.43425
   208  O   6.0   -0.30    1.22    1.80    92.96615    14.19253     6.33299
   209  N   5.0   -0.19    3.18    1.95    95.99664    11.85393     4.48878
   210  H   1.0    0.12    1.11    1.45    90.68928    16.78513    -1.44928
   211  H   1.0    0.06    1.06    1.44    92.11621    17.85231     3.51349
   212  H   1.0    0.05    1.03    1.43    91.33591    13.57288     1.45827
   213  H   1.0    0.06    1.03    1.43    94.49067    13.68583     0.32526
   214  H   1.0    0.09    1.03    1.43    96.67752    11.31666     6.18442
   215  H   1.0    0.08    1.03    1.43    96.96894    11.39199     2.92448
   216  N   5.0   -0.14    3.47    2.06    97.02336    18.19371    -0.35662
   217  C   4.0    0.04    4.44    4.45    99.55547    19.23259    -0.40419
   218  C   4.0    0.16    3.55    3.14    99.54943    22.08562     0.01634
   219  O   6.0   -0.33    1.41    1.80   101.23761    23.03088     1.31527
   220  C   4.0   -0.05    4.23    4.06   101.02904    18.58994    -2.81152
   221  C   4.0   -0.05    4.19    3.97   103.62419    19.89492    -2.92777
   222  C   4.0   -0.05    4.17    3.93   105.37629    19.28740    -0.69729
   223  C   4.0   -0.04    4.10    3.81   107.92235    20.62962    -0.93214
   224  N   5.0   -0.11    4.00    2.86   109.58419    20.08417     1.27034
   225  H   1.0    0.11    1.08    1.44    96.29046    17.37209    -1.92344
   226  H   1.0    0.05    1.06    1.44   100.55252    18.43357     1.23225
   227  H   1.0    0.04    1.02    1.43   101.25405    16.54313    -2.89828
   228  H   1.0    0.05    1.03    1.43    99.90714    19.19378    -4.43391
   229  H   1.0    0.04    1.03    1.43   104.54027    19.32502    -4.68377
   230  H   1.0    0.05    1.03    1.43   103.33168    21.93470    -2.99980
   231  H   1.0    0.05    1.04    1.43   104.49133    19.91637     1.04807
   232  H   1.0    0.04    1.02    1.43   105.67065    17.24940    -0.60363
   233  H   1.0    0.03    1.02    1.43   108.86462    20.00159    -2.65618
   234  H   1.0    0.04    1.02    1.43   107.63706    22.66721    -1.03593
   235  H   1.0    0.06    1.02    1.43   111.44391    20.12536     0.74124
   236  H   1.0    0.11    1.11    1.45   109.47820    21.40710     2.89934
   237  H   1.0    0.07    1.03    1.43   109.18439    18.34267     2.02065
   238  N   5.0   -0.14    3.50    2.08    97.80923    23.50036    -1.10381
   239  C   4.0    0.04    4.53    4.58    97.98547    26.21535    -0.71651
   240  C   4.0    0.16    3.51    3.12    97.83122    26.79358     2.11677
   241  O   6.0   -0.32    1.26    1.80    99.10179    28.48320     3.07351
   242  C   4.0   -0.02    4.30    4.21    96.12377    27.82168    -2.27622
   243  C   4.0   -0.05    4.19    3.98    93.45680    27.89886    -1.15488
   244  C   4.0   -0.07    4.13    3.87    96.13781    26.95011    -5.02455
   245  C   4.0   -0.08    4.02    3.65    91.63391    29.54357    -2.66636
   246  H   1.0    0.11    1.08    1.44    96.45549    22.72483    -2.20927
   247  H   1.0    0.06    1.06    1.44    99.89823    26.79442    -1.29199
   248  H   1.0    0.04    1.06    1.44    96.89534    29.74375    -2.21648
   249  H   1.0    0.06    1.04    1.43    92.71030    25.98710    -1.01255
   250  H   1.0    0.04    1.03    1.43    93.57351    28.66074     0.75965
   251  H   1.0    0.04    1.00    1.43    95.05056    28.26187    -6.16571
   252  H   1.0    0.06    1.00    1.43    98.05975    26.90414    -5.74634
   253  H   1.0    0.06    1.00    1.43    95.32108    25.07611    -5.23310
   254  H   1.0    0.04    1.00    1.43    89.88464    29.74542    -1.61163
   255  H   1.0    0.03    1.00    1.43    92.43009    31.41379    -2.97172
   256  H   1.0    0.04    1.00    1.43    91.19496    28.70724    -4.49017
   257  N   5.0   -0.14    3.53    2.10    96.22830    25.36821     3.44641
   258  C   4.0    0.03    4.51    4.56    95.94360    25.70075     6.15190
   259  C   4.0    0.16    3.54    3.13    98.42932    24.99367     7.43313
   260  O   6.0   -0.30    1.29    1.80    99.55908    26.42923     8.86263
   261  C   4.0   -0.02    4.33    4.26    93.75466    24.10262     7.18371
   262  C   4.0   -0.05    4.17    3.95    91.19842    24.87896     6.04688
   263  C   4.0   -0.08    4.14    3.87    93.73179    24.23276    10.06930
   264  C   4.0   -0.08    4.01    3.64    90.38546    27.59003     6.58283
   265  H   1.0    0.11    1.09    1.44    95.12896    24.06465     2.57985
   266  H   1.0    0.05    1.05    1.44    95.64045    27.71293     6.55262
   267  H   1.0    0.06    1.06    1.44    94.11016    22.14296     6.61726
   268  H   1.0    0.06    1.03    1.43    91.23651    24.58213     4.00688
   269  H   1.0    0.04    1.03    1.43    89.77682    23.59622     6.81113
   270  H   1.0    0.03    1.00    1.43    92.11373    23.21064    10.80882
   271  H   1.0    0.05    1.00    1.43    95.43315    23.38142    10.84516
   272  H   1.0    0.04    1.00    1.43    93.64146    26.17991    10.71311
   273  H   1.0    0.04    1.00    1.43    88.52802    27.91890     5.77142
   274  H   1.0    0.03    1.00    1.43    90.28029    27.95313     8.59995
   275  H   1.0    0.04    1.00    1.43    91.67589    28.94685     5.74011
   276  N   5.0   -0.14    3.56    2.12    99.33225    22.71448     6.86009
   277  C   4.0    0.04    4.51    4.56   101.75770    21.95225     7.85653
   278  C   4.0    0.18    3.53    3.13   103.68311    24.09331     7.51029
   279  O   6.0   -0.31    1.31    1.80   105.01538    24.79391     9.27006
   280  C   4.0   -0.03    4.13    3.87   102.72001    19.62634     6.48028
   281  S   6.0   -0.03    2.32    3.10   100.79585    16.82657     7.06828
   282  H   1.0    0.12    1.11    1.45    98.38458    21.51496     5.69667
   283  H   1.0    0.05    1.05    1.44   101.61197    21.60033     9.90124
   284  H   1.0    0.06    1.08    1.44   102.56045    19.97403     4.46060
   285  H   1.0    0.07    1.07    1.44   104.68179    19.23277     6.96898
   286  H   1.0    0.05    0.98    1.43   101.87858    16.12584     9.22060
   287  N   5.0   -0.14    3.54    2.11   103.83743    25.03005     5.18665
   288  C   4.0    0.05    4.41    4.40   105.68892    26.90926     4.47570
   289  C   4.0    0.17    3.49    3.11   105.52315    29.19736     6.22234
   290  O   6.0   -0.28    1.24    1.80   107.40969    30.13304     7.21154
   291  C   4.0    0.04    4.17    3.93   105.27714    27.71925     1.72907
   292  O   6.0   -0.25    2.06    1.83   107.26904    29.35830     1.06779
   293  H   1.0    0.12    1.15    1.45   102.67479    24.38758     3.80268
   294  H   1.0    0.08    1.06    1.44   107.59485    26.09952     4.65357
   295  H   1.0    0.05    1.01    1.43   105.27421    26.02659     0.53769
   296  H   1.0    0.06    1.01    1.43   103.43583    28.65292     1.53082
   297  H   1.0    0.13    1.02    1.43   107.19928    29.67500    -0.72842
   298  N   5.0   -0.13    3.50    2.08   103.21012    30.10558     6.54612
   299  C   4.0    0.04    4.32    4.24   102.69797    32.21268     8.21952
   300  C   4.0    0.10    3.27    3.05   103.91287    31.76131    10.79528
   301  O   6.0   -0.28    1.11    1.80   105.11736    33.43416    11.87365
   302  C   4.0   -0.04    4.36    4.31    99.82554    32.51614     8.41669
   303  C   4.0   -0.02    4.18    3.95    98.90996    34.59038    10.21571
   304  C   4.0   -0.07    4.10    3.81    99.92781    37.18480     9.47363
   305  C   4.0   -0.08    4.11    3.81    96.02242    34.61161    10.22404
   306  H   1.0    0.11    1.10    1.44   101.71199    29.32624     5.63330
   307  H   1.0    0.05    1.05    1.44   103.56443    33.92989     7.44093
   308  H   1.0    0.05    1.03    1.43    99.12489    32.90224     6.51535
   309  H   1.0    0.06    1.04    1.43    99.04909    30.70765     9.03319
   310  H   1.0    0.05    1.05    1.44    99.56495    34.12887    12.12132
   311  H   1.0    0.04    1.00    1.43    99.07311    38.64762    10.63481
   312  H   1.0    0.05    1.00    1.43   101.96111    37.26682     9.73755
   313  H   1.0    0.04    1.00    1.43    99.49853    37.58320     7.50326
   314  H   1.0    0.04    1.00    1.43    95.30046    35.97936    11.57643
   315  H   1.0    0.04    1.00    1.43    95.32413    35.11267     8.35764
   316  H   1.0    0.04    1.00    1.43    95.27328    32.76315    10.72122
   317  N   5.0   -0.19    3.23    1.96   108.21850    27.29175    12.66392
   318  C   4.0    0.03    4.21    4.03   110.86844    26.70063    12.39380
   319  C   4.0    0.09    3.22    3.04   112.45593    29.11146    12.31899
   320  O   6.0   -0.29    1.11    1.80   114.43728    29.32952    13.47801
   321  C   4.0   -0.03    4.29    4.17   111.28810    25.29930     9.89350
   322  C   4.0   -0.03    4.17    3.94   110.30021    22.59249     9.90792
   323  C   4.0    0.25    3.12    3.03   109.62990    21.54927     7.27058
   324  O   6.0   -0.33    1.37    1.80   109.99583    22.91993     5.34930
   325  O   6.0   -0.31    1.19    1.80   108.73410    19.38662     7.14871
   326  H   1.0    0.12    1.08    1.44   107.02614    26.49881    11.38955
   327  H   1.0    0.05    1.05    1.44   111.52744    25.56032    13.99906
   328  H   1.0    0.07    1.04    1.43   110.30859    26.35491     8.41743
   329  H   1.0    0.05    1.03    1.43   113.30470    25.31332     9.45645
   330  H   1.0    0.04    1.02    1.43   111.66844    21.30416    10.76035
   331  H   1.0    0.06    1.03    1.43   108.57072    22.45618    11.02455
   332  N   5.0   -0.22    3.20    1.96    89.17456    29.13154    16.15542
   333  C   4.0    0.02    4.22    4.05    87.00497    29.10228    14.48520
   334  C   4.0    0.07    3.22    3.04    85.21761    31.27408    15.16763
   335  O   6.0   -0.31    1.12    1.80    84.39807    32.73191    13.55797
   336  C   4.0   -0.05    4.35    4.29    85.68151    26.54493    14.64357
   337  C   4.0   -0.02    4.19    3.97    83.36214    26.33965    12.92245
   338  C   4.0   -0.08    4.11    3.81    84.06092    26.61948    10.13624
   339  C   4.0   -0.08    4.11    3.82    82.08210    23.79208    13.36377
   340  H   1.0    0.08    1.02    1.43    89.59322    27.54222    17.14014
   341  H   1.0    0.04    1.05    1.44    87.65627    29.46866    12.54863
   342  H   1.0    0.03    1.03    1.43    87.05128    25.08411    14.14364
   343  H   1.0    0.04    1.03    1.43    85.11093    26.22687    16.60063
   344  H   1.0    0.05    1.05    1.44    82.03561    27.84649    13.42765
   345  H   1.0    0.04    1.00    1.43    82.41621    26.26438     8.95703
   346  H   1.0    0.04    1.00    1.43    84.73280    28.51326     9.71376
   347  H   1.0    0.03    1.00    1.43    85.53608    25.27848     9.63975
   348  H   1.0    0.04    1.00    1.43    80.43409    23.61449    12.15120
   349  H   1.0    0.04    1.00    1.43    83.38877    22.26296    12.93755
   350  H   1.0    0.04    1.00    1.43    81.48732    23.61087    15.32176
   351  N   5.0   -0.20    3.20    1.96    87.76752    37.64470    13.16007
   352  C   4.0    0.03    4.22    4.05    87.64623    37.65302    10.42221
   353  C   4.0    0.09    3.23    3.04    84.99927    38.43686     9.54121
   354  O   6.0   -0.29    1.11    1.80    84.67570    40.13694     7.99896
   355  C   4.0   -0.04    4.33    4.25    88.30343    35.01498     9.41226
   356  C   4.0   -0.01    3.57    3.15    87.96145    34.86713     6.59573
   357  C   4.0   -0.04    3.46    3.10    89.88360    35.61060     4.97037
   358  C   4.0   -0.04    3.47    3.10    85.69941    34.02585     5.56279
   359  C   4.0   -0.04    3.37    3.07    89.55639    35.51223     2.37835
   360  C   4.0   -0.04    3.37    3.07    85.35831    33.94756     2.97135
   361  C   4.0   -0.04    3.37    3.07    87.28910    34.68656     1.36875
   362  H   1.0    0.08    1.03    1.43    88.48212    36.07650    14.00298
   363  H   1.0    0.05    1.05    1.44    88.96733    39.06099     9.65288
   364  H   1.0    0.03    1.03    1.43    90.25523    34.59846     9.93326
   365  H   1.0    0.06    1.04    1.43    87.07130    33.65559    10.34976
   366  H   1.0    0.04    1.03    1.43    91.65660    36.26751     5.74128
   367  H   1.0    0.05    1.03    1.43    84.18948    33.42831     6.79921
   368  H   1.0    0.04    1.03    1.43    91.07489    36.08261     1.13875
   369  H   1.0    0.04    1.03    1.43    83.57699    33.31445     2.20180
   370  H   1.0    0.04    1.03    1.43    87.03471    34.62483    -0.65545
   371  N   5.0   -0.22    3.25    1.97    70.40029    16.17593     4.35971
   372  C   4.0    0.02    4.31    4.22    71.91109    14.43159     2.87816
   373  C   4.0    0.15    3.43    3.09    74.72868    14.97821     3.28681
   374  O   6.0   -0.31    1.24    1.80    76.28719    13.28968     3.59425
   375  C   4.0   -0.05    4.36    4.31    71.17229    14.70699     0.09553
   376  C   4.0   -0.02    4.18    3.95    72.57061    12.92142    -1.70885
   377  C   4.0   -0.08    4.10    3.80    71.68193    10.19753    -1.37463
   378  C   4.0   -0.08    4.10    3.81    72.14380    13.78432    -4.43243
   379  H   1.0    0.07    1.03    1.43    69.32622    17.44736     3.42475
   380  H   1.0    0.04    1.05    1.44    71.56051    12.51343     3.58212
   381  H   1.0    0.03    1.03    1.43    69.13916    14.37359    -0.04587
   382  H   1.0    0.04    1.03    1.43    71.55905    16.66013    -0.44240
   383  H   1.0    0.05    1.05    1.44    74.59232    13.01184    -1.27813
   384  H   1.0    0.04    1.00    1.43    72.63675     8.95789    -2.70502
   385  H   1.0    0.04    1.00    1.43    72.09230     9.52561     0.52296
   386  H   1.0    0.04    1.00    1.43    69.65492    10.06161    -1.68851
   387  H   1.0    0.04    1.00    1.43    73.13553    12.54098    -5.72964
   388  H   1.0    0.04    1.00    1.43    70.13847    13.73503    -4.87688
   389  H   1.0    0.04    1.00    1.43    72.84206    15.69671    -4.70033
   390  N   5.0   -0.15    3.47    2.06    75.34600    17.41961     3.19036
   391  C   4.0    0.03    4.24    4.09    77.92113    18.26446     3.59869
   392  C   4.0    0.08    3.23    3.04    78.81661    17.47274     6.23593
   393  O   6.0   -0.32    1.16    1.80    80.81337    16.33143     6.53862
   394  C   4.0   -0.08    4.10    3.80    78.09736    21.11298     3.25311
   395  H   1.0    0.07    1.07    1.44    73.98899    18.74172     2.89652
   396  H   1.0    0.05    1.05    1.44    79.15358    17.28423     2.24508
   397  H   1.0    0.04    1.00    1.43    80.03129    21.74476     3.53031
   398  H   1.0    0.04    1.00    1.43    77.50584    21.62220     1.35376
   399  H   1.0    0.04    1.00    1.43    76.87430    22.04147     4.61630
   400  N   5.0   -0.20    3.22    1.96    80.65861    10.55539     6.52187
   401  C   4.0    0.03    4.38    4.35    83.06172     9.69227     5.51745
   402  C   4.0    0.15    3.43    3.09    85.26126    10.57393     7.18477
   403  O   6.0   -0.31    1.27    1.80    86.96916     9.11613     7.76803
   404  C   4.0   -0.02    4.24    4.08    83.41745    10.39784     2.71666
   405  C   4.0   -0.07    4.13    3.85    84.08657    13.17396     2.32246
   406  C   4.0   -0.07    4.11    3.82    85.45761     8.71094     1.55955
   407  H   1.0    0.11    1.03    1.43    79.56750    11.76326     5.51811
   408  H   1.0    0.04    1.06    1.44    83.06611     7.61876     5.67355
   409  H   1.0    0.04    1.05    1.44    81.60558    10.01704     1.78771
   410  H   1.0    0.05    1.00    1.43    84.09204    13.60968     0.31607
   411  H   1.0    0.06    1.01    1.43    82.72802    14.39540     3.25725
   412  H   1.0    0.05    1.00    1.43    85.95922    13.58176     3.06208
   413  H   1.0    0.05    1.00    1.43    85.83968     9.29510    -0.37092
   414  H   1.0    0.05    1.00    1.43    87.19040     8.87379     2.65157
   415  H   1.0    0.04    1.00    1.43    84.87538     6.74158     1.55858
   416  N   5.0   -0.15    3.48    2.07    85.22189    12.98703     7.89819
   417  C   4.0    0.04    4.41    4.40    87.32570    14.09703     9.27073
   418  C   4.0    0.09    3.27    3.05    87.62104    12.83247    11.84226
   419  O   6.0   -0.29    1.11    1.80    89.58764    11.84478    12.56329
   420  C   4.0   -0.02    4.27    4.14    86.93345    16.94993     9.61548
   421  C   4.0   -0.07    4.13    3.87    89.03175    18.04816    11.26210
   422  C   4.0   -0.07    4.12    3.84    86.88570    18.26461     7.05251
   423  H   1.0    0.10    1.09    1.44    83.69286    14.07489     7.52836
   424  H   1.0    0.08    1.06    1.44    89.08194    13.75387     8.21833
   425  H   1.0    0.04    1.05    1.44    85.10309    17.23328    10.54475
   426  H   1.0    0.03    1.00    1.43    88.78851    20.07921    11.45300
   427  H   1.0    0.05    1.00    1.43    89.02366    17.23134    13.14759
   428  H   1.0    0.06    1.00    1.43    90.85948    17.67976    10.39783
   429  H   1.0    0.03    1.00    1.43    86.76858    20.29819     7.31314
   430  H   1.0    0.05    1.00    1.43    88.60760    17.84183     6.01463
   431  H   1.0    0.05    1.00    1.43    85.26035    17.65866     5.95640
   432  N   5.0   -0.20    3.21    1.96    88.94415     5.78562    11.64736
   433  C   4.0    0.04    4.14    3.87    91.62461     5.28783    11.32041
   434  C   4.0    0.09    3.20    3.04    92.99448     5.61895    13.85065
   435  O   6.0   -0.29    1.11    1.80    94.51459     4.05909    14.64517
   436  C   4.0   -0.06    4.10    3.81    92.71782     7.06384     9.33867
   437  H   1.0    0.12    1.06    1.44    88.16261     7.13449    10.52550
   438  H   1.0    0.05    1.05    1.44    91.88302     3.30814    10.75105
   439  H   1.0    0.05    1.00    1.43    94.72691     6.70937     9.11788
   440  H   1.0    0.05    1.00    1.43    91.77073     6.75944     7.54349
   441  H   1.0    0.07    1.00    1.43    92.41540     9.01728     9.90167
   442  N   5.0   -0.22    3.14    1.94    84.64649    -7.97614   -13.90527
   443  C   4.0   -0.00    4.15    3.90    84.81756    -5.27418   -13.57596
   444  C   4.0    0.14    3.34    3.06    87.57155    -4.45680   -13.28376
   445  O   6.0   -0.33    1.30    1.80    88.44048    -2.70184   -14.52592
   446  H   1.0    0.07    1.02    1.43    83.68766    -8.93519   -12.55756
   447  H   1.0    0.04    1.02    1.43    84.04107    -4.29580   -15.22602
   448  H   1.0    0.03    1.03    1.43    83.73028    -4.78145   -11.89789
   449  N   5.0   -0.15    3.46    2.05    88.94415    -5.78562   -11.64736
   450  C   4.0    0.03    4.25    4.09    91.62461    -5.28783   -11.32041
   451  C   4.0    0.09    3.24    3.04    92.99448    -5.61895   -13.85065
   452  O   6.0   -0.30    1.12    1.80    94.51459    -4.05909   -14.64517
   453  C   4.0   -0.08    4.10    3.81    92.71782    -7.06384    -9.33867
   454  H   1.0    0.07    1.06    1.44    88.16261    -7.13449   -10.52550
   455  H   1.0    0.05    1.05    1.44    91.88302    -3.30814   -10.75105
   456  H   1.0    0.04    1.00    1.43    94.72691    -6.70937    -9.11788
   457  H   1.0    0.04    1.00    1.43    91.77073    -6.75944    -7.54349
   458  H   1.0    0.04    1.00    1.43    92.41540    -9.01728    -9.90167
   459  N   5.0   -0.20    3.24    1.97    90.78431    -5.36980   -19.56795
   460  C   4.0    0.03    4.34    4.27    90.03955    -3.29894   -21.19684
   461  C   4.0    0.16    3.47    3.10    91.57573    -0.94931   -20.53135
   462  O   6.0   -0.31    1.29    1.80    92.64868     0.34341   -22.12853
   463  C   4.0   -0.04    4.34    4.27    87.20936    -2.76148   -20.89176
   464  C   4.0   -0.01    3.57    3.15    86.29791    -0.95427   -22.88483
   465  C   4.0   -0.05    3.47    3.10    86.08139    -1.74675   -25.37939
   466  C   4.0   -0.04    3.46    3.10    85.68229     1.52029   -22.27935
   467  C   4.0   -0.05    3.37    3.07    85.27170    -0.09269   -27.23384
   468  C   4.0   -0.05    3.38    3.07    84.85708     3.17209   -24.13313
   469  C   4.0   -0.05    3.37    3.07    84.65407     2.37376   -26.61546
   470  H   1.0    0.08    1.03    1.43    89.39489    -6.25485   -18.58282
   471  H   1.0    0.04    1.05    1.44    90.46381    -3.78304   -23.17153
   472  H   1.0    0.04    1.03    1.43    86.20087    -4.55555   -21.04206
   473  H   1.0    0.05    1.03    1.43    86.87783    -1.99742   -19.00545
   474  H   1.0    0.04    1.03    1.43    86.54138    -3.67623   -25.86183
   475  H   1.0    0.05    1.03    1.43    85.84661     2.15024   -20.34562
   476  H   1.0    0.04    1.03    1.43    85.11506    -0.73263   -29.16422
   477  H   1.0    0.04    1.03    1.43    84.37519     5.08928   -23.63297
   478  H   1.0    0.04    1.03    1.43    84.01337     3.66063   -28.06272
   479  N   5.0   -0.14    3.50    2.08    91.65135    -0.40730   -18.07729
   480  C   4.0    0.05    4.37    4.33    93.04991     1.76803   -17.21104
   481  C   4.0    0.10    3.30    3.05    95.68223     1.77669   -18.40569
   482  O   6.0   -0.29    1.12    1.80    96.52341     3.67801   -19.42752
   483  C   4.0   -0.03    4.30    4.20    93.22476     1.81145   -14.33191
   484  C   4.0    0.16    3.24    3.04    94.05534     4.43425   -13.47630
   485  O   6.0   -0.30    1.22    1.80    92.96615     6.33299   -14.19253
   486  N   5.0   -0.19    3.18    1.95    95.99664     4.48878   -11.85393
   487  H   1.0    0.12    1.11    1.45    90.68928    -1.44928   -16.78513
   488  H   1.0    0.06    1.06    1.44    92.11621     3.51349   -17.85231
   489  H   1.0    0.05    1.03    1.43    91.33591     1.45827   -13.57288
   490  H   1.0    0.06    1.03    1.43    94.49067     0.32526   -13.68583
   491  H   1.0    0.09    1.03    1.43    96.67752     6.18442   -11.31666
   492  H   1.0    0.08    1.03    1.43    96.96894     2.92448   -11.39199
   493  N   5.0   -0.20    3.22    1.96    96.22830     3.44641   -25.36821
   494  C   4.0    0.03    4.31    4.21    95.94360     6.15190   -25.70075
   495  C   4.0    0.08    3.25    3.04    98.42932     7.43313   -24.99367
   496  O   6.0   -0.30    1.11    1.80    99.55908     8.86263   -26.42923
   497  C   4.0   -0.02    4.32    4.23    93.75466     7.18371   -24.10262
   498  C   4.0   -0.05    4.17    3.95    91.19842     6.04688   -24.87896
   499  C   4.0   -0.07    4.13    3.87    93.73179    10.06930   -24.23276
   500  C   4.0   -0.08    4.01    3.64    90.38546     6.58283   -27.59003
   501  H   1.0    0.12    1.05    1.44    95.12896     2.57985   -24.06465
   502  H   1.0    0.05    1.05    1.44    95.64045     6.55262   -27.71293
   503  H   1.0    0.06    1.06    1.44    94.11016     6.61726   -22.14296
   504  H   1.0    0.06    1.03    1.43    91.23651     4.00688   -24.58213
   505  H   1.0    0.04    1.03    1.43    89.77682     6.81113   -23.59622
   506  H   1.0    0.04    1.00    1.43    92.11373    10.80882   -23.21064
   507  H   1.0    0.05    1.00    1.43    95.43315    10.84516   -23.38142
   508  H   1.0    0.04    1.00    1.43    93.64146    10.71311   -26.17991
   509  H   1.0    0.04    1.00    1.43    88.52802     5.77142   -27.91890
   510  H   1.0    0.04    1.00    1.43    90.28029     8.59995   -27.95313
   511  H   1.0    0.04    1.00    1.43    91.67589     5.74011   -28.94685
   512  N   5.0   -0.22    3.25    1.97   113.84546    37.65341    -2.39822
   513  C   4.0    0.02    4.29    4.18   113.27605    35.01485    -2.92135
   514  C   4.0    0.15    3.43    3.09   110.43015    34.58146    -2.62233
   515  O   6.0   -0.32    1.30    1.80   109.25517    33.17232    -4.04648
   516  C   4.0   -0.05    4.34    4.28   114.84832    33.34693    -1.13950
   517  C   4.0   -0.03    4.17    3.93   115.44877    30.69664    -2.15260
   518  C   4.0   -0.08    4.10    3.81   117.61795    29.58452    -0.59708
   519  C   4.0   -0.07    4.10    3.80   113.14813    28.96045    -2.08056
   520  H   1.0    0.07    1.03    1.43   115.45935    38.05420    -1.46042
   521  H   1.0    0.04    1.05    1.44   113.75255    34.56263    -4.89266
   522  H   1.0    0.03    1.04    1.43   116.65623    34.30108    -0.85872
   523  H   1.0    0.05    1.03    1.43   113.91118    33.20598     0.69327
   524  H   1.0    0.03    1.05    1.44   116.08401    30.88759    -4.11618
   525  H   1.0    0.04    1.00    1.43   118.04748    27.68149    -1.23233
   526  H   1.0    0.03    1.00    1.43   119.31435    30.72391    -0.81221
   527  H   1.0    0.04    1.00    1.43   117.13713    29.53512     1.39959
   528  H   1.0    0.04    1.00    1.43   113.68949    27.06851    -2.66245
   529  H   1.0    0.05    1.00    1.43   112.36833    28.91650    -0.18141
   530  H   1.0    0.06    1.01    1.43   111.69987    29.62980    -3.37224
   531  N   5.0   -0.14    3.46    2.05   109.29968    35.75295    -0.69718
   532  C   4.0    0.04    4.36    4.31   106.57837    35.53455    -0.39037
   533  C   4.0    0.09    3.29    3.05   105.20599    36.16912    -2.85996
   534  O   6.0   -0.31    1.18    1.80   103.70554    34.69890    -3.84477
   535  C   4.0   -0.04    4.32    4.23   105.67521    37.25120     1.75506
   536  C   4.0   -0.01    3.58    3.15   102.83217    37.39680     1.85048
   537  C   4.0   -0.03    3.48    3.11   101.36916    35.22027     1.99155
   538  C   4.0   -0.05    3.46    3.10   101.62714    39.72710     1.78084
   539  C   4.0   -0.04    3.38    3.07    98.75909    35.37267     2.03568
   540  C   4.0   -0.05    3.37    3.07    99.01708    39.88446     1.86043
   541  C   4.0   -0.05    3.37    3.07    97.57454    37.70541     1.98099
   542  H   1.0    0.08    1.06    1.44   110.24840    36.94514     0.47222
   543  H   1.0    0.06    1.06    1.44   106.12470    33.56274     0.05113
   544  H   1.0    0.05    1.03    1.43   106.42586    36.49143     3.52231
   545  H   1.0    0.04    1.03    1.43   106.45854    39.14032     1.49731
   546  H   1.0    0.06    1.03    1.43   102.25953    33.38823     2.06016
   547  H   1.0    0.04    1.03    1.43   102.74101    41.43328     1.67675
   548  H   1.0    0.05    1.03    1.43    97.65766    33.65713     2.10743
   549  H   1.0    0.04    1.03    1.43    98.11521    41.71380     1.81824
   550  H   1.0    0.04    1.03    1.43    95.53970    37.83027     2.03894
   551  N   5.0   -0.20    3.26    1.97   105.74804    31.64088    -8.18285
   552  C   4.0    0.03    4.28    4.16   104.22752    29.36805    -8.08330
   553  C   4.0    0.15    3.41    3.08   101.53307    29.87794    -8.98978
   554  O   6.0   -0.32    1.26    1.80   100.23263    28.17554    -9.88347
   555  C   4.0    0.04    4.14    3.88   104.27447    28.22675    -5.41981
   556  O   6.0   -0.26    2.05    1.83   102.85249    29.50658    -3.60111
   557  H   1.0    0.12    1.05    1.44   106.76884    32.16333    -6.64496
   558  H   1.0    0.04    1.05    1.44   105.04377    27.98570    -9.40968
   559  H   1.0    0.04    1.02    1.43   103.49180    26.31843    -5.54132
   560  H   1.0    0.04    1.01    1.43   106.27845    28.10872    -4.87289
   561  H   1.0    0.15    1.06    1.44   103.16490    31.32610    -3.68454
   562  N   5.0   -0.14    3.50    2.08   100.68671    32.21896    -8.62430
   563  C   4.0    0.03    4.40    4.39    98.24982    33.06200    -9.54089
   564  C   4.0    0.08    3.24    3.04    98.28423    33.19867   -12.43106
   565  O   6.0   -0.31    1.13    1.80    96.55207    32.34212   -13.71353
   566  C   4.0   -0.03    4.25    4.11    97.52711    35.61049    -8.34871
   567  C   4.0   -0.08    4.12    3.84    94.96556    36.48382    -9.35221
   568  C   4.0   -0.07    4.12    3.84    97.45372    35.37051    -5.47148
   569  H   1.0    0.09    1.08    1.44   101.86641    33.53615    -7.90283
   570  H   1.0    0.05    1.06    1.44    96.85103    31.62013    -9.02607
   571  H   1.0    0.04    1.05    1.44    98.97595    36.97964    -8.90064
   572  H   1.0    0.04    1.00    1.43    94.48489    38.30729    -8.54396
   573  H   1.0    0.05    1.00    1.43    95.00118    36.65817   -11.39843
   574  H   1.0    0.04    1.00    1.43    93.50670    35.12892    -8.84508
   575  H   1.0    0.04    1.00    1.43    96.83674    37.14025    -4.63329
   576  H   1.0    0.04    1.00    1.43    96.13780    33.89287    -4.91791
   577  H   1.0    0.06    1.00    1.43    99.29683    34.89297    -4.70194
   578  N   5.0   -0.20    3.22    1.96    97.61401    26.85677   -14.50726
   579  C   4.0    0.03    4.22    4.03    94.97537    26.13057   -14.31903
   580  C   4.0    0.08    3.22    3.04    93.55226    26.90710   -16.71445
   581  O   6.0   -0.32    1.15    1.80    92.09498    25.46659   -17.80262
   582  C   4.0   -0.03    4.33    4.26    93.86525    27.40620   -11.96353
   583  C   4.0   -0.02    3.56    3.14    91.12076    26.81705   -11.54189
   584  C   4.0   -0.05    3.46    3.10    90.40303    24.91929    -9.87891
   585  C   4.0   -0.04    3.47    3.10    89.25634    28.20213   -12.76750
   586  C   4.0   -0.05    3.38    3.07    87.87264    24.40037    -9.46198
   587  C   4.0   -0.05    3.37    3.07    86.72695    27.69750   -12.34075
   588  C   4.0   -0.05    3.37    3.07    86.02713    25.79487   -10.68516
   589  H   1.0    0.12    1.06    1.44    98.43238    27.65047   -12.96480
   590  H   1.0    0.04    1.05    1.44    94.82664    24.06197   -14.16913
   591  H   1.0    0.05    1.03    1.43    94.99727    26.77551   -10.35594
   592  H   1.0    0.06    1.05    1.44    94.12699    29.43837   -12.19492
   593  H   1.0    0.05    1.03    1.43    91.84770    23.86622    -8.89112
   594  H   1.0    0.05    1.03    1.43    89.80713    29.70127   -14.03818
   595  H   1.0    0.05    1.03    1.43    87.35911    22.90040    -8.18064
   596  H   1.0    0.04    1.03    1.43    85.30819    28.80911   -13.29386
   597  H   1.0    0.04    1.03    1.43    84.05455    25.41429   -10.33659
   598  N   5.0   -0.21    3.24    1.97    95.55936    23.15960   -22.58793
   599  C   4.0    0.03    4.39    4.36    94.85757    20.51237   -22.49973
   600  C   4.0    0.15    3.45    3.09    92.04225    20.26293   -23.14679
   601  O   6.0   -0.32    1.26    1.80    91.25792    18.46914   -24.38709
   602  C   4.0   -0.02    4.31    4.21    95.62712    19.23355   -19.99892
   603  C   4.0   -0.05    4.18    3.96    96.10892    16.41107   -20.45495
   604  C   4.0   -0.07    4.15    3.90    93.64920    19.62146   -17.94301
   605  C   4.0   -0.08    4.01    3.65    97.09370    15.03158   -18.12427
   606  H   1.0    0.09    1.02    1.43    96.09208    24.03218   -20.97230
   607  H   1.0    0.04    1.06    1.44    95.85525    19.56567   -24.05844
   608  H   1.0    0.04    1.05    1.44    97.39627    20.13667   -19.39845
   609  H   1.0    0.05    1.03    1.43    94.35044    15.54528   -21.09633
   610  H   1.0    0.04    1.03    1.43    97.49705    16.21283   -21.96874
   611  H   1.0    0.04    1.00    1.43    94.37941    18.98682   -16.13362
   612  H   1.0    0.06    1.02    1.43    93.17624    21.60878   -17.77331
   613  H   1.0    0.05    1.01    1.43    91.94267    18.56219   -18.38047
   614  H   1.0    0.04    1.00    1.43    97.64996    13.12007   -18.62776
   615  H   1.0    0.04    1.00    1.43    98.73268    16.01142   -17.35743
   616  H   1.0    0.04    1.00    1.43    95.65733    14.91586   -16.66423
   617  N   5.0   -0.14    3.49    2.07    90.55775    22.15761   -22.39692
   618  C   4.0    0.04    4.25    4.11    87.92439    22.24577   -23.16089
   619  C   4.0    0.09    3.25    3.04    87.81293    22.35192   -26.04979
   620  O   6.0   -0.30    1.12    1.80    86.46602    20.94547   -27.30324
   621  C   4.0   -0.08    4.10    3.81    86.64046    24.54714   -22.01179
   622  H   1.0    0.10    1.08    1.44    91.16832    23.49840   -21.17789
   623  H   1.0    0.05    1.05    1.44    86.98664    20.49575   -22.55987
   624  H   1.0    0.04    1.00    1.43    84.68353    24.64402   -22.62265
   625  H   1.0    0.04    1.00    1.43    86.70157    24.40821   -19.96673
   626  H   1.0    0.05    1.00    1.43    87.61461    26.26214   -22.58574
   627  N   5.0   -0.20    3.21    1.96    89.17456    16.15542   -29.13154
   628  C   4.0    0.03    4.22    4.05    87.00497    14.48520   -29.10228
   629  C   4.0    0.08    3.22    3.04    85.21761    15.16763   -31.27408
   630  O   6.0   -0.30    1.11    1.80    84.39807    13.55797   -32.73191
   631  C   4.0   -0.04    4.35    4.29    85.68151    14.64357   -26.54493
   632  C   4.0   -0.02    4.19    3.97    83.36214    12.92245   -26.33965
   633  C   4.0   -0.08    4.11    3.81    84.06092    10.13624   -26.61948
   634  C   4.0   -0.08    4.11    3.82    82.08210    13.36377   -23.79208
   635  H   1.0    0.12    1.05    1.44    89.59322    17.14014   -27.54222
   636  H   1.0    0.04    1.05    1.44    87.65627    12.54863   -29.46866
   637  H   1.0    0.04    1.03    1.43    87.05128    14.14364   -25.08411
   638  H   1.0    0.06    1.03    1.43    85.11093    16.60063   -26.22687
   639  H   1.0    0.05    1.05    1.44    82.03561    13.42765   -27.84649
   640  H   1.0    0.04    1.00    1.43    82.41621     8.95703   -26.26438
   641  H   1.0    0.04    1.00    1.43    84.73280     9.71376   -28.51326
   642  H   1.0    0.03    1.00    1.43    85.53608     9.63975   -25.27848
   643  H   1.0    0.04    1.00    1.43    80.43409    12.15120   -23.61449
   644  H   1.0    0.04    1.00    1.43    83.38877    12.93755   -22.26296
   645  H   1.0    0.04    1.00    1.43    81.48732    15.32176   -23.61087
   646  H   1.0    0.08    1.07    1.44    64.48959    -0.91558   -22.32943
   647  H   1.0    0.07    1.05    1.44   103.73864    30.08020    11.64060
   648  H   1.0    0.10    1.07    1.44   107.67404    26.77419    14.18979
   649  H   1.0    0.07    1.05    1.44   111.88142    30.58957    11.29127
   650  H   1.0    0.09    1.07    1.44    90.57881    29.46622    15.25619
   651  H   1.0    0.05    1.05    1.44    84.68869    31.53380    16.96314
   652  H   1.0    0.09    1.07    1.44    88.74836    38.92959    13.68881
   653  H   1.0    0.06    1.05    1.44    83.47537    37.55432    10.22672
   654  H   1.0    0.09    1.07    1.44    69.30826    15.30132     5.32672
   655  H   1.0    0.05    1.04    1.44    77.76792    17.88463     7.75305
   656  H   1.0    0.09    1.07    1.44    79.64155     9.21853     6.78820
   657  H   1.0    0.05    1.05    1.44    86.16206    12.77910    13.04209
   658  H   1.0    0.09    1.07    1.44    88.06093     4.36601    11.33561
   659  H   1.0    0.06    1.05    1.44    92.66068     7.14564    14.91312
   660  H   1.0    0.09    1.07    1.44    83.85899    -8.32046   -15.37288
   661  H   1.0    0.05    1.05    1.44    92.66068    -7.14564   -14.91312
   662  H   1.0    0.09    1.07    1.44    91.52550    -6.58551   -20.49813
   663  H   1.0    0.06    1.05    1.44    96.74546     0.21510   -18.36057
   664  H   1.0    0.09    1.07    1.44    95.88177     2.65479   -26.83307
   665  H   1.0    0.06    1.05    1.44    99.20422     7.12146   -23.29855
   666  H   1.0    0.09    1.07    1.44   113.96238    38.51014    -3.86277
   667  H   1.0    0.05    1.05    1.44   105.52164    37.82278    -3.71834
   668  H   1.0    0.09    1.07    1.44   106.90377    31.49691    -9.42225
   669  H   1.0    0.05    1.05    1.44    99.74467    34.00177   -13.32168
   670  H   1.0    0.09    1.07    1.44    98.55689    25.48497   -14.85611
   671  H   1.0    0.06    1.05    1.44    93.79600    28.63486   -17.44008
   672  H   1.0    0.09    1.07    1.44    96.88277    23.36144   -23.63693
   673  H   1.0    0.05    1.05    1.44    88.86739    23.60655   -26.99057
   674  H   1.0    0.09    1.07    1.44    90.57881    15.25619   -29.46622
   675  H   1.0    0.06    1.05    1.44    84.68869    16.96314   -31.53380

  Z AO/shell   Hii/eV     exponent
  1     Wed Apr 25 08:07:45 CEST 2018   EN: 2.200 GM2: 0.406  GM3: 0.0800  RAES: 1.40
     1s    -10.707211    1.230000
  6     Wed Apr 25 08:07:45 CEST 2018   EN: 2.550 GM2: 0.538  GM3: 0.1500  RAES: 3.00
     2s    -13.970922    2.096432
     2p    -10.063292    1.800000
  7     Wed Apr 25 08:07:45 CEST 2018   EN: 3.040 GM2: 0.461  GM3:-0.0640  RAES: 1.90
     2s    -16.686243    2.339881
     2p    -12.523956    2.014332
  8     Wed Apr 25 08:07:45 CEST 2018   EN: 3.440 GM2: 0.452  GM3:-0.0517  RAES: 1.80
     2s    -20.229985    2.439742
     2p    -15.503117    2.137023
 16     Tue Apr 24 11:44:34 CEST 2018   EN: 2.580 GM2: 0.340  GM3:-0.0502  RAES: 3.10
     3s    -20.029654    1.981333
     3p    -11.377694    2.025643
     3d     -0.420282    1.702555
 no old-style atom pair restraining (fixing) potential

molecular fragmentation (1/2 indicates fragments):
111111111111111111111111111111111111111111111111111111111111111111111111
111111111111111111111111111111111111111111111111111111111111111111111111
111111111111111111111111111111111111111111111111111111111111111111111111
111111111111111111111111111111111111111111111111111111111111111111111111
111111111111111111111111111122222222222222222222222222222222222222222222
222222222222222222222222222222222222222222222222222222222222222222222222
222222222222222222222222222222222222222222222222222222222222222222222222
222222222222222222222222222222222222222222222222222222222222222222222222
222222222222222222222222222222222222222222222222222222222222222222222112
222222222222222222222222222
# atoms in fragment 1/2:   318   357
 fragment masses (1/2) :     2145.68     2263.93
CMA distance (Bohr)    :   6.348
constraining FC (au)   :  0.0500
           ------------------------------------------------- 
          |        Self-Consistent Charge Iterations        |
           ------------------------------------------------- 

 Ncao       : 1614
 Nao        : 1612
 Nshell     : 986
 Nel        : 1752
 T(el)      :   500.0
 intcut     :    35.0
 scfconv/Eh :  0.100E-06
   qconv/e  :  0.100E-04
 intneglect :  0.100E-08
 broydamp   :      0.400
 iter      E             dE          RMSdq      gap      omega  full diag
   1   -992.9552979 -0.992955E+03  0.441E+00    3.00       0.0  T
   2   -995.0988821 -0.214358E+01  0.211E+00    1.80       1.0  T
   3   -995.2247048 -0.125823E+00  0.121E+00    1.91       1.0  T
   4   -995.3951428 -0.170438E+00  0.227E-01    1.28       1.0  T
   5   -995.4031045 -0.796163E-02  0.107E-01    1.52       1.0  T
   6   -995.4044185 -0.131405E-02  0.474E-02    1.51       1.0  T
   7   -995.4048233 -0.404790E-03  0.201E-02    1.51       1.0  T
   8   -995.4048685 -0.452194E-04  0.926E-03    1.51       1.0  T
   9   -995.4048824 -0.138969E-04  0.420E-03    1.51       1.0  T
  10   -995.4048848 -0.235765E-05  0.187E-03    1.51       2.1  T
  11   -995.4048852 -0.414595E-06  0.912E-04    1.51       4.2  T
  12   -995.4048853 -0.896731E-07  0.441E-04    1.51       8.7  T
  13   -995.4048853 -0.385959E-07  0.237E-04    1.51      16.2  T
  14   -995.4048853 -0.659327E-08  0.105E-04    1.51      36.5  T
  15   -995.4048853 -0.166960E-08  0.416E-05    1.52      92.6  T
  16   -995.4048853 -0.249770E-09  0.169E-05    1.52     227.5  T
speedup  1.94
cpu  time for SCC    1 m  5.5 s
wall time for SCC    0 m 33.7 s

   *** convergence criteria satisfied after 16 iterations ***

          eigenvalues
 #    :         864        865        866        867        868        869        870        871
 occ. :        2.000      2.000      2.000      2.000      2.000      2.000      2.000      2.000
 eps  :       -10.089    -10.018     -9.924     -9.901     -9.805     -9.784     -9.691     -9.658
 #    :         872        873        874        875        876        877        878        879
 occ. :        2.000      2.000      2.000      2.000      2.000      0.000      0.000      0.000
 eps  :        -9.657     -9.596     -9.556     -9.545     -9.544     -8.028     -7.952     -7.823
 #    :         880        881        882        883        884        885        886        887
 occ. :        0.000      0.000      0.000      0.000      0.000      0.000      0.000      0.000
 eps  :        -7.699     -7.661     -7.627     -7.531     -7.493     -7.458     -7.453     -7.438


   #   Z            q   n(s)   n(p)   n(d)      C6AA      α(0)
   1   7 N     -0.400  1.316  4.084  0.000    30.381     8.186
   2   6 C      0.024  1.064  2.911  0.000    20.175     6.397
   3   6 C      0.265  1.051  2.684  0.000    22.525     7.772
   4   8 O     -0.506  1.744  4.763  0.000    23.925     6.558
   5   6 C     -0.020  1.065  2.955  0.000    20.891     6.501
   6   6 C     -0.114  1.039  3.075  0.000    22.743     6.799
   7   6 C     -0.116  1.039  3.076  0.000    22.766     6.803
   8   1 H      0.171  0.829  0.000  0.000     1.267     1.763
   9   1 H      0.042  0.958  0.000  0.000     2.421     2.433
  10   1 H      0.043  0.957  0.000  0.000     2.410     2.428
  11   1 H      0.053  0.947  0.000  0.000     2.286     2.365
  12   1 H      0.032  0.968  0.000  0.000     2.562     2.503
  13   1 H      0.043  0.957  0.000  0.000     2.415     2.430
  14   1 H      0.053  0.947  0.000  0.000     2.280     2.361
  15   1 H      0.045  0.955  0.000  0.000     2.379     2.412
  16   1 H      0.044  0.956  0.000  0.000     2.393     2.419
  17   7 N     -0.170  1.248  3.922  0.000    24.673     7.377
  18   6 C      0.016  1.063  2.922  0.000    20.320     6.419
  19   6 C      0.290  1.039  2.671  0.000    22.078     7.694
  20   8 O     -0.488  1.737  4.751  0.000    23.526     6.503
  21   6 C     -0.086  1.066  3.020  0.000    22.137     6.697
  22   6 C     -0.008  1.054  2.953  0.000    20.684     6.469
  23   6 C     -0.119  1.040  3.078  0.000    22.832     6.813
  24   6 C     -0.119  1.043  3.076  0.000    22.831     6.813
  25   1 H      0.231  0.769  0.000  0.000     0.960     1.535
  26   1 H      0.083  0.917  0.000  0.000     1.949     2.183
  27   1 H      0.077  0.923  0.000  0.000     2.005     2.214
  28   1 H      0.055  0.945  0.000  0.000     2.261     2.352
  29   1 H      0.020  0.980  0.000  0.000     2.731     2.584
  30   1 H      0.046  0.954  0.000  0.000     2.365     2.405
  31   1 H      0.036  0.964  0.000  0.000     2.499     2.472
  32   1 H      0.055  0.945  0.000  0.000     2.262     2.352
  33   1 H      0.045  0.955  0.000  0.000     2.388     2.417
  34   1 H      0.055  0.945  0.000  0.000     2.262     2.352
  35   1 H      0.037  0.963  0.000  0.000     2.490     2.467
  36   7 N     -0.188  1.248  3.940  0.000    25.070     7.436
  37   6 C      0.045  1.053  2.902  0.000    19.816     6.338
  38   6 C      0.285  1.041  2.674  0.000    22.177     7.712
  39   8 O     -0.508  1.744  4.764  0.000    23.959     6.563
  40   6 C     -0.104  1.073  3.032  0.000    22.490     6.751
  41   6 C      0.376  1.019  2.604  0.000    20.626     7.432
  42   8 O     -0.644  1.774  4.870  0.000    27.229     6.996
  43   8 O     -0.630  1.769  4.860  0.000    26.857     6.948
  44   1 H      0.208  0.792  0.000  0.000     1.066     1.618
  45   1 H      0.058  0.942  0.000  0.000     2.225     2.333
  46   1 H      0.046  0.954  0.000  0.000     2.374     2.409
  47   1 H      0.031  0.969  0.000  0.000     2.579     2.511
  48   7 N     -0.182  1.249  3.933  0.000    24.936     7.417
  49   6 C      0.030  1.060  2.909  0.000    20.069     6.379
  50   6 C      0.278  1.043  2.680  0.000    22.303     7.733
  51   8 O     -0.501  1.740  4.761  0.000    23.810     6.542
  52   6 C     -0.080  1.061  3.019  0.000    22.027     6.681
  53   6 C     -0.009  1.055  2.954  0.000    20.697     6.471
  54   6 C     -0.116  1.040  3.076  0.000    22.777     6.805
  55   6 C     -0.120  1.043  3.077  0.000    22.853     6.816
  56   1 H      0.211  0.789  0.000  0.000     1.052     1.607
  57   1 H      0.058  0.942  0.000  0.000     2.225     2.333
  58   1 H      0.056  0.944  0.000  0.000     2.251     2.346
  59   1 H      0.070  0.930  0.000  0.000     2.083     2.257
  60   1 H      0.030  0.970  0.000  0.000     2.580     2.512
  61   1 H      0.053  0.947  0.000  0.000     2.288     2.365
  62   1 H      0.026  0.974  0.000  0.000     2.639     2.540
  63   1 H      0.044  0.956  0.000  0.000     2.391     2.418
  64   1 H      0.055  0.945  0.000  0.000     2.264     2.353
  65   1 H      0.049  0.951  0.000  0.000     2.331     2.387
  66   1 H      0.044  0.956  0.000  0.000     2.395     2.420
  67   7 N     -0.188  1.251  3.937  0.000    25.073     7.437
  68   6 C      0.030  1.058  2.912  0.000    20.076     6.380
  69   6 C      0.276  1.043  2.680  0.000    22.327     7.738
  70   8 O     -0.495  1.735  4.759  0.000    23.667     6.523
  71   6 C     -0.132  1.042  3.090  0.000    23.086     6.851
  72   1 H      0.230  0.770  0.000  0.000     0.966     1.540
  73   1 H      0.072  0.928  0.000  0.000     2.061     2.245
  74   1 H      0.070  0.930  0.000  0.000     2.081     2.256
  75   1 H      0.074  0.926  0.000  0.000     2.042     2.234
  76   1 H      0.070  0.930  0.000  0.000     2.088     2.260
  77   7 N     -0.187  1.252  3.935  0.000    25.058     7.435
  78   6 C      0.027  1.064  2.909  0.000    20.117     6.385
  79   6 C      0.287  1.041  2.671  0.000    22.129     7.704
  80   8 O     -0.500  1.730  4.770  0.000    23.776     6.538
  81   6 C     -0.019  1.064  2.955  0.000    20.877     6.499
  82   6 C     -0.067  1.051  3.016  0.000    21.783     6.644
  83   6 C     -0.114  1.038  3.076  0.000    22.740     6.799
  84   6 C     -0.103  1.035  3.068  0.000    22.530     6.769
  85   1 H      0.226  0.774  0.000  0.000     0.985     1.554
  86   1 H      0.066  0.934  0.000  0.000     2.135     2.285
  87   1 H      0.033  0.967  0.000  0.000     2.539     2.492
  88   1 H      0.053  0.947  0.000  0.000     2.288     2.366
  89   1 H      0.048  0.952  0.000  0.000     2.343     2.394
  90   1 H      0.059  0.941  0.000  0.000     2.211     2.325
  91   1 H      0.025  0.975  0.000  0.000     2.658     2.550
  92   1 H      0.057  0.943  0.000  0.000     2.239     2.340
  93   1 H      0.049  0.951  0.000  0.000     2.328     2.386
  94   1 H      0.020  0.980  0.000  0.000     2.737     2.587
  95   1 H      0.047  0.953  0.000  0.000     2.359     2.402
  96   7 N     -0.190  1.253  3.937  0.000    25.120     7.444
  97   6 C      0.038  1.055  2.907  0.000    19.933     6.357
  98   6 C      0.280  1.042  2.678  0.000    22.266     7.728
  99   8 O     -0.499  1.736  4.763  0.000    23.760     6.535
 100   6 C     -0.122  1.040  3.082  0.000    22.886     6.821
 101   1 H      0.219  0.781  0.000  0.000     1.014     1.577
 102   1 H      0.053  0.947  0.000  0.000     2.283     2.363
 103   1 H      0.061  0.939  0.000  0.000     2.187     2.313
 104   1 H      0.054  0.946  0.000  0.000     2.272     2.357
 105   1 H      0.071  0.929  0.000  0.000     2.072     2.251
 106   7 N     -0.175  1.246  3.930  0.000    24.795     7.395
 107   6 C      0.019  1.066  2.914  0.000    20.245     6.405
 108   6 C      0.277  1.042  2.681  0.000    22.312     7.735
 109   8 O     -0.494  1.735  4.759  0.000    23.646     6.520
 110   6 C     -0.020  1.063  2.957  0.000    20.903     6.503
 111   6 C     -0.122  1.038  3.084  0.000    22.892     6.822
 112   6 C     -0.121  1.041  3.080  0.000    22.862     6.817
 113   1 H      0.214  0.786  0.000  0.000     1.039     1.597
 114   1 H      0.072  0.928  0.000  0.000     2.067     2.248
 115   1 H      0.051  0.949  0.000  0.000     2.308     2.376
 116   1 H      0.056  0.944  0.000  0.000     2.247     2.344
 117   1 H      0.048  0.952  0.000  0.000     2.340     2.392
 118   1 H      0.043  0.957  0.000  0.000     2.412     2.429
 119   1 H      0.059  0.941  0.000  0.000     2.209     2.324
 120   1 H      0.048  0.952  0.000  0.000     2.348     2.396
 121   1 H      0.051  0.949  0.000  0.000     2.306     2.375
 122   7 N     -0.179  1.249  3.931  0.000    24.881     7.408
 123   6 C      0.018  1.064  2.918  0.000    20.266     6.409
 124   6 C      0.280  1.043  2.677  0.000    22.260     7.727
 125   8 O     -0.486  1.732  4.754  0.000    23.473     6.496
 126   6 C     -0.011  1.060  2.951  0.000    20.728     6.475
 127   6 C     -0.108  1.037  3.071  0.000    22.625     6.782
 128   6 C     -0.111  1.039  3.073  0.000    22.685     6.791
 129   1 H      0.222  0.778  0.000  0.000     1.000     1.567
 130   1 H      0.091  0.909  0.000  0.000     1.873     2.140
 131   1 H      0.031  0.969  0.000  0.000     2.570     2.507
 132   1 H      0.045  0.955  0.000  0.000     2.383     2.414
 133   1 H      0.037  0.963  0.000  0.000     2.484     2.464
 134   1 H      0.055  0.945  0.000  0.000     2.258     2.350
 135   1 H      0.047  0.953  0.000  0.000     2.357     2.401
 136   1 H      0.045  0.955  0.000  0.000     2.378     2.411
 137   1 H      0.051  0.949  0.000  0.000     2.310     2.377
 138   7 N     -0.195  1.249  3.945  0.000    25.228     7.460
 139   6 C      0.027  1.055  2.918  0.000    20.113     6.385
 140   6 C      0.267  1.044  2.689  0.000    22.500     7.768
 141   8 O     -0.485  1.727  4.758  0.000    23.461     6.494
 142   6 C     -0.067  1.051  3.016  0.000    21.770     6.640
 143   6 C     -0.016  1.065  2.951  0.000    20.866     6.505
 144  16 S     -0.215  1.920  4.242  0.053   150.236    20.630
 145   6 C     -0.063  1.055  3.009  0.000    21.791     6.659
 146   1 H      0.223  0.777  0.000  0.000     0.997     1.564
 147   1 H      0.088  0.912  0.000  0.000     1.901     2.156
 148   1 H      0.055  0.945  0.000  0.000     2.259     2.351
 149   1 H      0.068  0.932  0.000  0.000     2.108     2.270
 150   1 H      0.052  0.948  0.000  0.000     2.292     2.367
 151   1 H      0.063  0.937  0.000  0.000     2.166     2.301
 152   1 H      0.077  0.923  0.000  0.000     2.007     2.216
 153   1 H      0.061  0.939  0.000  0.000     2.184     2.311
 154   1 H      0.050  0.950  0.000  0.000     2.314     2.379
 155   7 N     -0.167  1.239  3.928  0.000    24.612     7.368
 156   6 C     -0.027  1.049  2.977  0.000    21.115     6.554
 157   6 C      0.274  1.040  2.687  0.000    22.371     7.745
 158   8 O     -0.486  1.730  4.756  0.000    23.470     6.495
 159   1 H      0.212  0.788  0.000  0.000     1.047     1.603
 160   1 H      0.088  0.912  0.000  0.000     1.895     2.153
 161   1 H      0.092  0.908  0.000  0.000     1.863     2.135
 162   7 N     -0.180  1.251  3.929  0.000    24.904     7.412
 163   6 C      0.023  1.060  2.917  0.000    20.191     6.398
 164   6 C      0.274  1.043  2.683  0.000    22.364     7.744
 165   8 O     -0.493  1.736  4.757  0.000    23.633     6.518
 166   6 C     -0.137  1.043  3.094  0.000    23.189     6.866
 167   1 H      0.228  0.772  0.000  0.000     0.973     1.545
 168   1 H      0.074  0.926  0.000  0.000     2.039     2.233
 169   1 H      0.075  0.925  0.000  0.000     2.036     2.232
 170   1 H      0.079  0.921  0.000  0.000     1.990     2.206
 171   1 H      0.072  0.928  0.000  0.000     2.062     2.246
 172   7 N     -0.186  1.253  3.934  0.000    25.038     7.432
 173   6 C      0.026  1.059  2.915  0.000    20.143     6.390
 174   6 C      0.278  1.041  2.681  0.000    22.289     7.731
 175   8 O     -0.497  1.738  4.759  0.000    23.721     6.530
 176   6 C     -0.124  1.041  3.083  0.000    22.932     6.828
 177   1 H      0.225  0.775  0.000  0.000     0.987     1.556
 178   1 H      0.072  0.928  0.000  0.000     2.068     2.249
 179   1 H      0.068  0.932  0.000  0.000     2.110     2.272
 180   1 H      0.068  0.932  0.000  0.000     2.103     2.268
 181   1 H      0.062  0.938  0.000  0.000     2.178     2.308
 182   7 N     -0.190  1.252  3.938  0.000    25.121     7.444
 183   6 C      0.033  1.059  2.908  0.000    20.026     6.371
 184   6 C      0.281  1.039  2.679  0.000    22.238     7.723
 185   8 O     -0.494  1.738  4.756  0.000    23.652     6.520
 186   6 C     -0.080  1.056  3.025  0.000    22.025     6.680
 187   6 C      0.008  1.080  2.912  0.000    27.829     8.653
 188   6 C     -0.039  1.080  2.960  0.000    28.973     8.827
 189   6 C     -0.043  1.081  2.962  0.000    29.072     8.842
 190   6 C     -0.031  1.080  2.951  0.000    28.774     8.796
 191   6 C     -0.035  1.080  2.955  0.000    28.865     8.810
 192   6 C     -0.034  1.080  2.954  0.000    28.852     8.808
 193   1 H      0.231  0.769  0.000  0.000     0.962     1.536
 194   1 H      0.071  0.929  0.000  0.000     2.072     2.251
 195   1 H      0.071  0.929  0.000  0.000     2.072     2.251
 196   1 H      0.056  0.944  0.000  0.000     2.245     2.343
 197   1 H      0.040  0.960  0.000  0.000     2.454     2.450
 198   1 H      0.035  0.965  0.000  0.000     2.523     2.484
 199   1 H      0.042  0.958  0.000  0.000     2.418     2.432
 200   1 H      0.045  0.955  0.000  0.000     2.381     2.413
 201   1 H      0.044  0.956  0.000  0.000     2.392     2.418
 202   7 N     -0.188  1.252  3.936  0.000    25.074     7.437
 203   6 C      0.042  1.053  2.905  0.000    19.865     6.345
 204   6 C      0.282  1.041  2.676  0.000    22.221     7.720
 205   8 O     -0.488  1.735  4.753  0.000    23.520     6.502
 206   6 C     -0.110  1.062  3.048  0.000    22.591     6.766
 207   6 C      0.288  1.035  2.677  0.000    22.111     7.699
 208   8 O     -0.480  1.744  4.736  0.000    23.343     6.478
 209   7 N     -0.280  1.264  4.016  0.000    27.227     7.750
 210   1 H      0.234  0.766  0.000  0.000     0.950     1.527
 211   1 H      0.071  0.929  0.000  0.000     2.076     2.253
 212   1 H      0.086  0.914  0.000  0.000     1.921     2.168
 213   1 H      0.078  0.922  0.000  0.000     1.999     2.211
 214   1 H      0.225  0.775  0.000  0.000     0.987     1.556
 215   1 H      0.234  0.766  0.000  0.000     0.947     1.524
 216   7 N     -0.181  1.245  3.936  0.000    24.924     7.415
 217   6 C      0.026  1.058  2.916  0.000    20.130     6.388
 218   6 C      0.279  1.042  2.679  0.000    22.286     7.732
 219   8 O     -0.512  1.735  4.778  0.000    24.055     6.576
 220   6 C     -0.081  1.057  3.024  0.000    22.051     6.685
 221   6 C     -0.070  1.051  3.019  0.000    21.842     6.654
 222   6 C     -0.086  1.052  3.034  0.000    22.143     6.700
 223   6 C     -0.030  1.054  2.977  0.000    21.208     6.574
 224   7 N     -0.184  1.254  3.930  0.000    24.973     7.422
 225   1 H      0.224  0.776  0.000  0.000     0.994     1.561
 226   1 H      0.071  0.929  0.000  0.000     2.073     2.252
 227   1 H      0.076  0.924  0.000  0.000     2.019     2.222
 228   1 H      0.067  0.933  0.000  0.000     2.122     2.278
 229   1 H      0.074  0.926  0.000  0.000     2.040     2.234
 230   1 H      0.041  0.959  0.000  0.000     2.430     2.438
 231   1 H      0.055  0.945  0.000  0.000     2.257     2.349
 232   1 H      0.075  0.925  0.000  0.000     2.028     2.227
 233   1 H      0.110  0.890  0.000  0.000     1.699     2.039
 234   1 H      0.088  0.912  0.000  0.000     1.900     2.155
 235   1 H      0.275  0.725  0.000  0.000     0.791     1.393
 236   1 H      0.289  0.711  0.000  0.000     0.749     1.356
 237   1 H      0.262  0.738  0.000  0.000     0.837     1.433
 238   7 N     -0.166  1.245  3.920  0.000    24.582     7.364
 239   6 C      0.021  1.065  2.914  0.000    20.219     6.400
 240   6 C      0.281  1.043  2.676  0.000    22.244     7.723
 241   8 O     -0.501  1.738  4.763  0.000    23.816     6.543
 242   6 C     -0.018  1.064  2.955  0.000    20.868     6.497
 243   6 C     -0.067  1.048  3.019  0.000    21.786     6.645
 244   6 C     -0.112  1.036  3.076  0.000    22.706     6.794
 245   6 C     -0.108  1.036  3.072  0.000    22.623     6.783
 246   1 H      0.224  0.776  0.000  0.000     0.990     1.558
 247   1 H      0.082  0.918  0.000  0.000     1.962     2.191
 248   1 H      0.052  0.948  0.000  0.000     2.290     2.367
 249   1 H      0.049  0.951  0.000  0.000     2.336     2.390
 250   1 H      0.023  0.977  0.000  0.000     2.685     2.563
 251   1 H      0.056  0.944  0.000  0.000     2.251     2.346
 252   1 H      0.046  0.954  0.000  0.000     2.377     2.411
 253   1 H      0.042  0.958  0.000  0.000     2.416     2.431
 254   1 H      0.048  0.952  0.000  0.000     2.350     2.397
 255   1 H      0.043  0.957  0.000  0.000     2.414     2.430
 256   1 H      0.040  0.960  0.000  0.000     2.451     2.448
 257   7 N     -0.184  1.248  3.937  0.000    24.995     7.425
 258   6 C      0.029  1.061  2.911  0.000    20.090     6.381
 259   6 C      0.283  1.041  2.676  0.000    22.210     7.718
 260   8 O     -0.502  1.752  4.751  0.000    23.833     6.545
 261   6 C     -0.023  1.064  2.959  0.000    20.952     6.510
 262   6 C     -0.064  1.050  3.014  0.000    21.724     6.636
 263   6 C     -0.110  1.037  3.073  0.000    22.668     6.789
 264   6 C     -0.109  1.035  3.074  0.000    22.637     6.785
 265   1 H      0.222  0.778  0.000  0.000     1.000     1.566
 266   1 H      0.069  0.931  0.000  0.000     2.101     2.267
 267   1 H      0.045  0.955  0.000  0.000     2.383     2.414
 268   1 H      0.044  0.956  0.000  0.000     2.401     2.423
 269   1 H      0.049  0.951  0.000  0.000     2.335     2.389
 270   1 H      0.061  0.939  0.000  0.000     2.184     2.311
 271   1 H      0.024  0.976  0.000  0.000     2.670     2.555
 272   1 H      0.049  0.951  0.000  0.000     2.338     2.391
 273   1 H      0.052  0.948  0.000  0.000     2.299     2.371
 274   1 H      0.045  0.955  0.000  0.000     2.389     2.417
 275   1 H      0.030  0.970  0.000  0.000     2.590     2.517
 276   7 N     -0.200  1.253  3.947  0.000    25.349     7.478
 277   6 C      0.046  1.053  2.901  0.000    19.779     6.328
 278   6 C      0.291  1.038  2.671  0.000    22.075     7.694
 279   8 O     -0.507  1.742  4.765  0.000    23.944     6.561
 280   6 C     -0.019  1.068  2.952  0.000    20.919     6.512
 281  16 S     -0.286  1.930  4.319  0.036   153.406    20.846
 282   1 H      0.235  0.765  0.000  0.000     0.942     1.520
 283   1 H      0.045  0.955  0.000  0.000     2.385     2.415
 284   1 H      0.067  0.933  0.000  0.000     2.119     2.276
 285   1 H      0.077  0.923  0.000  0.000     2.009     2.217
 286   1 H      0.188  0.812  0.000  0.000     1.162     1.686
 287   7 N     -0.207  1.256  3.952  0.000    25.511     7.501
 288   6 C      0.029  1.059  2.912  0.000    20.086     6.381
 289   6 C      0.288  1.035  2.677  0.000    22.117     7.701
 290   8 O     -0.501  1.751  4.749  0.000    23.795     6.540
 291   6 C      0.077  1.039  2.884  0.000    19.510     6.327
 292   8 O     -0.459  1.717  4.742  0.000    22.032     6.336
 293   1 H      0.240  0.760  0.000  0.000     0.921     1.504
 294   1 H      0.084  0.916  0.000  0.000     1.940     2.178
 295   1 H      0.046  0.954  0.000  0.000     2.375     2.410
 296   1 H      0.049  0.951  0.000  0.000     2.335     2.390
 297   1 H      0.326  0.674  0.000  0.000     0.648     1.265
 298   7 N     -0.174  1.245  3.929  0.000    24.761     7.390
 299   6 C      0.041  1.056  2.903  0.000    19.901     6.353
 300   6 C      0.219  1.082  2.699  0.000    23.388     7.920
 301   8 O     -0.373  1.751  4.622  0.000    21.140     6.164
 302   6 C     -0.077  1.059  3.017  0.000    21.952     6.669
 303   6 C     -0.008  1.054  2.954  0.000    20.686     6.469
 304   6 C     -0.119  1.040  3.079  0.000    22.840     6.814
 305   6 C     -0.112  1.041  3.070  0.000    22.688     6.791
 306   1 H      0.223  0.777  0.000  0.000     0.995     1.563
 307   1 H      0.075  0.925  0.000  0.000     2.028     2.227
 308   1 H      0.069  0.931  0.000  0.000     2.101     2.267
 309   1 H      0.063  0.937  0.000  0.000     2.169     2.303
 310   1 H      0.023  0.977  0.000  0.000     2.696     2.568
 311   1 H      0.052  0.948  0.000  0.000     2.292     2.368
 312   1 H      0.038  0.962  0.000  0.000     2.480     2.463
 313   1 H      0.048  0.952  0.000  0.000     2.348     2.396
 314   1 H      0.049  0.951  0.000  0.000     2.327     2.386
 315   1 H      0.048  0.952  0.000  0.000     2.350     2.397
 316   1 H      0.033  0.967  0.000  0.000     2.540     2.492
 317   7 N     -0.404  1.317  4.088  0.000    30.492     8.201
 318   6 C      0.048  1.054  2.897  0.000    19.781     6.336
 319   6 C      0.205  1.093  2.702  0.000    23.645     7.964
 320   8 O     -0.384  1.746  4.638  0.000    21.364     6.197
 321   6 C     -0.048  1.050  2.998  0.000    21.426     6.589
 322   6 C     -0.085  1.059  3.026  0.000    22.123     6.697
 323   6 C      0.363  1.031  2.606  0.000    20.847     7.472
 324   8 O     -0.580  1.757  4.822  0.000    25.619     6.786
[...]
 389   1 H      0.042  0.958  0.000  0.000     2.428     2.437
 390   7 N     -0.167  1.243  3.924  0.000    24.619     7.369
 391   6 C      0.031  1.055  2.913  0.000    20.054     6.377
 392   6 C      0.202  1.089  2.709  0.000    23.700     7.973
 393   8 O     -0.351  1.747  4.604  0.000    20.733     6.105
 394   6 C     -0.138  1.044  3.094  0.000    23.211     6.869
 395   1 H      0.223  0.777  0.000  0.000     0.996     1.563
 396   1 H      0.078  0.922  0.000  0.000     2.000     2.211
 397   1 H      0.078  0.922  0.000  0.000     2.001     2.212
 398   1 H      0.082  0.918  0.000  0.000     1.954     2.186
 399   1 H      0.080  0.920  0.000  0.000     1.975     2.198
 400   7 N     -0.398  1.307  4.091  0.000    30.326     8.179
 401   6 C      0.031  1.063  2.905  0.000    20.057     6.379
 402   6 C      0.269  1.049  2.682  0.000    22.448     7.759
 403   8 O     -0.508  1.747  4.761  0.000    23.964     6.563
 404   6 C     -0.016  1.064  2.952  0.000    20.824     6.491
 405   6 C     -0.119  1.038  3.081  0.000    22.840     6.814
 406   6 C     -0.111  1.040  3.071  0.000    22.681     6.790
 407   1 H      0.167  0.833  0.000  0.000     1.292     1.780
 408   1 H      0.031  0.969  0.000  0.000     2.577     2.510
 409   1 H      0.033  0.967  0.000  0.000     2.542     2.493
 410   1 H      0.037  0.963  0.000  0.000     2.486     2.465
 411   1 H      0.060  0.940  0.000  0.000     2.203     2.321
 412   1 H      0.037  0.963  0.000  0.000     2.488     2.467
 413   1 H      0.035  0.965  0.000  0.000     2.519     2.482
 414   1 H      0.038  0.962  0.000  0.000     2.477     2.461
 415   1 H      0.039  0.961  0.000  0.000     2.461     2.453
 416   7 N     -0.170  1.247  3.923  0.000    24.683     7.379
 417   6 C      0.022  1.062  2.916  0.000    20.201     6.399
 418   6 C      0.206  1.083  2.710  0.000    23.619     7.959
 419   8 O     -0.366  1.757  4.609  0.000    21.007     6.145
 420   6 C     -0.017  1.062  2.954  0.000    20.834     6.492
 421   6 C     -0.113  1.038  3.074  0.000    22.713     6.795
 422   6 C     -0.116  1.040  3.076  0.000    22.776     6.804
 423   1 H      0.237  0.763  0.000  0.000     0.935     1.515
 424   1 H      0.090  0.910  0.000  0.000     1.876     2.142
 425   1 H      0.055  0.945  0.000  0.000     2.261     2.351
 426   1 H      0.053  0.947  0.000  0.000     2.283     2.363
 427   1 H      0.036  0.964  0.000  0.000     2.508     2.476
 428   1 H      0.051  0.949  0.000  0.000     2.313     2.378
 429   1 H      0.057  0.943  0.000  0.000     2.234     2.337
 430   1 H      0.040  0.960  0.000  0.000     2.452     2.449
 431   1 H      0.057  0.943  0.000  0.000     2.238     2.339
 432   7 N     -0.402  1.317  4.085  0.000    30.417     8.191
 433   6 C      0.050  1.053  2.897  0.000    19.763     6.333
 434   6 C      0.204  1.096  2.700  0.000    23.670     7.968
 435   8 O     -0.389  1.756  4.634  0.000    21.466     6.212
 436   6 C     -0.116  1.042  3.074  0.000    22.765     6.803
 437   1 H      0.178  0.822  0.000  0.000     1.224     1.733
 438   1 H      0.041  0.959  0.000  0.000     2.440     2.443
 439   1 H      0.045  0.955  0.000  0.000     2.379     2.412
 440   1 H      0.063  0.937  0.000  0.000     2.168     2.303
 441   1 H      0.063  0.937  0.000  0.000     2.162     2.300
 442   7 N     -0.390  1.309  4.080  0.000    30.093     8.147
 443   6 C     -0.012  1.045  2.967  0.000    20.874     6.520
 444   6 C      0.265  1.046  2.689  0.000    22.529     7.773
 445   8 O     -0.489  1.742  4.748  0.000    23.549     6.506
 446   1 H      0.170  0.830  0.000  0.000     1.270     1.765
 447   1 H      0.047  0.953  0.000  0.000     2.363     2.404
 448   1 H      0.052  0.948  0.000  0.000     2.294     2.369
 449   7 N     -0.162  1.243  3.919  0.000    24.501     7.351
 450   6 C      0.026  1.058  2.917  0.000    20.152     6.393
 451   6 C      0.202  1.087  2.711  0.000    23.700     7.973
 452   8 O     -0.359  1.758  4.601  0.000    20.878     6.126
 453   6 C     -0.139  1.044  3.095  0.000    23.230     6.872
 454   1 H      0.229  0.771  0.000  0.000     0.970     1.543
 455   1 H      0.086  0.914  0.000  0.000     1.919     2.167
 456   1 H      0.078  0.922  0.000  0.000     2.001     2.212
 457   1 H      0.085  0.915  0.000  0.000     1.928     2.171
 458   1 H      0.077  0.923  0.000  0.000     2.006     2.215
 459   7 N     -0.390  1.316  4.074  0.000    30.090     8.147
 460   6 C      0.039  1.057  2.904  0.000    19.934     6.359
 461   6 C      0.273  1.046  2.681  0.000    22.389     7.749
 462   8 O     -0.509  1.751  4.758  0.000    23.995     6.568
 463   6 C     -0.077  1.058  3.019  0.000    21.961     6.670
 464   6 C      0.009  1.083  2.908  0.000    27.813     8.651
 465   6 C     -0.041  1.080  2.962  0.000    29.019     8.834
 466   6 C     -0.042  1.081  2.961  0.000    29.041     8.837
 467   6 C     -0.034  1.080  2.954  0.000    28.846     8.807
 468   6 C     -0.033  1.079  2.953  0.000    28.813     8.802
 469   6 C     -0.035  1.079  2.956  0.000    28.876     8.812
 470   1 H      0.160  0.840  0.000  0.000     1.335     1.810
 471   1 H      0.033  0.967  0.000  0.000     2.541     2.493
 472   1 H      0.056  0.944  0.000  0.000     2.242     2.342
 473   1 H      0.056  0.944  0.000  0.000     2.249     2.345
 474   1 H      0.037  0.963  0.000  0.000     2.490     2.467
 475   1 H      0.031  0.969  0.000  0.000     2.578     2.511
 476   1 H      0.039  0.961  0.000  0.000     2.464     2.455
 477   1 H      0.030  0.970  0.000  0.000     2.586     2.515
 478   1 H      0.035  0.965  0.000  0.000     2.513     2.479
 479   7 N     -0.174  1.249  3.924  0.000    24.762     7.391
 480   6 C      0.045  1.051  2.903  0.000    19.811     6.337
 481   6 C      0.207  1.083  2.710  0.000    23.606     7.957
 482   8 O     -0.365  1.756  4.609  0.000    21.002     6.144
 483   6 C     -0.111  1.063  3.047  0.000    22.605     6.768
 484   6 C      0.288  1.035  2.677  0.000    22.118     7.701
 485   8 O     -0.488  1.749  4.739  0.000    23.514     6.501
 486   7 N     -0.286  1.266  4.019  0.000    27.374     7.770
 487   1 H      0.245  0.755  0.000  0.000     0.902     1.488
 488   1 H      0.070  0.930  0.000  0.000     2.086     2.259
 489   1 H      0.095  0.905  0.000  0.000     1.835     2.118
 490   1 H      0.091  0.909  0.000  0.000     1.873     2.140
 491   1 H      0.229  0.771  0.000  0.000     0.971     1.544
 492   1 H      0.239  0.761  0.000  0.000     0.927     1.508
 493   7 N     -0.392  1.310  4.082  0.000    30.153     8.155
 494   6 C      0.043  1.057  2.900  0.000    19.870     6.349
 495   6 C      0.207  1.093  2.700  0.000    23.606     7.957
 496   8 O     -0.392  1.756  4.636  0.000    21.517     6.219
 497   6 C     -0.017  1.066  2.952  0.000    20.843     6.493
 498   6 C     -0.052  1.047  3.005  0.000    21.513     6.604
 499   6 C     -0.104  1.037  3.067  0.000    22.551     6.771
 500   6 C     -0.103  1.034  3.070  0.000    22.535     6.770
 501   1 H      0.174  0.826  0.000  0.000     1.248     1.750
 502   1 H      0.042  0.958  0.000  0.000     2.422     2.434
 503   1 H      0.045  0.955  0.000  0.000     2.386     2.416
 504   1 H      0.040  0.960  0.000  0.000     2.448     2.447
 505   1 H      0.032  0.968  0.000  0.000     2.563     2.504
 506   1 H      0.044  0.956  0.000  0.000     2.396     2.421
 507   1 H      0.027  0.973  0.000  0.000     2.625     2.534
 508   1 H      0.040  0.960  0.000  0.000     2.454     2.450
 509   1 H      0.040  0.960  0.000  0.000     2.445     2.445
 510   1 H      0.036  0.964  0.000  0.000     2.496     2.471
 511   1 H      0.031  0.969  0.000  0.000     2.573     2.509
 512   7 N     -0.401  1.315  4.086  0.000    30.395     8.188
 513   6 C      0.033  1.060  2.907  0.000    20.038     6.376
 514   6 C      0.271  1.051  2.678  0.000    22.424     7.755
 515   8 O     -0.502  1.743  4.759  0.000    23.825     6.544
 516   6 C     -0.073  1.064  3.010  0.000    21.893     6.660
 517   6 C     -0.011  1.060  2.952  0.000    20.742     6.478
 518   6 C     -0.116  1.043  3.073  0.000    22.771     6.804
 519   6 C     -0.120  1.040  3.080  0.000    22.849     6.816
 520   1 H      0.167  0.833  0.000  0.000     1.292     1.780
 521   1 H      0.035  0.965  0.000  0.000     2.523     2.484
 522   1 H      0.052  0.948  0.000  0.000     2.293     2.368
 523   1 H      0.042  0.958  0.000  0.000     2.417     2.431
 524   1 H      0.032  0.968  0.000  0.000     2.553     2.499
 525   1 H      0.044  0.956  0.000  0.000     2.395     2.420
 526   1 H      0.038  0.962  0.000  0.000     2.482     2.464
 527   1 H      0.036  0.964  0.000  0.000     2.502     2.474
 528   1 H      0.044  0.956  0.000  0.000     2.401     2.423
 529   1 H      0.040  0.960  0.000  0.000     2.455     2.450
 530   1 H      0.041  0.959  0.000  0.000     2.439     2.442
 531   7 N     -0.163  1.246  3.917  0.000    24.526     7.355
 532   6 C      0.027  1.058  2.914  0.000    20.120     6.387
 533   6 C      0.208  1.088  2.704  0.000    23.588     7.954
 534   8 O     -0.353  1.743  4.610  0.000    20.763     6.109
 535   6 C     -0.080  1.056  3.024  0.000    22.014     6.678
 536   6 C      0.006  1.079  2.915  0.000    27.876     8.660
 537   6 C     -0.037  1.079  2.958  0.000    28.927     8.820
 538   6 C     -0.044  1.082  2.962  0.000    29.082     8.844
 539   6 C     -0.028  1.079  2.949  0.000    28.699     8.785
 540   6 C     -0.034  1.081  2.953  0.000    28.842     8.807
 541   6 C     -0.033  1.079  2.955  0.000    28.833     8.805
 542   1 H      0.224  0.776  0.000  0.000     0.990     1.559
 543   1 H      0.087  0.913  0.000  0.000     1.911     2.162
 544   1 H      0.069  0.931  0.000  0.000     2.095     2.263
 545   1 H      0.075  0.925  0.000  0.000     2.036     2.231
 546   1 H      0.028  0.972  0.000  0.000     2.609     2.526
 547   1 H      0.047  0.953  0.000  0.000     2.356     2.401
 548   1 H      0.033  0.967  0.000  0.000     2.537     2.491
 549   1 H      0.047  0.953  0.000  0.000     2.362     2.404
 550   1 H      0.041  0.959  0.000  0.000     2.441     2.443
 551   7 N     -0.405  1.306  4.099  0.000    30.504     8.203
 552   6 C      0.021  1.061  2.918  0.000    20.234     6.407
 553   6 C      0.268  1.046  2.686  0.000    22.470     7.762
 554   8 O     -0.501  1.744  4.756  0.000    23.798     6.541
 555   6 C      0.085  1.034  2.881  0.000    19.378     6.306
 556   8 O     -0.483  1.715  4.768  0.000    22.528     6.407
 557   1 H      0.178  0.822  0.000  0.000     1.228     1.736
 558   1 H      0.036  0.964  0.000  0.000     2.499     2.472
 559   1 H      0.039  0.961  0.000  0.000     2.469     2.457
 560   1 H      0.025  0.975  0.000  0.000     2.664     2.552
 561   1 H      0.333  0.667  0.000  0.000     0.631     1.248
 562   7 N     -0.159  1.240  3.919  0.000    24.431     7.341
 563   6 C      0.020  1.064  2.916  0.000    20.237     6.406
 564   6 C      0.198  1.086  2.715  0.000    23.776     7.985
 565   8 O     -0.348  1.753  4.595  0.000    20.671     6.096
 566   6 C     -0.017  1.064  2.953  0.000    20.840     6.493
 567   6 C     -0.121  1.040  3.081  0.000    22.869     6.818
 568   6 C     -0.122  1.041  3.082  0.000    22.897     6.823
 569   1 H      0.225  0.775  0.000  0.000     0.986     1.555
 570   1 H      0.088  0.912  0.000  0.000     1.898     2.154
 571   1 H      0.054  0.946  0.000  0.000     2.270     2.356
 572   1 H      0.062  0.938  0.000  0.000     2.180     2.309
 573   1 H      0.040  0.960  0.000  0.000     2.451     2.448
 574   1 H      0.054  0.946  0.000  0.000     2.270     2.356
 575   1 H      0.059  0.941  0.000  0.000     2.212     2.326
 576   1 H      0.047  0.953  0.000  0.000     2.355     2.400
 577   1 H      0.055  0.945  0.000  0.000     2.261     2.352
 578   7 N     -0.396  1.312  4.084  0.000    30.258     8.170
 579   6 C      0.052  1.054  2.894  0.000    19.719     6.326
 580   6 C      0.199  1.097  2.704  0.000    23.759     7.983
 581   8 O     -0.376  1.745  4.630  0.000    21.203     6.174
 582   6 C     -0.079  1.058  3.020  0.000    21.989     6.674
 583   6 C      0.008  1.084  2.908  0.000    27.829     8.653
 584   6 C     -0.041  1.079  2.962  0.000    29.018     8.834
 585   6 C     -0.041  1.082  2.959  0.000    29.012     8.833
 586   6 C     -0.037  1.079  2.957  0.000    28.909     8.817
 587   6 C     -0.034  1.081  2.953  0.000    28.847     8.808
 588   6 C     -0.037  1.079  2.959  0.000    28.930     8.820
 589   1 H      0.180  0.820  0.000  0.000     1.213     1.725
 590   1 H      0.030  0.970  0.000  0.000     2.592     2.518
 591   1 H      0.059  0.941  0.000  0.000     2.206     2.323
 592   1 H      0.080  0.920  0.000  0.000     1.979     2.200
 593   1 H      0.025  0.975  0.000  0.000     2.658     2.549
 594   1 H      0.038  0.962  0.000  0.000     2.471     2.458
 595   1 H      0.034  0.966  0.000  0.000     2.531     2.488
 596   1 H      0.043  0.957  0.000  0.000     2.413     2.429
 597   1 H      0.035  0.965  0.000  0.000     2.510     2.477
 598   7 N     -0.393  1.311  4.082  0.000    30.187     8.160
 599   6 C      0.027  1.065  2.908  0.000    20.129     6.390
 600   6 C      0.272  1.049  2.679  0.000    22.400     7.750
 601   8 O     -0.509  1.749  4.760  0.000    23.993     6.567
 602   6 C     -0.020  1.069  2.951  0.000    20.890     6.501
 603   6 C     -0.057  1.050  3.006  0.000    21.591     6.615
 604   6 C     -0.122  1.039  3.083  0.000    22.901     6.824
 605   6 C     -0.108  1.037  3.071  0.000    22.626     6.783
 606   1 H      0.153  0.847  0.000  0.000     1.382     1.842
 607   1 H      0.034  0.966  0.000  0.000     2.525     2.485
 608   1 H      0.034  0.966  0.000  0.000     2.535     2.490
 609   1 H      0.032  0.968  0.000  0.000     2.552     2.498
 610   1 H      0.025  0.975  0.000  0.000     2.656     2.549
 611   1 H      0.044  0.956  0.000  0.000     2.393     2.419
 612   1 H      0.059  0.941  0.000  0.000     2.205     2.322
 613   1 H      0.037  0.963  0.000  0.000     2.495     2.470
 614   1 H      0.034  0.966  0.000  0.000     2.525     2.485
 615   1 H      0.042  0.958  0.000  0.000     2.425     2.435
 616   1 H      0.041  0.959  0.000  0.000     2.440     2.443
 617   7 N     -0.165  1.244  3.922  0.000    24.576     7.363
 618   6 C      0.032  1.056  2.912  0.000    20.034     6.374
 619   6 C      0.204  1.086  2.709  0.000    23.656     7.965
 620   8 O     -0.362  1.756  4.606  0.000    20.935     6.135
 621   6 C     -0.134  1.043  3.091  0.000    23.120     6.856
 622   1 H      0.231  0.769  0.000  0.000     0.961     1.536
 623   1 H      0.080  0.920  0.000  0.000     1.974     2.197
 624   1 H      0.071  0.929  0.000  0.000     2.076     2.253
 625   1 H      0.083  0.917  0.000  0.000     1.949     2.183
 626   1 H      0.074  0.926  0.000  0.000     2.045     2.236
 627   7 N     -0.392  1.308  4.084  0.000    30.158     8.156
 628   6 C      0.049  1.054  2.898  0.000    19.776     6.335
 629   6 C      0.205  1.095  2.700  0.000    23.655     7.965
 630   8 O     -0.388  1.756  4.633  0.000    21.451     6.210
 631   6 C     -0.067  1.060  3.008  0.000    21.783     6.643
 632   6 C     -0.010  1.056  2.953  0.000    20.715     6.474
 633   6 C     -0.108  1.039  3.069  0.000    22.623     6.782
 634   6 C     -0.110  1.041  3.069  0.000    22.655     6.786
 635   1 H      0.175  0.825  0.000  0.000     1.240     1.744
 636   1 H      0.038  0.962  0.000  0.000     2.481     2.463
 637   1 H      0.047  0.953  0.000  0.000     2.362     2.403
 638   1 H      0.058  0.942  0.000  0.000     2.227     2.334
 639   1 H      0.023  0.977  0.000  0.000     2.683     2.562
 640   1 H      0.040  0.960  0.000  0.000     2.445     2.445
 641   1 H      0.038  0.962  0.000  0.000     2.478     2.462
 642   1 H      0.037  0.963  0.000  0.000     2.483     2.464
 643   1 H      0.040  0.960  0.000  0.000     2.452     2.449
 644   1 H      0.034  0.966  0.000  0.000     2.526     2.485
 645   1 H      0.039  0.961  0.000  0.000     2.462     2.454
 646   1 H      0.182  0.818  0.000  0.000     1.201     1.716
 647   1 H      0.058  0.942  0.000  0.000     2.217     2.329
 648   1 H      0.172  0.828  0.000  0.000     1.259     1.757
 649   1 H      0.067  0.933  0.000  0.000     2.122     2.278
 650   1 H      0.174  0.826  0.000  0.000     1.246     1.748
 651   1 H      0.072  0.928  0.000  0.000     2.060     2.244
 652   1 H      0.185  0.815  0.000  0.000     1.186     1.706
 653   1 H      0.075  0.925  0.000  0.000     2.027     2.226
 654   1 H      0.184  0.816  0.000  0.000     1.193     1.711
 655   1 H      0.085  0.915  0.000  0.000     1.923     2.169
 656   1 H      0.175  0.825  0.000  0.000     1.244     1.747
 657   1 H      0.068  0.932  0.000  0.000     2.106     2.269
 658   1 H      0.177  0.823  0.000  0.000     1.230     1.737
 659   1 H      0.071  0.929  0.000  0.000     2.077     2.253
 660   1 H      0.183  0.817  0.000  0.000     1.196     1.713
 661   1 H      0.083  0.917  0.000  0.000     1.944     2.180
 662   1 H      0.186  0.814  0.000  0.000     1.181     1.702
 663   1 H      0.078  0.922  0.000  0.000     2.003     2.213
 664   1 H      0.180  0.820  0.000  0.000     1.216     1.727
 665   1 H      0.067  0.933  0.000  0.000     2.123     2.278
 666   1 H      0.183  0.817  0.000  0.000     1.198     1.714
 667   1 H      0.089  0.911  0.000  0.000     1.891     2.150
 668   1 H      0.180  0.820  0.000  0.000     1.213     1.725
 669   1 H      0.074  0.926  0.000  0.000     2.042     2.234
 670   1 H      0.172  0.828  0.000  0.000     1.258     1.757
 671   1 H      0.080  0.920  0.000  0.000     1.983     2.202
 672   1 H      0.183  0.817  0.000  0.000     1.195     1.712
 673   1 H      0.073  0.927  0.000  0.000     2.051     2.239
 674   1 H      0.172  0.828  0.000  0.000     1.260     1.758
 675   1 H      0.071  0.929  0.000  0.000     2.076     2.253

 Mol. C6AA /au·bohr⁶  :    4100255.980491
 Mol. C8AA /au·bohr⁸  :   91555029.805152
 Mol. α(0) /au        :       3046.229671

 
molecular dipole:
                 x           y           z       tot (Debye)
 q only:      -91.937     -22.256      -2.533
   full:      -95.216     -26.421      -4.553     251.430
molecular quadrupole (traceless):
                xx          xy          yy          xz          yz          zz
 q only:    -8463.274   -3034.632    4414.449    -643.460     -33.260    4048.825
  q+dip:    -8862.533   -3563.650    4531.515    -852.064     -37.475    4331.019
   full:    -8860.139   -3566.085    4531.118    -857.651     -35.132    4329.021
speedup  1.95
cpu  time for grad    1 m 23.8 s
wall time for grad    0 m 42.9 s

SCC energy    :    -995.4405206
rep           :      12.7402560
ES            :       2.3562068
AES           :      -0.0793986
AXC           :       0.3856699
disp          :      -0.9055849
XB            :       0.0000000
fix           :       0.0000000
Gborn         :       0.0000000
Gsasa         :       0.0000000
Ghb           :       0.0000000
Gshift        :       0.0000000
Gsolv         :      -0.4087583     -256.50
Etot ala COSMO:    -995.4405206
grad norm     :       0.8549318
total E       :    -982.6067695
atomizationE  :     186.0822669   116768.39
(atE without considering molecular charge,
 total energy contains solvation terms)
H-L gap (eV)  :          1.5150

------------------------------------------------------------------------
 * finished run on 2019/05/10 at 10:21:09.582     
------------------------------------------------------------------------
 total:
 * wall-time:     0 d,  0 h,  0 min, 45.339 sec
 *  cpu-time:     0 d,  0 h,  1 min, 27.989 sec
 * ratio c/w:     1.941 speedup
 SCF:
 * wall-time:     0 d,  0 h,  0 min, 44.899 sec
 *  cpu-time:     0 d,  0 h,  1 min, 27.308 sec
 * ratio c/w:     1.945 speedup

