      -----------------------------------------------------------      
     |                   =====================                   |     
     |                           x T B                           |     
     |                   =====================                   |     
     |                         S. Grimme                         |     
     |          Mulliken Center for Theoretical Chemistry        |     
     |                    University of Bonn                     |     
     |                 Version 6.0.1 (SAW181210)                 |     
      -----------------------------------------------------------      

   This program is distributed in the hope that it will be useful,
   but WITHOUT ANY WARRANTY; without even the implied warranty of
   MERCHANTABILITY or FITNESS FOR A PARTICULAR PURPOSE.
   
   FOR NON-COMMERCIAL, ACADEMIA USE ONLY.
   
   Cite this work as:
   S. Grimme, C. Bannwarth, P. Shushkov, J. Comput. Theory Chem., 2017,
   13, 1989-2009.
   C. Bannwarth, S. Ehlert and S. Grimme., ChemRxiv, 2018, preprint.
   http://doi.org/10.26434/chemrxiv.7246238.v1
   
   for sTDA-xTB:
   S. Grimme and C. Bannwarth, J. Chem. Phys., 2016, 145, 054103.
   
   in the mass-spec context:
   V. Asgeirsson, C. Bauer and S. Grimme, Chem. Sci., 2017, 8, 4879.
   
   if GBSA is used:
   P. Shushkov, F. März and S. Grimme, unpublished.
   
   for ANC optimizer:
   S. Grimme, unpublished.
   Rational Function algorithm used in ANCopt:
   F. Eckert, P. Pulay, H.-J. Werner, J. Comput. Chem., 1997, 18, 1473.
   
   with help from (in alphabetical order)
   C. Bannwarth, F. Bohle, G. Brandenburg, E. Caldeweyher, M. Checinski,
   S. Dohm, S. Ehlert, S. Ehrlich, F. März, H. Neugebauer, J. Pisarek,
   P. Pracht, P. Shushkov, and S. Spicher.
   
 * started run on 2019/05/07 at 22:47:26.657     
========================================================================
 # omp threads = 2
========================================================================
number of atoms            : 156
number of electrons        : 396
charge                     : 1
spin                       : .0
first test random number   : .1768

########################################################################
# WARNING! Please study the warnings concerning your input carefully
#  - Process number higher than OMP_NUM_THREADS, I hope you know what you are doing.
########################################################################

           ------------------------------------------------- 
          |                 G F N 2 - x T B                 |
          | Geometry, Frequencies, Noncovalent interactions |
          |            JCTC 2018 parametrisation            |
           ------------------------------------------------- 
 
      method parameters     
 k(s)        :  1.8500
 k(p)        :  2.2300
 k(d)        :  2.2300
 k(f)        :  2.0000
 kEN (H0ij)  : -2.0000
 D4 a1       :  0.5200
 D4 a2       :  5.0000
 D4 s6       :  1.0000
 D4 s8       :  2.7000
 D4 s9       :  5.0000
 alphaj      :  2.0000

 Solvent             : h2o
 Using internal parameter file: .param_gbsa2_h2o
 Gsolv ref. state (COSMO-RS): gsolv [1 M gas/solution]
 temperature (mdtemp)       :    298.150000000000     
 dielectric constant        :    80.2000000000000     
 rho                        :    1.00000000000000     
 mass                       :    18.0000000000000     
 surface tension            :    15.5689454083859     
 probe radius               :   0.975313790000000     
 vdW radii scaling          :    1.00000000000000     
 Gshift (Eh)                :   1.857443126794793E-003
 c1                         :    1.55243817000000     
 soset                      :   0.130326360000000     
 HB correction              :  T

            Z     q(EN)     CN     RAES       Cart. coordinates
     1  N   5.0   -0.21    3.21    1.96   105.04445   103.22123   371.53938
     2  C   4.0    0.03    4.31    4.21   102.83367   104.73097   372.08474
     3  C   4.0    0.14    3.40    3.08   101.24736   103.55980   374.20060
     4  O   6.0   -0.32    1.27    1.80   100.56447   104.98743   375.90952
     5  C   4.0   -0.05    4.37    4.32   101.28700   105.16735   369.68238
     6  C   4.0   -0.02    4.20    4.00    99.21179   107.15285   369.90389
     7  C   4.0   -0.07    4.13    3.86   100.16743   109.76794   370.56459
     8  C   4.0   -0.07    4.16    3.92    97.93856   107.31076   367.36139
     9  H   1.0    0.09    1.02    1.43   105.36273   102.68938   369.71189
    10  H   1.0    0.04    1.06    1.44   103.47138   106.54089   372.87423
    11  H   1.0    0.04    1.03    1.43   102.58941   105.78362   368.20219
    12  H   1.0    0.04    1.03    1.43   100.45915   103.36373   369.11862
    13  H   1.0    0.04    1.05    1.44    97.85831   106.56067   371.35527
    14  H   1.0    0.04    1.00    1.43    98.60853   111.10475   370.55491
    15  H   1.0    0.04    1.00    1.43   101.00826   109.82139   372.44212
    16  H   1.0    0.05    1.00    1.43   101.55643   110.39752   369.19084
    17  H   1.0    0.05    1.00    1.43    96.45508   108.73114   367.38321
    18  H   1.0    0.05    1.01    1.43    99.31016   107.83966   365.92768
    19  H   1.0    0.04    1.00    1.43    97.09900   105.51292   366.83546
    20  N   5.0   -0.15    3.39    2.02   100.58693   101.11731   374.12107
    21  C   4.0    0.03    4.27    4.14    98.88110   100.04063   376.03259
    22  C   4.0    0.09    3.16    3.03    99.94909   100.29728   378.80418
    23  O   6.0   -0.30    1.11    1.80    98.64054   101.01878   380.59856
    24  C   4.0   -0.05    4.22    4.05    98.26276    97.30765   375.33500
    25  C   4.0   -0.05    4.15    3.89    96.25002    97.13496   373.23284
    26  C   4.0   -0.05    4.12    3.84    96.32765    94.58862   371.77303
    27  C   4.0   -0.03    4.11    3.83    93.66617    93.52334   371.39636
    28  N   5.0   -0.12    3.99    2.84    93.61249    91.17261   369.82892
    29  H   1.0    0.08    1.06    1.44   101.05205   100.00474   372.62541
    30  H   1.0    0.06    1.05    1.44    97.14356   101.17981   376.06147
    31  H   1.0    0.04    1.03    1.43   100.02811    96.42105   374.74474
    32  H   1.0    0.05    1.03    1.43    97.59540    96.34216   377.02941
    33  H   1.0    0.05    1.03    1.43    94.40037    97.42361   374.09069
    34  H   1.0    0.04    1.03    1.43    96.57462    98.68433   371.91578
    35  H   1.0    0.04    1.02    1.43    97.29243    94.89435   369.97997
    36  H   1.0    0.05    1.03    1.43    97.43312    93.25728   372.89159
    37  H   1.0    0.05    1.02    1.43    92.81513    93.13667   373.23293
    38  H   1.0    0.05    1.02    1.43    92.46679    94.92732   370.48660
    39  H   1.0    0.07    1.02    1.43    91.73817    90.80499   369.38761
    40  H   1.0    0.06    1.02    1.43    94.62254    91.42144   368.18429
    41  H   1.0    0.06    1.02    1.43    94.35513    89.67645   370.82697
    42  N   5.0   -0.20    3.26    1.97   104.58115   104.20129   380.55533
    43  C   4.0    0.03    4.37    4.33   104.80445   106.80787   381.33025
    44  C   4.0    0.15    3.56    3.14   102.34584   107.77064   382.38925
    45  O   6.0   -0.32    1.32    1.80   102.26461   109.36896   384.04940
    46  C   4.0   -0.03    4.34    4.27   105.37985   108.55982   379.13524
    47  C   4.0   -0.01    3.75    3.28   104.89744   111.28762   379.74807
    48  C   4.0   -0.00    3.63    3.19   103.49658   112.92535   378.31256
    49  C   4.0    0.02    3.90    3.46   106.16306   112.81478   381.57221
    50  N   5.0   -0.12    3.47    2.06   103.93718   115.37807   378.98895
    51  C   4.0    0.04    3.92    3.49   105.48918   115.35938   381.04871
    52  C   4.0   -0.04    3.39    3.08   107.89888   112.31108   383.48261
    53  C   4.0   -0.05    3.40    3.08   106.31086   117.37038   382.53172
    54  C   4.0   -0.04    3.38    3.07   108.75026   114.31699   384.90227
    55  C   4.0   -0.04    3.37    3.07   107.90060   116.80775   384.51232
    56  H   1.0    0.09    1.02    1.43   104.96131   103.71943   378.74242
    57  H   1.0    0.04    1.05    1.44   106.24336   106.96114   382.81126
    58  H   1.0    0.04    1.03    1.43   107.35471   108.32240   378.57967
    59  H   1.0    0.05    1.04    1.43   104.18934   108.00972   377.54169
    60  H   1.0    0.05    1.02    1.43   102.26021   112.49770   376.75978
    61  H   1.0    0.08    1.04    1.44   102.91446   116.88114   378.38952
    62  H   1.0    0.05    1.03    1.43   108.56007   110.41269   383.82458
    63  H   1.0    0.06    1.03    1.43   105.71363   119.27256   382.10608
    64  H   1.0    0.06    1.03    1.43   110.07052   113.98873   386.42304
    65  H   1.0    0.06    1.03    1.43   108.59171   118.27785   385.74668
    66  N   5.0   -0.14    3.42    2.03   100.31997   106.77979   381.26642
    67  C   4.0    0.02    4.23    4.06    97.81119   107.52458   382.03975
    68  C   4.0    0.17    3.30    3.05    97.27607   106.91225   384.88217
    69  O   6.0   -0.29    1.21    1.80    96.53895   108.56968   386.33514
    70  H   1.0    0.11    1.10    1.44   100.56684   105.68015   379.71859
    71  H   1.0    0.06    1.02    1.43    97.55889   109.56566   381.82564
    72  H   1.0    0.06    1.02    1.43    96.43337   106.49192   380.91071
    73  N   5.0   -0.14    3.43    2.03    97.67737   104.46913   385.53074
    74  C   4.0    0.03    4.43    4.42    97.88424   103.58763   388.12641
    75  C   4.0    0.16    3.48    3.11    99.63651   105.27050   389.75121
    76  O   6.0   -0.27    1.23    1.80    98.91039   106.20774   391.77358
    77  C   4.0   -0.05    4.46    4.47    98.95460   100.96285   388.20750
    78  C   4.0   -0.02    4.24    4.07    97.10775    98.99796   387.33494
    79  C   4.0   -0.07    4.19    3.97    98.24966    96.46114   387.96495
    80  C   4.0   -0.06    4.17    3.93    94.59206    99.07183   388.64419
    81  H   1.0    0.10    1.08    1.44    98.32125   103.27688   384.17312
    82  H   1.0    0.06    1.06    1.44    96.04059   103.69130   389.05764
    83  H   1.0    0.04    1.03    1.43   100.68687   100.90036   387.08390
    84  H   1.0    0.05    1.04    1.43    99.43739   100.58147   390.18440
    85  H   1.0    0.06    1.05    1.44    96.83002    99.16873   385.28801
    86  H   1.0    0.05    1.00    1.43    97.05243    94.93495   387.27789
    87  H   1.0    0.05    1.00    1.43   100.10167    96.25477   387.09142
    88  H   1.0    0.05    1.00    1.43    98.46412    96.22160   389.99163
    89  H   1.0    0.05    1.00    1.43    93.38862    97.54840   387.94766
    90  H   1.0    0.05    1.00    1.43    94.84268    98.79763   390.67107
    91  H   1.0    0.05    1.00    1.43    93.56199   100.83167   388.36572
    92  N   5.0   -0.14    3.50    2.08   102.01614   105.49586   388.84565
    93  C   4.0    0.04    4.61    4.68   103.82715   106.79364   390.44298
    94  C   4.0    0.16    3.55    3.14   102.93420   109.44189   391.10788
    95  O   6.0   -0.27    1.22    1.80   103.12120   110.26197   393.26952
    96  C   4.0   -0.03    4.31    4.22   106.41509   106.92784   389.24980
    97  C   4.0   -0.06    4.16    3.92   108.12028   108.60377   390.87020
    98  C   4.0   -0.07    4.16    3.92   107.38112   104.24832   389.12510
    99  H   1.0    0.08    1.05    1.44   102.55114   104.76243   387.16135
   100  H   1.0    0.06    1.06    1.44   103.94361   105.76533   392.24685
   101  H   1.0    0.05    1.05    1.44   106.24938   107.74490   387.35771
   102  H   1.0    0.05    1.00    1.43   110.07808   108.38604   390.28274
   103  H   1.0    0.06    1.00    1.43   107.61663   110.58576   390.67551
   104  H   1.0    0.06    1.00    1.43   107.95429   108.08751   392.84899
   105  H   1.0    0.05    1.00    1.43   109.26387   104.20390   388.29736
   106  H   1.0    0.05    1.00    1.43   107.47263   103.44759   391.01471
   107  H   1.0    0.04    1.01    1.43   106.15118   103.08070   387.97432
   108  N   5.0   -0.14    3.54    2.11   102.10106   110.76448   389.11110
   109  C   4.0    0.04    4.43    4.43   101.48892   113.44613   389.29823
   110  C   4.0    0.16    3.51    3.12    99.37211   113.69933   391.21052
   111  O   6.0   -0.26    1.23    1.80    99.34280   115.39229   392.79192
   112  C   4.0   -0.04    4.30    4.19   100.85725   114.79686   386.81272
   113  C   4.0   -0.02    4.19    3.99   100.06530   117.59565   387.18772
   114  C   4.0   -0.06    4.16    3.92   101.98572   119.26050   388.50812
   115  C   4.0   -0.07    4.18    3.96    99.84049   118.85095   384.63809
   116  H   1.0    0.12    1.12    1.45   102.13135   109.95130   387.37155
   117  H   1.0    0.06    1.06    1.44   103.12925   114.40686   390.13987
   118  H   1.0    0.05    1.03    1.43   102.51816   114.69524   385.59867
   119  H   1.0    0.06    1.02    1.43    99.32677   113.79655   385.85925
   120  H   1.0    0.06    1.05    1.44    98.27855   117.57562   388.21455
   121  H   1.0    0.05    1.00    1.43   101.39972   121.22598   388.49788
   122  H   1.0    0.06    1.00    1.43   102.29286   118.73172   390.47528
   123  H   1.0    0.04    1.00    1.43   103.79316   119.13180   387.53663
   124  H   1.0    0.05    1.00    1.43    99.37269   120.84115   384.83112
   125  H   1.0    0.04    1.01    1.43   101.62343   118.70635   383.63887
   126  H   1.0    0.05    1.00    1.43    98.40744   117.94937   383.46017
   127  N   5.0   -0.12    3.41    2.03    97.66590   111.85160   391.00683
   128  C   4.0    0.04    4.13    3.87    95.59934   111.59423   392.75943
   129  C   4.0    0.12    3.14    3.03    96.34882   112.05772   395.54947
   130  O   6.0   -0.24    1.10    1.80    95.25787   113.65541   396.87017
   131  H   1.0    0.11    1.09    1.44    97.70935   110.61282   389.54723
   132  H   1.0    0.07    1.02    1.43    94.07910   112.93318   392.31320
   133  H   1.0    0.06    1.03    1.43    94.85958   109.67582   392.60758
   134  N   5.0   -0.20    3.25    1.97    90.76936   107.25618   374.77742
   135  C   4.0    0.03    4.35    4.28    91.88149   107.55692   377.22588
   136  C   4.0    0.09    3.24    3.04    90.19504   106.82447   379.39649
   137  O   6.0   -0.27    1.13    1.80    90.87696   105.10946   380.78925
   138  C   4.0   -0.04    4.54    4.59    92.72243   110.21802   377.58237
   139  C   4.0   -0.04    4.20    4.01    94.88330   110.53520   375.77592
   140  S   6.0   -0.04    2.61    3.10    96.55712   113.22333   376.79000
   141  C   4.0   -0.06    3.95    3.53    93.88816   115.37034   376.34294
   142  H   1.0    0.09    1.02    1.43    89.90014   108.73216   373.92852
   143  H   1.0    0.05    1.07    1.44    93.48488   106.24107   377.34109
   144  H   1.0    0.04    1.04    1.43    91.14453   111.46873   377.16286
   145  H   1.0    0.05    1.06    1.44    93.33656   110.52460   379.52915
   146  H   1.0    0.05    1.09    1.44    96.18992   108.94350   375.90389
   147  H   1.0    0.04    1.07    1.44    94.25305   110.73247   373.82131
   148  H   1.0    0.05    1.04    1.44    94.63850   117.27098   376.45854
   149  H   1.0    0.05    1.04    1.43    93.08646   115.01765   374.48833
   150  H   1.0    0.05    1.04    1.43    92.51416   115.10667   377.83868
   151  H   1.0    0.10    1.07    1.44   106.44234   104.07654   371.99424
   152  H   1.0    0.06    1.04    1.43   101.75376    99.86816   379.16487
   153  H   1.0    0.09    1.07    1.44   105.64461   103.24293   381.47358
   154  H   1.0    0.08    1.04    1.43    97.74681   111.05507   396.33137
   155  H   1.0    0.09    1.08    1.44    91.96744   106.79295   373.66271
   156  H   1.0    0.06    1.04    1.44    88.56133   107.73336   379.67216

  Z AO/shell   Hii/eV     exponent
  1     Wed Apr 25 08:07:45 CEST 2018   EN: 2.200 GM2: 0.406  GM3: 0.0800  RAES: 1.40
     1s    -10.707211    1.230000
  6     Wed Apr 25 08:07:45 CEST 2018   EN: 2.550 GM2: 0.538  GM3: 0.1500  RAES: 3.00
     2s    -13.970922    2.096432
     2p    -10.063292    1.800000
  7     Wed Apr 25 08:07:45 CEST 2018   EN: 3.040 GM2: 0.461  GM3:-0.0640  RAES: 1.90
     2s    -16.686243    2.339881
     2p    -12.523956    2.014332
  8     Wed Apr 25 08:07:45 CEST 2018   EN: 3.440 GM2: 0.452  GM3:-0.0517  RAES: 1.80
     2s    -20.229985    2.439742
     2p    -15.503117    2.137023
 16     Tue Apr 24 11:44:34 CEST 2018   EN: 2.580 GM2: 0.340  GM3:-0.0502  RAES: 3.10
     3s    -20.029654    1.981333
     3p    -11.377694    2.025643
     3d     -0.420282    1.702555
 no old-style atom pair restraining (fixing) potential

molecular fragmentation (1/2 indicates fragments):
111111111111111111111111111111111111111112222222222222222222222222222222
222222222222222222222222222222222222222222222222222222222222222222222222
222222112222
# atoms in fragment 1/2:    43   113
 fragment masses (1/2) :      244.36      760.99
CMA distance (Bohr)    :  14.795
constraining FC (au)   :  0.0500
           ------------------------------------------------- 
          |        Self-Consistent Charge Iterations        |
           ------------------------------------------------- 

 Ncao       : 372
 Nao        : 371
 Nshell     : 227
 Nel        : 396
 T(el)      :   500.0
 intcut     :    35.0
 scfconv/Eh :  0.100E-06
   qconv/e  :  0.100E-04
 intneglect :  0.100E-08
 broydamp   :      0.400
 iter      E             dE          RMSdq      gap      omega  full diag
   1   -222.8974174 -0.222897E+03  0.424E+00    2.38       0.0  T
   2   -223.3160258 -0.418608E+00  0.206E+00    1.41       1.0  T
   3   -223.3374401 -0.214143E-01  0.115E+00    1.95       1.0  T
   4   -223.3762235 -0.387834E-01  0.245E-01    1.49       1.0  T
   5   -223.3783874 -0.216393E-02  0.123E-01    1.66       1.0  T
   6   -223.3790448 -0.657409E-03  0.562E-02    1.67       1.0  T
   7   -223.3792311 -0.186331E-03  0.218E-02    1.67       1.0  T
   8   -223.3792459 -0.147065E-04  0.102E-02    1.68       1.0  T
   9   -223.3792491 -0.326723E-05  0.423E-03    1.68       1.9  T
  10   -223.3792496 -0.455501E-06  0.194E-03    1.68       4.1  T
  11   -223.3792496 -0.715094E-07  0.898E-04    1.68       8.9  T
  12   -223.3792497 -0.123422E-07  0.443E-04    1.68      18.1  T
  13   -223.3792497 -0.624939E-08  0.193E-04    1.68      41.6  T
  14   -223.3792497 -0.633236E-09  0.101E-04    1.68      79.3  T
  15   -223.3792497 -0.265374E-09  0.402E-05    1.68     199.2  T
  16   -223.3792497 -0.373745E-10  0.163E-05    1.68     492.2  T
speedup  1.30
cpu  time for SCC    3.31 s
wall time for SCC    2.55 s

   *** convergence criteria satisfied after 16 iterations ***

          eigenvalues
 #    :         186        187        188        189        190        191        192        193
 occ. :        2.000      2.000      2.000      2.000      2.000      2.000      2.000      2.000
 eps  :       -11.178    -11.093    -10.962    -10.931    -10.829    -10.704    -10.567    -10.267
 #    :         194        195        196        197        198        199        200        201
 occ. :        2.000      2.000      2.000      2.000      2.000      0.000      0.000      0.000
 eps  :       -10.259    -10.195    -10.138     -9.747     -9.736     -8.058     -7.821     -7.792
 #    :         202        203        204        205        206        207        208        209
 occ. :        0.000      0.000      0.000      0.000      0.000      0.000      0.000      0.000
 eps  :        -6.497     -6.285     -6.227     -6.196     -5.940     -5.894     -5.766     -5.575


   #   Z            q   n(s)   n(p)   n(d)      C6AA      α(0)
   1   7 N     -0.395  1.311  4.084  0.000    30.235     8.166
   2   6 C      0.035  1.056  2.908  0.000    19.999     6.370
   3   6 C      0.262  1.053  2.685  0.000    22.584     7.782
   4   8 O     -0.507  1.752  4.755  0.000    23.947     6.561
   5   6 C     -0.075  1.063  3.012  0.000    21.914     6.663
   6   6 C     -0.006  1.049  2.956  0.000    20.647     6.463
   7   6 C     -0.107  1.037  3.070  0.000    22.595     6.776
   8   6 C     -0.116  1.041  3.075  0.000    22.751     6.797
   9   1 H      0.167  0.833  0.000  0.000     1.294     1.782
  10   1 H      0.032  0.968  0.000  0.000     2.559     2.502
  11   1 H      0.047  0.953  0.000  0.000     2.357     2.401
  12   1 H      0.053  0.947  0.000  0.000     2.279     2.361
  13   1 H      0.025  0.975  0.000  0.000     2.653     2.547
  14   1 H      0.037  0.963  0.000  0.000     2.492     2.468
  15   1 H      0.029  0.971  0.000  0.000     2.599     2.521
  16   1 H      0.037  0.963  0.000  0.000     2.490     2.467
  17   1 H      0.037  0.963  0.000  0.000     2.492     2.469
  18   1 H      0.039  0.961  0.000  0.000     2.459     2.452
  19   1 H      0.046  0.954  0.000  0.000     2.370     2.407
  20   7 N     -0.164  1.248  3.917  0.000    24.552     7.359
  21   6 C      0.021  1.070  2.910  0.000    20.239     6.408
  22   6 C      0.197  1.097  2.706  0.000    23.806     7.990
  23   8 O     -0.363  1.761  4.602  0.000    20.960     6.138
  24   6 C     -0.083  1.059  3.023  0.000    22.080     6.690
  25   6 C     -0.081  1.056  3.024  0.000    22.042     6.685
  26   6 C     -0.095  1.056  3.038  0.000    22.308     6.725
  27   6 C     -0.051  1.058  2.993  0.000    21.594     6.634
  28   7 N     -0.148  1.231  3.917  0.000    24.193     7.305
  29   1 H      0.229  0.771  0.000  0.000     0.968     1.541
  30   1 H      0.085  0.915  0.000  0.000     1.928     2.171
  31   1 H      0.080  0.920  0.000  0.000     1.982     2.202
  32   1 H      0.073  0.927  0.000  0.000     2.052     2.240
  33   1 H      0.067  0.933  0.000  0.000     2.122     2.278
  34   1 H      0.061  0.939  0.000  0.000     2.187     2.312
  35   1 H      0.082  0.918  0.000  0.000     1.955     2.187
  36   1 H      0.083  0.917  0.000  0.000     1.952     2.185
  37   1 H      0.117  0.883  0.000  0.000     1.638     2.001
  38   1 H      0.115  0.885  0.000  0.000     1.658     2.014
  39   1 H      0.301  0.699  0.000  0.000     0.709     1.320
  40   1 H      0.299  0.701  0.000  0.000     0.718     1.327
  41   1 H      0.299  0.701  0.000  0.000     0.717     1.326
  42   7 N     -0.391  1.306  4.085  0.000    30.127     8.152
  43   6 C      0.036  1.049  2.914  0.000    19.967     6.363
  44   6 C      0.272  1.040  2.688  0.000    22.406     7.753
  45   8 O     -0.502  1.744  4.758  0.000    23.831     6.545
  46   6 C     -0.064  1.050  3.014  0.000    21.715     6.631
  47   6 C     -0.036  1.069  2.967  0.000    28.837     8.807
  48   6 C     -0.007  1.069  2.938  0.000    28.131     8.697
  49   6 C     -0.014  1.073  2.941  0.000    28.167     8.691
  50   7 N     -0.111  1.233  3.879  0.000    23.428     7.189
  51   6 C      0.043  1.063  2.894  0.000    26.887     8.495
  52   6 C     -0.039  1.076  2.963  0.000    28.967     8.825
  53   6 C     -0.057  1.071  2.986  0.000    29.408     8.892
  54   6 C     -0.048  1.077  2.970  0.000    29.187     8.860
  55   6 C     -0.042  1.077  2.965  0.000    29.051     8.839
  56   1 H      0.161  0.839  0.000  0.000     1.331     1.807
  57   1 H      0.031  0.969  0.000  0.000     2.572     2.508
  58   1 H      0.050  0.950  0.000  0.000     2.322     2.383
  59   1 H      0.054  0.946  0.000  0.000     2.270     2.356
  60   1 H      0.044  0.956  0.000  0.000     2.394     2.420
  61   1 H      0.191  0.809  0.000  0.000     1.151     1.680
  62   1 H      0.023  0.977  0.000  0.000     2.685     2.563
  63   1 H      0.029  0.971  0.000  0.000     2.603     2.523
  64   1 H      0.015  0.985  0.000  0.000     2.805     2.619
  65   1 H      0.018  0.982  0.000  0.000     2.760     2.598
  66   7 N     -0.166  1.239  3.927  0.000    24.599     7.366
  67   6 C     -0.024  1.052  2.971  0.000    21.065     6.547
  68   6 C      0.273  1.050  2.677  0.000    22.384     7.747
  69   8 O     -0.494  1.755  4.739  0.000    23.662     6.522
  70   1 H      0.237  0.763  0.000  0.000     0.936     1.516
  71   1 H      0.075  0.925  0.000  0.000     2.036     2.231
  72   1 H      0.087  0.913  0.000  0.000     1.910     2.161
  73   7 N     -0.182  1.255  3.926  0.000    24.934     7.416
  74   6 C      0.019  1.060  2.921  0.000    20.267     6.411
  75   6 C      0.269  1.051  2.680  0.000    22.461     7.762
  76   8 O     -0.495  1.769  4.726  0.000    23.670     6.523
  77   6 C     -0.075  1.055  3.020  0.000    21.918     6.661
  78   6 C     -0.011  1.046  2.965  0.000    20.738     6.476
  79   6 C     -0.120  1.043  3.077  0.000    22.827     6.806
  80   6 C     -0.117  1.039  3.078  0.000    22.772     6.801
  81   1 H      0.232  0.768  0.000  0.000     0.957     1.532
  82   1 H      0.078  0.922  0.000  0.000     1.995     2.209
  83   1 H      0.058  0.942  0.000  0.000     2.225     2.333
  84   1 H      0.057  0.943  0.000  0.000     2.233     2.337
  85   1 H      0.056  0.944  0.000  0.000     2.245     2.343
  86   1 H      0.052  0.948  0.000  0.000     2.300     2.372
  87   1 H      0.045  0.955  0.000  0.000     2.379     2.412
  88   1 H      0.039  0.961  0.000  0.000     2.459     2.452
  89   1 H      0.053  0.947  0.000  0.000     2.277     2.360
  90   1 H      0.037  0.963  0.000  0.000     2.490     2.468
  91   1 H      0.031  0.969  0.000  0.000     2.570     2.507
  92   7 N     -0.184  1.246  3.938  0.000    24.988     7.424
  93   6 C      0.025  1.062  2.913  0.000    20.138     6.385
  94   6 C      0.289  1.037  2.674  0.000    22.107     7.700
  95   8 O     -0.514  1.759  4.755  0.000    24.099     6.582
  96   6 C     -0.016  1.056  2.961  0.000    20.824     6.490
  97   6 C     -0.111  1.038  3.073  0.000    22.673     6.789
  98   6 C     -0.125  1.042  3.083  0.000    22.926     6.824
  99   1 H      0.205  0.795  0.000  0.000     1.082     1.629
 100   1 H      0.066  0.934  0.000  0.000     2.129     2.282
 101   1 H      0.045  0.955  0.000  0.000     2.378     2.412
 102   1 H      0.061  0.939  0.000  0.000     2.191     2.315
 103   1 H      0.028  0.972  0.000  0.000     2.618     2.530
 104   1 H      0.044  0.956  0.000  0.000     2.395     2.420
 105   1 H      0.062  0.938  0.000  0.000     2.172     2.305
 106   1 H      0.054  0.946  0.000  0.000     2.268     2.355
 107   1 H      0.052  0.948  0.000  0.000     2.293     2.368
 108   7 N     -0.207  1.258  3.948  0.000    25.494     7.499
 109   6 C      0.032  1.058  2.911  0.000    20.043     6.374
 110   6 C      0.288  1.036  2.676  0.000    22.119     7.702
 111   8 O     -0.500  1.755  4.745  0.000    23.784     6.539
 112   6 C     -0.070  1.059  3.011  0.000    21.844     6.654
 113   6 C     -0.004  1.051  2.953  0.000    20.609     6.457
 114   6 C     -0.110  1.039  3.072  0.000    22.627     6.776
 115   6 C     -0.116  1.042  3.073  0.000    22.725     6.790
 116   1 H      0.233  0.767  0.000  0.000     0.953     1.529
 117   1 H      0.056  0.944  0.000  0.000     2.251     2.346
 118   1 H      0.063  0.937  0.000  0.000     2.166     2.301
 119   1 H      0.053  0.947  0.000  0.000     2.286     2.364
 120   1 H      0.022  0.978  0.000  0.000     2.700     2.570
 121   1 H      0.046  0.954  0.000  0.000     2.374     2.409
 122   1 H      0.024  0.976  0.000  0.000     2.667     2.554
 123   1 H      0.044  0.956  0.000  0.000     2.399     2.422
 124   1 H      0.048  0.952  0.000  0.000     2.348     2.396
 125   1 H      0.050  0.950  0.000  0.000     2.322     2.383
 126   1 H      0.037  0.963  0.000  0.000     2.485     2.465
 127   7 N     -0.164  1.237  3.927  0.000    24.542     7.358
 128   6 C     -0.018  1.048  2.970  0.000    20.971     6.534
 129   6 C      0.215  1.085  2.700  0.000    23.457     7.931
 130   8 O     -0.371  1.760  4.611  0.000    21.109     6.160
 131   1 H      0.222  0.778  0.000  0.000     1.002     1.568
 132   1 H      0.089  0.911  0.000  0.000     1.893     2.152
 133   1 H      0.109  0.891  0.000  0.000     1.708     2.044
 134   7 N     -0.384  1.302  4.082  0.000    29.940     8.126
 135   6 C      0.041  1.047  2.912  0.000    19.868     6.344
 136   6 C      0.197  1.085  2.717  0.000    23.791     7.989
 137   8 O     -0.371  1.757  4.615  0.000    21.118     6.161
 138   6 C     -0.063  1.048  3.015  0.000    21.638     6.610
 139   6 C      0.003  1.053  2.945  0.000    20.512     6.445
 140  16 S     -0.222  1.916  4.254  0.051   150.517    20.649
 141   6 C     -0.065  1.057  3.007  0.000    21.811     6.662
 142   1 H      0.166  0.834  0.000  0.000     1.300     1.786
 143   1 H      0.058  0.942  0.000  0.000     2.225     2.333
 144   1 H      0.055  0.945  0.000  0.000     2.256     2.349
 145   1 H      0.037  0.963  0.000  0.000     2.486     2.466
 146   1 H      0.061  0.939  0.000  0.000     2.189     2.314
 147   1 H      0.054  0.946  0.000  0.000     2.265     2.353
 148   1 H      0.058  0.942  0.000  0.000     2.217     2.328
 149   1 H      0.062  0.938  0.000  0.000     2.173     2.305
 150   1 H      0.052  0.948  0.000  0.000     2.296     2.370
 151   1 H      0.173  0.827  0.000  0.000     1.252     1.752
 152   1 H      0.085  0.915  0.000  0.000     1.927     2.171
 153   1 H      0.184  0.816  0.000  0.000     1.189     1.708
 154   1 H      0.071  0.929  0.000  0.000     2.069     2.249
 155   1 H      0.191  0.809  0.000  0.000     1.153     1.682
 156   1 H      0.068  0.932  0.000  0.000     2.103     2.268

 Mol. C6AA /au·bohr⁶  :     217363.235731
 Mol. C8AA /au·bohr⁸  :    4927656.716978
 Mol. α(0) /au        :        703.969125

 
molecular dipole:
                 x           y           z       tot (Debye)
 q only:       94.581      84.450     357.279
   full:       95.095      84.679     356.019     961.066
molecular quadrupole (traceless):
                xx          xy          yy          xz          yz          zz
 q only:   -58035.653   11925.005  -61161.087   50625.050   44633.121  119196.740
  q+dip:   -57471.535   12032.788  -60689.794   50734.750   44549.653  118161.329
   full:   -57470.422   12034.636  -60688.120   50734.193   44549.685  118158.542
speedup  1.29
cpu  time for grad    4.36 s
wall time for grad    3.39 s

SCC energy    :    -223.3889624
rep           :       2.9216400
ES            :       0.5855119
AES           :      -0.0066487
AXC           :       0.1007695
disp          :      -0.1827789
XB            :       0.0000000
fix           :       0.0000000
Gborn         :       0.0000000
Gsasa         :       0.0000000
Ghb           :       0.0000000
Gshift        :       0.0000000
Gsolv         :      -0.2193956     -137.67
Etot ala COSMO:    -223.3889624
grad norm     :       0.4017282
total E       :    -220.4543369
atomizationE  :      42.2195069    26493.14
(atE without considering molecular charge,
 total energy contains solvation terms)
H-L gap (eV)  :          1.6777

------------------------------------------------------------------------
 * finished run on 2019/05/07 at 22:47:30.608     
------------------------------------------------------------------------
 total:
 * wall-time:     0 d,  0 h,  0 min,  3.949 sec
 *  cpu-time:     0 d,  0 h,  0 min,  4.930 sec
 * ratio c/w:     1.248 speedup
 SCF:
 * wall-time:     0 d,  0 h,  0 min,  3.648 sec
 *  cpu-time:     0 d,  0 h,  0 min,  4.750 sec
 * ratio c/w:     1.302 speedup

