      -----------------------------------------------------------      
     |                   =====================                   |     
     |                           x T B                           |     
     |                   =====================                   |     
     |                         S. Grimme                         |     
     |          Mulliken Center for Theoretical Chemistry        |     
     |                    University of Bonn                     |     
     |                 Version 6.0.1 (SAW181210)                 |     
      -----------------------------------------------------------      

   This program is distributed in the hope that it will be useful,
   but WITHOUT ANY WARRANTY; without even the implied warranty of
   MERCHANTABILITY or FITNESS FOR A PARTICULAR PURPOSE.
   
   FOR NON-COMMERCIAL, ACADEMIA USE ONLY.
   
   Cite this work as:
   S. Grimme, C. Bannwarth, P. Shushkov, J. Comput. Theory Chem., 2017,
   13, 1989-2009.
   C. Bannwarth, S. Ehlert and S. Grimme., ChemRxiv, 2018, preprint.
   http://doi.org/10.26434/chemrxiv.7246238.v1
   
   for sTDA-xTB:
   S. Grimme and C. Bannwarth, J. Chem. Phys., 2016, 145, 054103.
   
   in the mass-spec context:
   V. Asgeirsson, C. Bauer and S. Grimme, Chem. Sci., 2017, 8, 4879.
   
   if GBSA is used:
   P. Shushkov, F. März and S. Grimme, unpublished.
   
   for ANC optimizer:
   S. Grimme, unpublished.
   Rational Function algorithm used in ANCopt:
   F. Eckert, P. Pulay, H.-J. Werner, J. Comput. Chem., 1997, 18, 1473.
   
   with help from (in alphabetical order)
   C. Bannwarth, F. Bohle, G. Brandenburg, E. Caldeweyher, M. Checinski,
   S. Dohm, S. Ehlert, S. Ehrlich, F. März, H. Neugebauer, J. Pisarek,
   P. Pracht, P. Shushkov, and S. Spicher.
   
 * started run on 2019/05/05 at 23:23:10.291     
========================================================================
 # omp threads = 2
========================================================================
number of atoms            : 548
number of electrons        : 1492
charge                     : -1
spin                       : .0
first test random number   : .6238

########################################################################
# WARNING! Please study the warnings concerning your input carefully
#  - Process number higher than OMP_NUM_THREADS, I hope you know what you are doing.
########################################################################

           ------------------------------------------------- 
          |                 G F N 2 - x T B                 |
          | Geometry, Frequencies, Noncovalent interactions |
          |            JCTC 2018 parametrisation            |
           ------------------------------------------------- 
 
      method parameters     
 k(s)        :  1.8500
 k(p)        :  2.2300
 k(d)        :  2.2300
 k(f)        :  2.0000
 kEN (H0ij)  : -2.0000
 D4 a1       :  0.5200
 D4 a2       :  5.0000
 D4 s6       :  1.0000
 D4 s8       :  2.7000
 D4 s9       :  5.0000
 alphaj      :  2.0000

 Solvent             : h2o
 Using internal parameter file: .param_gbsa2_h2o
 Gsolv ref. state (COSMO-RS): gsolv [1 M gas/solution]
 temperature (mdtemp)       :    298.150000000000     
 dielectric constant        :    80.2000000000000     
 rho                        :    1.00000000000000     
 mass                       :    18.0000000000000     
 surface tension            :    15.5689454083859     
 probe radius               :   0.975313790000000     
 vdW radii scaling          :    1.00000000000000     
 Gshift (Eh)                :   1.857443126794793E-003
 c1                         :    1.55243817000000     
 soset                      :   0.130326360000000     
 HB correction              :  T

            Z     q(EN)     CN     RAES       Cart. coordinates
     1  N   5.0   -0.22    3.26    1.97   116.46192   104.17681   400.86001
     2  C   4.0    0.03    4.39    4.36   114.20559   104.25051   399.41626
     3  C   4.0    0.07    3.30    3.05   112.61255   101.96394   399.96617
     4  O   6.0   -0.31    1.13    1.80   110.33921   102.17181   400.23451
     5  C   4.0   -0.03    4.41    4.39   114.86699   104.42626   396.63269
     6  C   4.0   -0.05    4.24    4.08   115.51895   107.17203   396.07711
     7  C   4.0   -0.08    4.17    3.93   112.70515   103.47194   394.98863
     8  C   4.0   -0.08    4.04    3.68   116.36554   107.60289   393.39748
     9  H   1.0    0.08    1.04    1.43   118.06630   104.03697   399.79987
    10  H   1.0    0.04    1.07    1.44   113.11522   105.91725   399.94160
    11  H   1.0    0.03    1.06    1.44   116.48271   103.22439   396.19616
    12  H   1.0    0.03    1.03    1.43   113.85032   108.33421   396.40970
    13  H   1.0    0.04    1.03    1.43   117.04774   107.75973   397.32622
    14  H   1.0    0.03    1.00    1.43   113.24939   103.62690   393.00820
    15  H   1.0    0.05    1.01    1.43   112.32153   101.50285   395.46106
    16  H   1.0    0.04    1.00    1.43   111.03274   104.61901   395.34768
    17  H   1.0    0.03    1.00    1.43   116.79640   109.60033   393.14426
    18  H   1.0    0.04    1.00    1.43   118.04740   106.46905   393.03465
    19  H   1.0    0.03    1.00    1.43   114.85187   107.04353   392.11813
    20  N   5.0   -0.20    3.20    1.96   109.31687   103.20171   405.95093
    21  C   4.0    0.03    4.18    3.95   107.24384   104.97995   405.66558
    22  C   4.0    0.09    3.22    3.04   104.92703   103.71194   404.55253
    23  O   6.0   -0.32    1.21    1.80   102.83133   104.21083   405.37834
    24  C   4.0   -0.07    4.12    3.85   108.02996   107.17581   404.03097
    25  H   1.0    0.09    1.03    1.43   110.89290   103.64202   404.93237
    26  H   1.0    0.04    1.06    1.44   106.76007   105.70749   407.53074
    27  H   1.0    0.04    1.00    1.43   106.44448   108.47783   403.84766
    28  H   1.0    0.04    1.00    1.43   109.62489   108.13201   404.91536
    29  H   1.0    0.05    1.00    1.43   108.57609   106.46905   402.17526
    30  N   5.0   -0.21    3.23    1.96    98.23551   104.20516   407.68003
    31  C   4.0    0.04    4.25    4.10    96.33823   105.77741   406.40446
    32  C   4.0    0.08    3.20    3.04    95.32534   104.55665   404.01963
    33  O   6.0   -0.29    1.13    1.80    93.62458   105.53741   402.80831
    34  C   4.0   -0.03    4.36    4.31    97.43805   108.35878   405.80164
    35  C   4.0   -0.02    3.60    3.17    98.40559   109.64946   408.12222
    36  C   4.0   -0.04    3.50    3.12    96.79932   110.97794   409.68881
    37  C   4.0   -0.04    3.51    3.12   100.90570   109.47938   408.79875
    38  C   4.0   -0.02    3.47    3.10    97.67993   112.12122   411.84309
    39  C   4.0   -0.05    3.46    3.10   101.80332   110.60755   410.97949
    40  C   4.0    0.07    3.46    3.10   100.17626   111.93036   412.50639
    41  O   6.0   -0.24    2.10    1.84   101.07010   113.10766   414.64934
    42  H   1.0    0.12    1.09    1.44   100.02319   104.41114   406.98839
    43  H   1.0    0.05    1.06    1.44    94.74708   106.07032   407.68003
    44  H   1.0    0.05    1.04    1.43    99.00463   108.13768   404.48261
    45  H   1.0    0.05    1.04    1.43    95.97351   109.54174   404.96449
    46  H   1.0    0.06    1.03    1.43    94.82078   111.11967   409.21260
    47  H   1.0    0.06    1.03    1.43   102.19638   108.44381   407.60444
    48  H   1.0    0.09    1.07    1.44    96.39681   113.17947   413.02417
    49  H   1.0    0.05    1.03    1.43   103.77619   110.44881   411.47838
    50  H   1.0    0.11    1.02    1.43   102.88235   112.78073   414.84209
    51  N   5.0   -0.21    3.22    1.96   121.35253   120.04295   388.57301
    52  C   4.0    0.03    4.33    4.26   118.76928   119.14155   388.21018
    53  C   4.0    0.15    3.45    3.10   117.01372   119.77272   390.37392
    54  O   6.0   -0.31    1.29    1.80   114.75928   119.94280   390.02432
    55  C   4.0   -0.05    4.41    4.40   118.81652   116.29940   387.81145
    56  C   4.0   -0.02    4.24    4.08   116.30696   114.97849   387.41839
    57  C   4.0   -0.08    4.15    3.89   116.50349   112.90735   385.47764
    58  C   4.0   -0.08    4.16    3.92   115.42635   113.78229   389.84479
    59  H   1.0    0.08    1.03    1.43   122.59219   118.61054   388.93206
    60  H   1.0    0.05    1.06    1.44   118.00961   120.07697   386.53966
    61  H   1.0    0.03    1.04    1.43   119.95980   115.91768   386.14093
    62  H   1.0    0.04    1.05    1.44   119.68579   115.44525   389.47063
    63  H   1.0    0.05    1.06    1.44   114.96337   116.39956   386.77399
    64  H   1.0    0.04    1.00    1.43   114.65912   112.01540   385.26032
    65  H   1.0    0.04    1.00    1.43   117.10443   113.72371   383.68429
    66  H   1.0    0.03    1.00    1.43   117.88488   111.51840   386.11636
    67  H   1.0    0.03    1.00    1.43   113.62166   112.84499   389.51409
    68  H   1.0    0.03    1.00    1.43   116.82853   112.40657   390.46273
    69  H   1.0    0.05    1.00    1.43   115.20525   115.24872   391.27343
    70  N   5.0   -0.15    3.50    2.08   118.02283   120.05996   392.62647
    71  C   4.0    0.03    4.42    4.41   116.51105   120.95002   394.75241
    72  C   4.0    0.16    3.42    3.08   115.61343   123.70335   394.42171
    73  O   6.0   -0.30    1.23    1.80   113.64623   124.40822   395.41760
    74  C   4.0   -0.04    4.34    4.28   118.04362   120.85931   397.19961
    75  C   4.0   -0.02    3.54    3.13   119.27383   118.37621   397.86668
    76  C   4.0   -0.05    3.48    3.11   117.99638   116.10098   397.60023
    77  C   4.0   -0.05    3.48    3.10   121.71536   118.31952   398.82477
    78  C   4.0   -0.05    3.42    3.09   119.13588   113.81441   398.26919
    79  C   4.0   -0.05    3.44    3.09   122.87565   116.06886   399.47862
    80  C   4.0    0.06    3.45    3.09   121.58308   113.82575   399.21595
    81  O   6.0   -0.25    2.11    1.84   122.72636   111.60910   399.88491
    82  H   1.0    0.08    1.07    1.44   119.86721   119.70091   393.05922
    83  H   1.0    0.05    1.06    1.44   114.88211   119.69524   394.87524
    84  H   1.0    0.04    1.04    1.43   119.55162   122.25582   397.05599
    85  H   1.0    0.05    1.03    1.43   116.78317   121.34119   398.75674
    86  H   1.0    0.04    1.03    1.43   116.09342   116.09720   396.86513
    87  H   1.0    0.05    1.03    1.43   122.73203   120.07319   399.06477
    88  H   1.0    0.05    1.03    1.43   118.12299   112.05508   398.05187
    89  H   1.0    0.05    1.03    1.43   124.78805   116.07264   400.19293
    90  H   1.0    0.11    1.03    1.43   124.43656   111.94359   400.51230
    91  N   5.0   -0.12    3.47    2.06   117.10065   125.26426   393.11591
    92  C   4.0    0.04    4.40    4.37   116.49594   127.92689   392.85135
    93  C   4.0    0.15    3.49    3.11   114.22637   128.14043   391.08634
    94  O   6.0   -0.31    1.36    1.80   114.21693   126.93856   389.11536
    95  C   4.0    0.03    4.13    3.85   118.76361   129.44623   391.84601
    96  O   6.0   -0.25    2.01    1.83   120.80262   129.53127   393.61480
    97  H   1.0    0.08    1.06    1.44   118.72770   124.73514   392.22774
    98  H   1.0    0.07    1.07    1.44   116.03295   128.74703   394.68438
    99  H   1.0    0.04    1.01    1.43   119.43257   128.55995   390.11125
   100  H   1.0    0.04    1.01    1.43   118.14567   131.37375   391.46051
   101  H   1.0    0.11    1.00    1.43   122.20858   130.51014   392.91371
   102  N   5.0   -0.10    3.67    2.24   112.28374   129.64654   391.77798
   103  C   4.0    0.04    4.60    4.66   110.03685   129.75425   390.16605
   104  C   4.0    0.15    3.43    3.09   110.43747   131.04683   387.62437
   105  O   6.0   -0.30    1.30    1.80   109.03152   130.49314   385.86503
   106  C   4.0   -0.04    4.39    4.37   108.13390   131.23013   391.76476
   107  C   4.0   -0.04    4.32    4.23   109.21671   131.26981   394.37258
   108  C   4.0   -0.01    4.37    4.33   111.99650   131.38131   393.92660
   109  H   1.0    0.06    1.07    1.44   109.35466   127.83807   389.84290
   110  H   1.0    0.04    1.03    1.43   107.93359   133.14253   391.02398
   111  H   1.0    0.04    1.03    1.43   106.31031   130.27204   391.74208
   112  H   1.0    0.05    1.03    1.43   108.55531   132.93088   395.39681
   113  H   1.0    0.05    1.03    1.43   108.69137   129.55961   395.39114
   114  H   1.0    0.04    1.02    1.43   112.59743   133.28804   393.43338
   115  H   1.0    0.06    1.02    1.43   113.04341   130.71612   395.57066
   116  N   5.0   -0.14    3.36    2.00   112.35177   132.68144   387.40138
   117  C   4.0    0.01    4.23    4.07   113.10577   133.70756   384.93151
   118  C   4.0    0.16    3.34    3.06   113.11333   131.76492   382.78856
   119  O   6.0   -0.29    1.21    1.80   112.45759   132.31672   380.59648
   120  H   1.0    0.07    1.05    1.44   113.41001   133.32772   388.87725
   121  H   1.0    0.06    1.03    1.43   111.80375   135.21745   384.41183
   122  H   1.0    0.04    1.02    1.43   115.00683   134.48613   385.08646
   123  N   5.0   -0.14    3.53    2.10   113.83898   129.46135   383.44807
   124  C   4.0    0.04    4.41    4.40   114.18669   127.47146   381.61504
   125  C   4.0    0.16    3.41    3.08   111.79619   126.02582   380.90261
   126  O   6.0   -0.28    1.25    1.80   111.80375   124.65010   379.04879
   127  C   4.0    0.03    4.17    3.95   116.18602   125.64599   382.61848
   128  O   6.0   -0.24    2.08    1.84   115.43769   124.68223   384.98442
   129  H   1.0    0.09    1.09    1.44   114.20181   128.91899   385.26221
   130  H   1.0    0.06    1.07    1.44   114.84620   128.31995   379.85759
   131  H   1.0    0.05    1.02    1.43   116.40523   124.08696   381.29189
   132  H   1.0    0.04    1.01    1.43   117.97370   126.64943   382.83013
   133  H   1.0    0.15    1.10    1.44   115.22793   126.06740   386.19573
   134  N   5.0   -0.13    3.46    2.06   109.72883   126.35275   382.27644
   135  C   4.0    0.04    4.39    4.35   107.61044   124.57451   382.02511
   136  C   4.0    0.09    3.22    3.04   106.19504   124.86931   379.56657
   137  O   6.0   -0.28    1.12    1.80   105.76418   122.98903   378.27022
   138  C   4.0   -0.04    4.29    4.17   105.83410   124.79183   384.26443
   139  C   4.0   -0.02    3.68    3.22   107.07943   124.11531   386.73808
   140  C   4.0    0.00    3.62    3.18   109.37356   122.94179   387.09146
   141  C   4.0   -0.00    3.89    3.45   106.06087   124.50081   389.20040
   142  N   5.0   -0.11    3.48    2.06   109.83843   122.60731   389.61992
   143  C   4.0    0.03    3.90    3.46   107.83910   123.54083   390.95784
   144  C   4.0   -0.05    3.40    3.08   103.81587   125.57040   390.10558
   145  C   4.0   -0.05    3.40    3.08   107.42903   123.61075   393.54488
   146  C   4.0   -0.05    3.37    3.07   103.40013   125.62709   392.67749
   147  C   4.0   -0.05    3.38    3.07   105.19159   124.64443   394.37258
   148  H   1.0    0.11    1.09    1.44   109.45104   127.77760   383.54445
   149  H   1.0    0.06    1.07    1.44   108.40980   122.67534   382.02511
   150  H   1.0    0.05    1.03    1.43   105.16325   126.73447   384.40049
   151  H   1.0    0.04    1.03    1.43   104.24295   123.51438   383.98286
   152  H   1.0    0.06    1.01    1.43   110.63023   122.36542   385.59102
   153  H   1.0    0.11    1.06    1.44   111.41635   121.79662   390.37581
   154  H   1.0    0.05    1.03    1.43   102.43448   126.33763   388.81300
   155  H   1.0    0.06    1.03    1.43   108.81042   122.88321   394.85824
   156  H   1.0    0.05    1.03    1.43   101.67293   126.43778   393.39937
   157  H   1.0    0.05    1.03    1.43   104.80231   124.70113   396.37569
   158  N   5.0   -0.22    3.18    1.95   104.44515   104.33366   380.63049
   159  C   4.0    0.03    4.25    4.10   104.55098   106.98683   381.38638
   160  C   4.0    0.08    3.25    3.04   102.06599   107.94871   382.43707
   161  O   6.0   -0.32    1.22    1.80   102.04709   109.44159   384.22475
   162  C   4.0   -0.04    4.34    4.28   105.36734   108.61389   379.17351
   163  C   4.0   -0.02    3.77    3.31   105.11223   111.34643   379.57980
   164  C   4.0   -0.01    3.65    3.20   103.72328   112.95270   378.18519
   165  C   4.0    0.01    3.95    3.53   106.28953   112.81475   381.47709
   166  N   5.0   -0.12    3.51    2.09   103.96516   115.35643   379.06202
   167  C   4.0    0.04    3.94    3.52   105.52986   115.32431   381.10670
   168  C   4.0   -0.05    3.42    3.08   107.94682   112.26106   383.44618
   169  C   4.0   -0.05    3.41    3.08   106.33299   117.28773   382.63738
   170  C   4.0   -0.05    3.37    3.07   108.75562   114.20181   384.98631
   171  C   4.0   -0.04    3.39    3.07   107.92225   116.69247   384.58947
   172  H   1.0    0.07    1.03    1.43   104.85333   104.01619   378.77289
   173  H   1.0    0.04    1.06    1.44   105.95315   107.13990   382.88682
   174  H   1.0    0.04    1.04    1.43   107.35155   108.23027   378.77667
   175  H   1.0    0.04    1.04    1.43   104.21461   108.12067   377.53890
   176  H   1.0    0.04    1.02    1.43   102.57432   112.40846   376.58837
   177  H   1.0    0.08    1.04    1.43   103.11857   116.91923   378.31558
   178  H   1.0    0.04    1.03    1.43   108.58554   110.34866   383.75988
   179  H   1.0    0.06    1.03    1.43   105.73017   119.20958   382.30479
   180  H   1.0    0.04    1.03    1.43   110.04630   113.80308   386.51699
   181  H   1.0    0.05    1.03    1.43   108.54964   118.16834   385.85180
   182  N   5.0   -0.21    3.22    1.96   101.44616   105.50907   389.01143
   183  C   4.0    0.03    4.45    4.46   103.37557   106.76763   390.51754
   184  C   4.0    0.15    3.53    3.13   102.69527   109.45671   391.07501
   185  O   6.0   -0.33    1.29    1.80   102.84078   110.23716   393.24063
   186  C   4.0   -0.03    4.32    4.24   105.95126   106.74117   389.20607
   187  C   4.0   -0.08    4.15    3.90   107.78052   108.62712   390.40604
   188  C   4.0   -0.08    4.12    3.85   107.04731   104.09933   389.33268
   189  H   1.0    0.08    1.03    1.43   102.07733   104.94971   387.27855
   190  H   1.0    0.04    1.06    1.44   103.47194   105.69804   392.27498
   191  H   1.0    0.05    1.06    1.44   105.69615   107.30053   387.24075
   192  H   1.0    0.03    1.00    1.43   109.58143   108.54019   389.41205
   193  H   1.0    0.05    1.01    1.43   106.98494   110.52062   390.25486
   194  H   1.0    0.04    1.00    1.43   108.04697   108.13390   392.38837
   195  H   1.0    0.03    1.00    1.43   108.88223   104.08988   388.39726
   196  H   1.0    0.04    1.00    1.43   107.26273   103.55698   391.30744
   197  H   1.0    0.04    1.00    1.43   105.76607   102.79542   388.38215
   198  N   5.0   -0.15    3.52    2.09   101.99040   110.87400   389.13426
   199  C   4.0    0.03    4.43    4.43   101.35734   113.51773   389.51787
   200  C   4.0    0.15    3.47    3.10    99.14258   113.84654   391.32634
   201  O   6.0   -0.32    1.26    1.80    99.06888   115.70414   392.80599
   202  C   4.0   -0.05    4.34    4.28   100.78286   114.84809   387.02343
   203  C   4.0   -0.03    4.20    4.00    99.94950   117.65245   387.16705
   204  C   4.0   -0.07    4.12    3.84   101.84489   119.34753   388.47852
   205  C   4.0   -0.08    4.12    3.85    99.53187   118.68991   384.53655
   206  H   1.0    0.12    1.13    1.45   101.84111   110.26173   387.31256
   207  H   1.0    0.05    1.06    1.44   103.01841   114.41535   390.34179
   208  H   1.0    0.05    1.03    1.43   102.48551   114.78762   385.86692
   209  H   1.0    0.05    1.03    1.43    99.26163   113.81819   386.09180
   210  H   1.0    0.04    1.06    1.44    98.21095   117.67701   388.27254
   211  H   1.0    0.04    1.00    1.43   101.11924   121.27505   388.49742
   212  H   1.0    0.05    1.00    1.43   102.11890   118.68046   390.40793
   213  H   1.0    0.04    1.00    1.43   103.62879   119.27950   387.45240
   214  H   1.0    0.04    1.00    1.43    98.94794   120.66089   384.67828
   215  H   1.0    0.04    1.00    1.43   101.29120   118.55385   383.47453
   216  H   1.0    0.04    1.00    1.43    98.06166   117.58631   383.60681
   217  N   5.0   -0.14    3.39    2.02    97.34923   112.08154   391.20918
   218  C   4.0    0.01    4.27    4.14    95.20439   112.11555   392.95528
   219  C   4.0    0.16    3.34    3.06    96.03587   112.18358   395.68972
   220  O   6.0   -0.31    1.23    1.80    94.95306   113.56119   397.25252
   221  H   1.0    0.08    1.05    1.44    97.32278   110.62267   389.94873
   222  H   1.0    0.05    1.03    1.43    94.04977   113.78040   392.58490
   223  H   1.0    0.04    1.03    1.43    94.06111   110.42803   392.66427
   224  N   5.0   -0.13    3.50    2.08    97.99552   110.68314   396.19427
   225  C   4.0    0.04    4.38    4.35    99.15392   110.44692   398.67737
   226  C   4.0    0.16    3.50    3.11   100.50318   112.80152   399.44271
   227  O   6.0   -0.32    1.30    1.80   100.29720   113.62733   401.55354
   228  C   4.0   -0.07    4.14    3.89   101.01908   108.27185   398.70194
   229  H   1.0    0.09    1.08    1.44    98.85156   109.56820   394.87524
   230  H   1.0    0.06    1.06    1.44    97.64592   110.07276   400.02853
   231  H   1.0    0.05    1.00    1.43   101.86001   108.13201   400.57655
   232  H   1.0    0.05    1.00    1.43   100.02130   106.52763   398.24652
   233  H   1.0    0.06    1.01    1.43   102.48551   108.62901   397.29976
   234  N   5.0   -0.14    3.54    2.11   101.93560   113.86733   397.73062
   235  C   4.0    0.03    4.44    4.45   103.23762   116.20303   398.29376
   236  C   4.0    0.16    3.44    3.09   101.37624   118.33086   399.02130
   237  O   6.0   -0.32    1.28    1.80   101.75796   119.70658   400.87512
   238  C   4.0   -0.05    4.39    4.37   104.79664   117.01561   396.02042
   239  C   4.0   -0.03    4.21    4.02   106.78085   115.15423   395.05855
   240  C   4.0   -0.08    4.10    3.81   107.97516   116.14067   392.63403
   241  C   4.0   -0.08    4.13    3.86   108.75562   114.71392   397.06922
   242  H   1.0    0.10    1.08    1.44   102.23795   113.17947   395.95617
   243  H   1.0    0.05    1.06    1.44   104.49240   115.87044   399.89247
   244  H   1.0    0.05    1.04    1.43   103.50218   117.37277   394.45950
   245  H   1.0    0.04    1.04    1.43   105.79064   118.74849   396.52120
   246  H   1.0    0.05    1.06    1.44   105.89268   113.34576   394.62958
   247  H   1.0    0.04    1.00    1.43   109.38301   114.78573   391.98018
   248  H   1.0    0.04    1.00    1.43   106.50684   116.36932   391.20729
   249  H   1.0    0.04    1.00    1.43   108.87089   117.95480   393.01764
   250  H   1.0    0.03    1.00    1.43   110.15591   113.38167   396.35490
   251  H   1.0    0.04    1.00    1.43   109.66080   116.50727   397.52464
   252  H   1.0    0.04    1.00    1.43   107.84477   113.94103   398.74729
   253  N   5.0   -0.14    3.52    2.09    99.34478   118.57652   397.58511
   254  C   4.0    0.04    4.47    4.49    97.55521   120.60231   398.05376
   255  C   4.0    0.16    3.47    3.10    96.19272   120.18468   400.52741
   256  O   6.0   -0.31    1.27    1.80    95.81477   121.94968   402.00518
   257  C   4.0   -0.05    4.29    4.19    95.66738   120.74971   395.89381
   258  C   4.0   -0.05    4.20    3.99    96.88625   121.58308   393.43149
   259  C   4.0   -0.05    4.16    3.92    95.05510   122.18779   391.29043
   260  C   4.0   -0.04    4.12    3.84    94.58645   125.03750   390.98619
   261  N   5.0   -0.12    4.01    2.88    93.89292   125.59875   388.32545
   262  H   1.0    0.11    1.09    1.44    98.88936   117.42568   396.10735
   263  H   1.0    0.05    1.06    1.44    98.56622   122.39566   398.15203
   264  H   1.0    0.05    1.03    1.43    94.83401   118.88833   395.59901
   265  H   1.0    0.04    1.03    1.43    94.19906   122.11031   396.37569
   266  H   1.0    0.04    1.04    1.43    97.98796   123.28572   393.79432
   267  H   1.0    0.05    1.04    1.43    98.12024   120.07130   392.77198
   268  H   1.0    0.04    1.03    1.43    95.83367   121.47914   389.51976
   269  H   1.0    0.04    1.03    1.43    93.24475   121.28261   391.67783
   270  H   1.0    0.04    1.02    1.43    93.04066   125.62520   392.21451
   271  H   1.0    0.03    1.02    1.43    96.29854   126.08063   391.46051
   272  H   1.0    0.05    1.01    1.43    93.57356   127.52627   388.10625
   273  H   1.0    0.05    1.02    1.43    95.34801   125.05261   387.12170
   274  H   1.0    0.05    1.02    1.43    92.26020   124.62176   387.83602
   275  N   5.0   -0.14    3.52    2.09    95.44439   117.82819   400.94693
   276  C   4.0    0.04    4.37    4.33    94.29166   117.03829   403.32421
   277  C   4.0    0.17    3.49    3.11    95.83178   118.02472   405.53141
   278  O   6.0   -0.31    1.29    1.80    94.92282   119.30785   407.23027
   279  C   4.0   -0.06    4.13    3.86    94.15749   114.16023   403.42625
   280  H   1.0    0.11    1.09    1.44    95.60879   116.39767   399.66570
   281  H   1.0    0.05    1.05    1.44    92.37547   117.78284   403.44515
   282  H   1.0    0.05    1.00    1.43    93.29388   113.59143   405.20827
   283  H   1.0    0.06    1.00    1.43    93.01987   113.48560   401.84644
   284  H   1.0    0.06    1.00    1.43    96.06611   113.39490   403.29586
   285  N   5.0   -0.14    3.59    2.15    98.24307   117.44080   405.35378
   286  C   4.0    0.04    4.40    4.39   100.03264   117.82063   407.33421
   287  C   4.0    0.16    3.46    3.10   100.46539   120.58530   407.74617
   288  O   6.0   -0.30    1.25    1.80   100.52019   121.39977   409.89101
   289  C   4.0   -0.07    4.14    3.88   102.49496   116.50349   406.65013
   290  H   1.0    0.11    1.10    1.44    99.03865   116.66412   403.77963
   291  H   1.0    0.06    1.06    1.44    99.32211   117.00427   409.08598
   292  H   1.0    0.04    1.00    1.43   103.85745   116.79829   408.16758
   293  H   1.0    0.05    1.00    1.43   102.13402   114.48905   406.41013
   294  H   1.0    0.06    1.00    1.43   103.21683   117.30096   404.89457
   295  N   5.0   -0.14    3.46    2.05   100.79420   121.99882   405.69204
   296  C   4.0    0.04    4.34    4.27   100.99262   124.77482   405.81109
   297  C   4.0    0.16    3.36    3.07    98.67582   126.00693   407.16602
   298  O   6.0   -0.25    1.21    1.80    99.02542   127.70579   408.78174
   299  C   4.0   -0.05    4.23    4.06   101.47828   125.87842   403.15602
   300  C   4.0   -0.05    4.15    3.89   101.71450   128.74892   403.05209
   301  C   4.0   -0.00    4.12    3.84   103.53431   129.77882   401.01874
   302  N   5.0   -0.14    3.29    1.98   102.57999   131.02226   398.67359
   303  C   4.0    0.09    3.29    3.05   100.52019   130.44967   397.26386
   304  N   5.0   -0.19    3.20    1.96    98.86101   128.59207   397.82322
   305  N   5.0   -0.19    3.22    1.96   100.09311   131.81972   395.17760
   306  H   1.0    0.11    1.10    1.44   100.93404   121.29584   403.90247
   307  H   1.0    0.06    1.06    1.44   102.63291   125.26993   406.95437
   308  H   1.0    0.04    1.03    1.43   103.23762   125.08852   402.43415
   309  H   1.0    0.05    1.03    1.43    99.90981   125.34363   401.93148
   310  H   1.0    0.06    1.03    1.43    99.85312   129.54260   402.66658
   311  H   1.0    0.05    1.03    1.43   102.39858   129.41221   404.87756
   312  H   1.0    0.06    1.03    1.43   104.73050   131.17911   401.94093
   313  H   1.0    0.04    1.03    1.43   104.67570   128.18956   400.37813
   314  H   1.0    0.08    1.06    1.44   103.62501   132.51325   398.04243
   315  H   1.0    0.08    1.04    1.43    99.11991   127.51115   399.39925
   316  H   1.0    0.08    1.02    1.43    97.35112   128.27082   396.67048
   317  H   1.0    0.08    1.02    1.43   101.30065   133.24269   394.69383
   318  H   1.0    0.08    1.02    1.43    98.56055   131.43989   394.07211
   319  N   5.0   -0.13    3.43    2.03    96.36657   125.10553   406.59721
   320  C   4.0    0.05    4.44    4.44    94.07245   126.25826   407.65735
   321  C   4.0    0.16    3.46    3.10    93.78521   125.53449   410.40501
   322  O   6.0   -0.25    1.22    1.80    93.50175   127.13320   412.09443
   323  C   4.0   -0.04    4.30    4.19    91.65738   125.46080   406.19281
   324  C   4.0   -0.03    4.21    4.02    89.28010   126.70235   407.19437
   325  C   4.0    0.25    3.14    3.03    89.37459   129.55772   406.96004
   326  O   6.0   -0.28    1.22    1.80    90.94306   130.48558   405.46716
   327  O   6.0   -0.27    1.17    1.80    87.92895   130.89187   408.26584
   328  H   1.0    0.11    1.08    1.44    96.03209   123.60886   405.43125
   329  H   1.0    0.08    1.06    1.44    94.26142   128.30105   407.46649
   330  H   1.0    0.06    1.03    1.43    91.86903   125.99559   404.21427
   331  H   1.0    0.05    1.03    1.43    91.42305   123.41989   406.34966
   332  H   1.0    0.05    1.03    1.43    87.65872   126.02204   406.12100
   333  H   1.0    0.06    1.03    1.43    89.05711   126.22802   409.18614
   334  N   5.0   -0.14    3.51    2.08    93.86458   123.06651   410.78485
   335  C   4.0    0.04    4.39    4.36    93.47718   121.94213   413.23204
   336  C   4.0    0.16    3.37    3.07    95.36880   122.67345   415.34098
   337  O   6.0   -0.29    1.26    1.80    94.67338   122.51660   417.52550
   338  C   4.0   -0.04    4.29    4.17    93.33356   119.06785   412.93536
   339  C   4.0   -0.03    4.17    3.95    92.60035   117.61087   415.30696
   340  C   4.0    0.23    3.12    3.03    92.48319   114.77440   414.82319
   341  O   6.0   -0.28    1.15    1.80    90.91283   113.88055   413.31897
   342  O   6.0   -0.28    1.15    1.80    94.16693   113.32875   416.07797
   343  H   1.0    0.11    1.13    1.45    94.20095   121.77205   409.39779
   344  H   1.0    0.06    1.07    1.44    91.68194   122.67156   413.92935
   345  H   1.0    0.06    1.03    1.43    91.92950   118.63511   411.49160
   346  H   1.0    0.06    1.03    1.43    95.18550   118.38377   412.34387
   347  H   1.0    0.06    1.03    1.43    94.00064   117.95858   416.77717
   348  H   1.0    0.06    1.03    1.43    90.74275   118.23448   415.94002
   349  N   5.0   -0.11    3.40    2.02    97.68938   123.47280   414.77406
   350  C   4.0    0.04    4.38    4.34    99.54698   124.14933   416.79229
   351  C   4.0    0.15    3.39    3.08   100.60334   126.82707   416.52395
   352  O   6.0   -0.25    1.24    1.80   100.19894   128.09507   414.59642
   353  C   4.0   -0.03    4.28    4.16   101.83166   122.36542   416.85465
   354  C   4.0   -0.02    4.22    4.04   101.27608   119.53650   416.93402
   355  C   4.0    0.16    3.22    3.04   100.15359   118.58786   419.39255
   356  O   6.0   -0.28    1.22    1.80   100.81310   119.52706   421.41456
   357  N   5.0   -0.17    3.18    1.95    98.53976   116.69058   419.25649
   358  H   1.0    0.12    1.05    1.44    98.35835   123.67878   412.97882
   359  H   1.0    0.07    1.07    1.44    98.46795   124.02460   418.54217
   360  H   1.0    0.06    1.03    1.43   102.95416   122.70935   415.16145
   361  H   1.0    0.06    1.04    1.43   102.93715   122.80762   418.53461
   362  H   1.0    0.05    1.04    1.43    99.93627   119.09242   415.43357
   363  H   1.0    0.05    1.03    1.43   103.03920   118.51605   416.62788
   364  H   1.0    0.10    1.03    1.43    98.09567   115.92524   417.54440
   365  H   1.0    0.10    1.02    1.43    97.73663   115.99138   420.86276
   366  N   5.0   -0.14    3.48    2.07   101.91481   127.65477   418.51950
   367  C   4.0    0.03    4.50    4.54   103.47761   129.90543   418.40800
   368  C   4.0    0.15    3.48    3.11   106.08544   128.94923   417.71825
   369  O   6.0   -0.30    1.25    1.80   107.17203   127.34863   419.01082
   370  C   4.0   -0.02    4.26    4.11   103.67603   131.42099   420.90811
   371  C   4.0   -0.08    4.09    3.78   105.11223   133.90976   420.44702
   372  C   4.0   -0.07    4.09    3.78   101.08333   131.89153   422.09108
   373  H   1.0    0.08    1.06    1.44   101.92048   126.78927   420.24104
   374  H   1.0    0.05    1.06    1.44   102.65180   131.19422   417.03039
   375  H   1.0    0.05    1.06    1.44   104.73806   130.30227   422.27438
   376  H   1.0    0.04    1.00    1.43   105.23506   134.95100   422.21958
   377  H   1.0    0.04    1.00    1.43   107.00195   133.47512   419.75538
   378  H   1.0    0.04    1.00    1.43   104.09177   135.02470   419.04862
   379  H   1.0    0.04    1.00    1.43   101.32522   132.95923   423.83529
   380  H   1.0    0.05    1.00    1.43    99.92682   132.96490   420.76638
   381  H   1.0    0.05    1.00    1.43   100.19138   130.07929   422.49548
   382  N   5.0   -0.15    3.46    2.05   107.10589   130.06228   415.73215
   383  C   4.0    0.04    4.37    4.33   109.33198   129.10986   414.49060
   384  C   4.0    0.09    3.26    3.04   111.64690   129.17789   416.21970
   385  O   6.0   -0.30    1.12    1.80   112.86955   127.27493   416.60331
   386  C   4.0    0.05    4.21    4.01   109.73261   130.59896   412.02073
   387  O   6.0   -0.24    2.09    1.84   109.92158   128.82829   410.03652
   388  C   4.0   -0.07    4.05    3.71   112.08532   132.41688   412.02451
   389  H   1.0    0.07    1.07    1.44   106.41236   131.66855   414.92146
   390  H   1.0    0.07    1.07    1.44   109.06553   127.12753   413.99927
   391  H   1.0    0.04    1.05    1.44   108.13201   131.86886   411.75995
   392  H   1.0    0.12    1.01    1.43   110.18047   129.70701   408.42647
   393  H   1.0    0.04    1.00    1.43   112.22704   133.39009   410.21415
   394  H   1.0    0.04    0.99    1.43   111.89256   133.81716   413.52306
   395  H   1.0    0.06    1.00    1.43   113.81064   131.33595   412.33820
   396  N   5.0   -0.20    3.22    1.96   111.79619   125.05639   422.32351
   397  C   4.0    0.04    4.23    4.07   112.16279   122.39755   421.82463
   398  C   4.0    0.08    3.20    3.04   114.99360   121.94968   421.41078
   399  O   6.0   -0.29    1.12    1.80   116.04807   120.14878   422.39154
   400  C   4.0   -0.03    4.29    4.17   110.55275   121.61142   419.57963
   401  C   4.0   -0.03    4.25    4.09   110.16913   118.79762   419.24515
   402  C   4.0    0.15    3.21    3.04   108.47783   117.52206   421.15755
   403  O   6.0   -0.29    1.21    1.80   106.66936   118.64455   422.05328
   404  N   5.0   -0.18    3.16    1.95   109.01451   115.08998   421.72258
   405  H   1.0    0.11    1.04    1.43   110.87400   125.99748   420.91567
   406  H   1.0    0.05    1.06    1.44   111.53918   121.21458   423.39121
   407  H   1.0    0.07    1.04    1.43   108.68759   122.45991   419.79506
   408  H   1.0    0.06    1.03    1.43   111.45226   122.31251   417.86376
   409  H   1.0    0.05    1.07    1.44   109.33387   118.47826   417.38944
   410  H   1.0    0.05    1.04    1.43   112.00973   117.87921   419.35664
   411  H   1.0    0.08    1.02    1.43   110.50172   114.20748   420.87031
   412  H   1.0    0.10    1.02    1.43   107.93359   114.13756   423.00193
   413  O   6.0   -0.28    2.03    1.83    97.07333   131.00714   412.22671
   414  H   1.0    0.16    1.02    1.43    98.34701   131.95389   412.22671
   415  H   1.0    0.16    1.02    1.43    95.79777   131.95200   412.22671
   416  N   5.0   -0.22    3.22    1.96   102.22473   120.53239   431.04838
   417  C   4.0    0.03    4.33    4.25   104.19571   119.03951   429.86919
   418  C   4.0    0.07    3.27    3.05   104.28453   116.42035   431.03704
   419  O   6.0   -0.29    1.11    1.80   104.47161   114.44936   429.74258
   420  C   4.0   -0.03    4.31    4.22   106.74306   120.33586   430.21501
   421  C   4.0   -0.07    4.13    3.87   108.92569   118.56141   429.54416
   422  C   4.0   -0.08    4.13    3.85   106.81676   122.70935   428.61630
   423  H   1.0    0.08    1.03    1.43   102.86723   122.02338   432.08773
   424  H   1.0    0.06    1.06    1.44   103.77052   118.87321   427.86041
   425  H   1.0    0.04    1.06    1.44   106.98306   120.85175   432.19544
   426  H   1.0    0.04    1.00    1.43   110.70771   119.55729   429.81628
   427  H   1.0    0.05    1.01    1.43   108.85010   116.90979   430.77437
   428  H   1.0    0.06    1.00    1.43   108.73861   117.98126   427.57695
   429  H   1.0    0.04    1.00    1.43   108.64034   123.63154   428.86952
   430  H   1.0    0.05    1.00    1.43   106.55787   122.19346   426.63965
   431  H   1.0    0.04    1.00    1.43   105.30309   123.96980   429.21723
   432  N   5.0   -0.20    3.19    1.95    98.97818   112.45570   429.26448
   433  C   4.0    0.04    4.19    3.98    99.51297   111.40123   426.77760
   434  C   4.0    0.10    3.24    3.04   101.20616   109.08632   426.95523
   435  O   6.0   -0.27    1.11    1.80   100.73940   107.14746   425.74203
   436  C   4.0    0.04    4.14    3.88   100.70539   113.40623   425.04472
   437  O   6.0   -0.23    2.06    1.83   102.58944   112.34421   423.46680
   438  H   1.0    0.09    1.03    1.43    99.72273   114.21315   429.52904
   439  H   1.0    0.05    1.06    1.44    97.72529   110.82298   425.93478
   440  H   1.0    0.05    1.01    1.43    99.23140   114.22449   423.86175
   441  H   1.0    0.06    1.02    1.43   101.56332   114.86888   426.21257
   442  H   1.0    0.13    1.01    1.43   103.31888   113.65568   422.38210
   443  N   5.0   -0.22    3.25    1.97   122.09330   118.69180   406.81453
   444  C   4.0    0.03    4.37    4.32   119.69146   118.41590   405.55598
   445  C   4.0    0.15    3.49    3.11   117.88299   120.41523   406.45737
   446  O   6.0   -0.31    1.27    1.80   116.81719   121.77961   404.93993
   447  C   4.0   -0.04    4.40    4.39   118.69936   115.76083   406.00951
   448  C   4.0   -0.01    3.64    3.19   115.93280   115.46415   405.69959
   449  C   4.0   -0.04    3.54    3.13   114.90101   115.30730   403.36578
   450  C   4.0   -0.04    3.52    3.13   114.40023   115.19391   407.75940
   451  C   4.0   -0.05    3.42    3.08   112.34988   114.93691   403.03886
   452  C   4.0   -0.04    3.41    3.08   111.83398   114.80085   407.47405
   453  C   4.0   -0.05    3.40    3.08   110.79652   114.69314   405.09488
   454  H   1.0    0.08    1.03    1.43   122.60542   117.16868   407.87845
   455  H   1.0    0.05    1.06    1.44   119.89933   118.65211   403.52074
   456  H   1.0    0.04    1.04    1.43   119.61020   114.48716   404.67158
   457  H   1.0    0.04    1.05    1.44   119.16801   115.21092   407.93892
   458  H   1.0    0.05    1.05    1.44   116.10476   115.47548   401.72739
   459  H   1.0    0.05    1.03    1.43   115.20336   115.28840   409.63400
   460  H   1.0    0.04    1.03    1.43   111.56942   114.83865   401.15669
   461  H   1.0    0.05    1.03    1.43   110.64534   114.57786   409.11811
   462  H   1.0    0.04    1.03    1.43   108.78774   114.42102   404.85111
   463  N   5.0   -0.15    3.47    2.06   117.61465   120.66278   408.93103
   464  C   4.0    0.04    4.42    4.41   115.79107   122.46747   409.95526
   465  C   4.0    0.09    3.26    3.04   116.43168   125.12820   409.19748
   466  O   6.0   -0.29    1.15    1.80   114.83487   126.39432   408.22049
   467  C   4.0   -0.04    4.34    4.26   115.48493   122.22747   412.80874
   468  C   4.0   -0.02    3.76    3.29   114.19047   119.90122   413.40968
   469  C   4.0   -0.01    3.62    3.18   115.23549   117.70158   414.25438
   470  C   4.0    0.00    3.90    3.47   111.58265   119.43068   413.06575
   471  N   5.0   -0.13    3.46    2.05   113.40623   115.87044   414.53406
   472  C   4.0    0.02    3.91    3.48   111.13289   116.88522   413.79707
   473  C   4.0   -0.05    3.39    3.08   109.54741   120.92545   412.27206
   474  C   4.0   -0.06    3.38    3.07   108.70837   115.80430   413.75928
   475  C   4.0   -0.04    3.35    3.07   107.16069   119.86343   412.21537
   476  C   4.0   -0.05    3.36    3.07   106.75440   117.31797   412.95425
   477  H   1.0    0.07    1.06    1.44   118.60298   119.67068   410.25572
   478  H   1.0    0.06    1.08    1.44   113.95425   121.99504   409.15401
   479  H   1.0    0.04    1.04    1.43   117.33875   122.20669   413.70636
   480  H   1.0    0.06    1.04    1.43   114.37377   123.80918   413.52306
   481  H   1.0    0.04    1.01    1.43   117.21970   117.43324   414.64934
   482  H   1.0    0.07    1.04    1.43   113.68969   114.07520   415.17657
   483  H   1.0    0.06    1.02    1.43   109.83654   122.86809   411.71648
   484  H   1.0    0.05    1.02    1.43   108.39279   113.87300   414.33564
   485  H   1.0    0.06    1.03    1.43   105.57710   120.99159   411.59743
   486  H   1.0    0.05    1.03    1.43   104.86467   116.55074   412.88244
   487  N   5.0   -0.19    3.12    1.94   119.48737   127.01226   404.31065
   488  C   4.0    0.01    4.16    3.92   119.10376   127.15777   401.58566
   489  C   4.0    0.16    3.30    3.05   116.43546   127.87964   400.84678
   490  O   6.0   -0.30    1.22    1.80   116.10854   129.45190   399.16492
   491  H   1.0    0.09    1.02    1.43   120.03917   125.26804   404.91914
   492  H   1.0    0.05    1.03    1.43   120.38688   128.56373   400.79954
   493  H   1.0    0.04    1.03    1.43   119.52517   125.32285   400.74851
   494  N   5.0   -0.13    3.46    2.05   114.56464   126.77416   402.14691
   495  C   4.0    0.03    4.43    4.44   111.87367   127.40343   401.77274
   496  C   4.0    0.15    3.45    3.09   111.11400   130.08307   402.47005
   497  O   6.0   -0.31    1.22    1.80   109.23939   131.10163   401.49306
   498  C   4.0   -0.04    4.46    4.48   110.26362   125.73103   403.40169
   499  C   4.0   -0.02    4.24    4.08   110.20693   122.98903   402.64391
   500  C   4.0   -0.07    4.13    3.87   108.95593   121.42056   404.66403
   501  C   4.0   -0.07    4.14    3.88   108.79530   122.67156   400.17593
   502  H   1.0    0.11    1.07    1.44   114.84243   125.41922   403.49051
   503  H   1.0    0.06    1.06    1.44   111.55619   127.13131   399.75641
   504  H   1.0    0.06    1.04    1.43   110.97794   125.82362   405.33110
   505  H   1.0    0.04    1.05    1.44   108.32665   126.43022   403.33366
   506  H   1.0    0.05    1.06    1.44   112.14201   122.32763   402.39824
   507  H   1.0    0.04    1.00    1.43   108.94081   119.44958   404.06876
   508  H   1.0    0.05    1.00    1.43   110.01796   121.61520   406.41769
   509  H   1.0    0.04    1.00    1.43   107.02652   122.08763   404.93237
   510  H   1.0    0.04    1.00    1.43   108.77829   120.67601   399.66570
   511  H   1.0    0.04    1.00    1.43   106.86589   123.35186   400.41403
   512  H   1.0    0.05    1.00    1.43   109.74961   123.76193   398.71328
   513  N   5.0   -0.14    3.40    2.02   112.53885   131.16021   404.22939
   514  C   4.0    0.02    4.28    4.16   112.01917   133.59796   405.28952
   515  C   4.0    0.17    3.35    3.06   111.79241   135.75413   403.45649
   516  O   6.0   -0.27    1.24    1.80   110.37889   137.51347   403.99128
   517  H   1.0    0.09    1.07    1.44   114.12055   130.34574   404.97394
   518  H   1.0    0.05    1.04    1.43   110.24283   133.48646   406.32698
   519  H   1.0    0.05    1.03    1.43   113.53474   134.06850   406.60288
   520  N   5.0   -0.12    3.35    2.00   113.18325   135.67854   401.34945
   521  C   4.0    0.02    4.18    3.95   113.34954   137.85551   399.64113
   522  C   4.0    0.26    3.12    3.03   114.47960   140.19877   400.95638
   523  O   6.0   -0.26    1.22    1.80   115.01628   140.24223   403.24295
   524  O   6.0   -0.27    1.19    1.80   114.93124   142.18487   399.80554
   525  H   1.0    0.09    1.05    1.44   114.20937   134.14976   400.77686
   526  H   1.0    0.05    1.02    1.43   114.54196   137.37174   398.03298
   527  H   1.0    0.06    1.02    1.43   111.46549   138.33550   398.95894
   528  H   1.0    0.09    1.08    1.44   116.59248   105.59978   401.78234
   529  H   1.0    0.05    1.05    1.44   113.42102   100.26221   400.11292
   530  H   1.0    0.09    1.07    1.44   109.78664   103.13472   407.58414
   531  H   1.0    0.06    1.05    1.44   105.11636   102.46780   403.14280
   532  H   1.0    0.10    1.07    1.44    98.28922   104.60793   409.33153
   533  H   1.0    0.06    1.05    1.44    96.05116   102.92028   403.41420
   534  H   1.0    0.09    1.07    1.44   121.87577   120.84702   387.16864
   535  H   1.0    0.06    1.04    1.44   105.61848   126.57988   379.00749
   536  H   1.0    0.09    1.07    1.44   105.56630   103.43808   381.54347
   537  H   1.0    0.05    1.04    1.44   100.43350   107.37219   381.67966
   538  H   1.0    0.09    1.07    1.44   100.90203   104.12145   389.83057
   539  H   1.0    0.05    1.05    1.44   112.16334   130.79809   417.04388
   540  H   1.0    0.09    1.07    1.44   110.87570   125.24643   423.74096
   541  H   1.0    0.06    1.05    1.44   115.99015   123.13757   420.33055
   542  H   1.0    0.09    1.07    1.44   101.20096   121.16976   429.84912
   543  H   1.0    0.05    1.05    1.44   104.19249   116.21900   432.91375
   544  H   1.0    0.09    1.07    1.44    97.29549   112.57789   429.47943
   545  H   1.0    0.07    1.05    1.44   102.73158   109.11474   428.07030
   546  H   1.0    0.09    1.07    1.44   123.31712   118.92642   405.65705
   547  H   1.0    0.05    1.05    1.44   118.16617   125.80881   409.51273
   548  H   1.0    0.09    1.07    1.44   120.69457   128.11711   404.77382

  Z AO/shell   Hii/eV     exponent
  1     Wed Apr 25 08:07:45 CEST 2018   EN: 2.200 GM2: 0.406  GM3: 0.0800  RAES: 1.40
     1s    -10.707211    1.230000
  6     Wed Apr 25 08:07:45 CEST 2018   EN: 2.550 GM2: 0.538  GM3: 0.1500  RAES: 3.00
     2s    -13.970922    2.096432
     2p    -10.063292    1.800000
  7     Wed Apr 25 08:07:45 CEST 2018   EN: 3.040 GM2: 0.461  GM3:-0.0640  RAES: 1.90
     2s    -16.686243    2.339881
     2p    -12.523956    2.014332
  8     Wed Apr 25 08:07:45 CEST 2018   EN: 3.440 GM2: 0.452  GM3:-0.0517  RAES: 1.80
     2s    -20.229985    2.439742
     2p    -15.503117    2.137023
 no old-style atom pair restraining (fixing) potential

molecular fragmentation (1/2 indicates fragments):
111111111111111111122222222222222222222222222222222222222222222222222222
222222222222222222222222222222222222222222222222222222222222222222222222
222222222222222222222222222222222222222222222222222222222222222222222222
222222222222222222222222222222222222222222222222222222222222222222222222
222222222222222222222222222222222222222222222222222222222222222222222222
222222222222222222222222222222222222222222222222222222222222222222222222
222222222222222222222222222222222222222222222222222222222222222222222222
22222222222222222222222112222222222222222222
# atoms in fragment 1/2:    21   527
 fragment masses (1/2) :      115.17     3663.24
CMA distance (Bohr)    :  18.568
constraining FC (au)   :  0.0500
           ------------------------------------------------- 
          |        Self-Consistent Charge Iterations        |
           ------------------------------------------------- 

 Ncao       : 1352
 Nao        : 1352
 Nshell     : 816
 Nel        : 1492
 T(el)      :   500.0
 intcut     :    35.0
 scfconv/Eh :  0.100E-06
   qconv/e  :  0.100E-04
 intneglect :  0.100E-08
 broydamp   :      0.400
 iter      E             dE          RMSdq      gap      omega  full diag
   1   -851.8655452 -0.851866E+03  0.466E+00    2.60       0.0  T
   2   -853.8593488 -0.199380E+01  0.223E+00    1.55       1.0  T
   3   -853.9751659 -0.115817E+00  0.123E+00    2.01       1.0  T
   4   -854.1142920 -0.139126E+00  0.265E-01    1.45       1.0  T
   5   -854.1232327 -0.894067E-02  0.133E-01    1.54       1.0  T
   6   -854.1252480 -0.201530E-02  0.662E-02    1.54       1.0  T
   7   -854.1260826 -0.834622E-03  0.298E-02    1.50       1.0  T
   8   -854.1261882 -0.105626E-03  0.154E-02    1.48       1.0  T
   9   -854.1262191 -0.308776E-04  0.687E-03    1.47       1.0  T
  10   -854.1262254 -0.624396E-05  0.340E-03    1.46       1.3  T
  11   -854.1262267 -0.135083E-05  0.153E-03    1.45       2.8  T
  12   -854.1262271 -0.345782E-06  0.713E-04    1.45       6.0  T
  13   -854.1262271 -0.755126E-07  0.332E-04    1.45      12.8  T
  14   -854.1262272 -0.145401E-07  0.181E-04    1.45      23.7  T
  15   -854.1262272 -0.488058E-08  0.782E-05    1.45      54.6  T
  16   -854.1262272 -0.100670E-08  0.411E-05    1.45     104.0  T
speedup  1.97
cpu  time for SCC   17.05 s
wall time for SCC    8.65 s

   *** convergence criteria satisfied after 16 iterations ***

          eigenvalues
 #    :         734        735        736        737        738        739        740        741
 occ. :        2.000      2.000      2.000      2.000      2.000      2.000      2.000      2.000
 eps  :       -10.044    -10.009    -10.000     -9.921     -9.847     -9.840     -9.832     -9.757
 #    :         742        743        744        745        746        747        748        749
 occ. :        2.000      2.000      2.000      2.000      2.000      0.000      0.000      0.000
 eps  :        -9.746     -9.707     -9.536     -9.527     -9.397     -7.945     -7.926     -7.785
 #    :         750        751        752        753        754        755        756        757
 occ. :        0.000      0.000      0.000      0.000      0.000      0.000      0.000      0.000
 eps  :        -7.740     -7.738     -7.697     -7.597     -7.513     -7.507     -7.461     -6.659


   #   Z            q   n(s)   n(p)   n(d)      C6AA      α(0)
   1   7 N     -0.395  1.319  4.076  0.000    30.227     8.165
   2   6 C      0.041  1.045  2.914  0.000    19.889     6.350
   3   6 C      0.201  1.085  2.714  0.000    23.726     7.978
   4   8 O     -0.373  1.751  4.622  0.000    21.157     6.167
   5   6 C     -0.023  1.065  2.958  0.000    20.942     6.508
   6   6 C     -0.057  1.047  3.010  0.000    21.595     6.614
   7   6 C     -0.113  1.041  3.072  0.000    22.724     6.797
   8   6 C     -0.111  1.038  3.074  0.000    22.691     6.793
   9   1 H      0.167  0.833  0.000  0.000     1.292     1.781
  10   1 H      0.045  0.955  0.000  0.000     2.385     2.415
  11   1 H      0.043  0.957  0.000  0.000     2.416     2.431
  12   1 H      0.038  0.962  0.000  0.000     2.474     2.460
  13   1 H      0.034  0.966  0.000  0.000     2.532     2.488
  14   1 H      0.057  0.943  0.000  0.000     2.231     2.336
  15   1 H      0.031  0.969  0.000  0.000     2.574     2.509
  16   1 H      0.042  0.958  0.000  0.000     2.417     2.431
  17   1 H      0.044  0.956  0.000  0.000     2.391     2.418
  18   1 H      0.036  0.964  0.000  0.000     2.499     2.472
  19   1 H      0.046  0.954  0.000  0.000     2.372     2.408
  20   7 N     -0.390  1.322  4.067  0.000    30.088     8.147
  21   6 C      0.045  1.046  2.909  0.000    19.833     6.343
  22   6 C      0.202  1.094  2.704  0.000    23.698     7.973
  23   8 O     -0.374  1.747  4.627  0.000    21.173     6.169
  24   6 C     -0.117  1.042  3.075  0.000    22.786     6.805
  25   1 H      0.161  0.839  0.000  0.000     1.328     1.805
  26   1 H      0.045  0.955  0.000  0.000     2.388     2.416
  27   1 H      0.045  0.955  0.000  0.000     2.387     2.416
  28   1 H      0.065  0.935  0.000  0.000     2.139     2.287
  29   1 H      0.069  0.931  0.000  0.000     2.095     2.263
  30   7 N     -0.414  1.328  4.086  0.000    30.773     8.239
  31   6 C      0.042  1.052  2.906  0.000    19.881     6.351
  32   6 C      0.201  1.089  2.710  0.000    23.729     7.978
  33   8 O     -0.383  1.752  4.632  0.000    21.351     6.195
  34   6 C     -0.064  1.050  3.014  0.000    21.714     6.632
  35   6 C      0.005  1.072  2.923  0.000    27.903     8.665
  36   6 C     -0.035  1.076  2.958  0.000    28.859     8.811
  37   6 C     -0.046  1.079  2.966  0.000    29.135     8.852
  38   6 C     -0.053  1.074  2.979  0.000    29.327     8.881
  39   6 C     -0.078  1.076  3.001  0.000    29.939     8.973
  40   6 C      0.144  1.042  2.814  0.000    24.864     8.173
  41   8 O     -0.456  1.740  4.716  0.000    21.973     6.328
  42   1 H      0.205  0.795  0.000  0.000     1.078     1.627
  43   1 H      0.053  0.947  0.000  0.000     2.282     2.362
  44   1 H      0.057  0.943  0.000  0.000     2.229     2.335
  45   1 H      0.049  0.951  0.000  0.000     2.338     2.391
  46   1 H      0.009  0.991  0.000  0.000     2.903     2.664
  47   1 H      0.064  0.936  0.000  0.000     2.155     2.296
  48   1 H      0.021  0.979  0.000  0.000     2.716     2.577
  49   1 H      0.055  0.945  0.000  0.000     2.253     2.347
  50   1 H      0.335  0.665  0.000  0.000     0.624     1.241
  51   7 N     -0.406  1.330  4.076  0.000    30.533     8.207
  52   6 C      0.027  1.053  2.919  0.000    20.129     6.390
  53   6 C      0.280  1.036  2.683  0.000    22.256     7.726
  54   8 O     -0.483  1.733  4.751  0.000    23.415     6.488
  55   6 C     -0.073  1.058  3.014  0.000    21.872     6.656
  56   6 C     -0.011  1.046  2.965  0.000    20.735     6.476
  57   6 C     -0.114  1.044  3.069  0.000    22.716     6.793
  58   6 C     -0.105  1.042  3.063  0.000    22.543     6.767
  59   1 H      0.160  0.840  0.000  0.000     1.333     1.808
  60   1 H      0.046  0.954  0.000  0.000     2.366     2.405
  61   1 H      0.042  0.958  0.000  0.000     2.419     2.432
  62   1 H      0.040  0.960  0.000  0.000     2.447     2.446
  63   1 H      0.036  0.964  0.000  0.000     2.507     2.476
  64   1 H      0.044  0.956  0.000  0.000     2.390     2.418
  65   1 H      0.031  0.969  0.000  0.000     2.570     2.507
  66   1 H      0.042  0.958  0.000  0.000     2.426     2.436
  67   1 H      0.040  0.960  0.000  0.000     2.446     2.446
  68   1 H      0.039  0.961  0.000  0.000     2.466     2.456
  69   1 H      0.031  0.969  0.000  0.000     2.578     2.511
  70   7 N     -0.182  1.240  3.942  0.000    24.938     7.417
  71   6 C      0.027  1.061  2.912  0.000    20.127     6.388
  72   6 C      0.276  1.042  2.682  0.000    22.324     7.737
  73   8 O     -0.475  1.742  4.733  0.000    23.231     6.462
  74   6 C     -0.071  1.049  3.022  0.000    21.850     6.653
  75   6 C     -0.001  1.077  2.925  0.000    28.056     8.688
  76   6 C     -0.039  1.083  2.956  0.000    28.959     8.825
  77   6 C     -0.044  1.081  2.963  0.000    29.086     8.845
  78   6 C     -0.057  1.075  2.982  0.000    29.416     8.894
  79   6 C     -0.075  1.076  2.999  0.000    29.868     8.962
  80   6 C      0.146  1.043  2.811  0.000    24.822     8.165
  81   8 O     -0.439  1.724  4.715  0.000    21.627     6.278
  82   1 H      0.206  0.794  0.000  0.000     1.077     1.625
  83   1 H      0.079  0.921  0.000  0.000     1.988     2.205
  84   1 H      0.046  0.954  0.000  0.000     2.372     2.408
  85   1 H      0.069  0.931  0.000  0.000     2.101     2.267
  86   1 H      0.050  0.950  0.000  0.000     2.319     2.381
  87   1 H      0.035  0.965  0.000  0.000     2.511     2.478
  88   1 H      0.058  0.942  0.000  0.000     2.227     2.334
  89   1 H      0.045  0.955  0.000  0.000     2.386     2.416
  90   1 H      0.347  0.653  0.000  0.000     0.594     1.211
  91   7 N     -0.162  1.235  3.928  0.000    24.509     7.353
  92   6 C      0.018  1.055  2.927  0.000    20.271     6.411
  93   6 C      0.257  1.047  2.695  0.000    22.668     7.797
  94   8 O     -0.487  1.732  4.754  0.000    23.488     6.498
  95   6 C      0.073  1.039  2.888  0.000    19.581     6.341
  96   8 O     -0.492  1.736  4.756  0.000    22.725     6.435
  97   1 H      0.207  0.793  0.000  0.000     1.073     1.623
  98   1 H      0.088  0.912  0.000  0.000     1.903     2.157
  99   1 H      0.049  0.951  0.000  0.000     2.330     2.387
 100   1 H      0.041  0.959  0.000  0.000     2.430     2.438
 101   1 H      0.351  0.649  0.000  0.000     0.585     1.202
 102   7 N     -0.093  1.246  3.848  0.000    23.064     7.133
 103   6 C      0.006  1.068  2.926  0.000    20.465     6.437
 104   6 C      0.273  1.042  2.685  0.000    22.385     7.748
 105   8 O     -0.466  1.738  4.728  0.000    23.047     6.437
 106   6 C     -0.081  1.054  3.027  0.000    22.013     6.673
 107   6 C     -0.075  1.044  3.032  0.000    21.904     6.657
 108   6 C     -0.011  1.052  2.959  0.000    20.794     6.496
 109   1 H      0.104  0.896  0.000  0.000     1.746     2.067
 110   1 H      0.069  0.931  0.000  0.000     2.096     2.264
 111   1 H      0.099  0.901  0.000  0.000     1.794     2.095
 112   1 H      0.073  0.927  0.000  0.000     2.050     2.239
 113   1 H      0.077  0.923  0.000  0.000     2.014     2.220
 114   1 H      0.058  0.942  0.000  0.000     2.226     2.333
 115   1 H      0.072  0.928  0.000  0.000     2.065     2.247
 116   7 N     -0.173  1.239  3.934  0.000    24.753     7.389
 117   6 C     -0.040  1.057  2.983  0.000    21.367     6.594
 118   6 C      0.283  1.036  2.682  0.000    22.214     7.718
 119   8 O     -0.501  1.765  4.735  0.000    23.799     6.541
 120   1 H      0.205  0.795  0.000  0.000     1.082     1.629
 121   1 H      0.103  0.897  0.000  0.000     1.757     2.073
 122   1 H      0.096  0.904  0.000  0.000     1.822     2.111
 123   7 N     -0.173  1.235  3.937  0.000    24.734     7.386
 124   6 C      0.010  1.059  2.930  0.000    20.407     6.432
 125   6 C      0.284  1.035  2.681  0.000    22.194     7.715
 126   8 O     -0.508  1.751  4.756  0.000    23.953     6.562
 127   6 C      0.073  1.037  2.890  0.000    19.558     6.333
 128   8 O     -0.477  1.720  4.757  0.000    22.403     6.389
 129   1 H      0.209  0.791  0.000  0.000     1.062     1.614
 130   1 H      0.076  0.924  0.000  0.000     2.016     2.221
 131   1 H      0.065  0.935  0.000  0.000     2.140     2.288
 132   1 H      0.040  0.960  0.000  0.000     2.452     2.449
 133   1 H      0.335  0.665  0.000  0.000     0.624     1.241
 134   7 N     -0.177  1.248  3.929  0.000    24.839     7.402
 135   6 C      0.032  1.054  2.914  0.000    20.044     6.374
 136   6 C      0.206  1.082  2.713  0.000    23.635     7.962
 137   8 O     -0.366  1.755  4.611  0.000    21.011     6.146
 138   6 C     -0.077  1.051  3.026  0.000    21.957     6.670
 139   6 C     -0.041  1.063  2.977  0.000    28.966     8.827
 140   6 C      0.001  1.065  2.934  0.000    27.978     8.676
 141   6 C     -0.024  1.072  2.952  0.000    28.440     8.735
 142   7 N     -0.101  1.227  3.874  0.000    23.210     7.155
 143   6 C      0.045  1.061  2.894  0.000    26.897     8.502
 144   6 C     -0.053  1.081  2.972  0.000    29.307     8.877
 145   6 C     -0.053  1.071  2.982  0.000    29.318     8.878
 146   6 C     -0.061  1.079  2.982  0.000    29.513     8.908
 147   6 C     -0.049  1.079  2.970  0.000    29.222     8.865
 148   1 H      0.228  0.772  0.000  0.000     0.974     1.546
 149   1 H      0.084  0.916  0.000  0.000     1.943     2.180
 150   1 H      0.084  0.916  0.000  0.000     1.943     2.180
 151   1 H      0.086  0.914  0.000  0.000     1.920     2.167
 152   1 H      0.021  0.979  0.000  0.000     2.711     2.575
 153   1 H      0.178  0.822  0.000  0.000     1.227     1.735
 154   1 H      0.064  0.936  0.000  0.000     2.149     2.293
 155   1 H      0.022  0.978  0.000  0.000     2.699     2.569
 156   1 H      0.056  0.944  0.000  0.000     2.247     2.344
 157   1 H      0.027  0.973  0.000  0.000     2.632     2.537
 158   7 N     -0.397  1.325  4.072  0.000    30.293     8.174
 159   6 C      0.044  1.050  2.905  0.000    19.843     6.345
 160   6 C      0.197  1.094  2.708  0.000    23.795     7.989
 161   8 O     -0.359  1.738  4.621  0.000    20.888     6.128
 162   6 C     -0.062  1.046  3.016  0.000    21.673     6.626
 163   6 C     -0.042  1.055  2.987  0.000    28.957     8.822
 164   6 C     -0.009  1.062  2.947  0.000    28.164     8.700
 165   6 C     -0.020  1.066  2.954  0.000    28.186     8.680
 166   7 N     -0.106  1.224  3.882  0.000    23.323     7.173
 167   6 C      0.047  1.058  2.896  0.000    26.764     8.471
 168   6 C     -0.041  1.076  2.965  0.000    29.012     8.832
 169   6 C     -0.054  1.068  2.985  0.000    29.331     8.881
 170   6 C     -0.046  1.077  2.968  0.000    29.131     8.851
 171   6 C     -0.040  1.077  2.964  0.000    29.002     8.832
 172   1 H      0.165  0.835  0.000  0.000     1.301     1.787
 173   1 H      0.051  0.949  0.000  0.000     2.305     2.374
 174   1 H      0.056  0.944  0.000  0.000     2.247     2.344
 175   1 H      0.050  0.950  0.000  0.000     2.320     2.382
 176   1 H      0.036  0.964  0.000  0.000     2.506     2.476
 177   1 H      0.191  0.809  0.000  0.000     1.152     1.681
 178   1 H      0.017  0.983  0.000  0.000     2.776     2.606
 179   1 H      0.037  0.963  0.000  0.000     2.492     2.469
 180   1 H      0.021  0.979  0.000  0.000     2.716     2.577
 181   1 H      0.031  0.969  0.000  0.000     2.569     2.507
 182   7 N     -0.397  1.325  4.073  0.000    30.303     8.176
 183   6 C      0.026  1.056  2.918  0.000    20.147     6.391
 184   6 C      0.273  1.040  2.687  0.000    22.392     7.750
 185   8 O     -0.515  1.737  4.778  0.000    24.125     6.585
 186   6 C     -0.020  1.061  2.959  0.000    20.891     6.500
 187   6 C     -0.109  1.041  3.068  0.000    22.641     6.785
 188   6 C     -0.113  1.041  3.071  0.000    22.703     6.793
 189   1 H      0.151  0.849  0.000  0.000     1.397     1.851
 190   1 H      0.035  0.965  0.000  0.000     2.510     2.477
 191   1 H      0.038  0.962  0.000  0.000     2.476     2.461
 192   1 H      0.044  0.956  0.000  0.000     2.402     2.424
 193   1 H      0.042  0.958  0.000  0.000     2.427     2.436
 194   1 H      0.040  0.960  0.000  0.000     2.445     2.445
 195   1 H      0.045  0.955  0.000  0.000     2.388     2.417
 196   1 H      0.042  0.958  0.000  0.000     2.428     2.437
 197   1 H      0.038  0.962  0.000  0.000     2.473     2.459
 198   7 N     -0.194  1.255  3.939  0.000    25.214     7.458
 199   6 C      0.020  1.056  2.924  0.000    20.242     6.406
 200   6 C      0.267  1.049  2.684  0.000    22.491     7.766
 201   8 O     -0.487  1.747  4.741  0.000    23.507     6.500
 202   6 C     -0.083  1.060  3.024  0.000    22.085     6.690
 203   6 C     -0.020  1.056  2.963  0.000    20.888     6.501
 204   6 C     -0.127  1.045  3.083  0.000    22.992     6.836
 205   6 C     -0.126  1.046  3.080  0.000    22.956     6.830
 206   1 H      0.248  0.752  0.000  0.000     0.893     1.480
 207   1 H      0.078  0.922  0.000  0.000     1.999     2.211
 208   1 H      0.061  0.939  0.000  0.000     2.188     2.313
 209   1 H      0.055  0.945  0.000  0.000     2.256     2.349
 210   1 H      0.044  0.956  0.000  0.000     2.393     2.419
 211   1 H      0.069  0.931  0.000  0.000     2.094     2.263
 212   1 H      0.038  0.962  0.000  0.000     2.472     2.459
 213   1 H      0.039  0.961  0.000  0.000     2.457     2.451
 214   1 H      0.063  0.937  0.000  0.000     2.167     2.302
 215   1 H      0.041  0.959  0.000  0.000     2.436     2.441
 216   1 H      0.042  0.958  0.000  0.000     2.418     2.432
 217   7 N     -0.164  1.238  3.925  0.000    24.542     7.358
 218   6 C     -0.041  1.053  2.988  0.000    21.372     6.593
 219   6 C      0.277  1.037  2.686  0.000    22.308     7.734
 220   8 O     -0.502  1.755  4.748  0.000    23.836     6.546
 221   1 H      0.221  0.779  0.000  0.000     1.003     1.569
 222   1 H      0.112  0.888  0.000  0.000     1.682     2.028
 223   1 H      0.098  0.902  0.000  0.000     1.806     2.101
 224   7 N     -0.178  1.247  3.931  0.000    24.862     7.405
 225   6 C      0.021  1.051  2.928  0.000    20.218     6.402
 226   6 C      0.284  1.024  2.692  0.000    22.199     7.717
 227   8 O     -0.510  1.739  4.771  0.000    24.006     6.569
 228   6 C     -0.132  1.044  3.087  0.000    23.074     6.847
 229   1 H      0.221  0.779  0.000  0.000     1.007     1.572
 230   1 H      0.059  0.941  0.000  0.000     2.212     2.326
 231   1 H      0.051  0.949  0.000  0.000     2.311     2.377
 232   1 H      0.068  0.932  0.000  0.000     2.110     2.271
 233   1 H      0.090  0.910  0.000  0.000     1.882     2.146
 234   7 N     -0.175  1.241  3.933  0.000    24.779     7.393
 235   6 C      0.021  1.059  2.920  0.000    20.220     6.402
 236   6 C      0.269  1.046  2.684  0.000    22.451     7.759
 237   8 O     -0.505  1.747  4.758  0.000    23.906     6.555
 238   6 C     -0.086  1.057  3.029  0.000    22.122     6.694
 239   6 C     -0.017  1.053  2.964  0.000    20.848     6.494
 240   6 C     -0.111  1.043  3.068  0.000    22.676     6.789
 241   6 C     -0.111  1.039  3.071  0.000    22.668     6.788
 242   1 H      0.232  0.768  0.000  0.000     0.955     1.531
 243   1 H      0.067  0.933  0.000  0.000     2.123     2.279
 244   1 H      0.069  0.931  0.000  0.000     2.099     2.266
 245   1 H      0.068  0.932  0.000  0.000     2.105     2.269
 246   1 H      0.043  0.957  0.000  0.000     2.415     2.430
 247   1 H      0.044  0.956  0.000  0.000     2.402     2.424
 248   1 H      0.045  0.955  0.000  0.000     2.381     2.413
 249   1 H      0.045  0.955  0.000  0.000     2.381     2.413
 250   1 H      0.043  0.957  0.000  0.000     2.414     2.430
 251   1 H      0.038  0.962  0.000  0.000     2.474     2.460
 252   1 H      0.032  0.968  0.000  0.000     2.563     2.504
 253   7 N     -0.170  1.245  3.925  0.000    24.671     7.377
 254   6 C      0.008  1.061  2.931  0.000    20.433     6.435
 255   6 C      0.275  1.038  2.687  0.000    22.349     7.742
 256   8 O     -0.514  1.758  4.756  0.000    24.092     6.581
 257   6 C     -0.090  1.055  3.035  0.000    22.205     6.708
 258   6 C     -0.095  1.054  3.041  0.000    22.302     6.723
 259   6 C     -0.102  1.058  3.044  0.000    22.437     6.744
 260   6 C     -0.061  1.065  2.996  0.000    21.776     6.661
 261   7 N     -0.146  1.235  3.911  0.000    24.143     7.298
 262   1 H      0.241  0.759  0.000  0.000     0.920     1.502
 263   1 H      0.096  0.904  0.000  0.000     1.821     2.110
 264   1 H      0.063  0.937  0.000  0.000     2.161     2.299
 265   1 H      0.073  0.927  0.000  0.000     2.048     2.238
 266   1 H      0.076  0.924  0.000  0.000     2.016     2.220
 267   1 H      0.086  0.914  0.000  0.000     1.918     2.166
 268   1 H      0.093  0.907  0.000  0.000     1.849     2.127
 269   1 H      0.078  0.922  0.000  0.000     2.001     2.212
 270   1 H      0.116  0.884  0.000  0.000     1.648     2.008
 271   1 H      0.123  0.877  0.000  0.000     1.590     1.972
 272   1 H      0.306  0.694  0.000  0.000     0.696     1.307
 273   1 H      0.297  0.703  0.000  0.000     0.722     1.332
 274   1 H      0.297  0.703  0.000  0.000     0.721     1.331
 275   7 N     -0.186  1.251  3.935  0.000    25.033     7.431
 276   6 C      0.024  1.056  2.919  0.000    20.163     6.393
 277   6 C      0.290  1.032  2.679  0.000    22.091     7.697
 278   8 O     -0.525  1.752  4.774  0.000    24.352     6.616
 279   6 C     -0.127  1.045  3.082  0.000    22.999     6.838
 280   1 H      0.238  0.762  0.000  0.000     0.930     1.511
 281   1 H      0.059  0.941  0.000  0.000     2.210     2.325
 282   1 H      0.038  0.962  0.000  0.000     2.470     2.458
 283   1 H      0.089  0.911  0.000  0.000     1.888     2.149
 284   1 H      0.071  0.929  0.000  0.000     2.077     2.254
 285   7 N     -0.180  1.242  3.938  0.000    24.900     7.411
 286   6 C      0.041  1.043  2.917  0.000    19.890     6.349
 287   6 C      0.287  1.031  2.682  0.000    22.132     7.704
 288   8 O     -0.523  1.753  4.770  0.000    24.296     6.609
 289   6 C     -0.130  1.045  3.085  0.000    23.045     6.844
 290   1 H      0.239  0.761  0.000  0.000     0.926     1.507
 291   1 H      0.032  0.968  0.000  0.000     2.560     2.502
 292   1 H      0.065  0.935  0.000  0.000     2.145     2.291
 293   1 H      0.073  0.927  0.000  0.000     2.052     2.240
 294   1 H      0.084  0.916  0.000  0.000     1.942     2.179
 295   7 N     -0.197  1.255  3.942  0.000    25.286     7.468
 296   6 C      0.024  1.068  2.908  0.000    20.186     6.400
 297   6 C      0.270  1.050  2.680  0.000    22.443     7.757
 298   8 O     -0.493  1.781  4.712  0.000    23.639     6.519
 299   6 C     -0.081  1.060  3.021  0.000    22.052     6.686
 300   6 C     -0.081  1.049  3.032  0.000    22.057     6.687
 301   6 C     -0.029  1.060  2.968  0.000    21.183     6.571
 302   7 N     -0.144  1.223  3.921  0.000    24.112     7.293
 303   6 C      0.219  1.030  2.752  0.000    23.384     7.917
 304   7 N     -0.234  1.225  4.009  0.000    26.127     7.591
 305   7 N     -0.246  1.238  4.008  0.000    26.419     7.634
 306   1 H      0.247  0.753  0.000  0.000     0.896     1.483
 307   1 H      0.070  0.930  0.000  0.000     2.085     2.258
 308   1 H      0.086  0.914  0.000  0.000     1.919     2.166
 309   1 H      0.069  0.931  0.000  0.000     2.099     2.266
 310   1 H      0.066  0.934  0.000  0.000     2.133     2.284
 311   1 H      0.055  0.945  0.000  0.000     2.255     2.348
 312   1 H      0.096  0.904  0.000  0.000     1.818     2.109
 313   1 H      0.092  0.908  0.000  0.000     1.861     2.134
 314   1 H      0.232  0.768  0.000  0.000     0.956     1.532
 315   1 H      0.214  0.786  0.000  0.000     1.037     1.595
 316   1 H      0.257  0.743  0.000  0.000     0.857     1.451
 317   1 H      0.249  0.751  0.000  0.000     0.887     1.475
 318   1 H      0.273  0.727  0.000  0.000     0.800     1.401
 319   7 N     -0.191  1.255  3.936  0.000    25.151     7.448
 320   6 C      0.036  1.058  2.906  0.000    19.967     6.362
 321   6 C      0.291  1.034  2.674  0.000    22.064     7.692
 322   8 O     -0.522  1.767  4.755  0.000    24.283     6.607
 323   6 C     -0.059  1.056  3.003  0.000    21.629     6.621
 324   6 C     -0.084  1.057  3.027  0.000    22.098     6.692
 325   6 C      0.371  1.022  2.607  0.000    20.706     7.447
 326   8 O     -0.632  1.756  4.876  0.000    26.920     6.956
 327   8 O     -0.671  1.776  4.894  0.000    27.926     7.085
 328   1 H      0.223  0.777  0.000  0.000     0.996     1.563
 329   1 H      0.071  0.929  0.000  0.000     2.076     2.253
 330   1 H      0.079  0.921  0.000  0.000     1.994     2.208
 331   1 H      0.033  0.967  0.000  0.000     2.545     2.495
 332   1 H      0.040  0.960  0.000  0.000     2.444     2.445
 333   1 H     -0.005  1.005  0.000  0.000     3.143     2.772
 334   7 N     -0.206  1.253  3.953  0.000    25.480     7.497
 335   6 C      0.039  1.055  2.906  0.000    19.927     6.357
 336   6 C      0.285  1.044  2.671  0.000    22.169     7.710
 337   8 O     -0.507  1.738  4.769  0.000    23.930     6.559
 338   6 C     -0.036  1.046  2.990  0.000    21.204     6.555
 339   6 C     -0.078  1.056  3.022  0.000    21.988     6.676
 340   6 C      0.351  1.042  2.607  0.000    21.045     7.508
 341   8 O     -0.600  1.766  4.834  0.000    26.109     6.851
 342   8 O     -0.687  1.812  4.875  0.000    28.358     7.140
 343   1 H      0.237  0.763  0.000  0.000     0.937     1.516
 344   1 H      0.044  0.956  0.000  0.000     2.402     2.424
 345   1 H      0.050  0.950  0.000  0.000     2.326     2.385
 346   1 H      0.025  0.975  0.000  0.000     2.665     2.553
 347   1 H      0.028  0.972  0.000  0.000     2.616     2.529
 348   1 H      0.026  0.974  0.000  0.000     2.638     2.540
 349   7 N     -0.163  1.243  3.920  0.000    24.521     7.355
 350   6 C      0.026  1.062  2.912  0.000    20.143     6.392
 351   6 C      0.269  1.041  2.690  0.000    22.466     7.762
 352   8 O     -0.461  1.764  4.697  0.000    22.942     6.422
 353   6 C     -0.056  1.048  3.007  0.000    21.565     6.611
 354   6 C     -0.079  1.051  3.029  0.000    22.009     6.679
 355   6 C      0.289  1.035  2.676  0.000    22.103     7.698
 356   8 O     -0.500  1.742  4.758  0.000    23.782     6.538
 357   7 N     -0.261  1.259  4.002  0.000    26.772     7.685
 358   1 H      0.197  0.803  0.000  0.000     1.122     1.659
 359   1 H      0.068  0.932  0.000  0.000     2.108     2.270
 360   1 H      0.056  0.944  0.000  0.000     2.243     2.342
 361   1 H      0.074  0.926  0.000  0.000     2.037     2.232
 362   1 H      0.036  0.964  0.000  0.000     2.503     2.474
 363   1 H      0.082  0.918  0.000  0.000     1.961     2.190
 364   1 H      0.204  0.796  0.000  0.000     1.086     1.632
 365   1 H      0.211  0.789  0.000  0.000     1.050     1.605
 366   7 N     -0.169  1.234  3.935  0.000    24.650     7.374
 367   6 C      0.012  1.063  2.925  0.000    20.378     6.427
 368   6 C      0.277  1.037  2.686  0.000    22.309     7.736
 369   8 O     -0.479  1.745  4.735  0.000    23.330     6.476
 370   6 C     -0.024  1.065  2.959  0.000    20.969     6.513
 371   6 C     -0.128  1.048  3.081  0.000    23.023     6.843
 372   6 C     -0.121  1.044  3.077  0.000    22.885     6.822
 373   1 H      0.204  0.796  0.000  0.000     1.086     1.633
 374   1 H      0.072  0.928  0.000  0.000     2.069     2.249
 375   1 H      0.053  0.947  0.000  0.000     2.278     2.360
 376   1 H      0.074  0.926  0.000  0.000     2.043     2.235
 377   1 H      0.046  0.954  0.000  0.000     2.371     2.408
 378   1 H      0.053  0.947  0.000  0.000     2.283     2.363
 379   1 H      0.068  0.932  0.000  0.000     2.104     2.268
 380   1 H      0.045  0.955  0.000  0.000     2.378     2.412
 381   1 H      0.035  0.965  0.000  0.000     2.513     2.479
 382   7 N     -0.175  1.249  3.926  0.000    24.783     7.394
 383   6 C      0.020  1.058  2.922  0.000    20.249     6.408
 384   6 C      0.203  1.082  2.715  0.000    23.678     7.969
 385   8 O     -0.329  1.740  4.589  0.000    20.319     6.043
 386   6 C      0.107  1.053  2.840  0.000    18.923     6.212
 387   8 O     -0.450  1.718  4.732  0.000    21.846     6.310
 388   6 C     -0.147  1.054  3.093  0.000    23.419     6.904
 389   1 H      0.214  0.786  0.000  0.000     1.036     1.595
 390   1 H      0.096  0.904  0.000  0.000     1.825     2.113
 391   1 H      0.038  0.962  0.000  0.000     2.471     2.458
 392   1 H      0.321  0.679  0.000  0.000     0.660     1.276
 393   1 H      0.066  0.934  0.000  0.000     2.134     2.285
 394   1 H      0.062  0.938  0.000  0.000     2.174     2.306
 395   1 H      0.061  0.939  0.000  0.000     2.184     2.311
 396   7 N     -0.379  1.312  4.067  0.000    29.798     8.107
 397   6 C      0.042  1.049  2.909  0.000    19.893     6.353
 398   6 C      0.202  1.094  2.704  0.000    23.704     7.974
 399   8 O     -0.372  1.748  4.624  0.000    21.136     6.164
 400   6 C     -0.058  1.050  3.009  0.000    21.620     6.619
 401   6 C     -0.102  1.055  3.047  0.000    22.437     6.743
 402   6 C      0.284  1.039  2.676  0.000    22.187     7.712
 403   8 O     -0.503  1.760  4.743  0.000    23.851     6.548
 404   7 N     -0.291  1.269  4.023  0.000    27.519     7.791
 405   1 H      0.164  0.836  0.000  0.000     1.308     1.792
 406   1 H      0.046  0.954  0.000  0.000     2.373     2.409
 407   1 H      0.058  0.942  0.000  0.000     2.225     2.333
 408   1 H      0.055  0.945  0.000  0.000     2.257     2.350
 409   1 H      0.077  0.923  0.000  0.000     2.008     2.216
 410   1 H      0.059  0.941  0.000  0.000     2.206     2.323
 411   1 H      0.227  0.773  0.000  0.000     0.978     1.550
 412   1 H      0.213  0.787  0.000  0.000     1.042     1.599
 413   8 O     -0.646  1.701  4.945  0.000    26.308     6.923
 414   1 H      0.333  0.667  0.000  0.000     0.630     1.246
 415   1 H      0.314  0.686  0.000  0.000     0.680     1.295
 416   7 N     -0.393  1.322  4.071  0.000    30.176     8.159
 417   6 C      0.042  1.051  2.907  0.000    19.880     6.350
 418   6 C      0.191  1.098  2.712  0.000    23.917     8.009
 419   8 O     -0.387  1.772  4.615  0.000    21.417     6.205
 420   6 C     -0.016  1.062  2.954  0.000    20.826     6.490
 421   6 C     -0.113  1.043  3.071  0.000    22.728     6.798
 422   6 C     -0.111  1.040  3.071  0.000    22.683     6.790
 423   1 H      0.171  0.829  0.000  0.000     1.267     1.764
 424   1 H      0.044  0.956  0.000  0.000     2.403     2.424
 425   1 H      0.048  0.952  0.000  0.000     2.345     2.395
 426   1 H      0.055  0.945  0.000  0.000     2.254     2.348
 427   1 H      0.038  0.962  0.000  0.000     2.474     2.460
 428   1 H      0.039  0.961  0.000  0.000     2.461     2.453
 429   1 H      0.051  0.949  0.000  0.000     2.305     2.374
 430   1 H      0.041  0.959  0.000  0.000     2.441     2.443
 431   1 H      0.043  0.957  0.000  0.000     2.408     2.427
 432   7 N     -0.382  1.322  4.061  0.000    29.883     8.119
 433   6 C      0.037  1.053  2.910  0.000    19.963     6.365
 434   6 C      0.216  1.089  2.694  0.000    23.429     7.927
 435   8 O     -0.374  1.759  4.615  0.000    21.172     6.169
 436   6 C      0.087  1.041  2.872  0.000    19.343     6.300
 437   8 O     -0.470  1.717  4.753  0.000    22.257     6.369
 438   1 H      0.158  0.842  0.000  0.000     1.347     1.818
 439   1 H      0.051  0.949  0.000  0.000     2.306     2.375
 440   1 H      0.019  0.981  0.000  0.000     2.741     2.589
 441   1 H      0.051  0.949  0.000  0.000     2.307     2.375
 442   1 H      0.316  0.684  0.000  0.000     0.674     1.290
 443   7 N     -0.399  1.326  4.073  0.000    30.356     8.183
 444   6 C      0.035  1.048  2.917  0.000    19.995     6.368
 445   6 C      0.274  1.039  2.687  0.000    22.360     7.744
 446   8 O     -0.496  1.743  4.753  0.000    23.687     6.525
 447   6 C     -0.079  1.055  3.024  0.000    21.988     6.673
 448   6 C      0.008  1.069  2.923  0.000    27.836     8.654
 449   6 C     -0.043  1.073  2.970  0.000    29.060     8.842
 450   6 C     -0.045  1.078  2.968  0.000    29.128     8.852
 451   6 C     -0.037  1.077  2.960  0.000    28.910     8.818
 452   6 C     -0.034  1.079  2.955  0.000    28.855     8.810
 453   6 C     -0.034  1.075  2.960  0.000    28.856     8.810
 454   1 H      0.170  0.830  0.000  0.000     1.272     1.767
 455   1 H      0.040  0.960  0.000  0.000     2.450     2.448
 456   1 H      0.056  0.944  0.000  0.000     2.252     2.347
 457   1 H      0.052  0.948  0.000  0.000     2.292     2.368
 458   1 H      0.039  0.961  0.000  0.000     2.464     2.455
 459   1 H      0.033  0.967  0.000  0.000     2.539     2.492
 460   1 H      0.046  0.954  0.000  0.000     2.374     2.409
 461   1 H      0.025  0.975  0.000  0.000     2.658     2.549
 462   1 H      0.025  0.975  0.000  0.000     2.658     2.549
 463   7 N     -0.169  1.243  3.925  0.000    24.650     7.374
 464   6 C      0.025  1.056  2.919  0.000    20.148     6.389
 465   6 C      0.207  1.073  2.720  0.000    23.605     7.957
 466   8 O     -0.341  1.733  4.607  0.000    20.532     6.075
 467   6 C     -0.071  1.042  3.029  0.000    21.846     6.653
 468   6 C     -0.028  1.054  2.974  0.000    28.647     8.777
 469   6 C     -0.016  1.070  2.947  0.000    28.376     8.737
 470   6 C     -0.019  1.070  2.948  0.000    28.299     8.713
 471   7 N     -0.105  1.227  3.878  0.000    23.300     7.169
 472   6 C      0.041  1.066  2.892  0.000    26.982     8.515
 473   6 C     -0.037  1.080  2.957  0.000    28.924     8.819
 474   6 C     -0.061  1.072  2.989  0.000    29.507     8.907
 475   6 C     -0.042  1.079  2.963  0.000    29.042     8.837
 476   6 C     -0.042  1.079  2.963  0.000    29.050     8.839
 477   1 H      0.216  0.784  0.000  0.000     1.027     1.588
 478   1 H      0.081  0.919  0.000  0.000     1.965     2.192
 479   1 H      0.068  0.932  0.000  0.000     2.103     2.268
 480   1 H      0.070  0.930  0.000  0.000     2.080     2.256
 481   1 H      0.061  0.939  0.000  0.000     2.185     2.312
 482   1 H      0.202  0.798  0.000  0.000     1.098     1.642
 483   1 H      0.032  0.968  0.000  0.000     2.562     2.503
 484   1 H      0.036  0.964  0.000  0.000     2.503     2.474
 485   1 H      0.007  0.993  0.000  0.000     2.938     2.680
 486   1 H      0.011  0.989  0.000  0.000     2.876     2.652
 487   7 N     -0.387  1.322  4.066  0.000    30.027     8.138
 488   6 C     -0.010  1.044  2.965  0.000    20.834     6.513
 489   6 C      0.269  1.045  2.685  0.000    22.452     7.759
 490   8 O     -0.517  1.747  4.769  0.000    24.161     6.590
 491   1 H      0.154  0.846  0.000  0.000     1.376     1.837
 492   1 H      0.050  0.950  0.000  0.000     2.326     2.385
 493   1 H      0.050  0.950  0.000  0.000     2.318     2.381
 494   7 N     -0.176  1.252  3.925  0.000    24.821     7.399
 495   6 C      0.017  1.059  2.924  0.000    20.292     6.414
 496   6 C      0.267  1.042  2.691  0.000    22.500     7.769
 497   8 O     -0.477  1.745  4.732  0.000    23.292     6.471
 498   6 C     -0.083  1.053  3.030  0.000    22.058     6.682
 499   6 C     -0.012  1.047  2.965  0.000    20.754     6.479
 500   6 C     -0.110  1.040  3.069  0.000    22.643     6.783
 501   6 C     -0.118  1.044  3.074  0.000    22.803     6.807
 502   1 H      0.225  0.775  0.000  0.000     0.986     1.556
 503   1 H      0.095  0.905  0.000  0.000     1.835     2.119
 504   1 H      0.064  0.936  0.000  0.000     2.158     2.297
 505   1 H      0.063  0.937  0.000  0.000     2.160     2.298
 506   1 H      0.038  0.962  0.000  0.000     2.470     2.458
 507   1 H      0.045  0.955  0.000  0.000     2.379     2.412
 508   1 H      0.027  0.973  0.000  0.000     2.634     2.538
 509   1 H      0.035  0.965  0.000  0.000     2.518     2.481
 510   1 H      0.044  0.956  0.000  0.000     2.397     2.421
 511   1 H      0.043  0.957  0.000  0.000     2.407     2.426
 512   1 H      0.057  0.943  0.000  0.000     2.231     2.336
 513   7 N     -0.173  1.233  3.940  0.000    24.739     7.387
 514   6 C     -0.024  1.045  2.979  0.000    21.059     6.545
 515   6 C      0.295  1.027  2.678  0.000    21.991     7.679
 516   8 O     -0.509  1.756  4.752  0.000    23.979     6.565
 517   1 H      0.216  0.784  0.000  0.000     1.028     1.588
 518   1 H      0.080  0.920  0.000  0.000     1.977     2.199
 519   1 H      0.082  0.918  0.000  0.000     1.963     2.191
 520   7 N     -0.169  1.240  3.928  0.000    24.648     7.373
 521   6 C     -0.029  1.062  2.966  0.000    21.168     6.565
 522   6 C      0.374  1.022  2.604  0.000    20.661     7.439
 523   8 O     -0.646  1.770  4.875  0.000    27.269     7.001
 524   8 O     -0.651  1.764  4.887  0.000    27.411     7.019
 525   1 H      0.201  0.799  0.000  0.000     1.101     1.644
 526   1 H      0.057  0.943  0.000  0.000     2.234     2.337
 527   1 H      0.060  0.940  0.000  0.000     2.200     2.320
 528   1 H      0.185  0.815  0.000  0.000     1.187     1.707
 529   1 H      0.066  0.934  0.000  0.000     2.135     2.285
 530   1 H      0.185  0.815  0.000  0.000     1.188     1.707
 531   1 H      0.086  0.914  0.000  0.000     1.915     2.164
 532   1 H      0.162  0.838  0.000  0.000     1.319     1.799
 533   1 H      0.086  0.914  0.000  0.000     1.917     2.165
 534   1 H      0.182  0.818  0.000  0.000     1.202     1.717
 535   1 H      0.075  0.925  0.000  0.000     2.036     2.231
 536   1 H      0.181  0.819  0.000  0.000     1.208     1.722
 537   1 H      0.083  0.917  0.000  0.000     1.951     2.184
 538   1 H      0.182  0.818  0.000  0.000     1.200     1.716
 539   1 H      0.086  0.914  0.000  0.000     1.921     2.167
 540   1 H      0.178  0.822  0.000  0.000     1.225     1.734
 541   1 H      0.082  0.918  0.000  0.000     1.961     2.190
 542   1 H      0.178  0.822  0.000  0.000     1.223     1.732
 543   1 H      0.084  0.916  0.000  0.000     1.941     2.179
 544   1 H      0.195  0.805  0.000  0.000     1.131     1.666
 545   1 H      0.093  0.907  0.000  0.000     1.854     2.129
 546   1 H      0.182  0.818  0.000  0.000     1.203     1.718
 547   1 H      0.070  0.930  0.000  0.000     2.080     2.255
 548   1 H      0.184  0.816  0.000  0.000     1.190     1.709

 Mol. C6AA /au·bohr⁶  :    2852132.025947
 Mol. C8AA /au·bohr⁸  :   63892951.131320
 Mol. α(0) /au        :       2547.756909

 
molecular dipole:
                 x           y           z       tot (Debye)
 q only:      -86.245    -135.755    -448.643
   full:      -83.803    -136.732    -449.664    1213.469
molecular quadrupole (traceless):
                xx          xy          yy          xz          yz          zz
 q only:   101591.992  -18317.371   84680.886  -58493.561  -90179.253 -186272.878
  q+dip:   102724.100  -18031.847   84558.253  -57247.659  -90906.500 -187282.353
   full:   102719.561  -18029.162   84558.486  -57254.091  -90909.220 -187278.048
speedup  1.98
cpu  time for grad   21.08 s
wall time for grad   10.67 s

SCC energy    :    -854.1473650
rep           :      10.8993722
ES            :       2.7410676
AES           :      -0.0489311
AXC           :       0.2943642
disp          :      -0.7491775
XB            :       0.0000000
fix           :       0.0000000
Gborn         :       0.0000000
Gsasa         :       0.0000000
Ghb           :       0.0000000
Gshift        :       0.0000000
Gsolv         :      -0.7963007     -499.69
Etot ala COSMO:    -854.1473650
grad norm     :       0.8603894
total E       :    -843.1654307
atomizationE  :     156.1634509    97994.04
(atE without considering molecular charge,
 total energy contains solvation terms)
H-L gap (eV)  :          1.4514

------------------------------------------------------------------------
 * finished run on 2019/05/05 at 23:23:21.966     
------------------------------------------------------------------------
 total:
 * wall-time:     0 d,  0 h,  0 min, 11.673 sec
 *  cpu-time:     0 d,  0 h,  0 min, 22.533 sec
 * ratio c/w:     1.930 speedup
 SCF:
 * wall-time:     0 d,  0 h,  0 min, 11.215 sec
 *  cpu-time:     0 d,  0 h,  0 min, 22.028 sec
 * ratio c/w:     1.964 speedup

