      -----------------------------------------------------------      
     |                   =====================                   |     
     |                           x T B                           |     
     |                   =====================                   |     
     |                         S. Grimme                         |     
     |          Mulliken Center for Theoretical Chemistry        |     
     |                    University of Bonn                     |     
     |                 Version 6.0.1 (SAW181210)                 |     
      -----------------------------------------------------------      

   This program is distributed in the hope that it will be useful,
   but WITHOUT ANY WARRANTY; without even the implied warranty of
   MERCHANTABILITY or FITNESS FOR A PARTICULAR PURPOSE.
   
   FOR NON-COMMERCIAL, ACADEMIA USE ONLY.
   
   Cite this work as:
   S. Grimme, C. Bannwarth, P. Shushkov, J. Comput. Theory Chem., 2017,
   13, 1989-2009.
   C. Bannwarth, S. Ehlert and S. Grimme., ChemRxiv, 2018, preprint.
   http://doi.org/10.26434/chemrxiv.7246238.v1
   
   for sTDA-xTB:
   S. Grimme and C. Bannwarth, J. Chem. Phys., 2016, 145, 054103.
   
   in the mass-spec context:
   V. Asgeirsson, C. Bauer and S. Grimme, Chem. Sci., 2017, 8, 4879.
   
   if GBSA is used:
   P. Shushkov, F. März and S. Grimme, unpublished.
   
   for ANC optimizer:
   S. Grimme, unpublished.
   Rational Function algorithm used in ANCopt:
   F. Eckert, P. Pulay, H.-J. Werner, J. Comput. Chem., 1997, 18, 1473.
   
   with help from (in alphabetical order)
   C. Bannwarth, F. Bohle, G. Brandenburg, E. Caldeweyher, M. Checinski,
   S. Dohm, S. Ehlert, S. Ehrlich, F. März, H. Neugebauer, J. Pisarek,
   P. Pracht, P. Shushkov, and S. Spicher.
   
 * started run on 2019/05/12 at 12:15:52.302     
========================================================================
 # omp threads = 2
========================================================================
number of atoms            : 86
number of electrons        : 242
charge                     : -1
spin                       : .0
first test random number   : .7583

########################################################################
# WARNING! Please study the warnings concerning your input carefully
#  - Process number higher than OMP_NUM_THREADS, I hope you know what you are doing.
########################################################################

           ------------------------------------------------- 
          |                 G F N 2 - x T B                 |
          | Geometry, Frequencies, Noncovalent interactions |
          |            JCTC 2018 parametrisation            |
           ------------------------------------------------- 
 
      method parameters     
 k(s)        :  1.8500
 k(p)        :  2.2300
 k(d)        :  2.2300
 k(f)        :  2.0000
 kEN (H0ij)  : -2.0000
 D4 a1       :  0.5200
 D4 a2       :  5.0000
 D4 s6       :  1.0000
 D4 s8       :  2.7000
 D4 s9       :  5.0000
 alphaj      :  2.0000

 Solvent             : h2o
 Using internal parameter file: .param_gbsa2_h2o
 Gsolv ref. state (COSMO-RS): gsolv [1 M gas/solution]
 temperature (mdtemp)       :    298.150000000000     
 dielectric constant        :    80.2000000000000     
 rho                        :    1.00000000000000     
 mass                       :    18.0000000000000     
 surface tension            :    15.5689454083859     
 probe radius               :   0.975313790000000     
 vdW radii scaling          :    1.00000000000000     
 Gshift (Eh)                :   1.857443126794793E-003
 c1                         :    1.55243817000000     
 soset                      :   0.130326360000000     
 HB correction              :  T

            Z     q(EN)     CN     RAES       Cart. coordinates
     1  N   5.0   -0.22    3.21    1.96    48.42691    59.57282   175.77473
     2  C   4.0    0.02    4.31    4.21    49.08529    62.12042   175.21227
     3  C   4.0    0.14    3.43    3.09    49.25510    63.68533   177.65386
     4  O   6.0   -0.31    1.23    1.80    47.58263    63.70123   179.21254
     5  C   4.0   -0.04    4.30    4.20    47.06452    63.43700   173.62294
     6  C   4.0   -0.03    4.16    3.91    48.06628    65.90407   172.48779
     7  C   4.0    0.23    3.06    3.02    45.99851    67.37605   170.88488
     8  O   6.0   -0.31    1.14    1.80    43.69278    66.65616   170.96874
     9  O   6.0   -0.30    1.15    1.80    46.91806    69.20836   169.63961
    10  H   1.0    0.09    1.02    1.43    48.18340    59.05412   177.64162
    11  H   1.0    0.03    1.05    1.44    50.88967    62.13113   174.17412
    12  H   1.0    0.04    1.03    1.43    46.47815    62.22389   172.06321
    13  H   1.0    0.06    1.03    1.43    45.40854    63.85911   174.76134
    14  H   1.0    0.07    1.03    1.43    48.65874    67.22619   173.94935
    15  H   1.0    0.04    1.03    1.43    49.63067    65.53681   171.22197
    16  N   5.0   -0.13    3.51    2.09    51.41392    65.10804   177.94328
    17  C   4.0    0.04    4.50    4.54    51.78629    66.95378   179.87692
    18  C   4.0    0.15    3.44    3.09    51.19047    69.55981   178.85194
    19  O   6.0   -0.30    1.25    1.80    51.52251    70.07611   176.64792
    20  C   4.0    0.05    4.28    4.15    54.57778    66.79497   180.63665
    21  O   6.0   -0.26    2.11    1.84    55.29423    64.23797   180.92863
    22  C   4.0   -0.07    4.08    3.76    55.07677    68.41296   182.94172
    23  H   1.0    0.08    1.06    1.44    52.56457    65.21285   176.39564
    24  H   1.0    0.06    1.08    1.44    50.52353    66.49005   181.39931
    25  H   1.0    0.05    1.05    1.44    55.74743    67.47086   179.07302
    26  H   1.0    0.13    1.03    1.43    54.52504    63.57798   182.50820
    27  H   1.0    0.04    0.99    1.43    57.02189    68.09757   183.61099
    28  H   1.0    0.06    1.01    1.43    54.78586    70.38075   182.55777
    29  H   1.0    0.05    1.00    1.43    53.80597    67.79831   184.47347
    30  N   5.0   -0.14    3.48    2.07    50.40249    71.19421   180.59342
    31  C   4.0    0.04    4.34    4.27    49.65293    73.79565   179.96551
    32  C   4.0    0.24    3.14    3.03    51.28940    75.77673   181.52963
    33  O   6.0   -0.32    1.16    1.80    50.90847    78.04944   181.10174
    34  C   4.0   -0.04    4.30    4.21    46.83493    74.27289   180.57494
    35  C   4.0   -0.01    3.56    3.14    45.20639    72.36651   179.23578
    36  C   4.0   -0.04    3.47    3.10    44.50252    72.70654   176.75457
    37  C   4.0   -0.03    3.47    3.10    44.43456    70.16343   180.45778
    38  C   4.0   -0.03    3.39    3.07    43.06061    70.90001   175.49123
    39  C   4.0   -0.04    3.38    3.07    42.97146    68.35334   179.17474
    40  C   4.0   -0.04    3.38    3.07    42.29575    68.74179   176.72353
    41  O   6.0   -0.33    1.31    1.80    52.84787    74.81832   183.08012
    42  H   1.0    0.11    1.11    1.44    50.08321    70.65776   182.32350
    43  H   1.0    0.06    1.05    1.44    49.99876    74.11761   177.96562
    44  H   1.0    0.04    1.03    1.43    46.55002    74.06405   182.62174
    45  H   1.0    0.04    1.04    1.43    46.36996    76.16144   180.01598
    46  H   1.0    0.05    1.03    1.43    45.13364    74.38189   175.74837
    47  H   1.0    0.06    1.02    1.43    44.94183    69.85795   182.41845
    48  H   1.0    0.06    1.03    1.43    42.57241    71.20130   173.52769
    49  H   1.0    0.05    1.03    1.43    42.39111    66.68597   180.19627
    50  H   1.0    0.05    1.03    1.43    41.19632    67.36585   175.71028
    51  N   5.0   -0.23    3.22    1.96    46.37265    68.75141   191.64583
    52  C   4.0    0.02    4.28    4.16    47.14646    69.83546   189.22878
    53  C   4.0    0.14    3.41    3.08    48.19540    67.90720   187.32773
    54  O   6.0   -0.33    1.30    1.80    49.16205    68.60482   185.38429
    55  C   4.0   -0.05    4.27    4.13    48.98762    72.04636   189.58852
    56  C   4.0   -0.06    4.18    3.96    51.28989    71.40085   191.24742
    57  C   4.0   -0.06    4.14    3.89    53.37735    73.36797   190.88322
    58  C   4.0   -0.04    4.10    3.81    54.95573    72.77636   188.48790
    59  N   5.0   -0.13    4.00    2.87    55.78463    75.13118   187.07639
    60  H   1.0    0.07    1.03    1.43    47.47758    67.42992   192.43101
    61  H   1.0    0.03    1.05    1.44    45.42270    70.62816   188.33806
    62  H   1.0    0.05    1.03    1.43    49.60430    72.61668   187.68578
    63  H   1.0    0.03    1.03    1.43    47.96131    73.62615   190.41307
    64  H   1.0    0.02    1.03    1.43    50.67561    71.39387   193.20077
    65  H   1.0    0.04    1.03    1.43    51.99841    69.54582   190.74941
    66  H   1.0    0.03    1.02    1.43    52.46646    75.23820   190.67943
    67  H   1.0    0.02    1.04    1.43    54.59467    73.40135   192.49244
    68  H   1.0    0.03    1.02    1.43    56.61507    71.72127   189.02302
    69  H   1.0    0.05    1.03    1.43    53.82159    71.66053   187.18945
    70  H   1.0    0.05    1.03    1.43    57.55464    74.94184   186.40433
    71  H   1.0    0.10    1.10    1.44    54.49324    75.45830   185.55294
    72  H   1.0    0.04    1.03    1.43    55.68236    76.64527   188.26940
    73  N   5.0   -0.15    3.49    2.07    47.88583    65.45948   187.82592
    74  C   4.0    0.04    4.32    4.24    49.21586    63.62837   186.32109
    75  C   4.0    0.08    3.16    3.03    47.51598    61.23150   185.99009
    76  O   6.0   -0.31    1.11    1.80    47.25361    59.63191   187.66033
    77  C   4.0    0.04    4.18    3.95    51.71980    63.06749   187.61289
    78  O   6.0   -0.28    2.10    1.84    53.52460    62.27162   185.97352
    79  H   1.0    0.07    1.07    1.44    47.41999    64.88333   189.60048
    80  H   1.0    0.06    1.07    1.44    49.58761    64.43009   184.46967
    81  H   1.0    0.03    1.03    1.43    52.32618    64.75003   188.61623
    82  H   1.0    0.04    1.01    1.43    51.38507    61.55503   189.04259
    83  H   1.0    0.11    1.03    1.43    55.00361    61.66861   186.76763
    84  H   1.0    0.08    1.09    1.44    46.94805    59.19028   175.02693
    85  H   1.0    0.08    1.08    1.44    46.26830    69.98373   192.81333
    86  H   1.0    0.06    1.04    1.43    46.58624    60.94901   184.36934

  Z AO/shell   Hii/eV     exponent
  1     Wed Apr 25 08:07:45 CEST 2018   EN: 2.200 GM2: 0.406  GM3: 0.0800  RAES: 1.40
     1s    -10.707211    1.230000
  6     Wed Apr 25 08:07:45 CEST 2018   EN: 2.550 GM2: 0.538  GM3: 0.1500  RAES: 3.00
     2s    -13.970922    2.096432
     2p    -10.063292    1.800000
  7     Wed Apr 25 08:07:45 CEST 2018   EN: 3.040 GM2: 0.461  GM3:-0.0640  RAES: 1.90
     2s    -16.686243    2.339881
     2p    -12.523956    2.014332
  8     Wed Apr 25 08:07:45 CEST 2018   EN: 3.440 GM2: 0.452  GM3:-0.0517  RAES: 1.80
     2s    -20.229985    2.439742
     2p    -15.503117    2.137023
 no old-style atom pair restraining (fixing) potential

molecular fragmentation (1/2 indicates fragments):
111111111111111111111111111111111111111111111111112222222222222222222222
22222222222122
# atoms in fragment 1/2:    51    35
 fragment masses (1/2) :      393.40      218.28
CMA distance (Bohr)    :  10.508
constraining FC (au)   :  0.0500
           ------------------------------------------------- 
          |        Self-Consistent Charge Iterations        |
           ------------------------------------------------- 

 Ncao       : 215
 Nao        : 215
 Nshell     : 129
 Nel        : 242
 T(el)      :   500.0
 intcut     :    35.0
 scfconv/Eh :  0.100E-06
   qconv/e  :  0.100E-04
 intneglect :  0.100E-08
 broydamp   :      0.400
 iter      E             dE          RMSdq      gap      omega  full diag
   1   -139.5351617 -0.139535E+03  0.486E+00    3.71       0.0  T
   2   -139.8824482 -0.347287E+00  0.231E+00    2.02       1.0  T
   3   -139.9019873 -0.195391E-01  0.128E+00    2.01       1.0  T
   4   -139.9240387 -0.220514E-01  0.279E-01    1.07       1.0  T
   5   -139.9254472 -0.140844E-02  0.144E-01    1.25       1.0  T
   6   -139.9256822 -0.235031E-03  0.585E-02    1.26       1.0  T
   7   -139.9257505 -0.683129E-04  0.242E-02    1.29       1.0  T
   8   -139.9257580 -0.743799E-05  0.115E-02    1.31       1.0  T
   9   -139.9257607 -0.272343E-05  0.534E-03    1.31       2.0  T
  10   -139.9257612 -0.477850E-06  0.241E-03    1.32       4.5  T
  11   -139.9257613 -0.102711E-06  0.841E-04    1.32      12.8  T
  12   -139.9257613 -0.117020E-07  0.371E-04    1.32      29.1  T
  13   -139.9257613 -0.225202E-08  0.160E-04    1.32      67.5  T
  14   -139.9257613 -0.271882E-09  0.640E-05    1.32     168.6  T
  15   -139.9257613 -0.986802E-10  0.282E-05    1.32     382.3  T
speedup  2.00
cpu  time for SCC    0.62 s
wall time for SCC    0.31 s

   *** convergence criteria satisfied after 15 iterations ***

          eigenvalues
 #    :         109        110        111        112        113        114        115        116
 occ. :        2.000      2.000      2.000      2.000      2.000      2.000      2.000      2.000
 eps  :       -11.242    -11.128    -11.106    -10.903    -10.879    -10.799    -10.577    -10.544
 #    :         117        118        119        120        121        122        123        124
 occ. :        2.000      2.000      2.000      2.000      2.000      0.000      0.000      0.000
 eps  :       -10.229    -10.158    -10.066     -9.973     -9.620     -8.303     -6.163     -6.102
 #    :         125        126        127        128        129        130        131        132
 occ. :        0.000      0.000      0.000      0.000      0.000      0.000      0.000      0.000
 eps  :        -6.026     -5.894     -5.654     -5.166     -4.808     -2.455     -1.823     -0.574


   #   Z            q   n(s)   n(p)   n(d)      C6AA      α(0)
   1   7 N     -0.379  1.310  4.069  0.000    29.796     8.107
   2   6 C      0.040  1.055  2.905  0.000    19.920     6.357
   3   6 C      0.270  1.057  2.673  0.000    22.442     7.758
   4   8 O     -0.478  1.733  4.744  0.000    23.293     6.471
   5   6 C     -0.044  1.050  2.994  0.000    21.348     6.576
   6   6 C     -0.086  1.065  3.021  0.000    22.150     6.702
   7   6 C      0.358  1.041  2.601  0.000    20.928     7.486
   8   8 O     -0.643  1.784  4.859  0.000    27.204     6.993
   9   8 O     -0.655  1.786  4.870  0.000    27.522     7.034
  10   1 H      0.166  0.834  0.000  0.000     1.301     1.787
  11   1 H      0.028  0.972  0.000  0.000     2.611     2.527
  12   1 H      0.035  0.965  0.000  0.000     2.522     2.484
  13   1 H      0.028  0.972  0.000  0.000     2.615     2.529
  14   1 H      0.007  0.993  0.000  0.000     2.932     2.678
  15   1 H      0.020  0.980  0.000  0.000     2.733     2.585
  16   7 N     -0.185  1.253  3.933  0.000    25.014     7.428
  17   6 C      0.016  1.059  2.926  0.000    20.314     6.417
  18   6 C      0.280  1.036  2.685  0.000    22.264     7.727
  19   8 O     -0.528  1.755  4.773  0.000    24.423     6.626
  20   6 C      0.117  1.042  2.841  0.000    18.747     6.179
  21   8 O     -0.476  1.732  4.744  0.000    22.374     6.385
  22   6 C     -0.149  1.049  3.100  0.000    23.434     6.903
  23   1 H      0.183  0.817  0.000  0.000     1.197     1.714
  24   1 H      0.076  0.924  0.000  0.000     2.019     2.222
  25   1 H      0.031  0.969  0.000  0.000     2.568     2.506
  26   1 H      0.334  0.666  0.000  0.000     0.627     1.244
  27   1 H      0.083  0.917  0.000  0.000     1.953     2.186
  28   1 H      0.065  0.935  0.000  0.000     2.142     2.289
  29   1 H      0.064  0.936  0.000  0.000     2.149     2.293
  30   7 N     -0.189  1.249  3.940  0.000    25.093     7.440
  31   6 C      0.019  1.074  2.907  0.000    20.279     6.415
  32   6 C      0.358  1.033  2.609  0.000    20.919     7.485
  33   8 O     -0.595  1.773  4.821  0.000    25.990     6.835
  34   6 C     -0.065  1.053  3.012  0.000    21.737     6.637
  35   6 C      0.013  1.082  2.905  0.000    27.723     8.636
  36   6 C     -0.037  1.079  2.958  0.000    28.918     8.819
  37   6 C     -0.046  1.086  2.960  0.000    29.132     8.851
  38   6 C     -0.022  1.079  2.943  0.000    28.555     8.763
  39   6 C     -0.032  1.080  2.952  0.000    28.797     8.800
  40   6 C     -0.025  1.070  2.954  0.000    28.616     8.772
  41   8 O     -0.578  1.734  4.844  0.000    25.583     6.781
  42   1 H      0.233  0.767  0.000  0.000     0.951     1.527
  43   1 H      0.024  0.976  0.000  0.000     2.677     2.559
  44   1 H      0.049  0.951  0.000  0.000     2.329     2.387
  45   1 H      0.055  0.945  0.000  0.000     2.252     2.347
  46   1 H      0.012  0.988  0.000  0.000     2.851     2.640
  47   1 H      0.043  0.957  0.000  0.000     2.413     2.429
  48   1 H      0.004  0.996  0.000  0.000     2.982     2.700
  49   1 H      0.042  0.958  0.000  0.000     2.425     2.435
  50   1 H      0.020  0.980  0.000  0.000     2.733     2.585
  51   7 N     -0.400  1.321  4.079  0.000    30.370     8.185
  52   6 C      0.024  1.063  2.913  0.000    20.191     6.401
  53   6 C      0.276  1.042  2.681  0.000    22.327     7.738
  54   8 O     -0.482  1.736  4.746  0.000    23.387     6.484
  55   6 C     -0.078  1.059  3.020  0.000    21.995     6.677
  56   6 C     -0.068  1.048  3.020  0.000    21.803     6.648
  57   6 C     -0.089  1.057  3.032  0.000    22.199     6.708
  58   6 C     -0.043  1.062  2.981  0.000    21.446     6.612
  59   7 N     -0.179  1.247  3.932  0.000    24.873     7.407
  60   1 H      0.161  0.839  0.000  0.000     1.327     1.804
  61   1 H      0.055  0.945  0.000  0.000     2.253     2.348
  62   1 H      0.050  0.950  0.000  0.000     2.324     2.384
  63   1 H      0.050  0.950  0.000  0.000     2.317     2.380
  64   1 H      0.063  0.937  0.000  0.000     2.169     2.303
  65   1 H      0.043  0.957  0.000  0.000     2.403     2.424
  66   1 H      0.069  0.931  0.000  0.000     2.100     2.266
  67   1 H      0.087  0.913  0.000  0.000     1.906     2.159
  68   1 H      0.112  0.888  0.000  0.000     1.677     2.025
  69   1 H      0.098  0.902  0.000  0.000     1.801     2.099
  70   1 H      0.281  0.719  0.000  0.000     0.772     1.376
  71   1 H      0.299  0.701  0.000  0.000     0.716     1.326
  72   1 H      0.278  0.722  0.000  0.000     0.782     1.385
  73   7 N     -0.178  1.255  3.923  0.000    24.855     7.404
  74   6 C      0.023  1.055  2.922  0.000    20.190     6.398
  75   6 C      0.201  1.095  2.704  0.000    23.729     7.977
  76   8 O     -0.339  1.752  4.587  0.000    20.502     6.071
  77   6 C      0.092  1.026  2.883  0.000    19.259     6.284
  78   8 O     -0.482  1.691  4.790  0.000    22.499     6.403
  79   1 H      0.219  0.781  0.000  0.000     1.014     1.578
  80   1 H      0.086  0.914  0.000  0.000     1.914     2.163
  81   1 H      0.040  0.960  0.000  0.000     2.446     2.446
  82   1 H      0.041  0.959  0.000  0.000     2.440     2.443
  83   1 H      0.369  0.631  0.000  0.000     0.545     1.159
  84   1 H      0.184  0.816  0.000  0.000     1.192     1.710
  85   1 H      0.195  0.805  0.000  0.000     1.133     1.668
  86   1 H      0.078  0.922  0.000  0.000     2.000     2.211

 Mol. C6AA /au·bohr⁶  :      71547.079091
 Mol. C8AA /au·bohr⁸  :    1593485.145775
 Mol. α(0) /au        :        401.089695

 
molecular dipole:
                 x           y           z       tot (Debye)
 q only:      -41.084     -68.455    -161.275
   full:      -41.290     -68.176    -161.624     458.055
molecular quadrupole (traceless):
                xx          xy          yy          xz          yz          zz
 q only:    13585.758   -4203.213    8933.068   -9695.711  -16509.684  -22518.826
  q+dip:    13606.058   -4199.931    9038.770   -9772.568  -16472.635  -22644.827
   full:    13607.976   -4202.057    9038.688   -9774.069  -16471.915  -22646.663
speedup  2.00
cpu  time for grad    0.98 s
wall time for grad    0.49 s

SCC energy    :    -139.9279741
rep           :       1.6378895
ES            :       0.6661823
AES           :      -0.0275517
AXC           :       0.0375246
disp          :      -0.1003156
XB            :       0.0000000
fix           :       0.0000000
Gborn         :       0.0000000
Gsasa         :       0.0000000
Ghb           :       0.0000000
Gshift        :       0.0000000
Gsolv         :      -0.2416163     -151.62
Etot ala COSMO:    -139.9279741
grad norm     :       0.3427681
total E       :    -138.2838793
atomizationE  :      24.7043884    15502.24
(atE without considering molecular charge,
 total energy contains solvation terms)
H-L gap (eV)  :          1.3175

------------------------------------------------------------------------
 * finished run on 2019/05/12 at 12:15:52.914     
------------------------------------------------------------------------
 total:
 * wall-time:     0 d,  0 h,  0 min,  0.610 sec
 *  cpu-time:     0 d,  0 h,  0 min,  1.143 sec
 * ratio c/w:     1.873 speedup
 SCF:
 * wall-time:     0 d,  0 h,  0 min,  0.528 sec
 *  cpu-time:     0 d,  0 h,  0 min,  1.055 sec
 * ratio c/w:     1.998 speedup

