      -----------------------------------------------------------      
     |                   =====================                   |     
     |                           x T B                           |     
     |                   =====================                   |     
     |                         S. Grimme                         |     
     |          Mulliken Center for Theoretical Chemistry        |     
     |                    University of Bonn                     |     
     |                 Version 6.0.1 (SAW181210)                 |     
      -----------------------------------------------------------      

   This program is distributed in the hope that it will be useful,
   but WITHOUT ANY WARRANTY; without even the implied warranty of
   MERCHANTABILITY or FITNESS FOR A PARTICULAR PURPOSE.
   
   FOR NON-COMMERCIAL, ACADEMIA USE ONLY.
   
   Cite this work as:
   S. Grimme, C. Bannwarth, P. Shushkov, J. Comput. Theory Chem., 2017,
   13, 1989-2009.
   C. Bannwarth, S. Ehlert and S. Grimme., ChemRxiv, 2018, preprint.
   http://doi.org/10.26434/chemrxiv.7246238.v1
   
   for sTDA-xTB:
   S. Grimme and C. Bannwarth, J. Chem. Phys., 2016, 145, 054103.
   
   in the mass-spec context:
   V. Asgeirsson, C. Bauer and S. Grimme, Chem. Sci., 2017, 8, 4879.
   
   if GBSA is used:
   P. Shushkov, F. März and S. Grimme, unpublished.
   
   for ANC optimizer:
   S. Grimme, unpublished.
   Rational Function algorithm used in ANCopt:
   F. Eckert, P. Pulay, H.-J. Werner, J. Comput. Chem., 1997, 18, 1473.
   
   with help from (in alphabetical order)
   C. Bannwarth, F. Bohle, G. Brandenburg, E. Caldeweyher, M. Checinski,
   S. Dohm, S. Ehlert, S. Ehrlich, F. März, H. Neugebauer, J. Pisarek,
   P. Pracht, P. Shushkov, and S. Spicher.
   
 * started run on 2019/02/12 at 03:00:10.596     
========================================================================
 # omp threads = 12
========================================================================
number of atoms            : 418
number of electrons        : 1070
charge                     : -1
spin                       : .0
first test random number   : .5371

########################################################################
# WARNING! Please study the warnings concerning your input carefully
#  - Process number higher than OMP_NUM_THREADS, I hope you know what you are doing.
########################################################################

           ------------------------------------------------- 
          |                 G F N 2 - x T B                 |
          | Geometry, Frequencies, Noncovalent interactions |
          |            JCTC 2018 parametrisation            |
           ------------------------------------------------- 
 
      method parameters     
 k(s)        :  1.8500
 k(p)        :  2.2300
 k(d)        :  2.2300
 k(f)        :  2.0000
 kEN (H0ij)  : -2.0000
 D4 a1       :  0.5200
 D4 a2       :  5.0000
 D4 s6       :  1.0000
 D4 s8       :  2.7000
 D4 s9       :  5.0000
 alphaj      :  2.0000

 Solvent             : h2o
 Using internal parameter file: .param_gbsa2_h2o
 Gsolv ref. state (COSMO-RS): gsolv [1 M gas/solution]
 temperature (mdtemp)       :    298.150000000000     
 dielectric constant        :    80.2000000000000     
 rho                        :    1.00000000000000     
 mass                       :    18.0000000000000     
 surface tension            :    15.5689454083859     
 probe radius               :   0.975313790000000     
 vdW radii scaling          :    1.00000000000000     
 Gshift (Eh)                :   1.857443126794793E-003
 c1                         :    1.55243817000000     
 soset                      :   0.130326360000000     
 HB correction              :  T

            Z     q(EN)     CN     RAES       Cart. coordinates
     1  N   5.0   -0.21    3.24    1.97    56.40473    21.99542    20.61389
     2  C   4.0    0.03    4.34    4.26    57.17126    23.31029    22.88617
     3  C   4.0    0.14    3.45    3.10    55.03315    23.20474    24.82193
     4  O   6.0   -0.32    1.29    1.80    55.44366    22.74369    27.06609
     5  C   4.0   -0.04    4.29    4.17    57.90415    26.03956    22.27848
     6  C   4.0   -0.03    4.23    4.06    58.98410    27.42319    24.56587
     7  C   4.0    0.15    3.23    3.04    61.44351    26.24820    25.45815
     8  O   6.0   -0.30    1.22    1.80    62.72976    24.84977    24.12709
     9  N   5.0   -0.19    3.20    1.96    62.10684    26.80507    27.83115
    10  H   1.0    0.08    1.02    1.43    56.50046    22.92768    18.93628
    11  H   1.0    0.06    1.05    1.44    58.78643    22.31442    23.72861
    12  H   1.0    0.05    1.03    1.43    59.33834    25.97898    20.79919
    13  H   1.0    0.04    1.03    1.43    56.25061    27.05375    21.58870
    14  H   1.0    0.04    1.03    1.43    59.32127    29.39543    24.06419
    15  H   1.0    0.05    1.03    1.43    57.64920    27.41084    26.13372
    16  H   1.0    0.11    1.07    1.44    61.28174    28.23693    28.80161
    17  H   1.0    0.09    1.03    1.43    63.76734    26.14358    28.48939
    18  N   5.0   -0.15    3.50    2.08    52.73360    23.68732    23.91102
    19  C   4.0    0.03    4.44    4.44    50.54198    23.60172    25.54470
    20  C   4.0    0.16    3.50    3.12    50.39450    21.02698    26.84227
    21  O   6.0   -0.32    1.31    1.80    50.10996    20.86140    29.14020
    22  C   4.0   -0.06    4.36    4.31    48.10240    24.08964    24.08052
    23  C   4.0   -0.03    4.18    3.95    47.69026    26.87957    23.41007
    24  C   4.0   -0.09    4.11    3.81    45.51180    27.11478    21.53636
    25  C   4.0   -0.08    4.11    3.82    47.12846    28.44202    25.76317
    26  H   1.0    0.07    1.06    1.44    52.48342    24.19018    22.07553
    27  H   1.0    0.05    1.06    1.44    50.77323    24.98580    27.07264
    28  H   1.0    0.04    1.03    1.43    48.16559    22.94388    22.36713
    29  H   1.0    0.04    1.03    1.43    46.52114    23.42285    25.22799
    30  H   1.0    0.04    1.05    1.44    49.40995    27.60549    22.52419
    31  H   1.0    0.03    1.00    1.43    45.18073    29.08560    21.06265
    32  H   1.0    0.03    1.00    1.43    45.93236    26.07765    19.81354
    33  H   1.0    0.03    1.00    1.43    43.78570    26.35605    22.35169
    34  H   1.0    0.03    1.00    1.43    46.54991    30.33330    25.22560
    35  H   1.0    0.03    1.00    1.43    45.60651    27.59685    26.85859
    36  H   1.0    0.03    1.00    1.43    48.78579    28.59464    26.96471
    37  N   5.0   -0.15    3.51    2.08    50.52864    19.02976    25.31567
    38  C   4.0    0.03    4.44    4.44    50.37876    16.48800    26.31554
    39  C   4.0    0.16    3.49    3.11    52.31236    16.14935    28.43361
    40  O   6.0   -0.31    1.27    1.80    51.73420    15.18452    30.46096
    41  C   4.0   -0.04    4.27    4.14    50.78009    14.52828    24.23660
    42  C   4.0   -0.04    4.18    3.96    48.48275    14.32239    22.50632
    43  C   4.0    0.25    3.10    3.02    49.02434    12.86716    20.04248
    44  O   6.0   -0.29    1.18    1.80    51.21824    12.91727    19.18498
    45  O   6.0   -0.29    1.16    1.80    47.19711    11.82404    18.95649
    46  H   1.0    0.07    1.06    1.44    50.75010    19.25877    23.42281
    47  H   1.0    0.05    1.05    1.44    48.51761    16.20173    27.19942
    48  H   1.0    0.06    1.03    1.43    52.43403    15.06746    23.12696
    49  H   1.0    0.05    1.03    1.43    51.18587    12.70211    25.10977
    50  H   1.0    0.04    1.02    1.43    46.89077    13.43144    23.46789
    51  H   1.0    0.04    1.03    1.43    47.90643    16.22077    21.92083
    52  N   5.0   -0.13    3.52    2.09    54.61116    17.02743    27.91085
    53  C   4.0    0.04    4.47    4.49    56.69588    16.65428    29.63751
    54  C   4.0    0.16    3.48    3.11    56.20807    18.00484    32.14043
    55  O   6.0   -0.32    1.31    1.80    56.46608    16.94924    34.20451
    56  C   4.0    0.05    4.25    4.09    59.15125    17.60597    28.39157
    57  O   6.0   -0.25    2.12    1.84    59.69709    16.21158    26.19547
    58  C   4.0   -0.06    4.10    3.80    61.38087    17.34095    30.19318
    59  H   1.0    0.08    1.07    1.44    54.96280    17.72422    26.16058
    60  H   1.0    0.07    1.05    1.44    56.86074    14.62300    30.04578
    61  H   1.0    0.05    1.04    1.43    58.87453    19.61077    27.89827
    62  H   1.0    0.12    1.02    1.43    58.45853    16.61109    24.90697
    63  H   1.0    0.05    1.00    1.43    63.10957    17.80166    29.19385
    64  H   1.0    0.05    1.00    1.43    61.16303    18.60994    31.79022
    65  H   1.0    0.06    1.00    1.43    61.50252    15.40606    30.87033
    66  N   5.0   -0.14    3.51    2.08    55.56421    20.42880    31.97166
    67  C   4.0    0.04    4.52    4.57    55.07486    21.88092    34.24599
    68  C   4.0    0.16    3.50    3.12    52.86465    20.74329    35.72096
    69  O   6.0   -0.32    1.28    1.80    52.95635    20.49930    38.02420
    70  C   4.0   -0.02    4.26    4.12    54.57837    24.68285    33.63498
    71  C   4.0   -0.08    4.14    3.88    53.74430    26.07594    36.02212
    72  C   4.0   -0.07    4.11    3.82    56.95653    25.91114    32.55461
    73  H   1.0    0.11    1.10    1.44    55.28722    21.26199    30.26461
    74  H   1.0    0.05    1.06    1.44    56.73062    21.71236    35.48478
    75  H   1.0    0.05    1.05    1.44    53.07434    24.74447    32.21737
    76  H   1.0    0.03    1.00    1.43    53.45728    28.06064    35.59267
    77  H   1.0    0.04    1.00    1.43    51.99562    25.30516    36.76788
    78  H   1.0    0.04    1.00    1.43    55.18988    25.89040    37.46512
    79  H   1.0    0.04    1.00    1.43    56.59868    27.88683    32.12987
    80  H   1.0    0.04    1.00    1.43    58.49825    25.78629    33.90263
    81  H   1.0    0.06    1.00    1.43    57.53164    24.97567    30.81881
    82  N   5.0   -0.14    3.51    2.08    50.81084    20.20581    34.36298
    83  C   4.0    0.03    4.45    4.45    48.53194    19.30626    35.58627
    84  C   4.0    0.16    3.49    3.11    49.00653    16.81620    36.95513
    85  O   6.0   -0.32    1.31    1.80    48.18666    16.44658    39.09199
    86  C   4.0   -0.05    4.35    4.29    46.38406    19.08641    33.67214
    87  C   4.0   -0.03    4.18    3.96    43.86267    18.22580    34.83064
    88  C   4.0   -0.08    4.11    3.82    43.08574    19.85387    37.08656
    89  C   4.0   -0.08    4.11    3.81    41.81907    18.32403    32.79146
    90  H   1.0    0.12    1.11    1.45    50.79821    20.33587    32.45374
    91  H   1.0    0.05    1.06    1.44    48.02439    20.67351    37.06213
    92  H   1.0    0.04    1.03    1.43    46.14430    20.93486    32.79023
    93  H   1.0    0.05    1.03    1.43    46.95581    17.75457    32.20160
    94  H   1.0    0.04    1.05    1.44    44.06760    16.26705    35.47169
    95  H   1.0    0.03    1.00    1.43    41.15713    19.40286    37.63406
    96  H   1.0    0.04    1.00    1.43    44.29756    19.48997    38.70185
    97  H   1.0    0.03    1.00    1.43    43.19114    21.84419    36.59588
    98  H   1.0    0.04    1.00    1.43    40.00452    17.75255    33.56155
    99  H   1.0    0.04    1.00    1.43    41.64603    20.23166    32.05000
   100  H   1.0    0.04    1.00    1.43    42.29265    17.06046    31.24436
   101  N   5.0   -0.14    3.51    2.09    50.41566    15.12482    35.72857
   102  C   4.0    0.03    4.45    4.47    51.07621    12.77166    36.95177
   103  C   4.0    0.16    3.49    3.11    52.33354    13.27748    39.51095
   104  O   6.0   -0.31    1.25    1.80    51.86407    12.01326    41.38746
   105  C   4.0   -0.03    4.28    4.16    52.80666    11.19336    35.27083
   106  C   4.0   -0.03    4.21    4.01    53.03045     8.52550    36.29849
   107  C   4.0    0.25    3.10    3.02    54.56978     6.74201    34.61157
   108  O   6.0   -0.27    1.18    1.80    55.67418     7.54818    32.71157
   109  O   6.0   -0.28    1.17    1.80    54.56030     4.45297    35.29620
   110  H   1.0    0.12    1.10    1.44    51.00148    15.39459    33.92477
   111  H   1.0    0.05    1.05    1.44    49.33632    11.70423    37.35454
   112  H   1.0    0.07    1.03    1.43    52.03153    11.15568    33.35769
   113  H   1.0    0.07    1.03    1.43    54.67259    12.06625    35.14806
   114  H   1.0    0.06    1.03    1.43    53.89847     8.53488    38.17009
   115  H   1.0    0.05    1.03    1.43    51.15607     7.69033    36.53332
   116  N   5.0   -0.13    3.42    2.03    54.02103    15.15729    39.49263
   117  C   4.0    0.02    4.25    4.10    55.40761    15.88695    41.73761
   118  C   4.0    0.16    3.37    3.07    53.58741    16.70852    43.83606
   119  O   6.0   -0.31    1.25    1.80    53.68126    15.82407    45.97788
   120  H   1.0    0.11    1.08    1.44    54.50648    15.94807    37.82214
   121  H   1.0    0.05    1.02    1.43    56.54131    14.30510    42.44226
   122  H   1.0    0.05    1.03    1.43    56.63645    17.46008    41.23552
   123  N   5.0   -0.14    3.49    2.07    52.00853    18.54533    43.15227
   124  C   4.0    0.04    4.50    4.54    50.10186    19.52920    44.86780
   125  C   4.0    0.16    3.52    3.12    48.60204    17.37041    46.07443
   126  O   6.0   -0.31    1.28    1.80    48.37010    17.19150    48.37164
   127  C   4.0   -0.02    4.27    4.14    48.40246    21.41487    43.45257
   128  C   4.0   -0.08    4.13    3.87    45.83860    21.72424    44.73793
   129  C   4.0   -0.08    4.11    3.82    49.75229    23.96057    43.26848
   130  H   1.0    0.11    1.10    1.44    51.99432    19.13494    41.32220
   131  H   1.0    0.05    1.06    1.44    51.05856    20.47597    46.44982
   132  H   1.0    0.05    1.06    1.44    48.10269    20.64540    41.55694
   133  H   1.0    0.03    1.00    1.43    44.78768    23.24364    43.84323
   134  H   1.0    0.04    1.00    1.43    44.72970    20.00109    44.60325
   135  H   1.0    0.04    1.00    1.43    46.07662    22.17321    46.72718
   136  H   1.0    0.03    1.00    1.43    48.62691    25.25514    42.14019
   137  H   1.0    0.04    1.00    1.43    49.95796    24.74650    45.15504
   138  H   1.0    0.05    1.00    1.43    51.58329    23.72251    42.37046
   139  N   5.0   -0.14    3.51    2.09    47.53290    15.78581    44.43513
   140  C   4.0    0.03    4.51    4.55    46.07249    13.62462    45.26227
   141  C   4.0    0.16    3.55    3.14    47.51813    12.16334    47.28768
   142  O   6.0   -0.30    1.27    1.80    46.55383    11.67043    49.33696
   143  C   4.0   -0.02    4.28    4.15    45.40255    11.95005    42.99257
   144  C   4.0   -0.07    4.14    3.89    44.60248     9.32242    43.86050
   145  C   4.0   -0.08    4.11    3.83    43.28594    13.18493    41.46646
   146  H   1.0    0.11    1.11    1.44    47.85713    15.95695    42.55230
   147  H   1.0    0.05    1.05    1.44    44.33743    14.29223    46.19229
   148  H   1.0    0.06    1.06    1.44    47.09995    11.76939    41.82525
   149  H   1.0    0.04    1.00    1.43    44.08895     8.20986    42.22045
   150  H   1.0    0.05    1.00    1.43    46.12944     8.34155    44.82703
   151  H   1.0    0.04    1.00    1.43    43.01833     9.45200    45.16208
   152  H   1.0    0.04    1.00    1.43    42.88441    12.05738    39.80012
   153  H   1.0    0.03    1.00    1.43    41.58578    13.32619    42.60557
   154  H   1.0    0.05    1.00    1.43    43.84767    15.05824    40.84689
   155  N   5.0   -0.13    3.50    2.07    49.88834    11.50844    46.70678
   156  C   4.0    0.05    4.43    4.43    51.30353     9.98205    48.46990
   157  C   4.0    0.16    3.50    3.11    51.38495    11.22659    51.08347
   158  O   6.0   -0.31    1.28    1.80    50.98408    10.01506    53.01391
   159  C   4.0    0.04    4.15    3.89    53.98182     9.46908    47.51011
   160  O   6.0   -0.25    2.05    1.83    53.96285     7.09126    46.30161
   161  H   1.0    0.11    1.08    1.44    50.57319    11.71678    44.92875
   162  H   1.0    0.07    1.06    1.44    50.34417     8.15645    48.73618
   163  H   1.0    0.06    1.01    1.43    54.53086    10.98054    46.20727
   164  H   1.0    0.04    1.01    1.43    55.29308     9.44466    49.11908
   165  H   1.0    0.12    1.02    1.43    55.55728     6.79539    45.47210
   166  N   5.0   -0.14    3.51    2.09    52.05980    13.65483    51.09919
   167  C   4.0    0.03    4.43    4.43    52.21559    15.03777    53.46198
   168  C   4.0    0.16    3.49    3.11    49.74381    14.79732    54.95098
   169  O   6.0   -0.32    1.28    1.80    49.73636    14.44152    57.23661
   170  C   4.0   -0.04    4.30    4.20    52.74551    17.82485    52.96185
   171  C   4.0   -0.03    4.22    4.04    55.40515    18.26246    51.92163
   172  C   4.0    0.15    3.22    3.04    55.62954    20.94692    50.92066
   173  O   6.0   -0.31    1.21    1.80    54.94034    22.81558    52.09947
   174  N   5.0   -0.19    3.20    1.96    56.64286    21.14276    48.60875
   175  H   1.0    0.11    1.09    1.44    52.23789    14.60393    49.44529
   176  H   1.0    0.05    1.05    1.44    53.70441    14.18952    54.63210
   177  H   1.0    0.06    1.03    1.43    51.34517    18.47822    51.59391
   178  H   1.0    0.05    1.03    1.43    52.50313    18.88352    54.71030
   179  H   1.0    0.04    1.02    1.43    56.79302    17.97436    53.41938
   180  H   1.0    0.05    1.03    1.43    55.78196    16.92449    50.40160
   181  H   1.0    0.09    1.03    1.43    57.02862    19.59177    47.58520
   182  H   1.0    0.11    1.07    1.44    56.66153    22.88487    47.78021
   183  N   5.0   -0.14    3.50    2.08    47.64853    15.19520    53.61461
   184  C   4.0    0.04    4.44    4.45    45.19635    15.02442    54.81052
   185  C   4.0    0.09    3.30    3.05    44.84396    12.39740    55.94485
   186  O   6.0   -0.30    1.12    1.80    44.13707    12.16344    58.14497
   187  C   4.0   -0.02    4.32    4.24    43.06259    15.74375    52.98217
   188  C   4.0   -0.05    4.19    3.98    43.14572    18.60910    52.53558
   189  C   4.0   -0.07    4.14    3.88    40.52430    14.89097    54.05940
   190  C   4.0   -0.08    4.01    3.64    41.32149    19.50448    50.49175
   191  H   1.0    0.11    1.09    1.44    47.73297    15.44374    51.71785
   192  H   1.0    0.05    1.06    1.44    45.17339    16.32233    56.43300
   193  H   1.0    0.06    1.05    1.44    43.43685    14.75223    51.20469
   194  H   1.0    0.04    1.03    1.43    42.70987    19.56586    54.30955
   195  H   1.0    0.05    1.03    1.43    45.06495    19.12043    51.97698
   196  H   1.0    0.04    1.00    1.43    38.96428    15.45015    52.85249
   197  H   1.0    0.05    1.00    1.43    40.46254    12.84546    54.26039
   198  H   1.0    0.05    1.00    1.43    40.23091    15.71755    55.91774
   199  H   1.0    0.04    1.00    1.43    41.55083    21.52492    50.20708
   200  H   1.0    0.04    1.00    1.43    41.72631    18.55030    48.71845
   201  H   1.0    0.04    1.00    1.43    39.37426    19.14777    51.03359
   202  N   5.0   -0.19    3.26    1.97    48.87517     8.51671    57.87397
   203  C   4.0    0.03    4.24    4.08    50.56561     8.29667    60.00986
   204  C   4.0    0.15    3.42    3.08    49.41348     9.56880    62.35101
   205  O   6.0   -0.29    1.23    1.80    49.48686     8.59918    64.45188
   206  C   4.0   -0.07    4.12    3.83    53.09359     9.48601    59.32263
   207  H   1.0    0.12    1.06    1.44    49.59355     9.23051    56.24874
   208  H   1.0    0.05    1.05    1.44    50.81011     6.29161    60.49094
   209  H   1.0    0.04    1.00    1.43    54.40235     9.31451    60.89224
   210  H   1.0    0.05    1.00    1.43    53.85875     8.51508    57.68196
   211  H   1.0    0.06    1.00    1.43    52.81523    11.47034    58.86889
   212  N   5.0   -0.13    3.49    2.07    48.41887    11.85072    61.95672
   213  C   4.0    0.04    4.42    4.41    47.25176    13.23084    64.01196
   214  C   4.0    0.09    3.27    3.05    44.92510    11.81458    64.97636
   215  O   6.0   -0.28    1.11    1.80    44.53222    11.50044    67.24000
   216  C   4.0   -0.02    4.26    4.11    46.59899    15.93600    63.17866
   217  C   4.0   -0.07    4.13    3.86    44.81447    17.18567    65.07603
   218  C   4.0   -0.07    4.11    3.82    49.03084    17.46810    62.90777
   219  H   1.0    0.12    1.09    1.44    48.43073    12.63446    60.21058
   220  H   1.0    0.06    1.06    1.44    48.58515    13.28898    65.60140
   221  H   1.0    0.06    1.05    1.44    45.65867    15.79950    61.34061
   222  H   1.0    0.04    1.00    1.43    44.48392    19.14474    64.55812
   223  H   1.0    0.05    1.00    1.43    43.00815    16.20668    65.14310
   224  H   1.0    0.05    1.00    1.43    45.63745    17.13509    66.95740
   225  H   1.0    0.04    1.00    1.43    48.58955    19.38049    62.31708
   226  H   1.0    0.04    1.00    1.43    50.02768    17.56136    64.70111
   227  H   1.0    0.06    1.00    1.43    50.26400    16.63128    61.49535
   228  O   6.0   -0.29    1.92    1.82    60.13250    13.44582    35.40554
   229  H   1.0    0.12    0.97    1.43    61.30713    14.43513    36.36819
   230  H   1.0    0.15    1.02    1.43    58.77588    14.60204    34.95293
   231  O   6.0   -0.32    2.01    1.83    55.40997    26.06937    47.14949
   232  H   1.0    0.14    0.97    1.43    54.78040    26.09766    48.86186
   233  H   1.0    0.12    0.97    1.43    53.98774    25.75447    46.06224
   234  O   6.0   -0.30    1.91    1.82    54.37571    23.70601    59.84562
   235  H   1.0    0.12    0.96    1.43    52.59223    24.15872    59.84310
   236  H   1.0    0.13    0.97    1.43    54.91501    23.93620    58.12579
   237  N   5.0   -0.22    3.20    1.96    36.21894    15.35840    23.91102
   238  C   4.0    0.03    4.23    4.05    37.24062    17.29919    25.54470
   239  C   4.0    0.07    3.22    3.04    35.08456    18.71429    26.84227
   240  O   6.0   -0.33    1.18    1.80    35.08344    19.04350    29.14020
   241  C   4.0   -0.05    4.35    4.29    38.88296    19.16797    24.08052
   242  C   4.0   -0.03    4.18    3.95    41.50518    18.12993    23.41007
   243  C   4.0   -0.08    4.11    3.82    42.79810    19.89893    21.53636
   244  C   4.0   -0.08    4.11    3.82    43.13919    17.83525    25.76317
   245  H   1.0    0.08    1.02    1.43    36.77952    15.32363    22.07553
   246  H   1.0    0.04    1.05    1.44    38.32363    16.40689    27.07264
   247  H   1.0    0.04    1.03    1.43    37.85910    19.68613    22.36713
   248  H   1.0    0.04    1.03    1.43    39.09613    20.87078    25.22799
   249  H   1.0    0.04    1.05    1.44    41.27399    16.27768    22.52419
   250  H   1.0    0.04    1.00    1.43    44.67042    19.20024    21.06265
   251  H   1.0    0.04    1.00    1.43    41.68965    20.05328    19.81354
   252  H   1.0    0.03    1.00    1.43    43.00407    21.77313    22.35169
   253  H   1.0    0.04    1.00    1.43    45.06637    17.39064    25.22560
   254  H   1.0    0.04    1.00    1.43    43.16823    19.57587    26.85859
   255  H   1.0    0.04    1.00    1.43    42.44271    16.32364    26.96471
   256  N   5.0   -0.21    3.23    1.96    31.98167    14.53627    31.97166
   257  C   4.0    0.03    4.40    4.38    33.48392    14.23400    34.24599
   258  C   4.0    0.15    3.46    3.10    33.60380    16.71692    35.72096
   259  O   6.0   -0.32    1.27    1.80    33.34666    16.75950    38.02420
   260  C   4.0   -0.03    4.26    4.12    36.15871    13.26301    33.63498
   261  C   4.0   -0.08    4.14    3.88    37.78219    13.28880    36.02212
   262  C   4.0   -0.08    4.11    3.82    36.03335    10.58932    32.55461
   263  H   1.0    0.08    1.02    1.43    32.84173    14.35956    30.26461
   264  H   1.0    0.04    1.05    1.44    32.51006    12.88435    35.48478
   265  H   1.0    0.04    1.05    1.44    36.96409    14.53473    32.21737
   266  H   1.0    0.03    1.00    1.43    39.64451    12.54501    35.59267
   267  H   1.0    0.04    1.00    1.43    37.98901    15.18859    36.76788
   268  H   1.0    0.04    1.00    1.43    36.89872    12.12965    37.46512
   269  H   1.0    0.04    1.00    1.43    37.92328     9.91138    32.12987
   270  H   1.0    0.04    1.00    1.43    35.15438     9.31658    33.90263
   271  H   1.0    0.04    1.00    1.43    34.93566    10.55899    30.81881
   272  N   5.0   -0.15    3.48    2.06    34.16524    18.76431    34.36298
   273  C   4.0    0.03    4.35    4.29    34.52566    21.18767    35.58627
   274  C   4.0    0.08    3.25    3.04    32.13191    22.02169    36.95513
   275  O   6.0   -0.30    1.12    1.80    32.22174    22.91653    39.09199
   276  C   4.0   -0.05    4.34    4.28    35.40920    23.15772    33.67214
   277  C   4.0   -0.02    4.18    3.96    35.92459    25.77160    34.83064
   278  C   4.0   -0.08    4.11    3.82    37.72300    25.63041    37.08656
   279  C   4.0   -0.08    4.11    3.81    37.03146    27.49230    32.79146
   280  H   1.0    0.11    1.11    1.45    34.28419    18.71022    32.45374
   281  H   1.0    0.05    1.06    1.44    35.96351    20.94360    37.06213
   282  H   1.0    0.04    1.03    1.43    37.12989    22.44112    32.79023
   283  H   1.0    0.05    1.03    1.43    33.96992    23.32848    32.20160
   284  H   1.0    0.04    1.05    1.44    34.12580    26.57351    35.47169
   285  H   1.0    0.03    1.00    1.43    38.29671    27.52614    37.63406
   286  H   1.0    0.05    1.00    1.43    36.80194    24.76290    38.70185
   287  H   1.0    0.03    1.00    1.43    39.39397    24.54397    36.59588
   288  H   1.0    0.03    1.00    1.43    37.44381    29.34949    33.56155
   289  H   1.0    0.03    1.00    1.43    38.77002    26.68834    32.05000
   290  H   1.0    0.04    1.00    1.43    35.70038    27.71395    31.24436
   291  N   5.0   -0.20    3.21    1.96    32.12838    18.55732    43.15227
   292  C   4.0    0.03    4.30    4.19    33.93376    19.71661    44.86780
   293  C   4.0    0.08    3.23    3.04    32.81411    22.09489    46.07443
   294  O   6.0   -0.30    1.11    1.80    32.77514    22.38521    48.37164
   295  C   4.0   -0.02    4.26    4.12    36.41650    20.24550    43.45257
   296  C   4.0   -0.08    4.13    3.86    37.96635    22.31118    44.73793
   297  C   4.0   -0.08    4.11    3.82    37.94623    17.80366    43.26848
   298  H   1.0    0.12    1.05    1.44    32.64609    18.27482    41.32220
   299  H   1.0    0.04    1.05    1.44    34.27534    18.41469    46.44982
   300  H   1.0    0.05    1.06    1.44    35.90001    20.88984    41.55694
   301  H   1.0    0.03    1.00    1.43    39.80766    22.46161    43.84323
   302  H   1.0    0.04    1.00    1.43    37.02851    24.13309    44.60325
   303  H   1.0    0.04    1.00    1.43    38.23616    21.88057    46.72718
   304  H   1.0    0.03    1.00    1.43    39.63005    18.13098    42.14019
   305  H   1.0    0.03    1.00    1.43    38.52403    17.23258    45.15504
   306  H   1.0    0.05    1.00    1.43    36.82456    16.33699    42.37046
   307  N   5.0   -0.22    3.20    1.96    41.23966    33.90058    34.36298
   308  C   4.0    0.02    4.24    4.07    43.15815    32.37676    35.58627
   309  C   4.0    0.07    3.22    3.04    45.07731    34.03280    36.95513
   310  O   6.0   -0.33    1.17    1.80    45.80734    33.50758    39.09199
   311  C   4.0   -0.05    4.34    4.28    44.42249    30.62657    33.67214
   312  C   4.0   -0.02    4.18    3.96    46.42848    28.87329    34.83064
   313  C   4.0   -0.08    4.11    3.82    45.40700    27.38641    37.08656
   314  C   4.0   -0.08    4.11    3.81    47.36521    27.05436    32.79146
   315  H   1.0    0.07    1.03    1.43    41.13334    33.82461    32.45374
   316  H   1.0    0.04    1.06    1.44    42.22785    31.25359    37.06213
   317  H   1.0    0.03    1.03    1.43    42.94155    29.49471    32.79023
   318  H   1.0    0.03    1.03    1.43    45.29001    31.78764    32.20160
   319  H   1.0    0.04    1.05    1.44    48.02235    30.03013    35.47169
   320  H   1.0    0.03    1.00    1.43    46.76189    25.94170    37.63406
   321  H   1.0    0.04    1.00    1.43    45.11624    28.61783    38.70185
   322  H   1.0    0.03    1.00    1.43    43.63064    26.48253    36.59588
   323  H   1.0    0.04    1.00    1.43    48.76741    25.76866    33.56155
   324  H   1.0    0.04    1.00    1.43    45.79968    25.95070    32.05000
   325  H   1.0    0.03    1.00    1.43    48.22271    28.09628    31.24436
   326  N   5.0   -0.20    3.23    1.96    42.07883    35.76804    43.15227
   327  C   4.0    0.03    4.40    4.38    42.18012    33.62489    44.86780
   328  C   4.0    0.15    3.46    3.10    44.79960    33.40539    46.07443
   329  O   6.0   -0.32    1.27    1.80    45.07050    33.29398    48.37164
   330  C   4.0   -0.02    4.27    4.14    41.39678    31.21033    43.45257
   331  C   4.0   -0.08    4.13    3.87    42.41079    28.83528    44.73793
   332  C   4.0   -0.08    4.11    3.82    38.51722    31.10646    43.26848
   333  H   1.0    0.08    1.02    1.43    41.57533    35.46094    41.32220
   334  H   1.0    0.04    1.05    1.44    40.88184    33.98003    46.44982
   335  H   1.0    0.05    1.06    1.44    42.21304    31.33545    41.55694
   336  H   1.0    0.03    1.00    1.43    41.62041    27.16545    43.84323
   337  H   1.0    0.04    1.00    1.43    44.45753    28.73651    44.60325
   338  H   1.0    0.04    1.00    1.43    41.90296    28.81692    46.72718
   339  H   1.0    0.04    1.00    1.43    37.95878    29.48457    42.14019
   340  H   1.0    0.04    1.00    1.43    37.73375    30.89161    45.15504
   341  H   1.0    0.04    1.00    1.43    37.80788    32.81119    42.37046
   342  N   5.0   -0.15    3.49    2.07    46.70646    33.27179    44.43513
   343  C   4.0    0.03    4.41    4.40    49.30831    33.08764    45.26227
   344  C   4.0    0.09    3.31    3.05    49.85100    35.07023    47.28768
   345  O   6.0   -0.30    1.12    1.80    50.76002    34.48159    49.33696
   346  C   4.0   -0.02    4.27    4.14    51.09351    33.34474    42.99257
   347  C   4.0   -0.07    4.15    3.90    53.76914    33.96567    43.86050
   348  C   4.0   -0.08    4.11    3.83    51.08237    30.89426    41.46646
   349  H   1.0    0.11    1.11    1.44    46.39613    33.46702    42.55230
   350  H   1.0    0.05    1.05    1.44    49.59768    31.25122    46.19229
   351  H   1.0    0.05    1.05    1.44    50.40127    34.90505    41.82525
   352  H   1.0    0.04    1.01    1.43    54.98941    34.07722    42.22045
   353  H   1.0    0.04    1.00    1.43    53.85512    35.77849    44.82703
   354  H   1.0    0.05    1.00    1.43    54.44899    32.52897    45.16208
   355  H   1.0    0.04    1.00    1.43    52.25962    31.11030    39.80012
   356  H   1.0    0.04    1.00    1.43    51.81012    29.35125    42.60557
   357  H   1.0    0.05    1.00    1.43    49.17918    30.44408    40.84689
   358  N   5.0   -0.20    3.22    1.96    47.16013    33.66724    53.61461
   359  C   4.0    0.04    4.32    4.24    48.53413    31.62898    54.81052
   360  C   4.0    0.08    3.25    3.04    50.98538    32.63730    55.94485
   361  O   6.0   -0.29    1.12    1.80    51.54144    32.14210    58.14497
   362  C   4.0   -0.02    4.32    4.24    48.97804    29.42142    52.98217
   363  C   4.0   -0.05    4.19    3.98    46.45502    28.06074    52.53558
   364  C   4.0   -0.06    4.14    3.88    50.98572    27.64959    54.05940
   365  C   4.0   -0.08    4.01    3.64    46.59171    26.03321    50.49175
   366  H   1.0    0.12    1.05    1.44    46.90267    33.61609    51.71785
   367  H   1.0    0.05    1.06    1.44    47.42158    30.96014    56.43300
   368  H   1.0    0.06    1.05    1.44    49.64960    30.24131    51.20469
   369  H   1.0    0.04    1.03    1.43    45.84436    27.20490    54.30955
   370  H   1.0    0.05    1.03    1.43    45.05258    29.46718    51.97698
   371  H   1.0    0.05    1.00    1.43    51.28147    26.01898    52.85249
   372  H   1.0    0.06    1.00    1.43    52.78807    28.61885    54.26039
   373  H   1.0    0.05    1.00    1.43    50.41657    26.98222    55.91774
   374  H   1.0    0.03    1.00    1.43    44.72729    25.22161    50.20708
   375  H   1.0    0.04    1.00    1.43    47.21564    26.86089    48.71845
   376  H   1.0    0.04    1.00    1.43    47.87425    24.52522    51.03359
   377  N   5.0   -0.22    3.20    1.95    65.40617    32.18498    35.35773
   378  C   4.0    0.03    4.22    4.05    63.08998    31.22444    34.27220
   379  C   4.0    0.07    3.20    3.04    62.48164    32.40470    31.69435
   380  O   6.0   -0.32    1.18    1.80    61.00507    31.34107    30.25127
   381  C   4.0   -0.05    4.27    4.15    60.87264    31.65025    36.07095
   382  C   4.0   -0.05    4.16    3.91    60.97775    29.88988    38.36253
   383  C   4.0   -0.02    4.19    3.98    58.65903    30.24703    40.08282
   384  N   5.0   -0.15    3.39    2.02    59.20486    31.63110    42.38509
   385  C   4.0    0.09    3.34    3.06    59.40691    30.65527    44.70346
   386  N   5.0   -0.18    3.27    1.97    59.64653    28.16692    45.03615
   387  N   5.0   -0.19    3.23    1.96    59.60417    32.19470    46.67884
   388  H   1.0    0.08    1.02    1.43    65.35015    32.97190    37.10792
   389  H   1.0    0.04    1.05    1.44    63.32370    29.19226    33.90510
   390  H   1.0    0.04    1.03    1.43    60.92429    33.62496    36.65199
   391  H   1.0    0.04    1.03    1.43    59.13764    31.30442    35.01199
   392  H   1.0    0.03    1.03    1.43    61.05965    27.94761    37.68397
   393  H   1.0    0.04    1.03    1.43    62.69960    30.25197    39.43507
   394  H   1.0    0.03    1.03    1.43    57.20874    31.29320    39.05027
   395  H   1.0    0.04    1.03    1.43    57.83226    28.43087    40.58639
   396  H   1.0    0.07    1.07    1.44    59.42399    33.52002    42.23161
   397  H   1.0    0.08    1.04    1.43    59.47909    27.00478    43.53505
   398  H   1.0    0.10    1.05    1.44    59.08788    27.41783    46.70474
   399  H   1.0    0.08    1.02    1.43    59.09717    34.04558    46.59633
   400  H   1.0    0.08    1.02    1.43    59.41389    31.56271    48.48989
   401  H   1.0    0.10    1.07    1.44    57.37853    20.61766    20.39933
   402  H   1.0    0.07    1.04    1.44    45.18822    10.86225    54.89802
   403  H   1.0    0.10    1.07    1.44    48.27623     6.97882    57.46320
   404  H   1.0    0.07    1.05    1.44    43.67027    11.11309    63.74982
   405  H   1.0    0.09    1.07    1.44    66.53721    30.92184    35.49114
   406  H   1.0    0.05    1.04    1.43    63.28645    34.03825    31.18950
   407  H   1.0    0.09    1.07    1.44    36.63276    13.82613    24.52214
   408  H   1.0    0.05    1.04    1.44    33.64597    19.38838    25.81898
   409  H   1.0    0.09    1.07    1.44    30.74301    13.37101    31.95039
   410  H   1.0    0.05    1.05    1.44    30.45032    21.84358    36.11157
   411  H   1.0    0.09    1.07    1.44    31.71183    17.01146    43.72617
   412  H   1.0    0.06    1.05    1.44    32.09150    23.45767    44.98276
   413  H   1.0    0.08    1.07    1.44    39.70209    33.42941    34.91654
   414  H   1.0    0.05    1.05    1.44    45.76385    35.57816    36.11157
   415  H   1.0    0.09    1.07    1.44    40.94835    36.90172    43.72617
   416  H   1.0    0.05    1.05    1.44    49.46465    36.89007    46.95604
   417  H   1.0    0.09    1.07    1.44    45.58846    33.74757    54.25955
   418  H   1.0    0.06    1.04    1.43    52.14273    33.70302    54.89802

  Z AO/shell   Hii/eV     exponent
  1     Wed Apr 25 08:07:45 CEST 2018   EN: 2.200 GM2: 0.406  GM3: 0.0800  RAES: 1.40
     1s    -10.707211    1.230000
  6     Wed Apr 25 08:07:45 CEST 2018   EN: 2.550 GM2: 0.538  GM3: 0.1500  RAES: 3.00
     2s    -13.970922    2.096432
     2p    -10.063292    1.800000
  7     Wed Apr 25 08:07:45 CEST 2018   EN: 3.040 GM2: 0.461  GM3:-0.0640  RAES: 1.90
     2s    -16.686243    2.339881
     2p    -12.523956    2.014332
  8     Wed Apr 25 08:07:45 CEST 2018   EN: 3.440 GM2: 0.452  GM3:-0.0517  RAES: 1.80
     2s    -20.229985    2.439742
     2p    -15.503117    2.137023
 no old-style atom pair restraining (fixing) potential

molecular fragmentation (1/2 indicates fragments):
111111111111111111111111111111111111111111111111111111111111111111111111
111111111111111111111111111111111111111111111111111111111111111111111111
111111111111111111111111111111111111111111111111111111111222222222222222
222222222222222222222222222222222222222222222222222222222222222222222222
222222222222222222222222222222222222222222222222222222222222222222222222
2222222222222222222222222222222222222222112222222222222222
# atoms in fragment 1/2:   203   215
 fragment masses (1/2) :     1396.60     1246.74
CMA distance (Bohr)    :  10.486
constraining FC (au)   :  0.0500
           ------------------------------------------------- 
          |        Self-Consistent Charge Iterations        |
           ------------------------------------------------- 

 Ncao       : 970
 Nao        : 970
 Nshell     : 602
 Nel        : 1070
 T(el)      :   500.0
 intcut     :    35.0
 scfconv/Eh :  0.100E-06
   qconv/e  :  0.100E-04
 intneglect :  0.100E-08
 broydamp   :      0.400
 iter      E             dE          RMSdq      gap      omega  full diag
   1   -609.8118330 -0.609812E+03  0.440E+00    3.24       0.0  T
   2   -611.2325355 -0.142070E+01  0.205E+00    2.01       1.0  T
   3   -611.3286636 -0.961281E-01  0.119E+00    2.03       1.0  T
   4   -611.4287796 -0.100116E+00  0.239E-01    1.38       1.0  T
   5   -611.4337302 -0.495061E-02  0.117E-01    1.52       1.0  T
   6   -611.4346145 -0.884287E-03  0.483E-02    1.45       1.0  T
   7   -611.4348009 -0.186394E-03  0.234E-02    1.41       1.0  T
   8   -611.4348393 -0.384167E-04  0.952E-03    1.38       1.0  T
   9   -611.4348477 -0.834697E-05  0.455E-03    1.38       1.1  T
  10   -611.4348492 -0.146324E-05  0.187E-03    1.37       2.6  T
  11   -611.4348495 -0.340655E-06  0.818E-04    1.37       6.0  T
  12   -611.4348496 -0.637922E-07  0.341E-04    1.37      14.3  T
  13   -611.4348496 -0.733587E-08  0.180E-04    1.37      27.2  T
  14   -611.4348496 -0.270632E-08  0.592E-05    1.37      82.6  T
  15   -611.4348496 -0.283535E-09  0.266E-05    1.37     183.9  T
speedup  7.15
cpu  time for SCC   28.16 s
wall time for SCC    3.94 s

   *** convergence criteria satisfied after 15 iterations ***

          eigenvalues
 #    :         523        524        525        526        527        528        529        530
 occ. :        2.000      2.000      2.000      2.000      2.000      2.000      2.000      2.000
 eps  :       -10.448    -10.338    -10.278    -10.167    -10.044    -10.022     -9.991     -9.898
 #    :         531        532        533        534        535        536        537        538
 occ. :        2.000      2.000      2.000      2.000      2.000      0.000      0.000      0.000
 eps  :        -9.793     -9.758     -9.524     -9.465     -9.401     -8.029     -7.832     -7.719
 #    :         539        540        541        542        543        544        545        546
 occ. :        0.000      0.000      0.000      0.000      0.000      0.000      0.000      0.000
 eps  :        -7.644     -7.504     -7.427     -7.406     -7.370     -7.262     -6.981     -6.780


   #   Z            q   n(s)   n(p)   n(d)      C6AA      α(0)
   1   7 N     -0.402  1.311  4.091  0.000    30.434     8.193
   2   6 C      0.035  1.054  2.911  0.000    20.001     6.370
   3   6 C      0.260  1.052  2.688  0.000    22.627     7.790
   4   8 O     -0.498  1.738  4.760  0.000    23.732     6.532
   5   6 C     -0.064  1.053  3.011  0.000    21.730     6.636
   6   6 C     -0.104  1.058  3.046  0.000    22.471     6.748
   7   6 C      0.290  1.038  2.672  0.000    22.082     7.694
   8   8 O     -0.526  1.762  4.764  0.000    24.371     6.619
   9   7 N     -0.293  1.274  4.019  0.000    27.552     7.796
  10   1 H      0.171  0.829  0.000  0.000     1.266     1.763
  11   1 H      0.034  0.966  0.000  0.000     2.530     2.487
  12   1 H      0.060  0.940  0.000  0.000     2.197     2.318
  13   1 H      0.058  0.942  0.000  0.000     2.228     2.334
  14   1 H      0.085  0.915  0.000  0.000     1.930     2.172
  15   1 H      0.073  0.927  0.000  0.000     2.051     2.239
  16   1 H      0.241  0.759  0.000  0.000     0.918     1.501
  17   1 H      0.217  0.783  0.000  0.000     1.023     1.584
  18   7 N     -0.167  1.243  3.924  0.000    24.620     7.369
  19   6 C      0.014  1.062  2.924  0.000    20.347     6.422
  20   6 C      0.276  1.043  2.682  0.000    22.340     7.740
  21   8 O     -0.468  1.731  4.737  0.000    23.089     6.442
  22   6 C     -0.079  1.061  3.018  0.000    22.000     6.676
  23   6 C     -0.014  1.057  2.958  0.000    20.796     6.486
  24   6 C     -0.119  1.042  3.077  0.000    22.833     6.813
  25   6 C     -0.124  1.042  3.082  0.000    22.935     6.828
  26   1 H      0.220  0.780  0.000  0.000     1.008     1.573
  27   1 H      0.102  0.898  0.000  0.000     1.769     2.080
  28   1 H      0.047  0.953  0.000  0.000     2.360     2.402
  29   1 H      0.065  0.935  0.000  0.000     2.137     2.286
  30   1 H      0.043  0.957  0.000  0.000     2.411     2.428
  31   1 H      0.054  0.946  0.000  0.000     2.277     2.360
  32   1 H      0.035  0.965  0.000  0.000     2.523     2.484
  33   1 H      0.045  0.955  0.000  0.000     2.386     2.415
  34   1 H      0.058  0.942  0.000  0.000     2.228     2.334
  35   1 H      0.051  0.949  0.000  0.000     2.309     2.376
  36   1 H      0.045  0.955  0.000  0.000     2.378     2.412
  37   7 N     -0.181  1.242  3.939  0.000    24.925     7.415
  38   6 C      0.027  1.060  2.912  0.000    20.112     6.385
  39   6 C      0.281  1.039  2.679  0.000    22.238     7.723
  40   8 O     -0.491  1.743  4.748  0.000    23.593     6.512
  41   6 C     -0.050  1.048  3.002  0.000    21.473     6.597
  42   6 C     -0.087  1.066  3.021  0.000    22.162     6.703
  43   6 C      0.370  1.024  2.607  0.000    20.731     7.451
  44   8 O     -0.648  1.773  4.875  0.000    27.329     7.009
  45   8 O     -0.657  1.778  4.879  0.000    27.552     7.037
  46   1 H      0.205  0.795  0.000  0.000     1.079     1.627
  47   1 H      0.071  0.929  0.000  0.000     2.071     2.250
  48   1 H      0.049  0.951  0.000  0.000     2.336     2.390
  49   1 H      0.024  0.976  0.000  0.000     2.681     2.560
  50   1 H      0.028  0.972  0.000  0.000     2.618     2.530
  51   1 H      0.040  0.960  0.000  0.000     2.453     2.449
  52   7 N     -0.177  1.241  3.936  0.000    24.829     7.401
  53   6 C      0.016  1.064  2.920  0.000    20.305     6.416
  54   6 C      0.273  1.041  2.686  0.000    22.392     7.749
  55   8 O     -0.507  1.743  4.764  0.000    23.937     6.560
  56   6 C      0.117  1.046  2.837  0.000    18.759     6.183
  57   8 O     -0.467  1.726  4.741  0.000    22.202     6.361
  58   6 C     -0.132  1.041  3.091  0.000    23.092     6.852
  59   1 H      0.193  0.807  0.000  0.000     1.141     1.673
  60   1 H      0.058  0.942  0.000  0.000     2.229     2.335
  61   1 H      0.044  0.956  0.000  0.000     2.400     2.423
  62   1 H      0.309  0.691  0.000  0.000     0.693     1.308
  63   1 H      0.082  0.918  0.000  0.000     1.956     2.187
  64   1 H      0.067  0.933  0.000  0.000     2.117     2.275
  65   1 H      0.061  0.939  0.000  0.000     2.182     2.310
  66   7 N     -0.173  1.251  3.922  0.000    24.743     7.388
  67   6 C      0.010  1.069  2.921  0.000    20.406     6.431
  68   6 C      0.272  1.044  2.684  0.000    22.402     7.751
  69   8 O     -0.481  1.728  4.753  0.000    23.367     6.481
  70   6 C     -0.024  1.063  2.961  0.000    20.975     6.514
  71   6 C     -0.133  1.043  3.090  0.000    23.118     6.855
  72   6 C     -0.132  1.043  3.089  0.000    23.085     6.850
  73   1 H      0.236  0.764  0.000  0.000     0.940     1.519
  74   1 H      0.089  0.911  0.000  0.000     1.889     2.150
  75   1 H      0.050  0.950  0.000  0.000     2.321     2.383
  76   1 H      0.080  0.920  0.000  0.000     1.977     2.199
  77   1 H      0.047  0.953  0.000  0.000     2.355     2.400
  78   1 H      0.070  0.930  0.000  0.000     2.081     2.256
  79   1 H      0.073  0.927  0.000  0.000     2.054     2.241
  80   1 H      0.062  0.938  0.000  0.000     2.177     2.307
  81   1 H      0.041  0.959  0.000  0.000     2.442     2.444
  82   7 N     -0.191  1.250  3.941  0.000    25.150     7.448
  83   6 C      0.022  1.060  2.918  0.000    20.205     6.400
  84   6 C      0.279  1.042  2.679  0.000    22.285     7.731
  85   8 O     -0.490  1.731  4.759  0.000    23.568     6.509
  86   6 C     -0.075  1.059  3.016  0.000    21.933     6.667
  87   6 C     -0.009  1.055  2.954  0.000    20.699     6.471
  88   6 C     -0.120  1.041  3.079  0.000    22.849     6.816
  89   6 C     -0.114  1.041  3.072  0.000    22.732     6.798
  90   1 H      0.227  0.773  0.000  0.000     0.977     1.549
  91   1 H      0.094  0.906  0.000  0.000     1.845     2.124
  92   1 H      0.081  0.919  0.000  0.000     1.965     2.192
  93   1 H      0.033  0.967  0.000  0.000     2.545     2.495
  94   1 H      0.013  0.987  0.000  0.000     2.849     2.640
  95   1 H      0.044  0.956  0.000  0.000     2.397     2.421
  96   1 H      0.042  0.958  0.000  0.000     2.422     2.433
  97   1 H      0.064  0.936  0.000  0.000     2.154     2.295
  98   1 H      0.048  0.952  0.000  0.000     2.350     2.397
  99   1 H      0.054  0.946  0.000  0.000     2.271     2.357
 100   1 H      0.025  0.975  0.000  0.000     2.653     2.547
 101   7 N     -0.192  1.251  3.941  0.000    25.166     7.451
 102   6 C      0.036  1.059  2.905  0.000    19.960     6.360
 103   6 C      0.283  1.040  2.676  0.000    22.204     7.716
 104   8 O     -0.497  1.740  4.757  0.000    23.711     6.529
 105   6 C     -0.048  1.048  3.000  0.000    21.425     6.589
 106   6 C     -0.083  1.061  3.022  0.000    22.076     6.689
 107   6 C      0.370  1.024  2.606  0.000    20.728     7.451
 108   8 O     -0.638  1.769  4.869  0.000    27.073     6.976
 109   8 O     -0.677  1.781  4.896  0.000    28.085     7.105
 110   1 H      0.219  0.781  0.000  0.000     1.015     1.578
 111   1 H      0.047  0.953  0.000  0.000     2.360     2.402
 112   1 H      0.040  0.960  0.000  0.000     2.449     2.447
 113   1 H      0.045  0.955  0.000  0.000     2.378     2.411
 114   1 H      0.023  0.977  0.000  0.000     2.686     2.563
 115   1 H      0.020  0.980  0.000  0.000     2.734     2.586
 116   7 N     -0.169  1.237  3.932  0.000    24.660     7.375
 117   6 C     -0.034  1.054  2.980  0.000    21.253     6.576
 118   6 C      0.274  1.038  2.688  0.000    22.364     7.744
 119   8 O     -0.498  1.742  4.756  0.000    23.744     6.533
 120   1 H      0.214  0.786  0.000  0.000     1.039     1.597
 121   1 H      0.074  0.926  0.000  0.000     2.038     2.233
 122   1 H      0.113  0.887  0.000  0.000     1.669     2.020
 123   7 N     -0.175  1.250  3.925  0.000    24.796     7.396
 124   6 C      0.010  1.070  2.920  0.000    20.406     6.431
 125   6 C      0.282  1.040  2.678  0.000    22.223     7.720
 126   8 O     -0.493  1.739  4.753  0.000    23.625     6.517
 127   6 C     -0.027  1.064  2.963  0.000    21.011     6.520
 128   6 C     -0.123  1.039  3.085  0.000    22.920     6.826
 129   6 C     -0.139  1.046  3.093  0.000    23.226     6.871
 130   1 H      0.237  0.763  0.000  0.000     0.936     1.515
 131   1 H      0.085  0.915  0.000  0.000     1.931     2.173
 132   1 H      0.049  0.951  0.000  0.000     2.335     2.390
 133   1 H      0.071  0.929  0.000  0.000     2.080     2.255
 134   1 H      0.027  0.973  0.000  0.000     2.624     2.533
 135   1 H      0.055  0.945  0.000  0.000     2.258     2.350
 136   1 H      0.076  0.924  0.000  0.000     2.019     2.222
 137   1 H      0.060  0.940  0.000  0.000     2.202     2.320
 138   1 H      0.068  0.932  0.000  0.000     2.104     2.268
 139   7 N     -0.191  1.251  3.940  0.000    25.154     7.449
 140   6 C      0.026  1.063  2.911  0.000    20.132     6.388
 141   6 C      0.285  1.040  2.675  0.000    22.174     7.712
 142   8 O     -0.495  1.748  4.747  0.000    23.674     6.523
 143   6 C     -0.016  1.060  2.956  0.000    20.833     6.492
 144   6 C     -0.113  1.038  3.075  0.000    22.712     6.795
 145   6 C     -0.119  1.041  3.078  0.000    22.840     6.814
 146   1 H      0.229  0.771  0.000  0.000     0.971     1.543
 147   1 H      0.066  0.934  0.000  0.000     2.127     2.281
 148   1 H      0.037  0.963  0.000  0.000     2.491     2.468
 149   1 H      0.051  0.949  0.000  0.000     2.312     2.378
 150   1 H      0.021  0.979  0.000  0.000     2.722     2.580
 151   1 H      0.051  0.949  0.000  0.000     2.302     2.373
 152   1 H      0.044  0.956  0.000  0.000     2.399     2.422
 153   1 H      0.057  0.943  0.000  0.000     2.229     2.335
 154   1 H      0.062  0.938  0.000  0.000     2.179     2.309
 155   7 N     -0.190  1.252  3.938  0.000    25.120     7.444
 156   6 C      0.030  1.057  2.913  0.000    20.072     6.378
 157   6 C      0.279  1.041  2.680  0.000    22.286     7.731
 158   8 O     -0.494  1.742  4.751  0.000    23.644     6.519
 159   6 C      0.078  1.039  2.883  0.000    19.499     6.326
 160   8 O     -0.488  1.727  4.761  0.000    22.639     6.423
 161   1 H      0.219  0.781  0.000  0.000     1.016     1.579
 162   1 H      0.066  0.934  0.000  0.000     2.132     2.284
 163   1 H      0.055  0.945  0.000  0.000     2.261     2.352
 164   1 H      0.041  0.959  0.000  0.000     2.439     2.442
 165   1 H      0.344  0.656  0.000  0.000     0.602     1.219
 166   7 N     -0.180  1.247  3.933  0.000    24.897     7.411
 167   6 C      0.023  1.062  2.915  0.000    20.182     6.396
 168   6 C      0.277  1.041  2.682  0.000    22.312     7.735
 169   8 O     -0.484  1.736  4.749  0.000    23.441     6.491
 170   6 C     -0.068  1.051  3.017  0.000    21.791     6.645
 171   6 C     -0.105  1.058  3.047  0.000    22.499     6.752
 172   6 C      0.283  1.039  2.677  0.000    22.204     7.716
 173   8 O     -0.490  1.741  4.750  0.000    23.570     6.509
 174   7 N     -0.295  1.274  4.020  0.000    27.599     7.802
 175   1 H      0.227  0.773  0.000  0.000     0.980     1.550
 176   1 H      0.069  0.931  0.000  0.000     2.099     2.266
 177   1 H      0.069  0.931  0.000  0.000     2.092     2.262
 178   1 H      0.075  0.925  0.000  0.000     2.036     2.231
 179   1 H      0.074  0.926  0.000  0.000     2.044     2.236
 180   1 H      0.058  0.942  0.000  0.000     2.223     2.332
 181   1 H      0.198  0.802  0.000  0.000     1.114     1.654
 182   1 H      0.259  0.741  0.000  0.000     0.849     1.444
 183   7 N     -0.171  1.244  3.927  0.000    24.692     7.380
 184   6 C      0.029  1.062  2.909  0.000    20.081     6.380
 185   6 C      0.212  1.083  2.704  0.000    23.503     7.939
 186   8 O     -0.362  1.750  4.612  0.000    20.942     6.135
 187   6 C     -0.019  1.065  2.954  0.000    20.874     6.498
 188   6 C     -0.068  1.053  3.015  0.000    21.793     6.646
 189   6 C     -0.115  1.038  3.077  0.000    22.756     6.802
 190   6 C     -0.106  1.036  3.070  0.000    22.589     6.778
 191   1 H      0.223  0.777  0.000  0.000     0.994     1.562
 192   1 H      0.081  0.919  0.000  0.000     1.964     2.192
 193   1 H      0.052  0.948  0.000  0.000     2.301     2.372
 194   1 H      0.050  0.950  0.000  0.000     2.322     2.383
 195   1 H      0.051  0.949  0.000  0.000     2.308     2.376
 196   1 H      0.062  0.938  0.000  0.000     2.177     2.307
 197   1 H      0.027  0.973  0.000  0.000     2.623     2.533
 198   1 H      0.052  0.948  0.000  0.000     2.296     2.369
 199   1 H      0.052  0.948  0.000  0.000     2.292     2.368
 200   1 H      0.037  0.963  0.000  0.000     2.492     2.469
 201   1 H      0.041  0.959  0.000  0.000     2.442     2.444
 202   7 N     -0.405  1.314  4.091  0.000    30.510     8.204
 203   6 C      0.043  1.054  2.903  0.000    19.869     6.349
 204   6 C      0.269  1.050  2.681  0.000    22.456     7.760
 205   8 O     -0.525  1.752  4.773  0.000    24.346     6.615
 206   6 C     -0.117  1.043  3.074  0.000    22.786     6.806
 207   1 H      0.175  0.825  0.000  0.000     1.245     1.748
 208   1 H      0.017  0.983  0.000  0.000     2.779     2.607
 209   1 H      0.045  0.955  0.000  0.000     2.389     2.417
 210   1 H      0.049  0.951  0.000  0.000     2.329     2.386
 211   1 H      0.061  0.939  0.000  0.000     2.192     2.315
 212   7 N     -0.167  1.246  3.921  0.000    24.615     7.369
 213   6 C      0.028  1.062  2.910  0.000    20.104     6.384
 214   6 C      0.213  1.085  2.702  0.000    23.486     7.937
 215   8 O     -0.376  1.753  4.623  0.000    21.209     6.175
 216   6 C     -0.014  1.063  2.951  0.000    20.786     6.485
 217   6 C     -0.119  1.041  3.078  0.000    22.826     6.812
 218   6 C     -0.124  1.042  3.082  0.000    22.938     6.829
 219   1 H      0.229  0.771  0.000  0.000     0.968     1.541
 220   1 H      0.079  0.921  0.000  0.000     1.988     2.205
 221   1 H      0.055  0.945  0.000  0.000     2.260     2.351
 222   1 H      0.066  0.934  0.000  0.000     2.130     2.282
 223   1 H      0.035  0.965  0.000  0.000     2.520     2.482
 224   1 H      0.051  0.949  0.000  0.000     2.310     2.377
 225   1 H      0.062  0.938  0.000  0.000     2.176     2.307
 226   1 H      0.051  0.949  0.000  0.000     2.311     2.378
 227   1 H      0.055  0.945  0.000  0.000     2.262     2.352
 228   8 O     -0.672  1.790  4.883  0.000    26.984     7.011
 229   1 H      0.335  0.665  0.000  0.000     0.625     1.242
 230   1 H      0.308  0.692  0.000  0.000     0.698     1.313
 231   8 O     -0.591  1.729  4.862  0.000    24.963     6.743
 232   1 H      0.317  0.683  0.000  0.000     0.671     1.286
 233   1 H      0.313  0.687  0.000  0.000     0.683     1.298
 234   8 O     -0.639  1.775  4.864  0.000    26.141     6.900
 235   1 H      0.317  0.683  0.000  0.000     0.672     1.287
 236   1 H      0.321  0.679  0.000  0.000     0.660     1.276
 237   7 N     -0.385  1.307  4.078  0.000    29.960     8.129
 238   6 C      0.042  1.053  2.905  0.000    19.895     6.354
 239   6 C      0.194  1.098  2.708  0.000    23.858     7.999
 240   8 O     -0.359  1.740  4.620  0.000    20.881     6.126
 241   6 C     -0.075  1.062  3.013  0.000    21.919     6.664
 242   6 C     -0.006  1.053  2.952  0.000    20.648     6.463
 243   6 C     -0.113  1.042  3.072  0.000    22.715     6.795
 244   6 C     -0.108  1.038  3.070  0.000    22.621     6.781
 245   1 H      0.164  0.836  0.000  0.000     1.311     1.793
 246   1 H      0.043  0.957  0.000  0.000     2.406     2.426
 247   1 H      0.060  0.940  0.000  0.000     2.198     2.318
 248   1 H      0.058  0.942  0.000  0.000     2.221     2.331
 249   1 H      0.020  0.980  0.000  0.000     2.733     2.585
 250   1 H      0.024  0.976  0.000  0.000     2.678     2.559
 251   1 H      0.042  0.958  0.000  0.000     2.427     2.436
 252   1 H      0.059  0.941  0.000  0.000     2.207     2.323
 253   1 H      0.026  0.974  0.000  0.000     2.638     2.540
 254   1 H      0.053  0.947  0.000  0.000     2.284     2.363
 255   1 H      0.026  0.974  0.000  0.000     2.647     2.544
 256   7 N     -0.390  1.311  4.079  0.000    30.098     8.148
 257   6 C      0.029  1.063  2.908  0.000    20.100     6.385
 258   6 C      0.270  1.048  2.682  0.000    22.434     7.756
 259   8 O     -0.508  1.748  4.760  0.000    23.961     6.563
 260   6 C     -0.017  1.064  2.953  0.000    20.851     6.495
 261   6 C     -0.108  1.038  3.070  0.000    22.624     6.782
 262   6 C     -0.110  1.038  3.072  0.000    22.657     6.787
 263   1 H      0.151  0.849  0.000  0.000     1.392     1.848
 264   1 H      0.033  0.967  0.000  0.000     2.539     2.492
 265   1 H      0.039  0.961  0.000  0.000     2.465     2.455
 266   1 H      0.038  0.962  0.000  0.000     2.473     2.459
 267   1 H      0.040  0.960  0.000  0.000     2.442     2.444
 268   1 H      0.040  0.960  0.000  0.000     2.454     2.450
 269   1 H      0.037  0.963  0.000  0.000     2.488     2.467
 270   1 H      0.040  0.960  0.000  0.000     2.451     2.448
 271   1 H      0.039  0.961  0.000  0.000     2.459     2.452
 272   7 N     -0.183  1.250  3.933  0.000    24.958     7.420
 273   6 C      0.031  1.056  2.912  0.000    20.052     6.376
 274   6 C      0.206  1.082  2.711  0.000    23.623     7.960
 275   8 O     -0.360  1.755  4.605  0.000    20.896     6.129
 276   6 C     -0.078  1.061  3.017  0.000    21.987     6.675
 277   6 C     -0.010  1.056  2.955  0.000    20.725     6.475
 278   6 C     -0.118  1.040  3.078  0.000    22.814     6.811
 279   6 C     -0.116  1.042  3.074  0.000    22.776     6.804
 280   1 H      0.242  0.758  0.000  0.000     0.914     1.498
 281   1 H      0.080  0.920  0.000  0.000     1.979     2.200
 282   1 H      0.074  0.926  0.000  0.000     2.047     2.238
 283   1 H      0.058  0.942  0.000  0.000     2.222     2.331
 284   1 H      0.026  0.974  0.000  0.000     2.642     2.542
 285   1 H      0.049  0.951  0.000  0.000     2.334     2.389
 286   1 H      0.038  0.962  0.000  0.000     2.477     2.461
 287   1 H      0.051  0.949  0.000  0.000     2.309     2.376
 288   1 H      0.048  0.952  0.000  0.000     2.343     2.393
 289   1 H      0.049  0.951  0.000  0.000     2.337     2.390
 290   1 H      0.039  0.961  0.000  0.000     2.459     2.452
 291   7 N     -0.399  1.313  4.085  0.000    30.342     8.181
 292   6 C      0.041  1.060  2.900  0.000    19.902     6.354
 293   6 C      0.207  1.091  2.702  0.000    23.608     7.957
 294   8 O     -0.388  1.757  4.630  0.000    21.439     6.208
 295   6 C     -0.013  1.064  2.949  0.000    20.776     6.483
 296   6 C     -0.120  1.041  3.080  0.000    22.858     6.817
 297   6 C     -0.111  1.040  3.071  0.000    22.670     6.788
 298   1 H      0.177  0.823  0.000  0.000     1.231     1.738
 299   1 H      0.034  0.966  0.000  0.000     2.537     2.491
 300   1 H      0.050  0.950  0.000  0.000     2.324     2.384
 301   1 H      0.061  0.939  0.000  0.000     2.186     2.312
 302   1 H      0.039  0.961  0.000  0.000     2.464     2.455
 303   1 H      0.043  0.957  0.000  0.000     2.415     2.430
 304   1 H      0.049  0.951  0.000  0.000     2.338     2.391
 305   1 H      0.038  0.962  0.000  0.000     2.480     2.463
 306   1 H      0.037  0.963  0.000  0.000     2.486     2.465
 307   7 N     -0.392  1.313  4.079  0.000    30.151     8.155
 308   6 C      0.039  1.053  2.908  0.000    19.941     6.361
 309   6 C      0.196  1.095  2.709  0.000    23.818     7.993
 310   8 O     -0.359  1.738  4.621  0.000    20.881     6.127
 311   6 C     -0.074  1.063  3.012  0.000    21.914     6.664
 312   6 C     -0.017  1.059  2.958  0.000    20.851     6.495
 313   6 C     -0.120  1.041  3.080  0.000    22.858     6.817
 314   6 C     -0.119  1.042  3.076  0.000    22.822     6.811
 315   1 H      0.166  0.834  0.000  0.000     1.295     1.782
 316   1 H      0.053  0.947  0.000  0.000     2.283     2.363
 317   1 H      0.054  0.946  0.000  0.000     2.272     2.357
 318   1 H      0.051  0.949  0.000  0.000     2.304     2.374
 319   1 H      0.042  0.958  0.000  0.000     2.418     2.432
 320   1 H      0.042  0.958  0.000  0.000     2.423     2.434
 321   1 H      0.048  0.952  0.000  0.000     2.351     2.398
 322   1 H      0.040  0.960  0.000  0.000     2.447     2.446
 323   1 H      0.044  0.956  0.000  0.000     2.398     2.422
 324   1 H      0.033  0.967  0.000  0.000     2.546     2.495
 325   1 H      0.042  0.958  0.000  0.000     2.428     2.437
 326   7 N     -0.392  1.312  4.080  0.000    30.144     8.154
 327   6 C      0.030  1.063  2.908  0.000    20.086     6.383
 328   6 C      0.272  1.047  2.681  0.000    22.397     7.750
 329   8 O     -0.510  1.752  4.758  0.000    24.009     6.569
 330   6 C     -0.021  1.066  2.955  0.000    20.907     6.503
 331   6 C     -0.118  1.040  3.078  0.000    22.817     6.811
 332   6 C     -0.112  1.040  3.072  0.000    22.686     6.791
 333   1 H      0.156  0.844  0.000  0.000     1.362     1.828
 334   1 H      0.023  0.977  0.000  0.000     2.693     2.566
 335   1 H      0.049  0.951  0.000  0.000     2.332     2.388
 336   1 H      0.051  0.949  0.000  0.000     2.313     2.379
 337   1 H      0.047  0.953  0.000  0.000     2.352     2.398
 338   1 H      0.033  0.967  0.000  0.000     2.543     2.494
 339   1 H      0.045  0.955  0.000  0.000     2.383     2.414
 340   1 H      0.034  0.966  0.000  0.000     2.528     2.486
 341   1 H      0.038  0.962  0.000  0.000     2.480     2.463
 342   7 N     -0.178  1.250  3.928  0.000    24.851     7.404
 343   6 C      0.022  1.063  2.916  0.000    20.216     6.402
 344   6 C      0.208  1.080  2.712  0.000    23.595     7.955
 345   8 O     -0.364  1.756  4.608  0.000    20.966     6.139
 346   6 C     -0.027  1.064  2.963  0.000    21.015     6.520
 347   6 C     -0.138  1.044  3.095  0.000    23.217     6.870
 348   6 C     -0.139  1.046  3.093  0.000    23.223     6.871
 349   1 H      0.244  0.756  0.000  0.000     0.908     1.493
 350   1 H      0.078  0.922  0.000  0.000     2.000     2.211
 351   1 H      0.062  0.938  0.000  0.000     2.175     2.307
 352   1 H      0.077  0.923  0.000  0.000     2.012     2.218
 353   1 H      0.039  0.961  0.000  0.000     2.465     2.455
 354   1 H      0.061  0.939  0.000  0.000     2.187     2.313
 355   1 H      0.070  0.930  0.000  0.000     2.090     2.261
 356   1 H      0.064  0.936  0.000  0.000     2.151     2.294
 357   1 H      0.055  0.945  0.000  0.000     2.264     2.353
 358   7 N     -0.394  1.310  4.084  0.000    30.206     8.163
 359   6 C      0.043  1.057  2.900  0.000    19.869     6.349
 360   6 C      0.205  1.092  2.703  0.000    23.648     7.964
 361   8 O     -0.396  1.763  4.633  0.000    21.595     6.230
 362   6 C     -0.022  1.069  2.953  0.000    20.925     6.506
 363   6 C     -0.057  1.049  3.008  0.000    21.595     6.616
 364   6 C     -0.116  1.039  3.078  0.000    22.784     6.806
 365   6 C     -0.108  1.037  3.071  0.000    22.633     6.784
 366   1 H      0.180  0.820  0.000  0.000     1.212     1.725
 367   1 H      0.031  0.969  0.000  0.000     2.575     2.510
 368   1 H      0.062  0.938  0.000  0.000     2.177     2.307
 369   1 H      0.024  0.976  0.000  0.000     2.670     2.555
 370   1 H      0.036  0.964  0.000  0.000     2.501     2.473
 371   1 H      0.063  0.937  0.000  0.000     2.161     2.299
 372   1 H      0.038  0.962  0.000  0.000     2.469     2.457
 373   1 H      0.028  0.972  0.000  0.000     2.614     2.529
 374   1 H      0.034  0.966  0.000  0.000     2.528     2.486
 375   1 H      0.049  0.951  0.000  0.000     2.332     2.388
 376   1 H      0.040  0.960  0.000  0.000     2.452     2.449
 377   7 N     -0.397  1.314  4.083  0.000    30.294     8.174
 378   6 C      0.036  1.055  2.909  0.000    19.990     6.369
 379   6 C      0.193  1.099  2.708  0.000    23.881     8.003
 380   8 O     -0.383  1.752  4.631  0.000    21.344     6.194
 381   6 C     -0.080  1.059  3.021  0.000    22.029     6.681
 382   6 C     -0.086  1.056  3.030  0.000    22.134     6.698
 383   6 C     -0.034  1.056  2.978  0.000    21.270     6.581
 384   7 N     -0.137  1.206  3.931  0.000    23.969     7.271
 385   6 C      0.230  1.022  2.748  0.000    23.163     7.880
 386   7 N     -0.243  1.250  3.992  0.000    26.335     7.622
 387   7 N     -0.251  1.246  4.005  0.000    26.541     7.651
 388   1 H      0.178  0.822  0.000  0.000     1.226     1.734
 389   1 H      0.058  0.942  0.000  0.000     2.225     2.333
 390   1 H      0.072  0.928  0.000  0.000     2.066     2.248
 391   1 H      0.065  0.935  0.000  0.000     2.147     2.291
 392   1 H      0.064  0.936  0.000  0.000     2.151     2.294
 393   1 H      0.074  0.926  0.000  0.000     2.038     2.233
 394   1 H      0.097  0.903  0.000  0.000     1.811     2.105
 395   1 H      0.089  0.911  0.000  0.000     1.889     2.149
 396   1 H      0.231  0.769  0.000  0.000     0.960     1.535
 397   1 H      0.242  0.758  0.000  0.000     0.913     1.497
 398   1 H      0.250  0.750  0.000  0.000     0.884     1.473
 399   1 H      0.241  0.759  0.000  0.000     0.920     1.503
 400   1 H      0.247  0.753  0.000  0.000     0.897     1.483
 401   1 H      0.167  0.833  0.000  0.000     1.291     1.780
 402   1 H      0.059  0.941  0.000  0.000     2.212     2.326
 403   1 H      0.167  0.833  0.000  0.000     1.293     1.781
 404   1 H      0.066  0.934  0.000  0.000     2.135     2.285
 405   1 H      0.177  0.823  0.000  0.000     1.229     1.736
 406   1 H      0.079  0.921  0.000  0.000     1.985     2.203
 407   1 H      0.172  0.828  0.000  0.000     1.260     1.758
 408   1 H      0.084  0.916  0.000  0.000     1.938     2.177
 409   1 H      0.181  0.819  0.000  0.000     1.207     1.721
 410   1 H      0.064  0.936  0.000  0.000     2.151     2.293
 411   1 H      0.171  0.829  0.000  0.000     1.269     1.765
 412   1 H      0.070  0.930  0.000  0.000     2.086     2.258
 413   1 H      0.174  0.826  0.000  0.000     1.251     1.752
 414   1 H      0.079  0.921  0.000  0.000     1.993     2.207
 415   1 H      0.174  0.826  0.000  0.000     1.247     1.749
 416   1 H      0.059  0.941  0.000  0.000     2.208     2.323
 417   1 H      0.169  0.831  0.000  0.000     1.277     1.770
 418   1 H      0.079  0.921  0.000  0.000     1.991     2.206

 Mol. C6AA /au·bohr⁶  :    1455448.367480
 Mol. C8AA /au·bohr⁸  :   31503378.141429
 Mol. α(0) /au        :       1793.115166

 
 Wiberg/Mayer (AO) data. WBOs > 0.1 written file <wbo>
 largest (>0.05) Wiberg bond orders for each atom
           total WBO             WBO to atom ...
     1  N   2.988    C    2 1.009    H  401 0.961    H   10 0.951
     2  C   3.982    N    1 1.009    C    5 0.976    H   11 0.960    C    3 0.943
     3  C   3.945    O    4 1.594    N   18 1.319    C    2 0.943
     4  O   1.954    C    3 1.594    N   18 0.193
     5  C   3.992    C    6 1.008    C    2 0.976    H   13 0.973    H   12 0.970
     6  C   3.995    C    5 1.008    C    7 0.972    H   15 0.963    H   14 0.951    O    8 0.053
     7  C   3.942    O    8 1.626    N    9 1.315    C    6 0.972
     8  O   1.925    C    7 1.626    N    9 0.195    C    6 0.053
     9  N   3.388    C    7 1.315    H   17 0.931    H   16 0.884    O    8 0.195
    10  H   0.971    N    1 0.951
    11  H   0.998    C    2 0.960
    12  H   0.996    C    5 0.970
    13  H   0.996    C    5 0.973
    14  H   0.993    C    6 0.951
    15  H   0.995    C    6 0.963
    16  H   0.942    N    9 0.884
    17  H   0.952    N    9 0.931
    18  N   3.482    C    3 1.319    C   19 0.976    H   26 0.915    O    4 0.193
    19  C   3.959    C   22 0.978    N   18 0.976    H   27 0.941    C   20 0.938
    20  C   3.938    O   21 1.620    N   37 1.289    C   19 0.938
    21  O   1.981    C   20 1.620    N   37 0.188
    22  C   3.983    C   23 0.990    C   19 0.978    H   28 0.969    H   29 0.967
    23  C   3.992    C   25 1.010    C   24 1.008    C   22 0.990    H   30 0.966
    24  C   3.993    C   23 1.008    H   32 0.986    H   33 0.984    H   31 0.984
    25  C   3.993    C   23 1.010    H   35 0.984    H   34 0.983    H   36 0.979
    26  H   0.951    N   18 0.915
    27  H   0.989    C   19 0.941
    28  H   0.998    C   22 0.969
    29  H   0.995    C   22 0.967
    30  H   0.998    C   23 0.966
    31  H   0.996    C   24 0.984
    32  H   0.999    C   24 0.986
    33  H   0.998    C   24 0.984
    34  H   0.996    C   25 0.983
    35  H   0.997    C   25 0.984
    36  H   0.998    C   25 0.979
    37  N   3.462    C   20 1.289    C   38 0.984    H   46 0.920    O   21 0.188
    38  C   3.972    N   37 0.984    C   41 0.979    H   47 0.946    C   39 0.936
    39  C   3.944    O   40 1.616    N   52 1.300    C   38 0.936
    40  O   1.963    C   39 1.616    N   52 0.189
    41  C   3.991    C   42 1.007    C   38 0.979    H   49 0.975    H   48 0.968
    42  C   3.990    C   41 1.007    H   50 0.977    H   51 0.957    C   43 0.921    O   44 0.051
    43  C   3.934    O   44 1.501    O   45 1.491    C   42 0.921
    44  O   1.792    C   43 1.501    O   45 0.217    C   42 0.051
    45  O   1.779    C   43 1.491    O   44 0.217
    46  H   0.957    N   37 0.920
    47  H   0.995    C   38 0.946
    48  H   0.997    C   41 0.968
    49  H   0.999    C   41 0.975
    50  H   0.999    C   42 0.977
    51  H   0.998    C   42 0.957
    52  N   3.463    C   39 1.300    C   53 0.971    H   59 0.920    O   40 0.189
    53  C   3.955    N   52 0.971    H   60 0.954    C   56 0.951    C   54 0.940
    54  C   3.957    O   55 1.570    N   66 1.357    C   53 0.940
    55  O   1.951    C   54 1.570    N   66 0.198
    56  C   3.946    C   58 1.004    O   57 0.991    H   61 0.954    C   53 0.951
    57  O   1.956    C   56 0.991    H   62 0.883
    58  C   3.985    C   56 1.004    H   65 0.982    H   64 0.981    H   63 0.980
    59  H   0.962    N   52 0.920
    60  H   0.996    C   53 0.954
    61  H   0.998    C   56 0.954
    62  H   0.904    O   57 0.883
    63  H   0.993    C   58 0.980
    64  H   0.995    C   58 0.981
    65  H   0.996    C   58 0.982
    66  N   3.497    C   54 1.357    C   67 0.964    H   73 0.880    O   55 0.198
    67  C   3.941    N   66 0.964    C   70 0.959    H   74 0.948    C   68 0.937
    68  C   3.947    O   69 1.606    N   82 1.317    C   67 0.937
    69  O   1.958    C   68 1.606    N   82 0.195
    70  C   3.979    C   72 1.007    C   71 1.005    H   75 0.962    C   67 0.959
    71  C   3.986    C   70 1.005    H   78 0.981    H   77 0.981    H   76 0.980
    72  C   3.989    C   70 1.007    H   80 0.983    H   81 0.982    H   79 0.980
    73  H   0.944    N   66 0.880
    74  H   0.992    C   67 0.948
    75  H   0.997    C   70 0.962
    76  H   0.993    C   71 0.980
    77  H   0.998    C   71 0.981
    78  H   0.995    C   71 0.981
    79  H   0.994    C   72 0.980
    80  H   0.996    C   72 0.983
    81  H   0.998    C   72 0.982
    82  N   3.474    C   68 1.317    C   83 0.980    H   90 0.883    O   69 0.195
    83  C   3.965    N   82 0.980    C   86 0.979    H   91 0.942    C   84 0.941
    84  C   3.936    O   85 1.596    N  101 1.309    C   83 0.941
    85  O   1.959    C   84 1.596    N  101 0.190
    86  C   3.985    C   87 0.992    C   83 0.979    H   93 0.974    H   92 0.965
    87  C   3.993    C   88 1.008    C   89 1.007    C   86 0.992    H   94 0.969
    88  C   3.993    C   87 1.008    H   95 0.983    H   96 0.981    H   97 0.980
    89  C   3.994    C   87 1.007    H   99 0.984    H  100 0.984    H   98 0.981
    90  H   0.948    N   82 0.883
    91  H   0.991    C   83 0.942
    92  H   0.993    C   86 0.965
    93  H   0.999    C   86 0.974
    94  H   1.000    C   87 0.969
    95  H   0.998    C   88 0.983
    96  H   0.998    C   88 0.981
    97  H   0.996    C   88 0.980
    98  H   0.997    C   89 0.981
    99  H   0.997    C   89 0.984
   100  H   0.999    C   89 0.984
   101  N   3.472    C   84 1.309    C  102 0.985    H  110 0.892    O   85 0.190
   102  C   3.974    N  101 0.985    C  105 0.980    H  111 0.951    C  103 0.935
   103  C   3.950    O  104 1.615    N  116 1.313    C  102 0.935
   104  O   1.956    C  103 1.615    N  116 0.194
   105  C   3.993    C  106 1.011    C  102 0.980    H  113 0.972    H  112 0.969
   106  C   3.991    C  105 1.011    H  115 0.969    H  114 0.967    C  107 0.929    O  108 0.053
   107  C   3.934    O  108 1.517    O  109 1.466    C  106 0.929
   108  O   1.806    C  107 1.517    O  109 0.216    C  106 0.053
   109  O   1.750    C  107 1.466    O  108 0.216
   110  H   0.952    N  101 0.892
   111  H   0.997    C  102 0.951
   112  H   0.998    C  105 0.969
   113  H   0.998    C  105 0.972
   114  H   0.999    C  106 0.967
   115  H   1.000    C  106 0.969
   116  N   3.472    C  103 1.313    C  117 0.983    H  120 0.913    O  104 0.194
   117  C   3.954    N  116 0.983    H  121 0.963    H  122 0.955    C  118 0.944    O  119 0.051
   118  C   3.955    O  119 1.607    N  123 1.336    C  117 0.944
   119  O   1.952    C  118 1.607    N  123 0.203    C  117 0.051
   120  H   0.954    N  116 0.913
   121  H   0.994    C  117 0.963
   122  H   0.987    C  117 0.955
   123  N   3.484    C  118 1.336    C  124 0.972    H  130 0.885    O  119 0.203
   124  C   3.953    N  123 0.972    C  127 0.964    H  131 0.949    C  125 0.935
   125  C   3.941    O  126 1.609    N  139 1.312    C  124 0.935
   126  O   1.962    C  125 1.609    N  139 0.194
   127  C   3.982    C  128 1.008    C  129 1.006    C  124 0.964    H  132 0.957
   128  C   3.990    C  127 1.008    H  134 0.984    H  135 0.982    H  133 0.980
   129  C   3.987    C  127 1.006    H  138 0.982    H  137 0.980    H  136 0.979
   130  H   0.944    N  123 0.885
   131  H   0.992    C  124 0.949
   132  H   0.997    C  127 0.957
   133  H   0.995    C  128 0.980
   134  H   0.999    C  128 0.984
   135  H   0.997    C  128 0.982
   136  H   0.993    C  129 0.979
   137  H   0.996    C  129 0.980
   138  H   0.995    C  129 0.982
   139  N   3.469    C  125 1.312    C  140 0.983    H  146 0.885    O  126 0.194
   140  C   3.971    N  139 0.983    C  143 0.969    H  147 0.951    C  141 0.938
   141  C   3.943    O  142 1.625    N  155 1.294    C  140 0.938
   142  O   1.950    C  141 1.625    N  155 0.190
   143  C   3.990    C  144 1.008    C  145 1.007    C  140 0.969    H  148 0.961
   144  C   3.994    C  143 1.008    H  151 0.986    H  149 0.985    H  150 0.984
   145  C   3.991    C  143 1.007    H  152 0.984    H  153 0.984    H  154 0.980
   146  H   0.948    N  139 0.885
   147  H   0.995    C  140 0.951
   148  H   0.999    C  143 0.961
   149  H   0.997    C  144 0.985
   150  H   1.000    C  144 0.984
   151  H   0.997    C  144 0.986
   152  H   0.997    C  145 0.984
   153  H   0.997    C  145 0.984
   154  H   0.996    C  145 0.980
   155  N   3.458    C  141 1.294    C  156 0.986    H  161 0.899    O  142 0.190
   156  C   3.970    N  155 0.986    C  159 0.980    H  162 0.950    C  157 0.932
   157  C   3.953    O  158 1.614    N  166 1.320    C  156 0.932
   158  O   1.958    C  157 1.614    N  166 0.198
   159  C   3.956    O  160 1.000    C  156 0.980    H  164 0.967    H  163 0.963
   160  O   1.922    C  159 1.000    H  165 0.867
   161  H   0.952    N  155 0.899
   162  H   0.995    C  156 0.950
   163  H   0.997    C  159 0.963
   164  H   0.998    C  159 0.967
   165  H   0.882    O  160 0.867
   166  N   3.473    C  157 1.320    C  167 0.972    H  175 0.897    O  158 0.198
   167  C   3.958    C  170 0.980    N  166 0.972    H  176 0.952    C  168 0.932
   168  C   3.949    O  169 1.611    N  183 1.319    C  167 0.932
   169  O   1.966    C  168 1.611    N  183 0.196
   170  C   3.983    C  171 0.996    C  167 0.980    H  178 0.971    H  177 0.967
   171  C   3.992    C  170 0.996    H  180 0.970    C  172 0.968    H  179 0.956    O  173 0.051
   172  C   3.953    O  173 1.635    N  174 1.324    C  171 0.968
   173  O   1.943    C  172 1.635    N  174 0.204    C  171 0.051
   174  N   3.393    C  172 1.324    H  181 0.939    H  182 0.863    O  173 0.204
   175  H   0.948    N  166 0.897
   176  H   0.995    C  167 0.952
   177  H   0.995    C  170 0.967
   178  H   0.994    C  170 0.971
   179  H   0.994    C  171 0.956
   180  H   0.997    C  171 0.970
   181  H   0.961    N  174 0.939
   182  H   0.932    N  174 0.863
   183  N   3.483    C  168 1.319    C  184 0.977    H  191 0.894    O  169 0.196
   184  C   3.962    N  183 0.977    C  185 0.973    C  187 0.953    H  192 0.946    O  186 0.054
   185  C   3.900    O  186 1.889    C  184 0.973    H  402 0.955
   186  O   2.037    C  185 1.889    C  184 0.054
   187  C   3.983    C  189 1.008    C  188 0.992    H  193 0.960    C  184 0.953
   188  C   3.993    C  190 1.018    C  187 0.992    H  194 0.976    H  195 0.974
   189  C   3.993    C  187 1.008    H  198 0.985    H  197 0.981    H  196 0.980
   190  C   3.994    C  188 1.018    H  200 0.986    H  201 0.984    H  199 0.982
   191  H   0.950    N  183 0.894
   192  H   0.993    C  184 0.946
   193  H   0.997    C  187 0.960
   194  H   0.997    C  188 0.976
   195  H   0.997    C  188 0.974
   196  H   0.996    C  189 0.980
   197  H   0.999    C  189 0.981
   198  H   0.997    C  189 0.985
   199  H   0.996    C  190 0.982
   200  H   0.999    C  190 0.986
   201  H   0.998    C  190 0.984
   202  N   2.992    C  203 1.014    H  403 0.962    H  207 0.929
   203  C   3.986    N  202 1.014    C  206 0.994    H  208 0.965    C  204 0.933
   204  C   3.943    O  205 1.611    N  212 1.323    C  203 0.933
   205  O   1.921    C  204 1.611    N  212 0.197
   206  C   3.993    C  203 0.994    H  209 0.986    H  210 0.983    H  211 0.979
   207  H   0.969    N  202 0.929
   208  H   0.999    C  203 0.965
   209  H   0.998    C  206 0.986
   210  H   0.997    C  206 0.983
   211  H   0.996    C  206 0.979
   212  N   3.487    C  204 1.323    C  213 0.979    H  219 0.890    O  205 0.197
   213  C   3.963    N  212 0.979    C  214 0.976    C  216 0.949    H  220 0.948    O  215 0.055
   214  C   3.898    O  215 1.886    C  213 0.976    H  404 0.955
   215  O   2.029    C  214 1.886    C  213 0.055
   216  C   3.984    C  217 1.008    C  218 1.008    H  221 0.961    C  213 0.949
   217  C   3.993    C  216 1.008    H  224 0.985    H  222 0.983    H  223 0.983
   218  C   3.992    C  216 1.008    H  226 0.985    H  227 0.982    H  225 0.981
   219  H   0.947    N  212 0.890
   220  H   0.993    C  213 0.948
   221  H   0.997    C  216 0.961
   222  H   0.995    C  217 0.983
   223  H   0.999    C  217 0.983
   224  H   0.997    C  217 0.985
   225  H   0.995    C  218 0.981
   226  H   0.997    C  218 0.985
   227  H   0.997    C  218 0.982
   228  O   1.776    H  229 0.887    H  230 0.860
   229  H   0.888    O  228 0.887
   230  H   0.905    O  228 0.860
   231  O   1.888    H  233 0.893    H  232 0.891
   232  H   0.899    O  231 0.891
   233  H   0.902    O  231 0.893
   234  O   1.796    H  235 0.899    H  236 0.896
   235  H   0.899    O  234 0.899
   236  H   0.897    O  234 0.896
   237  N   3.003    C  238 1.010    H  407 0.959    H  245 0.952
   238  C   3.984    N  237 1.010    C  239 0.976    C  241 0.965    H  246 0.956    O  240 0.053
   239  C   3.889    O  240 1.875    C  238 0.976    H  408 0.952
   240  O   2.058    C  239 1.875    C  238 0.053
   241  C   3.990    C  242 0.992    H  247 0.971    H  248 0.971    C  238 0.965
   242  C   3.996    C  244 1.009    C  243 1.006    C  241 0.992    H  249 0.968
   243  C   3.993    C  242 1.006    H  251 0.986    H  250 0.983    H  252 0.981
   244  C   3.995    C  242 1.009    H  254 0.983    H  255 0.980    H  253 0.977
   245  H   0.973    N  237 0.952
   246  H   0.998    C  238 0.956
   247  H   0.996    C  241 0.971
   248  H   0.997    C  241 0.971
   249  H   0.999    C  242 0.968
   250  H   0.998    C  243 0.983
   251  H   0.998    C  243 0.986
   252  H   0.996    C  243 0.981
   253  H   0.999    C  244 0.977
   254  H   0.997    C  244 0.983
   255  H   0.999    C  244 0.980
   256  N   2.995    C  257 1.013    H  409 0.957    H  263 0.955
   257  C   3.982    N  256 1.013    H  264 0.964    C  260 0.963    C  258 0.938
   258  C   3.946    O  259 1.605    N  272 1.321    C  257 0.938
   259  O   1.947    C  258 1.605    N  272 0.197
   260  C   3.994    C  262 1.008    C  261 1.008    H  265 0.964    C  257 0.963
   261  C   3.996    C  260 1.008    H  268 0.986    H  266 0.985    H  267 0.981
   262  C   3.996    C  260 1.008    H  270 0.986    H  269 0.985    H  271 0.984
   263  H   0.977    N  256 0.955
   264  H   0.998    C  257 0.964
   265  H   0.998    C  260 0.964
   266  H   0.999    C  261 0.985
   267  H   0.998    C  261 0.981
   268  H   0.998    C  261 0.986
   269  H   0.998    C  262 0.985
   270  H   0.998    C  262 0.986
   271  H   0.998    C  262 0.984
   272  N   3.474    C  258 1.321    C  273 0.976    H  280 0.878    O  259 0.197
   273  C   3.964    N  272 0.976    C  274 0.975    C  276 0.965    H  281 0.943    O  275 0.055
   274  C   3.903    O  275 1.896    C  273 0.975    H  410 0.955
   275  O   2.043    C  274 1.896    C  273 0.055
   276  C   3.981    C  277 0.992    H  283 0.973    H  282 0.965    C  273 0.965
   277  C   3.993    C  278 1.009    C  279 1.008    C  276 0.992    H  284 0.969
   278  C   3.994    C  277 1.009    H  286 0.983    H  285 0.982    H  287 0.981
   279  C   3.995    C  277 1.008    H  290 0.987    H  289 0.985    H  288 0.984
   280  H   0.941    N  272 0.878
   281  H   0.993    C  273 0.943
   282  H   0.995    C  276 0.965
   283  H   0.997    C  276 0.973
   284  H   0.999    C  277 0.969
   285  H   0.997    C  278 0.982
   286  H   0.999    C  278 0.983
   287  H   0.997    C  278 0.981
   288  H   0.997    C  279 0.984
   289  H   0.997    C  279 0.985
   290  H   0.998    C  279 0.987
   291  N   2.996    C  292 1.009    H  411 0.959    H  298 0.928
   292  C   3.983    N  291 1.009    C  293 0.974    H  299 0.963    C  295 0.951    O  294 0.054
   293  C   3.888    O  294 1.885    C  292 0.974    H  412 0.954
   294  O   2.022    C  293 1.885    C  292 0.054
   295  C   3.991    C  297 1.009    C  296 1.008    H  300 0.958    C  292 0.951
   296  C   3.994    C  295 1.008    H  303 0.984    H  302 0.982    H  301 0.981
   297  C   3.996    C  295 1.009    H  305 0.985    H  306 0.985    H  304 0.981
   298  H   0.969    N  291 0.928
   299  H   0.999    C  292 0.963
   300  H   0.997    C  295 0.958
   301  H   0.996    C  296 0.981
   302  H   0.998    C  296 0.982
   303  H   0.998    C  296 0.984
   304  H   0.996    C  297 0.981
   305  H   0.998    C  297 0.985
   306  H   0.999    C  297 0.985
   307  N   2.996    C  308 1.008    H  413 0.958    H  315 0.954
   308  C   3.983    N  307 1.008    C  309 0.982    C  311 0.960    H  316 0.953    O  310 0.054
   309  C   3.890    O  310 1.874    C  308 0.982    H  414 0.953
   310  O   2.060    C  309 1.874    C  308 0.054
   311  C   3.990    C  312 0.994    H  318 0.974    H  317 0.968    C  308 0.960
   312  C   3.995    C  313 1.009    C  314 1.008    C  311 0.994    H  319 0.968
   313  C   3.995    C  312 1.009    H  320 0.982    H  322 0.982    H  321 0.981
   314  C   3.995    C  312 1.008    H  324 0.985    H  325 0.982    H  323 0.981
   315  H   0.972    N  307 0.954
   316  H   0.997    C  308 0.953
   317  H   0.997    C  311 0.968
   318  H   0.997    C  311 0.974
   319  H   0.998    C  312 0.968
   320  H   0.998    C  313 0.982
   321  H   0.998    C  313 0.981
   322  H   0.998    C  313 0.982
   323  H   0.998    C  314 0.981
   324  H   0.999    C  314 0.985
   325  H   0.998    C  314 0.982
   326  N   2.992    C  327 1.009    H  415 0.959    H  333 0.953
   327  C   3.981    N  326 1.009    C  330 0.967    H  334 0.965    C  328 0.935
   328  C   3.945    O  329 1.608    N  342 1.321    C  327 0.935
   329  O   1.954    C  328 1.608    N  342 0.198
   330  C   3.993    C  332 1.009    C  331 1.009    C  327 0.967    H  335 0.958
   331  C   3.995    C  330 1.009    H  338 0.987    H  337 0.983    H  336 0.982
   332  C   3.996    C  330 1.009    H  340 0.987    H  341 0.985    H  339 0.983
   333  H   0.976    N  326 0.953
   334  H   0.999    C  327 0.965
   335  H   0.998    C  330 0.958
   336  H   0.997    C  331 0.982
   337  H   0.998    C  331 0.983
   338  H   0.999    C  331 0.987
   339  H   0.997    C  332 0.983
   340  H   0.999    C  332 0.987
   341  H   0.999    C  332 0.985
   342  N   3.474    C  328 1.321    C  343 0.974    H  349 0.879    O  329 0.198
   343  C   3.960    N  342 0.974    C  344 0.972    C  346 0.954    H  350 0.948    O  345 0.054
   344  C   3.904    O  345 1.888    C  343 0.972    H  416 0.955
   345  O   2.042    C  344 1.888    C  343 0.054
   346  C   3.983    C  347 1.008    C  348 1.007    H  351 0.962    C  343 0.954
   347  C   3.990    C  346 1.008    H  354 0.983    H  353 0.981    H  352 0.977
   348  C   3.988    C  346 1.007    H  356 0.982    H  357 0.980    H  355 0.979
   349  H   0.941    N  342 0.879
   350  H   0.994    C  343 0.948
   351  H   0.996    C  346 0.962
   352  H   0.994    C  347 0.977
   353  H   0.998    C  347 0.981
   354  H   0.996    C  347 0.983
   355  H   0.994    C  348 0.979
   356  H   0.996    C  348 0.982
   357  H   0.997    C  348 0.980
   358  N   3.001    C  359 1.012    H  417 0.959    H  366 0.929
   359  C   3.984    N  358 1.012    C  360 0.978    H  367 0.961    C  362 0.948    O  361 0.053
   360  C   3.886    O  361 1.879    C  359 0.978    H  418 0.953
   361  O   2.016    C  360 1.879    C  359 0.053
   362  C   3.990    C  364 1.009    C  363 0.995    H  368 0.959    C  359 0.948
   363  C   3.996    C  365 1.017    C  362 0.995    H  369 0.978    H  370 0.974
   364  C   3.994    C  362 1.009    H  373 0.986    H  372 0.981    H  371 0.978
   365  C   3.995    C  363 1.017    H  375 0.985    H  376 0.984    H  374 0.984
   366  H   0.967    N  358 0.929
   367  H   0.999    C  359 0.961
   368  H   0.996    C  362 0.959
   369  H   0.999    C  363 0.978
   370  H   0.999    C  363 0.974
   371  H   0.996    C  364 0.978
   372  H   0.999    C  364 0.981
   373  H   0.999    C  364 0.986
   374  H   0.998    C  365 0.984
   375  H   0.998    C  365 0.985
   376  H   0.998    C  365 0.984
   377  N   2.996    C  378 1.023    H  405 0.958    H  388 0.948
   378  C   3.985    N  377 1.023    C  379 0.981    C  381 0.958    H  389 0.941    O  380 0.061
   379  C   3.880    O  380 1.854    C  378 0.981    H  406 0.953
   380  O   2.046    C  379 1.854    C  378 0.061
   381  C   3.986    C  382 1.005    H  390 0.972    H  391 0.971    C  378 0.958
   382  C   3.990    C  381 1.005    C  383 0.990    H  392 0.973    H  393 0.970
   383  C   3.951    C  382 0.990    N  384 0.990    H  394 0.958    H  395 0.958
   384  N   3.468    C  385 1.306    C  383 0.990    H  396 0.915    N  387 0.099    N  386 0.098
   385  C   3.976    N  386 1.324    N  387 1.312    N  384 1.306
   386  N   3.394    C  385 1.324    H  397 0.911    H  398 0.903    N  387 0.099    N  384 0.098
   387  N   3.385    C  385 1.312    H  399 0.919    H  400 0.916    N  386 0.099    N  384 0.099
   388  H   0.968    N  377 0.948
   389  H   0.997    C  378 0.941
   390  H   0.995    C  381 0.972
   391  H   0.996    C  381 0.971
   392  H   0.996    C  382 0.973
   393  H   0.994    C  382 0.970
   394  H   0.991    C  383 0.958
   395  H   0.991    C  383 0.958
   396  H   0.946    N  384 0.915
   397  H   0.941    N  386 0.911
   398  H   0.938    N  386 0.903
   399  H   0.942    N  387 0.919
   400  H   0.939    N  387 0.916
   401  H   0.972    N    1 0.961
   402  H   0.996    C  185 0.955
   403  H   0.972    N  202 0.962
   404  H   0.996    C  214 0.955
   405  H   0.969    N  377 0.958
   406  H   0.993    C  379 0.953
   407  H   0.970    N  237 0.959
   408  H   0.993    C  239 0.952
   409  H   0.967    N  256 0.957
   410  H   0.996    C  274 0.955
   411  H   0.971    N  291 0.959
   412  H   0.995    C  293 0.954
   413  H   0.970    N  307 0.958
   414  H   0.994    C  309 0.953
   415  H   0.970    N  326 0.959
   416  H   0.996    C  344 0.955
   417  H   0.971    N  358 0.959
   418  H   0.994    C  360 0.953
 
molecular dipole:
                 x           y           z       tot (Debye)
 q only:      -43.714      25.704     -42.663
   full:      -44.156      23.045     -48.019     175.856
molecular quadrupole (traceless):
                xx          xy          yy          xz          yz          zz
 q only:    -1183.214    2370.383    3400.508   -2536.384    1242.083   -2217.294
  q+dip:     -954.623    2152.458    3552.350   -2964.516     926.977   -2597.726
   full:     -949.100    2152.023    3554.070   -2963.395     930.143   -2604.970
speedup  7.44
cpu  time for grad   31.30 s
wall time for grad    4.21 s

SCC energy    :    -611.4504543
rep           :       7.4570636
ES            :       1.8905933
AES           :      -0.0508902
AXC           :       0.2141564
disp          :      -0.5151488
XB            :       0.0000000
fix           :       0.0000000
Gborn         :       0.0000000
Gsasa         :       0.0000000
Ghb           :       0.0000000
Gshift        :       0.0000000
Gsolv         :      -0.5016976     -314.82
Etot ala COSMO:    -611.4504543
grad norm     :       0.6653196
total E       :    -603.9447807
atomizationE  :     111.9319139    70238.34
(atE without considering molecular charge,
 total energy contains solvation terms)
H-L gap (eV)  :          1.3718

------------------------------------------------------------------------
 * finished run on 2019/02/12 at 03:00:15.225     
------------------------------------------------------------------------
 total:
 * wall-time:     0 d,  0 h,  0 min,  4.627 sec
 *  cpu-time:     0 d,  0 h,  0 min, 36.027 sec
 * ratio c/w:     7.786 speedup
 SCF:
 * wall-time:     0 d,  0 h,  0 min,  4.407 sec
 *  cpu-time:     0 d,  0 h,  0 min, 33.706 sec
 * ratio c/w:     7.648 speedup

