      -----------------------------------------------------------      
     |                   =====================                   |     
     |                           x T B                           |     
     |                   =====================                   |     
     |                         S. Grimme                         |     
     |          Mulliken Center for Theoretical Chemistry        |     
     |                    University of Bonn                     |     
     |                 Version 6.0.1 (SAW181210)                 |     
      -----------------------------------------------------------      

   This program is distributed in the hope that it will be useful,
   but WITHOUT ANY WARRANTY; without even the implied warranty of
   MERCHANTABILITY or FITNESS FOR A PARTICULAR PURPOSE.
   
   FOR NON-COMMERCIAL, ACADEMIA USE ONLY.
   
   Cite this work as:
   S. Grimme, C. Bannwarth, P. Shushkov, J. Comput. Theory Chem., 2017,
   13, 1989-2009.
   C. Bannwarth, S. Ehlert and S. Grimme., ChemRxiv, 2018, preprint.
   http://doi.org/10.26434/chemrxiv.7246238.v1
   
   for sTDA-xTB:
   S. Grimme and C. Bannwarth, J. Chem. Phys., 2016, 145, 054103.
   
   in the mass-spec context:
   V. Asgeirsson, C. Bauer and S. Grimme, Chem. Sci., 2017, 8, 4879.
   
   if GBSA is used:
   P. Shushkov, F. März and S. Grimme, unpublished.
   
   for ANC optimizer:
   S. Grimme, unpublished.
   Rational Function algorithm used in ANCopt:
   F. Eckert, P. Pulay, H.-J. Werner, J. Comput. Chem., 1997, 18, 1473.
   
   with help from (in alphabetical order)
   C. Bannwarth, F. Bohle, G. Brandenburg, E. Caldeweyher, M. Checinski,
   S. Dohm, S. Ehlert, S. Ehrlich, F. März, H. Neugebauer, J. Pisarek,
   P. Pracht, P. Shushkov, and S. Spicher.
   
 * started run on 2019/05/12 at 13:11:44.984     
========================================================================
 # omp threads = 2
========================================================================
number of atoms            : 515
number of electrons        : 1374
charge                     : -1
spin                       : .0
first test random number   : .9433

########################################################################
# WARNING! Please study the warnings concerning your input carefully
#  - Process number higher than OMP_NUM_THREADS, I hope you know what you are doing.
########################################################################

           ------------------------------------------------- 
          |                 G F N 2 - x T B                 |
          | Geometry, Frequencies, Noncovalent interactions |
          |            JCTC 2018 parametrisation            |
           ------------------------------------------------- 
 
      method parameters     
 k(s)        :  1.8500
 k(p)        :  2.2300
 k(d)        :  2.2300
 k(f)        :  2.0000
 kEN (H0ij)  : -2.0000
 D4 a1       :  0.5200
 D4 a2       :  5.0000
 D4 s6       :  1.0000
 D4 s8       :  2.7000
 D4 s9       :  5.0000
 alphaj      :  2.0000

 Solvent             : h2o
 Using internal parameter file: .param_gbsa2_h2o
 Gsolv ref. state (COSMO-RS): gsolv [1 M gas/solution]
 temperature (mdtemp)       :    298.150000000000     
 dielectric constant        :    80.2000000000000     
 rho                        :    1.00000000000000     
 mass                       :    18.0000000000000     
 surface tension            :    15.5689454083859     
 probe radius               :   0.975313790000000     
 vdW radii scaling          :    1.00000000000000     
 Gshift (Eh)                :   1.857443126794793E-003
 c1                         :    1.55243817000000     
 soset                      :   0.130326360000000     
 HB correction              :  T

            Z     q(EN)     CN     RAES       Cart. coordinates
     1  N   5.0   -0.20    3.26    1.97    97.80162   123.51024   415.00364
     2  C   4.0    0.03    4.40    4.38    99.62165   124.06898   416.90454
     3  C   4.0    0.14    3.43    3.09   100.71985   126.71522   416.57518
     4  O   6.0   -0.28    1.20    1.80   100.36245   128.06122   414.61635
     5  C   4.0   -0.04    4.45    4.46   101.78542   122.29048   417.21151
     6  C   4.0   -0.03    4.33    4.26   101.17667   119.52670   417.22687
     7  C   4.0    0.14    3.26    3.05   100.01264   118.67399   419.63369
     8  O   6.0   -0.28    1.19    1.80   100.53255   119.96461   421.60910
     9  N   5.0   -0.22    3.16    1.95    98.55612   116.48527   419.45437
    10  H   1.0    0.10    1.05    1.44    98.35264   123.86376   413.29800
    11  H   1.0    0.05    1.10    1.44    98.50044   123.97440   418.54974
    12  H   1.0    0.05    1.08    1.44   102.89664   122.52285   415.57961
    13  H   1.0    0.07    1.10    1.44   102.78362   122.64468   418.73514
    14  H   1.0    0.03    1.07    1.44    99.98140   119.03143   415.75114
    15  H   1.0    0.05    1.07    1.44   102.81226   118.45636   416.98533
    16  H   1.0    0.09    1.05    1.44    98.26786   115.69984   417.92442
    17  H   1.0    0.10    1.05    1.44    97.68991   115.99102   420.93867
    18  N   5.0   -0.15    3.51    2.08   102.14788   127.36160   418.65703
    19  C   4.0    0.03    4.55    4.60   103.57637   129.66298   418.64283
    20  C   4.0    0.15    3.52    3.12   106.17647   128.96753   417.67177
    21  O   6.0   -0.30    1.29    1.80   107.45835   127.55129   418.95266
    22  C   4.0   -0.03    4.31    4.21   103.73317   131.21424   421.03087
    23  C   4.0   -0.08    4.10    3.81   105.26973   133.78637   420.49230
    24  C   4.0   -0.09    4.16    3.92   101.22628   131.55673   422.35446
    25  H   1.0    0.09    1.10    1.44   102.00428   126.66418   420.25794
    26  H   1.0    0.05    1.10    1.44   102.75200   130.98005   417.35753
    27  H   1.0    0.05    1.10    1.44   104.70044   130.17697   422.41471
    28  H   1.0    0.04    1.02    1.43   105.27299   134.76054   422.21604
    29  H   1.0    0.05    1.04    1.43   106.98389   133.34618   419.96975
    30  H   1.0    0.04    1.04    1.43   104.22740   134.76006   419.24889
    31  H   1.0    0.04    1.04    1.43   101.35697   132.65306   423.88696
    32  H   1.0    0.04    1.02    1.43   100.08613   132.58883   421.01429
    33  H   1.0    0.04    1.04    1.43   100.34856   129.91522   422.64147
    34  N   5.0   -0.16    3.53    2.10   106.91307   129.91908   415.41612
    35  C   4.0    0.05    4.54    4.59   109.01468   129.01544   414.10077
    36  C   4.0    0.16    3.43    3.09   111.44993   129.11495   415.95814
    37  O   6.0   -0.30    1.25    1.80   112.72967   127.28707   416.41411
    38  C   4.0    0.05    4.34    4.27   109.34662   130.67468   411.84642
    39  O   6.0   -0.24    2.21    1.86   110.44194   129.08128   410.30459
    40  C   4.0   -0.08    4.12    3.84   110.89657   133.29013   412.26825
    41  H   1.0    0.08    1.11    1.45   106.03286   131.29177   414.67494
    42  H   1.0    0.06    1.13    1.45   108.90465   127.21991   413.64997
    43  H   1.0    0.04    1.10    1.44   107.65429   131.27369   411.18881
    44  H   1.0    0.12    1.00    1.43   111.33038   130.08417   408.90258
    45  H   1.0    0.05    1.03    1.43   110.93567   134.23782   410.64026
    46  H   1.0    0.05    1.03    1.43   109.97714   134.26745   413.63237
    47  H   1.0    0.05    1.04    1.43   112.65944   132.82941   412.86184
    48  N   5.0   -0.14    3.56    2.12   111.99984   131.28330   417.08398
    49  C   4.0    0.04    4.43    4.43   114.30152   131.72362   418.48395
    50  C   4.0    0.16    3.45    3.09   114.29722   130.36594   420.97691
    51  O   6.0   -0.32    1.32    1.80   116.23100   129.52337   421.80630
    52  C   4.0    0.00    4.09    3.79   114.87753   134.58825   418.62810
    53  O   6.0   -0.26    1.96    1.82   112.32120   136.06504   418.62314
    54  H   1.0    0.09    1.11    1.45   110.90645   132.76213   417.03931
    55  H   1.0    0.05    1.12    1.45   115.78922   130.95900   417.52199
    56  H   1.0    0.05    1.05    1.44   115.90198   134.94019   420.19025
    57  H   1.0    0.04    1.05    1.44   115.73110   135.17032   417.03172
    58  H   1.0    0.13    1.02    1.43   112.78271   137.52521   419.56035
    59  N   5.0   -0.13    3.55    2.12   112.19109   130.10233   422.28372
    60  C   4.0    0.04    4.47    4.50   111.94548   128.89242   424.66077
    61  C   4.0    0.16    3.50    3.11   112.53963   126.13620   424.33530
    62  O   6.0   -0.31    1.29    1.80   113.81557   124.97109   425.87078
    63  C   4.0   -0.05    4.30    4.20   109.36392   129.19223   426.05327
    64  C   4.0   -0.04    4.21    4.03   108.66610   131.87952   426.83752
    65  C   4.0    0.23    3.12    3.03   110.45130   133.03649   428.77767
    66  O   6.0   -0.29    1.15    1.80   111.17046   131.76933   430.82707
    67  O   6.0   -0.27    1.16    1.80   111.26019   135.19994   428.23532
    68  H   1.0    0.08    1.08    1.44   110.55700   130.86736   421.68532
    69  H   1.0    0.06    1.10    1.44   113.25881   129.76393   425.83487
    70  H   1.0    0.05    1.07    1.44   108.00701   128.56557   424.80098
    71  H   1.0    0.06    1.08    1.44   109.38394   128.11212   427.60733
    72  H   1.0    0.05    1.06    1.44   108.74938   133.02225   425.22456
    73  H   1.0    0.04    1.07    1.44   106.88752   131.89680   427.50342
    74  N   5.0   -0.14    3.58    2.14   111.66635   125.01105   422.34056
    75  C   4.0    0.03    4.50    4.53   112.05395   122.39271   421.62408
    76  C   4.0    0.16    3.46    3.10   114.91425   122.08976   421.30899
    77  O   6.0   -0.31    1.26    1.80   116.03167   120.24360   422.23512
    78  C   4.0   -0.04    4.41    4.39   110.40900   121.45512   419.53938
    79  C   4.0   -0.03    4.36    4.30   110.08093   118.85887   419.33440
    80  C   4.0    0.15    3.22    3.04   108.33780   117.57044   421.12665
    81  O   6.0   -0.29    1.22    1.80   106.48782   118.71003   421.71902
    82  N   5.0   -0.22    3.08    1.94   108.91380   114.96553   422.13184
    83  H   1.0    0.11    1.11    1.44   110.55894   125.85118   421.08315
    84  H   1.0    0.06    1.11    1.45   111.62272   121.28333   423.20051
    85  H   1.0    0.07    1.10    1.44   108.67644   122.27064   419.75536
    86  H   1.0    0.06    1.09    1.44   111.20949   122.17784   417.89220
    87  H   1.0    0.05    1.11    1.44   109.48874   118.31090   417.52512
    88  H   1.0    0.05    1.07    1.44   111.86807   117.89888   419.50399
    89  H   1.0    0.09    1.04    1.44   110.39108   114.28243   421.44551
    90  H   1.0    0.12    1.04    1.43   107.84484   114.28446   423.24348
    91  N   5.0   -0.14    3.51    2.08   116.25855   123.88774   420.19145
    92  C   4.0    0.03    4.42    4.41   118.96330   123.71712   419.76946
    93  C   4.0    0.16    3.46    3.10   120.41974   123.91377   422.26660
    94  O   6.0   -0.32    1.28    1.80   122.26336   122.59235   422.75332
    95  C   4.0   -0.08    4.19    3.98   119.92717   125.60790   417.86937
    96  H   1.0    0.11    1.10    1.44   115.49593   125.42463   419.57539
    97  H   1.0    0.05    1.11    1.44   119.27940   121.91951   419.08060
    98  H   1.0    0.04    1.05    1.44   121.78584   125.46534   417.69764
    99  H   1.0    0.05    1.04    1.43   119.00931   125.32000   416.18930
   100  H   1.0    0.05    1.04    1.43   119.42309   127.38292   418.52920
   101  N   5.0   -0.15    3.52    2.09   119.72498   125.73055   423.75088
   102  C   4.0    0.03    4.42    4.41   120.69459   126.03365   426.29606
   103  C   4.0    0.16    3.44    3.09   120.61456   123.39261   427.88197
   104  O   6.0   -0.30    1.22    1.80   122.33647   122.75328   429.38061
   105  C   4.0   -0.05    4.38    4.35   119.51365   128.01818   427.82026
   106  C   4.0   -0.05    4.25    4.10   120.41214   128.70936   430.28082
   107  C   4.0   -0.05    4.28    4.17   118.41456   130.22265   431.96959
   108  C   4.0   -0.02    4.28    4.15   117.70001   132.68601   430.82213
   109  N   5.0   -0.12    4.21    3.49   115.93005   133.83079   432.36899
   110  H   1.0    0.11    1.13    1.45   118.45502   126.96971   423.41480
   111  H   1.0    0.05    1.10    1.44   122.60406   126.44771   426.16835
   112  H   1.0    0.05    1.08    1.44   119.40983   129.66251   426.72572
   113  H   1.0    0.05    1.07    1.44   117.56608   127.51069   428.05126
   114  H   1.0    0.05    1.07    1.44   120.91919   127.13757   431.30141
   115  H   1.0    0.05    1.07    1.44   121.97416   129.86728   430.15621
   116  H   1.0    0.04    1.07    1.44   116.87624   129.09389   432.15359
   117  H   1.0    0.05    1.06    1.44   119.20490   130.53636   433.71297
   118  H   1.0    0.06    1.07    1.44   119.27132   133.78392   430.54558
   119  H   1.0    0.06    1.08    1.44   116.86236   132.36788   429.08840
   120  H   1.0    0.10    1.07    1.44   115.43838   135.53128   431.73701
   121  H   1.0    0.09    1.09    1.44   114.44329   132.93555   432.71166
   122  H   1.0    0.10    1.11    1.45   116.70958   134.28024   434.05201
   123  N   5.0   -0.14    3.57    2.13   118.62169   121.96372   427.46700
   124  C   4.0    0.04    4.62    4.68   118.37245   119.65902   428.68982
   125  C   4.0    0.17    3.58    3.16   120.32046   117.85323   427.79554
   126  O   6.0   -0.30    1.30    1.80   121.61881   116.60482   429.17480
   127  C   4.0   -0.04    4.53    4.58   115.74364   118.63895   428.52304
   128  C   4.0   -0.02    3.70    3.24   115.45863   115.98915   428.88962
   129  C   4.0   -0.04    3.70    3.23   115.04481   114.94729   431.02231
   130  C   4.0   -0.03    3.68    3.22   115.57158   114.29580   426.94864
   131  C   4.0   -0.04    3.60    3.17   114.66249   112.30159   431.32484
   132  C   4.0   -0.03    3.58    3.15   115.16733   111.74928   427.25946
   133  C   4.0   -0.06    3.42    3.08   114.74627   110.64484   429.59344
   134  H   1.0    0.11    1.11    1.45   117.24950   122.44374   426.36947
   135  H   1.0    0.06    1.12    1.45   118.67265   119.88681   430.62527
   136  H   1.0    0.05    1.09    1.44   114.55439   119.57348   429.63192
   137  H   1.0    0.06    1.09    1.44   115.19583   118.99373   426.60257
   138  H   1.0    0.05    1.09    1.44   115.16197   116.00008   432.65195
   139  H   1.0    0.06    1.07    1.44   115.74886   114.93135   425.12309
   140  H   1.0    0.04    1.07    1.44   114.43899   111.61049   433.17604
   141  H   1.0    0.05    1.06    1.44   115.14078   110.56292   425.68408
   142  H   1.0    0.05    1.08    1.44   114.57486   108.82380   429.76199
   143  N   5.0   -0.14    3.58    2.14   120.64954   117.65718   425.32873
   144  C   4.0    0.04    4.64    4.70   122.40513   115.79251   424.24833
   145  C   4.0    0.16    3.57    3.15   125.02759   116.47872   425.03685
   146  O   6.0   -0.29    1.30    1.80   126.20116   114.95481   426.36440
   147  C   4.0   -0.04    4.48    4.51   122.20100   115.48510   421.53346
   148  C   4.0   -0.02    3.79    3.33   120.03072   114.09153   420.99452
   149  C   4.0   -0.01    3.64    3.19   117.74629   115.02365   420.13999
   150  C   4.0    0.00    3.88    3.44   119.66794   111.46574   421.43014
   151  N   5.0   -0.14    3.40    2.02   115.91294   113.17101   419.83867
   152  C   4.0    0.03    3.88    3.43   117.00005   110.91640   420.68125
   153  C   4.0   -0.05    3.43    3.09   121.13748   109.50901   422.17255
   154  C   4.0   -0.06    3.41    3.08   115.98220   108.50452   420.78632
   155  C   4.0   -0.04    3.47    3.10   120.03050   107.16861   422.26967
   156  C   4.0   -0.04    3.43    3.09   117.53708   106.65507   421.66730
   157  H   1.0    0.11    1.10    1.44   119.74633   118.59939   424.08634
   158  H   1.0    0.06    1.13    1.45   121.91067   114.08103   425.05036
   159  H   1.0    0.05    1.08    1.44   122.14601   117.23635   420.63416
   160  H   1.0    0.04    1.09    1.44   123.76196   114.55281   420.80553
   161  H   1.0    0.06    1.05    1.44   117.39392   116.85026   419.61772
   162  H   1.0    0.08    1.07    1.44   114.27356   113.36667   419.20712
   163  H   1.0    0.06    1.08    1.44   122.88012   109.80245   422.70972
   164  H   1.0    0.05    1.06    1.44   114.18363   108.18656   420.25085
   165  H   1.0    0.06    1.07    1.44   121.07779   105.68252   422.95582
   166  H   1.0    0.05    1.07    1.44   116.80931   104.89505   421.78627
   167  N   5.0   -0.15    3.53    2.10   125.96898   118.71928   424.59645
   168  C   4.0    0.04    4.50    4.54   128.38439   119.36287   425.42575
   169  C   4.0    0.16    3.36    3.07   128.86765   119.01469   428.46897
   170  O   6.0   -0.28    1.18    1.80   131.03505   118.50469   429.32571
   171  C   4.0   -0.04    4.60    4.67   129.18702   121.92974   424.60455
   172  C   4.0   -0.03    4.33    4.25   129.28685   122.59510   421.94797
   173  C   4.0   -0.09    4.18    3.96   131.02172   125.04987   421.81635
   174  C   4.0   -0.08    4.38    4.35   130.24739   120.44416   420.68933
   175  H   1.0    0.11    1.13    1.45   125.05165   120.05865   423.84365
   176  H   1.0    0.05    1.11    1.45   129.69061   118.10700   424.66774
   177  H   1.0    0.05    1.08    1.44   127.98500   123.20543   425.53294
   178  H   1.0    0.05    1.08    1.44   130.98567   122.32787   425.39360
   179  H   1.0    0.05    1.11    1.45   127.57158   122.98431   421.16112
   180  H   1.0    0.04    1.02    1.43   131.09136   125.52414   419.88967
   181  H   1.0    0.04    1.04    1.43   130.15454   126.45035   422.74300
   182  H   1.0    0.04    1.04    1.43   132.73316   124.62927   422.42782
   183  H   1.0    0.04    1.04    1.43   130.40530   120.79116   418.75469
   184  H   1.0    0.04    1.05    1.44   132.06499   120.03063   421.30308
   185  H   1.0    0.04    1.06    1.44   129.14960   118.89689   420.92606
   186  N   5.0   -0.13    3.39    2.02   126.82152   119.26044   429.94331
   187  C   4.0    0.03    4.35    4.30   126.94406   118.74761   432.54305
   188  C   4.0    0.16    3.34    3.06   127.66740   116.12063   433.28593
   189  O   6.0   -0.26    1.20    1.80   129.48948   115.89617   434.79717
   190  H   1.0    0.12    1.10    1.44   125.18995   119.72860   429.30328
   191  H   1.0    0.07    1.06    1.44   128.25226   120.04206   433.34548
   192  H   1.0    0.05    1.07    1.44   125.24161   119.20375   433.39558
   193  N   5.0   -0.14    3.50    2.08   126.46145   114.17251   432.06480
   194  C   4.0    0.04    4.51    4.55   127.01087   111.54260   432.46066
   195  C   4.0    0.09    3.26    3.05   129.83368   110.95031   431.81336
   196  O   6.0   -0.27    1.06    1.80   131.01395   108.95375   432.79749
   197  C   4.0   -0.04    4.75    4.80   125.54551   109.91094   431.19545
   198  C   4.0   -0.02    4.50    4.53   122.98053   109.92570   431.73292
   199  C   4.0   -0.08    4.26    4.12   121.17547   108.70890   429.99660
   200  C   4.0   -0.07    4.42    4.41   122.83943   108.73094   434.25120
   201  H   1.0    0.11    1.11    1.45   125.13894   114.51896   430.92661
   202  H   1.0    0.07    1.13    1.45   126.89991   111.32182   434.41939
   203  H   1.0    0.05    1.10    1.44   125.64660   110.42439   429.20382
   204  H   1.0    0.05    1.13    1.45   126.19092   108.10838   431.23814
   205  H   1.0    0.05    1.12    1.45   122.15461   111.73838   431.89822
   206  H   1.0    0.04    1.04    1.43   119.35013   108.70824   430.60438
   207  H   1.0    0.05    1.04    1.43   121.25501   109.59486   428.26211
   208  H   1.0    0.05    1.04    1.43   121.73475   106.85128   429.72631
   209  H   1.0    0.04    1.03    1.43   120.96831   108.50376   434.85920
   210  H   1.0    0.05    1.05    1.44   123.58017   106.93937   434.11053
   211  H   1.0    0.06    1.05    1.44   123.77461   109.73681   435.56258
   212  O   6.0   -0.29    1.98    1.82    97.26114   130.96515   412.18985
   213  H   1.0    0.14    1.00    1.43    98.52194   132.09453   412.24718
   214  H   1.0    0.12    0.99    1.43    95.79997   131.94380   412.21701
   215  O   6.0   -0.31    1.99    1.82   112.15959   126.39560   430.79045
   216  H   1.0    0.14    0.99    1.43   113.18987   127.76863   431.18343
   217  H   1.0    0.14    1.00    1.43   113.27689   125.46383   429.76041
   218  N   5.0   -0.23    3.24    1.97   107.56061   139.20833   439.34140
   219  C   4.0    0.03    4.28    4.15   108.41882   136.67557   438.73009
   220  C   4.0    0.07    3.21    3.04   106.56897   134.54331   439.53386
   221  O   6.0   -0.30    1.14    1.80   105.80623   132.96950   437.98889
   222  C   4.0   -0.04    4.36    4.31   110.84168   136.25050   439.84458
   223  C   4.0   -0.04    4.06    3.73   112.52567   134.00506   438.84468
   224  C   4.0    0.23    2.99    3.02   115.60069   134.52552   439.17717
   225  O   6.0   -0.27    1.13    1.80   116.48631   135.66396   441.13869
   226  O   6.0   -0.30    1.20    1.80   117.23140   134.06869   437.39052
   227  H   1.0    0.10    1.07    1.44   108.60167   140.16475   440.30870
   228  H   1.0    0.06    1.11    1.45   108.50896   136.46392   436.78850
   229  H   1.0    0.06    1.08    1.44   111.94680   137.87595   439.60005
   230  H   1.0    0.05    1.08    1.44   110.72032   135.92374   441.73608
   231  H   1.0    0.05    1.06    1.44   112.14716   132.42077   439.71308
   232  H   1.0    0.06    1.05    1.44   112.25967   133.88900   436.90906
   233  N   5.0   -0.22    3.21    1.96   101.06823   131.45490   435.95165
   234  C   4.0    0.03    4.22    4.04   102.17931   130.36718   433.61843
   235  C   4.0    0.08    3.23    3.04   103.36463   127.85231   434.13381
   236  O   6.0   -0.32    1.15    1.80   103.05065   126.08250   432.63090
   237  C   4.0   -0.07    4.20    4.00   103.96321   132.11208   432.34105
   238  H   1.0    0.11    1.08    1.44   102.01245   132.79670   436.56157
   239  H   1.0    0.04    1.08    1.44   100.61159   130.06411   432.37856
   240  H   1.0    0.05    1.04    1.43   104.61880   131.33760   430.71810
   241  H   1.0    0.04    1.03    1.43   103.03491   133.79632   431.86148
   242  H   1.0    0.07    1.05    1.44   105.38815   132.53889   433.53282
   243  N   5.0   -0.21    3.25    1.97    98.74518   122.87608   434.34884
   244  C   4.0    0.03    4.33    4.25    98.08628   122.14361   431.77748
   245  C   4.0    0.15    3.41    3.08    99.98047   120.06692   430.88045
   246  O   6.0   -0.30    1.24    1.80    99.29460   118.02954   429.94620
   247  C   4.0   -0.05    4.32    4.23    97.69844   124.19141   430.04683
   248  C   4.0   -0.06    4.14    3.88    95.15763   125.19721   429.22812
   249  C   4.0   -0.06    4.07    3.74    94.92721   127.17624   426.87381
   250  C   4.0   -0.06    3.96    3.55    92.85866   129.17902   427.20403
   251  N   5.0   -0.17    3.84    2.50    92.93632   130.80016   430.03379
   252  H   1.0    0.10    1.07    1.44    98.96919   124.63170   434.50402
   253  H   1.0    0.04    1.10    1.44    96.30855   121.19427   431.90988
   254  H   1.0    0.05    1.08    1.44    98.76900   125.72882   430.69722
   255  H   1.0    0.05    1.08    1.44    98.58621   123.71861   428.31072
   256  H   1.0    0.04    1.06    1.44    93.96718   123.75443   428.87888
   257  H   1.0    0.04    1.05    1.44    94.40578   126.15916   430.84753
   258  H   1.0    0.04    1.06    1.44    96.66897   128.10503   426.90281
   259  H   1.0    0.04    1.07    1.44    94.68842   126.17464   425.36243
   260  H   1.0    0.04    1.05    1.44    92.94394   130.42826   425.83091
   261  H   1.0    0.04    1.05    1.44    91.15143   128.25832   427.28531
   262  H   1.0    0.06    1.04    1.43    91.61066   131.95621   429.85977
   263  H   1.0    0.06    1.04    1.44    92.81284   129.60007   431.27230
   264  H   1.0    0.06    1.04    1.43    94.55637   131.60401   429.91969
   265  N   5.0   -0.15    3.58    2.14   102.49360   120.59595   431.11496
   266  C   4.0    0.04    4.59    4.65   104.39342   119.20164   429.97125
   267  C   4.0    0.08    3.35    3.06   104.32185   116.51451   431.06574
   268  O   6.0   -0.31    1.16    1.80   104.41401   114.55486   429.71445
   269  C   4.0   -0.02    4.48    4.51   106.76597   120.39711   430.12622
   270  C   4.0   -0.07    4.28    4.16   108.82602   118.52049   429.42395
   271  C   4.0   -0.07    4.28    4.16   106.85745   122.80201   428.80418
   272  H   1.0    0.10    1.12    1.45   102.97679   122.12220   431.97341
   273  H   1.0    0.07    1.12    1.45   103.91609   118.97188   428.06057
   274  H   1.0    0.05    1.12    1.45   107.28843   120.86743   432.00484
   275  H   1.0    0.05    1.02    1.43   110.62146   119.39062   429.41981
   276  H   1.0    0.05    1.05    1.44   108.90293   117.01660   430.55803
   277  H   1.0    0.06    1.03    1.43   108.53979   117.95926   427.56847
   278  H   1.0    0.06    1.03    1.43   108.60237   123.72233   429.02122
   279  H   1.0    0.05    1.04    1.43   106.67353   122.48330   426.88698
   280  H   1.0    0.06    1.05    1.44   105.49056   123.98269   429.39297
   281  N   5.0   -0.21    3.27    1.97    99.10836   112.39774   429.41907
   282  C   4.0    0.04    4.37    4.32    99.67946   111.42780   427.05049
   283  C   4.0    0.17    3.51    3.12   101.49565   109.15801   427.24235
   284  O   6.0   -0.27    1.26    1.80   101.11422   107.12237   426.08829
   285  C   4.0    0.04    4.23    4.05   100.67398   113.33839   425.11664
   286  O   6.0   -0.24    2.10    1.84   101.96948   112.07290   423.19754
   287  H   1.0    0.12    1.08    1.44    99.79667   114.09119   429.65492
   288  H   1.0    0.05    1.09    1.44    97.97051   110.72443   426.23892
   289  H   1.0    0.05    1.05    1.44    99.20017   114.41641   424.44677
   290  H   1.0    0.07    1.06    1.44   101.89633   114.49732   426.07857
   291  H   1.0    0.13    1.04    1.43   102.49669   113.32732   422.02192
   292  N   5.0   -0.15    3.55    2.11   103.47563   109.44266   428.58766
   293  C   4.0    0.04    4.41    4.39   105.21267   107.38256   429.05294
   294  C   4.0    0.10    3.33    3.06   103.92124   105.15264   430.05256
   295  O   6.0   -0.28    1.15    1.80   104.45940   103.07830   429.27179
   296  C   4.0   -0.08    4.23    4.06   107.37630   108.09483   430.64509
   297  H   1.0    0.11    1.13    1.45   103.88286   110.99035   429.47125
   298  H   1.0    0.06    1.11    1.45   105.95590   106.96526   427.25991
   299  H   1.0    0.04    1.04    1.43   108.64026   106.67784   430.83359
   300  H   1.0    0.05    1.03    1.43   108.33289   109.66200   429.89378
   301  H   1.0    0.04    1.04    1.43   106.74577   108.64900   432.40161
   302  N   5.0   -0.21    3.23    1.96   115.88234   128.15998   442.64539
   303  C   4.0    0.03    4.19    3.99   117.32618   126.85702   440.85090
   304  C   4.0    0.09    3.17    3.03   119.76068   125.38499   442.01525
   305  O   6.0   -0.30    1.11    1.80   120.89568   123.78980   440.77493
   306  C   4.0    0.03    4.20    3.99   118.47108   128.59503   438.95879
   307  O   6.0   -0.23    1.97    1.82   120.72704   130.11435   439.94486
   308  H   1.0    0.10    1.06    1.44   116.14394   129.98063   442.69475
   309  H   1.0    0.04    1.12    1.45   116.22644   125.59333   440.06988
   310  H   1.0    0.05    1.04    1.43   119.23790   127.58670   437.43749
   311  H   1.0    0.05    1.05    1.44   117.10060   129.76853   438.22364
   312  H   1.0    0.14    1.03    1.43   121.09523   131.25953   438.65231
   313  N   5.0   -0.21    3.22    1.96   120.20991   117.98677   441.88331
   314  C   4.0    0.03    4.29    4.18   120.99210   116.51573   439.73858
   315  C   4.0    0.09    3.25    3.04   123.66931   115.64183   439.97498
   316  O   6.0   -0.29    1.15    1.80   124.20122   113.64014   439.02840
   317  C   4.0   -0.03    4.39    4.37   120.79511   118.03576   437.23228
   318  C   4.0   -0.01    3.54    3.13   118.32891   119.21814   436.51852
   319  C   4.0   -0.05    3.55    3.14   116.03428   117.96660   436.75124
   320  C   4.0   -0.03    3.58    3.15   118.16393   121.53240   435.51284
   321  C   4.0   -0.05    3.45    3.09   113.68445   119.03053   436.04133
   322  C   4.0   -0.05    3.51    3.12   115.97703   122.72137   434.82035
   323  C   4.0    0.07    3.49    3.11   113.69124   121.51706   435.08022
   324  O   6.0   -0.25    2.17    1.85   111.58048   122.64596   434.41206
   325  H   1.0    0.11    1.06    1.44   120.23662   119.81242   441.48845
   326  H   1.0    0.04    1.11    1.45   119.79509   115.03872   439.58321
   327  H   1.0    0.05    1.08    1.44   122.13097   119.43888   437.26590
   328  H   1.0    0.05    1.07    1.44   121.27064   116.80033   435.77341
   329  H   1.0    0.05    1.06    1.44   116.02394   116.20124   437.50660
   330  H   1.0    0.06    1.07    1.44   119.82769   122.51827   435.19361
   331  H   1.0    0.06    1.07    1.44   112.08440   118.15122   436.34261
   332  H   1.0    0.05    1.07    1.44   116.01300   124.47379   434.04915
   333  H   1.0    0.14    1.11    1.44   111.92623   124.32022   434.00608
   334  N   5.0   -0.22    3.24    1.97   113.63262   102.40164   436.55403
   335  C   4.0    0.03    4.31    4.22   116.04716   103.49040   436.22576
   336  C   4.0    0.06    3.16    3.03   118.19207   101.53687   435.46968
   337  O   6.0   -0.30    1.07    1.80   119.60936   101.93893   433.49500
   338  C   4.0   -0.05    4.56    4.62   116.98348   105.02290   438.34386
   339  C   4.0   -0.03    4.39    4.36   115.07866   106.96282   439.26033
   340  C   4.0   -0.09    4.25    4.09   116.06454   108.10512   441.70894
   341  C   4.0   -0.08    4.38    4.35   114.92888   108.77541   437.36561
   342  H   1.0    0.08    1.07    1.44   112.79424   102.94923   438.05104
   343  H   1.0    0.04    1.11    1.45   115.89459   104.62163   434.63461
   344  H   1.0    0.04    1.07    1.44   117.26937   103.77971   439.87491
   345  H   1.0    0.04    1.08    1.44   118.63414   105.87801   437.97109
   346  H   1.0    0.04    1.12    1.45   113.34051   106.25885   439.62218
   347  H   1.0    0.04    1.04    1.43   114.82240   109.42448   442.35548
   348  H   1.0    0.04    1.04    1.43   116.25121   106.70403   443.03226
   349  H   1.0    0.04    1.04    1.43   117.78465   108.92077   441.40496
   350  H   1.0    0.04    1.04    1.43   113.74829   110.26842   437.90506
   351  H   1.0    0.04    1.05    1.44   116.64073   109.55357   436.92400
   352  H   1.0    0.04    1.05    1.44   114.15417   108.03679   435.74019
   353  N   5.0   -0.20    3.31    1.99   117.08647    98.23270   428.83291
   354  C   4.0    0.04    4.30    4.19   117.56692   100.05431   427.07653
   355  C   4.0    0.08    3.26    3.05   120.32003   100.49810   426.75847
   356  O   6.0   -0.29    1.13    1.80   121.04862   100.72481   424.49296
   357  C   4.0   -0.08    4.23    4.07   116.15880   102.43785   427.75872
   358  H   1.0    0.09    1.05    1.44   116.07469    98.91295   430.33174
   359  H   1.0    0.05    1.13    1.45   116.88491    99.38242   425.39331
   360  H   1.0    0.04    1.02    1.43   116.48368   103.78052   426.29258
   361  H   1.0    0.04    1.04    1.43   114.28544   102.17651   427.86624
   362  H   1.0    0.05    1.04    1.43   116.87177   103.22698   429.35760
   363  N   5.0   -0.22    3.21    1.96   123.88774   116.25855   414.19436
   364  C   4.0    0.02    4.21    4.01   123.71712   118.96330   414.61635
   365  C   4.0    0.07    3.20    3.04   123.91377   120.41974   412.11921
   366  O   6.0   -0.32    1.14    1.80   122.59235   122.26336   411.63248
   367  C   4.0   -0.09    4.18    3.96   125.60790   119.92717   416.51643
   368  H   1.0    0.08    1.05    1.44   125.42463   115.49593   414.81041
   369  H   1.0    0.04    1.10    1.44   121.91951   119.27940   415.30520
   370  H   1.0    0.05    1.05    1.44   125.46534   121.78584   416.68817
   371  H   1.0    0.04    1.04    1.43   125.32000   119.00931   418.19651
   372  H   1.0    0.04    1.04    1.43   127.38292   119.42309   415.85661
   373  N   5.0   -0.21    3.26    1.97   117.65718   120.64954   409.05707
   374  C   4.0    0.03    4.52    4.56   115.79251   122.40513   410.13748
   375  C   4.0    0.15    3.53    3.13   116.47872   125.02759   409.34896
   376  O   6.0   -0.30    1.30    1.80   114.95481   126.20116   408.02140
   377  C   4.0   -0.04    4.48    4.51   115.48510   122.20100   412.85235
   378  C   4.0   -0.02    3.79    3.33   114.09153   120.03072   413.39128
   379  C   4.0   -0.01    3.64    3.19   115.02365   117.74629   414.24581
   380  C   4.0    0.00    3.89    3.44   111.46574   119.66794   412.95567
   381  N   5.0   -0.14    3.40    2.02   113.17101   115.91294   414.54714
   382  C   4.0    0.03    3.91    3.47   110.91640   117.00005   413.70456
   383  C   4.0   -0.05    3.43    3.09   109.50901   121.13748   412.21326
   384  C   4.0   -0.06    3.42    3.09   108.50452   115.98220   413.59949
   385  C   4.0   -0.04    3.47    3.10   107.16861   120.03050   412.11614
   386  C   4.0   -0.05    3.43    3.09   106.65507   117.53708   412.71851
   387  H   1.0    0.10    1.05    1.44   118.59939   119.74633   410.29947
   388  H   1.0    0.05    1.13    1.45   114.08103   121.91067   409.33544
   389  H   1.0    0.05    1.08    1.44   117.23635   122.14601   413.75164
   390  H   1.0    0.06    1.09    1.44   114.55281   123.76196   413.58028
   391  H   1.0    0.05    1.04    1.43   116.85026   117.39392   414.76809
   392  H   1.0    0.08    1.07    1.44   113.36667   114.27356   415.17869
   393  H   1.0    0.06    1.08    1.44   109.80245   122.88012   411.67609
   394  H   1.0    0.05    1.06    1.44   108.18656   114.18363   414.13495
   395  H   1.0    0.05    1.07    1.44   105.68252   121.07779   411.42998
   396  H   1.0    0.05    1.07    1.44   104.89505   116.80931   412.59954
   397  N   5.0   -0.16    3.51    2.08   118.71928   125.96898   409.78935
   398  C   4.0    0.04    4.43    4.43   119.36287   128.38439   408.96006
   399  C   4.0    0.08    3.13    3.03   119.01469   128.86765   405.91684
   400  O   6.0   -0.29    1.08    1.80   118.50469   131.03505   405.06009
   401  C   4.0   -0.04    4.60    4.66   121.92974   129.18702   409.78125
   402  C   4.0   -0.03    4.33    4.25   122.59510   129.28685   412.43784
   403  C   4.0   -0.08    4.18    3.96   125.04987   131.02172   412.56945
   404  C   4.0   -0.08    4.38    4.35   120.44416   130.24739   413.69647
   405  H   1.0    0.11    1.13    1.45   120.05865   125.05165   410.54215
   406  H   1.0    0.06    1.11    1.45   118.10700   129.69061   409.71806
   407  H   1.0    0.05    1.08    1.44   123.20543   127.98500   408.85286
   408  H   1.0    0.05    1.08    1.44   122.32787   130.98567   408.99220
   409  H   1.0    0.05    1.11    1.45   122.98431   127.57158   413.22469
   410  H   1.0    0.04    1.02    1.43   125.52414   131.09136   414.49613
   411  H   1.0    0.04    1.04    1.43   126.45035   130.15454   411.64281
   412  H   1.0    0.05    1.04    1.43   124.62927   132.73316   411.95799
   413  H   1.0    0.04    1.04    1.43   120.79116   130.40530   415.63112
   414  H   1.0    0.04    1.05    1.44   120.03063   132.06499   413.08272
   415  H   1.0    0.05    1.06    1.44   118.89689   129.14960   413.45975
   416  N   5.0   -0.21    3.34    2.00   114.17251   126.46145   402.32101
   417  C   4.0    0.03    4.54    4.59   111.54260   127.01087   401.92515
   418  C   4.0    0.14    3.45    3.09   110.95031   129.83368   402.57244
   419  O   6.0   -0.28    1.15    1.80   108.95375   131.01395   401.58831
   420  C   4.0   -0.04    4.76    4.81   109.91094   125.54551   403.19036
   421  C   4.0   -0.03    4.50    4.53   109.92570   122.98053   402.65288
   422  C   4.0   -0.08    4.26    4.11   108.70890   121.17547   404.38921
   423  C   4.0   -0.08    4.42    4.41   108.73094   122.83943   400.13461
   424  H   1.0    0.10    1.06    1.44   114.51896   125.13894   403.45920
   425  H   1.0    0.04    1.12    1.45   111.32182   126.89991   399.96642
   426  H   1.0    0.06    1.10    1.44   110.42439   125.64660   405.18199
   427  H   1.0    0.05    1.13    1.45   108.10838   126.19092   403.14766
   428  H   1.0    0.04    1.12    1.45   111.73838   122.15461   402.48759
   429  H   1.0    0.04    1.04    1.43   108.70824   119.35013   403.78143
   430  H   1.0    0.04    1.04    1.43   109.59486   121.25501   406.12369
   431  H   1.0    0.04    1.04    1.43   106.85128   121.73475   404.65949
   432  H   1.0    0.04    1.03    1.43   108.50376   120.96831   399.52661
   433  H   1.0    0.04    1.05    1.44   106.93937   123.58017   400.27527
   434  H   1.0    0.04    1.05    1.44   109.73681   123.77461   398.82323
   435  N   5.0   -0.14    3.37    2.01   112.57600   130.88583   404.20378
   436  C   4.0    0.02    4.23    4.07   112.06752   133.28504   405.43670
   437  C   4.0    0.09    3.17    3.03   111.54378   135.39031   403.64953
   438  O   6.0   -0.28    1.12    1.80   110.08500   137.12524   404.41116
   439  H   1.0    0.11    1.10    1.44   114.17189   130.21210   404.77517
   440  H   1.0    0.06    1.07    1.44   110.45667   133.08437   406.55076
   441  H   1.0    0.05    1.06    1.44   113.50784   133.78751   406.65692
   442  N   5.0   -0.21    3.24    1.97   123.42152   142.70497   417.30183
   443  C   4.0    0.04    4.24    4.09   122.98119   140.40330   415.90185
   444  C   4.0    0.08    3.21    3.04   124.33887   140.40760   413.40890
   445  O   6.0   -0.30    1.14    1.80   125.18145   138.47382   412.57951
   446  C   4.0    0.01    4.09    3.78   120.11657   139.82728   415.75771
   447  O   6.0   -0.26    1.96    1.82   118.63978   142.38362   415.76267
   448  H   1.0    0.11    1.07    1.44   121.94269   143.79837   417.34649
   449  H   1.0    0.04    1.12    1.45   123.74581   138.91559   416.86382
   450  H   1.0    0.04    1.05    1.44   119.76463   138.80283   414.19556
   451  H   1.0    0.04    1.05    1.44   119.53449   138.97372   417.35408
   452  H   1.0    0.12    1.02    1.43   117.17960   141.92211   414.82546
   453  N   5.0   -0.23    3.26    1.97   128.73584   135.98554   424.59645
   454  C   4.0    0.02    4.36    4.31   126.32042   135.34194   425.42575
   455  C   4.0    0.14    3.33    3.06   125.83717   135.69012   428.46897
   456  O   6.0   -0.29    1.18    1.80   123.66977   136.20012   429.32571
   457  C   4.0   -0.05    4.60    4.67   125.51779   132.77507   424.60455
   458  C   4.0   -0.03    4.33    4.25   125.41797   132.10972   421.94797
   459  C   4.0   -0.08    4.19    3.98   123.68310   129.65495   421.81635
   460  C   4.0   -0.08    4.38    4.34   124.45742   134.26066   420.68933
   461  H   1.0    0.08    1.07    1.44   129.65316   134.64617   423.84365
   462  H   1.0    0.05    1.11    1.45   125.01420   136.59781   424.66774
   463  H   1.0    0.04    1.08    1.44   126.71982   131.49939   425.53294
   464  H   1.0    0.04    1.08    1.44   123.71915   132.37694   425.39360
   465  H   1.0    0.04    1.11    1.45   127.13324   131.72050   421.16112
   466  H   1.0    0.04    1.02    1.43   123.61346   129.18068   419.88967
   467  H   1.0    0.04    1.04    1.43   124.55028   128.25446   422.74300
   468  H   1.0    0.05    1.04    1.43   121.97166   130.07554   422.42782
   469  H   1.0    0.04    1.04    1.43   124.29951   133.91366   418.75469
   470  H   1.0    0.04    1.05    1.44   122.63983   134.67418   421.30308
   471  H   1.0    0.04    1.06    1.44   125.55521   135.80792   420.92606
   472  N   5.0   -0.15    3.35    2.00   127.88330   135.44438   429.94331
   473  C   4.0    0.02    4.26    4.13   127.76076   135.95721   432.54305
   474  C   4.0    0.08    3.15    3.03   127.03742   138.58419   433.28593
   475  O   6.0   -0.27    1.12    1.80   125.21534   138.80865   434.79717
   476  H   1.0    0.08    1.09    1.44   129.51487   134.97621   429.30328
   477  H   1.0    0.06    1.06    1.44   126.45256   134.66275   433.34548
   478  H   1.0    0.04    1.07    1.44   129.46321   135.50106   433.39558
   479  N   5.0   -0.21    3.11    1.94   119.45748   141.95463   433.05645
   480  C   4.0    0.01    4.02    3.66   117.26330   141.53384   434.59523
   481  C   4.0    0.23    2.98    3.01   114.83324   140.13751   433.10354
   482  O   6.0   -0.26    1.12    1.80   114.84998   139.66775   430.66683
   483  O   6.0   -0.28    1.12    1.80   112.88695   139.38061   434.31679
   484  H   1.0    0.12    1.06    1.44   120.89083   141.16162   433.62669
   485  H   1.0    0.06    1.06    1.44   117.63486   140.43781   436.07005
   486  H   1.0    0.05    1.06    1.44   116.52763   143.23868   435.12573
   487  H   1.0    0.09    1.09    1.44    97.40875   121.85652   415.06237
   488  H   1.0    0.07    1.03    1.43   130.79093   112.07999   430.63924
   489  H   1.0    0.10    1.08    1.44   107.32786   140.09075   437.90622
   490  H   1.0    0.05    1.04    1.43   105.97822   134.43052   441.32533
   491  H   1.0    0.09    1.07    1.44    99.49672   132.01649   435.62373
   492  H   1.0    0.06    1.05    1.44   104.40851   127.60064   435.68881
   493  H   1.0    0.09    1.07    1.44    97.50255   122.40393   435.40972
   494  H   1.0    0.05    1.04    1.43   104.19658   116.25818   432.93380
   495  H   1.0    0.10    1.09    1.44    97.42001   112.47984   429.60692
   496  H   1.0    0.06    1.05    1.44   102.59287   105.34697   431.38249
   497  H   1.0    0.09    1.09    1.44   114.22906   127.91939   442.32706
   498  H   1.0    0.06    1.04    1.43   120.35231   125.77586   443.76689
   499  H   1.0    0.09    1.07    1.44   118.62747   117.54806   442.32599
   500  H   1.0    0.06    1.05    1.44   124.93372   116.70724   440.88999
   501  H   1.0    0.09    1.08    1.44   112.64001   102.81384   435.23593
   502  H   1.0    0.05    1.03    1.43   118.46486    99.98344   436.51060
   503  H   1.0    0.09    1.09    1.44   116.19023    96.97666   428.11760
   504  H   1.0    0.06    1.04    1.43   121.44267   100.59659   428.27539
   505  H   1.0    0.09    1.07    1.44   122.59744   115.47865   414.98141
   506  H   1.0    0.05    1.05    1.44   125.15837   119.87755   410.80464
   507  H   1.0    0.09    1.07    1.44   116.86057   119.50047   408.08877
   508  H   1.0    0.06    1.03    1.43   119.20632   127.43119   404.70402
   509  H   1.0    0.09    1.08    1.44   114.88885   126.01942   400.84317
   510  H   1.0    0.06    1.04    1.43   112.33297   135.39054   401.93249
   511  H   1.0    0.09    1.07    1.44   123.83716   142.32295   418.90616
   512  H   1.0    0.06    1.05    1.44   124.53862   142.02043   412.44457
   513  H   1.0    0.09    1.09    1.44   128.62596   137.21915   423.43083
   514  H   1.0    0.05    1.04    1.43   127.98871   140.05968   432.58662
   515  H   1.0    0.12    1.08    1.44   119.16503   141.38189   431.48196

  Z AO/shell   Hii/eV     exponent
  1     Wed Apr 25 08:07:45 CEST 2018   EN: 2.200 GM2: 0.406  GM3: 0.0800  RAES: 1.40
     1s    -10.707211    1.230000
  6     Wed Apr 25 08:07:45 CEST 2018   EN: 2.550 GM2: 0.538  GM3: 0.1500  RAES: 3.00
     2s    -13.970922    2.096432
     2p    -10.063292    1.800000
  7     Wed Apr 25 08:07:45 CEST 2018   EN: 3.040 GM2: 0.461  GM3:-0.0640  RAES: 1.90
     2s    -16.686243    2.339881
     2p    -12.523956    2.014332
  8     Wed Apr 25 08:07:45 CEST 2018   EN: 3.440 GM2: 0.452  GM3:-0.0517  RAES: 1.80
     2s    -20.229985    2.439742
     2p    -15.503117    2.137023
 no old-style atom pair restraining (fixing) potential

molecular fragmentation (1/2 indicates fragments):
111111111111111111111111111111111111111111111111111111111111111111111111
111111111111111111111111111111111111111111111111111111111111111111111111
111111111111111111111111111111111111111111111111111111111111111111122222
222222222222222222222222222222222222222222222222222222222222222222222222
222222222222222222222222222222222222222222222222222222222222222222222222
222222222222222222222222222222222222222222222222222222222222222222222222
222222222222222222222222222222222222222222222222222222112222222222222222
22222222222
# atoms in fragment 1/2:   213   302
 fragment masses (1/2) :     1490.72     1954.39
CMA distance (Bohr)    :   3.366
constraining FC (au)   :  0.0500
           ------------------------------------------------- 
          |        Self-Consistent Charge Iterations        |
           ------------------------------------------------- 

 Ncao       : 1241
 Nao        : 1241
 Nshell     : 757
 Nel        : 1374
 T(el)      :   500.0
 intcut     :    35.0
 scfconv/Eh :  0.100E-06
   qconv/e  :  0.100E-04
 intneglect :  0.100E-08
 broydamp   :      0.400
 iter      E             dE          RMSdq      gap      omega  full diag
   1   -786.8612573 -0.786861E+03  0.472E+00    1.88       0.0  T
   2   -788.7831804 -0.192192E+01  0.223E+00    0.90       1.0  T
   3   -788.8996466 -0.116466E+00  0.137E+00    1.82       1.0  T
   4   -789.0877483 -0.188102E+00  0.296E-01    1.01       1.0  T
   5   -789.1037982 -0.160499E-01  0.148E-01    1.39       1.0  T
   6   -789.1069737 -0.317556E-02  0.640E-02    1.30       1.0  T
   7   -789.1075660 -0.592240E-03  0.252E-02    1.37       1.0  T
   8   -789.1076299 -0.639321E-04  0.122E-02    1.35       1.0  T
   9   -789.1076462 -0.162659E-04  0.539E-03    1.35       1.0  T
  10   -789.1076510 -0.479250E-05  0.255E-03    1.35       1.7  T
  11   -789.1076517 -0.731068E-06  0.113E-03    1.35       3.9  T
  12   -789.1076519 -0.200740E-06  0.533E-04    1.36       8.3  T
  13   -789.1076519 -0.283317E-07  0.250E-04    1.36      17.6  T
  14   -789.1076519 -0.100297E-07  0.125E-04    1.36      35.1  T
  15   -789.1076519 -0.151169E-08  0.617E-05    1.35      71.4  T
  16   -789.1076519 -0.527962E-09  0.246E-05    1.36     179.2  T
speedup  1.41
cpu  time for SCC   44.19 s
wall time for SCC   31.34 s

   *** convergence criteria satisfied after 16 iterations ***

          eigenvalues
 #    :         675        676        677        678        679        680        681        682
 occ. :        2.000      2.000      2.000      2.000      2.000      2.000      2.000      2.000
 eps  :       -10.194    -10.104    -10.067    -10.058     -9.959     -9.928     -9.926     -9.885
 #    :         683        684        685        686        687        688        689        690
 occ. :        2.000      2.000      2.000      2.000      2.000      0.000      0.000      0.000
 eps  :        -9.876     -9.865     -9.793     -9.771     -9.716     -8.361     -8.305     -8.147
 #    :         691        692        693        694        695        696        697        698
 occ. :        0.000      0.000      0.000      0.000      0.000      0.000      0.000      0.000
 eps  :        -8.140     -8.082     -8.060     -8.030     -7.918     -7.856     -7.843     -7.705


   #   Z            q   n(s)   n(p)   n(d)      C6AA      α(0)
   1   7 N     -0.394  1.311  4.083  0.000    30.205     8.162
   2   6 C      0.033  1.036  2.930  0.000    20.017     6.370
   3   6 C      0.255  1.061  2.684  0.000    22.710     7.804
   4   8 O     -0.463  1.779  4.684  0.000    22.983     6.428
   5   6 C     -0.079  1.018  3.061  0.000    21.984     6.671
   6   6 C     -0.092  1.028  3.064  0.000    22.243     6.712
   7   6 C      0.268  1.054  2.678  0.000    22.481     7.764
   8   8 O     -0.498  1.783  4.715  0.000    23.735     6.532
   9   7 N     -0.306  1.238  4.068  0.000    27.890     7.843
  10   1 H      0.165  0.835  0.000  0.000     1.303     1.788
  11   1 H      0.066  0.934  0.000  0.000     2.132     2.283
  12   1 H      0.042  0.958  0.000  0.000     2.421     2.433
  13   1 H      0.079  0.921  0.000  0.000     1.988     2.205
  14   1 H      0.066  0.934  0.000  0.000     2.129     2.282
  15   1 H      0.083  0.917  0.000  0.000     1.952     2.185
  16   1 H      0.237  0.763  0.000  0.000     0.937     1.516
  17   1 H      0.215  0.785  0.000  0.000     1.032     1.591
  18   7 N     -0.188  1.229  3.959  0.000    25.069     7.436
  19   6 C      0.013  1.042  2.945  0.000    20.356     6.423
  20   6 C      0.265  1.046  2.688  0.000    22.524     7.773
  21   8 O     -0.479  1.736  4.742  0.000    23.316     6.474
  22   6 C     -0.038  1.055  2.983  0.000    21.218     6.552
  23   6 C     -0.148  1.012  3.136  0.000    23.430     6.903
  24   6 C     -0.146  1.008  3.138  0.000    23.365     6.890
  25   1 H      0.219  0.781  0.000  0.000     1.014     1.578
  26   1 H      0.071  0.929  0.000  0.000     2.079     2.254
  27   1 H      0.043  0.957  0.000  0.000     2.407     2.426
  28   1 H      0.057  0.943  0.000  0.000     2.235     2.338
  29   1 H      0.044  0.956  0.000  0.000     2.398     2.422
  30   1 H      0.073  0.927  0.000  0.000     2.056     2.242
  31   1 H      0.074  0.926  0.000  0.000     2.044     2.235
  32   1 H      0.051  0.949  0.000  0.000     2.304     2.373
  33   1 H      0.073  0.927  0.000  0.000     2.055     2.241
  34   7 N     -0.195  1.229  3.965  0.000    25.224     7.459
  35   6 C      0.017  1.045  2.938  0.000    20.272     6.407
  36   6 C      0.268  1.057  2.675  0.000    22.473     7.762
  37   8 O     -0.460  1.728  4.732  0.000    22.909     6.417
  38   6 C      0.110  1.023  2.867  0.000    18.847     6.194
  39   8 O     -0.437  1.706  4.731  0.000    21.576     6.271
  40   6 C     -0.185  1.022  3.162  0.000    24.188     7.015
  41   1 H      0.214  0.786  0.000  0.000     1.038     1.595
  42   1 H      0.101  0.899  0.000  0.000     1.774     2.083
  43   1 H      0.033  0.967  0.000  0.000     2.539     2.492
  44   1 H      0.321  0.679  0.000  0.000     0.664     1.282
  45   1 H      0.076  0.924  0.000  0.000     2.016     2.220
  46   1 H      0.067  0.933  0.000  0.000     2.121     2.277
  47   1 H      0.065  0.935  0.000  0.000     2.138     2.286
  48   7 N     -0.179  1.222  3.958  0.000    24.877     7.408
  49   6 C      0.011  1.044  2.945  0.000    20.397     6.430
  50   6 C      0.275  1.032  2.693  0.000    22.350     7.742
  51   8 O     -0.486  1.719  4.767  0.000    23.465     6.495
  52   6 C      0.026  1.045  2.929  0.000    20.472     6.504
  53   8 O     -0.508  1.765  4.744  0.000    23.095     6.486
  54   1 H      0.221  0.779  0.000  0.000     1.007     1.572
  55   1 H      0.110  0.890  0.000  0.000     1.700     2.039
  56   1 H      0.077  0.923  0.000  0.000     2.011     2.217
  57   1 H      0.107  0.893  0.000  0.000     1.718     2.050
  58   1 H      0.337  0.663  0.000  0.000     0.620     1.237
  59   7 N     -0.173  1.230  3.944  0.000    24.751     7.389
  60   6 C      0.026  1.039  2.935  0.000    20.137     6.389
  61   6 C      0.279  1.031  2.689  0.000    22.273     7.729
  62   8 O     -0.511  1.733  4.778  0.000    24.032     6.573
  63   6 C     -0.079  1.032  3.047  0.000    22.001     6.677
  64   6 C     -0.098  1.036  3.061  0.000    22.353     6.730
  65   6 C      0.345  1.042  2.613  0.000    21.133     7.523
  66   8 O     -0.686  1.802  4.883  0.000    28.321     7.135
  67   8 O     -0.631  1.794  4.837  0.000    26.902     6.954
  68   1 H      0.198  0.802  0.000  0.000     1.115     1.654
  69   1 H      0.065  0.935  0.000  0.000     2.140     2.288
  70   1 H      0.063  0.937  0.000  0.000     2.163     2.300
  71   1 H      0.090  0.910  0.000  0.000     1.874     2.141
  72   1 H      0.044  0.956  0.000  0.000     2.398     2.422
  73   1 H      0.063  0.937  0.000  0.000     2.166     2.302
  74   7 N     -0.172  1.230  3.942  0.000    24.724     7.385
  75   6 C      0.019  1.045  2.936  0.000    20.253     6.407
  76   6 C      0.262  1.050  2.688  0.000    22.578     7.781
  77   8 O     -0.499  1.745  4.755  0.000    23.771     6.537
  78   6 C     -0.070  1.003  3.067  0.000    21.829     6.649
  79   6 C     -0.091  1.017  3.074  0.000    22.207     6.706
  80   6 C      0.267  1.066  2.667  0.000    22.489     7.765
  81   8 O     -0.421  1.736  4.684  0.000    22.098     6.303
  82   7 N     -0.351  1.242  4.109  0.000    29.054     8.005
  83   1 H      0.221  0.779  0.000  0.000     1.004     1.570
  84   1 H      0.087  0.913  0.000  0.000     1.907     2.159
  85   1 H      0.092  0.908  0.000  0.000     1.858     2.131
  86   1 H      0.074  0.926  0.000  0.000     2.038     2.232
  87   1 H      0.102  0.898  0.000  0.000     1.764     2.077
  88   1 H      0.058  0.942  0.000  0.000     2.217     2.328
  89   1 H      0.204  0.796  0.000  0.000     1.087     1.633
  90   1 H      0.216  0.784  0.000  0.000     1.030     1.590
  91   7 N     -0.173  1.228  3.944  0.000    24.737     7.387
  92   6 C      0.016  1.045  2.939  0.000    20.312     6.416
  93   6 C      0.273  1.036  2.692  0.000    22.391     7.749
  94   8 O     -0.498  1.737  4.761  0.000    23.732     6.532
  95   6 C     -0.154  1.008  3.146  0.000    23.509     6.910
  96   1 H      0.207  0.793  0.000  0.000     1.069     1.619
  97   1 H      0.088  0.912  0.000  0.000     1.894     2.152
  98   1 H      0.093  0.907  0.000  0.000     1.847     2.125
  99   1 H      0.088  0.912  0.000  0.000     1.899     2.155
 100   1 H      0.073  0.927  0.000  0.000     2.053     2.241
 101   7 N     -0.166  1.224  3.942  0.000    24.588     7.365
 102   6 C      0.011  1.048  2.941  0.000    20.405     6.434
 103   6 C      0.258  1.059  2.683  0.000    22.653     7.794
 104   8 O     -0.506  1.765  4.740  0.000    23.910     6.556
 105   6 C     -0.074  1.015  3.059  0.000    21.901     6.660
 106   6 C     -0.079  1.021  3.058  0.000    21.997     6.677
 107   6 C     -0.096  1.032  3.064  0.000    22.310     6.722
 108   6 C     -0.019  0.999  3.020  0.000    20.985     6.534
 109   7 N     -0.120  1.175  3.945  0.000    23.612     7.217
 110   1 H      0.226  0.774  0.000  0.000     0.982     1.553
 111   1 H      0.089  0.911  0.000  0.000     1.888     2.149
 112   1 H      0.061  0.939  0.000  0.000     2.185     2.312
 113   1 H      0.050  0.950  0.000  0.000     2.316     2.380
 114   1 H      0.068  0.932  0.000  0.000     2.106     2.269
 115   1 H      0.064  0.936  0.000  0.000     2.155     2.295
 116   1 H      0.061  0.939  0.000  0.000     2.190     2.314
 117   1 H      0.068  0.932  0.000  0.000     2.103     2.268
 118   1 H      0.103  0.897  0.000  0.000     1.762     2.076
 119   1 H      0.091  0.909  0.000  0.000     1.871     2.139
 120   1 H      0.251  0.749  0.000  0.000     0.878     1.468
 121   1 H      0.271  0.729  0.000  0.000     0.805     1.405
 122   1 H      0.274  0.726  0.000  0.000     0.795     1.397
 123   7 N     -0.157  1.218  3.939  0.000    24.397     7.336
 124   6 C      0.033  1.021  2.946  0.000    19.986     6.360
 125   6 C      0.290  1.027  2.683  0.000    22.085     7.697
 126   8 O     -0.492  1.732  4.760  0.000    23.613     6.515
 127   6 C     -0.086  1.017  3.069  0.000    22.105     6.687
 128   6 C      0.018  1.040  2.942  0.000    27.597     8.617
 129   6 C     -0.053  1.060  2.993  0.000    29.246     8.868
 130   6 C     -0.056  1.068  2.988  0.000    29.347     8.885
 131   6 C     -0.035  1.062  2.973  0.000    28.803     8.800
 132   6 C     -0.044  1.075  2.969  0.000    29.038     8.837
 133   6 C     -0.042  1.044  2.998  0.000    29.039     8.837
 134   1 H      0.219  0.781  0.000  0.000     1.014     1.578
 135   1 H      0.072  0.928  0.000  0.000     2.064     2.247
 136   1 H      0.069  0.931  0.000  0.000     2.093     2.262
 137   1 H      0.067  0.933  0.000  0.000     2.121     2.278
 138   1 H      0.042  0.958  0.000  0.000     2.423     2.434
 139   1 H      0.040  0.960  0.000  0.000     2.448     2.446
 140   1 H      0.042  0.958  0.000  0.000     2.424     2.435
 141   1 H      0.041  0.959  0.000  0.000     2.434     2.440
 142   1 H      0.064  0.936  0.000  0.000     2.147     2.291
 143   7 N     -0.196  1.235  3.961  0.000    25.248     7.463
 144   6 C      0.033  1.037  2.929  0.000    19.978     6.357
 145   6 C      0.269  1.035  2.696  0.000    22.469     7.765
 146   8 O     -0.517  1.757  4.761  0.000    24.169     6.591
 147   6 C     -0.068  1.005  3.063  0.000    21.773     6.638
 148   6 C     -0.036  1.049  2.987  0.000    28.849     8.809
 149   6 C     -0.023  1.066  2.957  0.000    28.540     8.763
 150   6 C     -0.024  1.080  2.944  0.000    28.484     8.747
 151   7 N     -0.124  1.212  3.912  0.000    23.695     7.230
 152   6 C      0.029  1.086  2.886  0.000    27.297     8.567
 153   6 C     -0.047  1.051  2.997  0.000    29.179     8.858
 154   6 C     -0.065  1.058  3.007  0.000    29.609     8.923
 155   6 C     -0.046  1.064  2.982  0.000    29.150     8.855
 156   6 C     -0.045  1.061  2.984  0.000    29.123     8.851
 157   1 H      0.214  0.786  0.000  0.000     1.036     1.594
 158   1 H      0.087  0.913  0.000  0.000     1.909     2.161
 159   1 H      0.060  0.940  0.000  0.000     2.198     2.318
 160   1 H      0.069  0.931  0.000  0.000     2.091     2.261
 161   1 H      0.054  0.946  0.000  0.000     2.268     2.355
 162   1 H      0.185  0.815  0.000  0.000     1.186     1.705
 163   1 H      0.039  0.961  0.000  0.000     2.462     2.454
 164   1 H      0.055  0.945  0.000  0.000     2.263     2.352
 165   1 H      0.028  0.972  0.000  0.000     2.612     2.527
 166   1 H      0.042  0.958  0.000  0.000     2.417     2.431
 167   7 N     -0.164  1.213  3.952  0.000    24.557     7.360
 168   6 C      0.018  1.045  2.937  0.000    20.271     6.410
 169   6 C      0.257  1.070  2.674  0.000    22.677     7.797
 170   8 O     -0.507  1.776  4.731  0.000    23.930     6.559
 171   6 C     -0.079  1.026  3.053  0.000    21.955     6.661
 172   6 C     -0.020  1.024  2.995  0.000    20.889     6.500
 173   6 C     -0.150  1.017  3.134  0.000    23.438     6.900
 174   6 C     -0.134  0.999  3.135  0.000    23.037     6.829
 175   1 H      0.230  0.770  0.000  0.000     0.963     1.537
 176   1 H      0.085  0.915  0.000  0.000     1.928     2.171
 177   1 H      0.038  0.962  0.000  0.000     2.473     2.459
 178   1 H      0.062  0.938  0.000  0.000     2.176     2.307
 179   1 H      0.054  0.946  0.000  0.000     2.271     2.357
 180   1 H      0.058  0.942  0.000  0.000     2.218     2.329
 181   1 H      0.054  0.946  0.000  0.000     2.275     2.359
 182   1 H      0.059  0.941  0.000  0.000     2.205     2.322
 183   1 H      0.054  0.946  0.000  0.000     2.269     2.355
 184   1 H      0.044  0.956  0.000  0.000     2.391     2.418
 185   1 H      0.048  0.952  0.000  0.000     2.342     2.393
 186   7 N     -0.150  1.214  3.936  0.000    24.251     7.314
 187   6 C     -0.016  1.017  2.999  0.000    20.902     6.516
 188   6 C      0.270  1.048  2.683  0.000    22.442     7.757
 189   8 O     -0.504  1.769  4.735  0.000    23.872     6.551
 190   1 H      0.213  0.787  0.000  0.000     1.042     1.599
 191   1 H      0.087  0.913  0.000  0.000     1.912     2.162
 192   1 H      0.082  0.918  0.000  0.000     1.955     2.186
 193   7 N     -0.178  1.228  3.950  0.000    24.852     7.404
 194   6 C      0.058  1.022  2.920  0.000    19.589     6.297
 195   6 C      0.182  1.122  2.696  0.000    24.102     8.042
 196   8 O     -0.407  1.804  4.603  0.000    21.820     6.263
 197   6 C     -0.063  0.993  3.070  0.000    21.633     6.609
 198   6 C     -0.009  1.009  2.999  0.000    20.673     6.463
 199   6 C     -0.125  1.003  3.122  0.000    22.918     6.819
 200   6 C     -0.138  1.007  3.131  0.000    23.102     6.835
 201   1 H      0.227  0.773  0.000  0.000     0.978     1.549
 202   1 H      0.103  0.897  0.000  0.000     1.755     2.071
 203   1 H      0.052  0.948  0.000  0.000     2.290     2.367
 204   1 H      0.085  0.915  0.000  0.000     1.926     2.170
 205   1 H      0.037  0.963  0.000  0.000     2.486     2.465
 206   1 H      0.061  0.939  0.000  0.000     2.190     2.314
 207   1 H      0.036  0.964  0.000  0.000     2.503     2.474
 208   1 H      0.046  0.954  0.000  0.000     2.371     2.408
 209   1 H      0.045  0.955  0.000  0.000     2.378     2.412
 210   1 H      0.048  0.952  0.000  0.000     2.342     2.393
 211   1 H      0.051  0.949  0.000  0.000     2.305     2.374
 212   8 O     -0.652  1.752  4.901  0.000    26.470     6.944
 213   1 H      0.320  0.680  0.000  0.000     0.662     1.278
 214   1 H      0.333  0.667  0.000  0.000     0.630     1.246
 215   8 O     -0.601  1.737  4.864  0.000    25.197     6.775
 216   1 H      0.290  0.710  0.000  0.000     0.753     1.362
 217   1 H      0.312  0.688  0.000  0.000     0.684     1.299
 218   7 N     -0.396  1.275  4.122  0.000    30.274     8.172
 219   6 C      0.050  1.028  2.922  0.000    19.747     6.329
 220   6 C      0.187  1.104  2.709  0.000    23.993     8.022
 221   8 O     -0.357  1.751  4.607  0.000    20.848     6.122
 222   6 C     -0.055  1.019  3.036  0.000    21.543     6.604
 223   6 C     -0.111  1.045  3.066  0.000    22.652     6.782
 224   6 C      0.332  1.073  2.595  0.000    21.355     7.561
 225   8 O     -0.620  1.795  4.824  0.000    26.607     6.916
 226   8 O     -0.637  1.780  4.857  0.000    27.054     6.974
 227   1 H      0.179  0.821  0.000  0.000     1.221     1.731
 228   1 H      0.044  0.956  0.000  0.000     2.393     2.419
 229   1 H      0.039  0.961  0.000  0.000     2.466     2.456
 230   1 H      0.055  0.945  0.000  0.000     2.258     2.350
 231   1 H      0.053  0.947  0.000  0.000     2.286     2.364
 232   1 H      0.025  0.975  0.000  0.000     2.659     2.550
 233   7 N     -0.412  1.314  4.098  0.000    30.716     8.231
 234   6 C      0.041  1.043  2.916  0.000    19.895     6.353
 235   6 C      0.198  1.092  2.709  0.000    23.772     7.985
 236   8 O     -0.367  1.745  4.623  0.000    21.040     6.150
 237   6 C     -0.123  1.000  3.123  0.000    22.891     6.818
 238   1 H      0.166  0.834  0.000  0.000     1.299     1.785
 239   1 H      0.074  0.926  0.000  0.000     2.040     2.233
 240   1 H      0.051  0.949  0.000  0.000     2.307     2.375
 241   1 H      0.060  0.940  0.000  0.000     2.194     2.316
 242   1 H      0.048  0.952  0.000  0.000     2.346     2.395
 243   7 N     -0.417  1.319  4.097  0.000    30.837     8.247
 244   6 C      0.035  1.040  2.925  0.000    20.000     6.370
 245   6 C      0.255  1.069  2.676  0.000    22.716     7.805
 246   8 O     -0.502  1.759  4.743  0.000    23.825     6.544
 247   6 C     -0.084  1.019  3.064  0.000    22.082     6.688
 248   6 C     -0.095  1.044  3.051  0.000    22.327     6.730
 249   6 C     -0.108  1.039  3.069  0.000    22.577     6.767
 250   6 C     -0.058  1.091  2.967  0.000    22.006     6.747
 251   7 N     -0.188  1.208  3.980  0.000    25.072     7.437
 252   1 H      0.173  0.827  0.000  0.000     1.256     1.755
 253   1 H      0.053  0.947  0.000  0.000     2.279     2.361
 254   1 H      0.064  0.936  0.000  0.000     2.154     2.295
 255   1 H      0.049  0.951  0.000  0.000     2.335     2.389
 256   1 H      0.068  0.932  0.000  0.000     2.106     2.269
 257   1 H      0.058  0.942  0.000  0.000     2.219     2.329
 258   1 H      0.082  0.918  0.000  0.000     1.954     2.186
 259   1 H      0.115  0.885  0.000  0.000     1.652     2.010
 260   1 H      0.148  0.852  0.000  0.000     1.406     1.854
 261   1 H      0.140  0.860  0.000  0.000     1.462     1.890
 262   1 H      0.297  0.703  0.000  0.000     0.721     1.330
 263   1 H      0.281  0.719  0.000  0.000     0.771     1.376
 264   1 H      0.282  0.718  0.000  0.000     0.768     1.372
 265   7 N     -0.172  1.224  3.948  0.000    24.723     7.385
 266   6 C      0.044  1.023  2.933  0.000    19.808     6.331
 267   6 C      0.190  1.102  2.708  0.000    23.929     8.012
 268   8 O     -0.379  1.761  4.618  0.000    21.270     6.183
 269   6 C     -0.018  1.021  2.998  0.000    20.852     6.492
 270   6 C     -0.132  1.008  3.124  0.000    23.058     6.840
 271   6 C     -0.140  1.001  3.139  0.000    23.208     6.862
 272   1 H      0.229  0.771  0.000  0.000     0.969     1.542
 273   1 H      0.086  0.914  0.000  0.000     1.916     2.165
 274   1 H      0.064  0.936  0.000  0.000     2.151     2.294
 275   1 H      0.046  0.954  0.000  0.000     2.369     2.407
 276   1 H      0.057  0.943  0.000  0.000     2.233     2.337
 277   1 H      0.047  0.953  0.000  0.000     2.361     2.403
 278   1 H      0.054  0.946  0.000  0.000     2.271     2.356
 279   1 H      0.048  0.952  0.000  0.000     2.340     2.392
 280   1 H      0.071  0.929  0.000  0.000     2.069     2.249
 281   7 N     -0.400  1.303  4.096  0.000    30.371     8.185
 282   6 C      0.037  1.039  2.925  0.000    19.971     6.364
 283   6 C      0.274  1.045  2.682  0.000    22.377     7.747
 284   8 O     -0.554  1.769  4.785  0.000    25.007     6.705
 285   6 C      0.072  1.013  2.914  0.000    19.553     6.329
 286   8 O     -0.482  1.722  4.760  0.000    22.510     6.405
 287   1 H      0.179  0.821  0.000  0.000     1.219     1.730
 288   1 H      0.035  0.965  0.000  0.000     2.517     2.481
 289   1 H      0.032  0.968  0.000  0.000     2.562     2.503
 290   1 H      0.045  0.955  0.000  0.000     2.376     2.410
 291   1 H      0.326  0.674  0.000  0.000     0.648     1.264
 292   7 N     -0.158  1.227  3.930  0.000    24.412     7.338
 293   6 C      0.030  1.029  2.941  0.000    20.056     6.374
 294   6 C      0.221  1.065  2.714  0.000    23.347     7.914
 295   8 O     -0.373  1.745  4.628  0.000    21.148     6.166
 296   6 C     -0.147  1.005  3.142  0.000    23.359     6.885
 297   1 H      0.240  0.760  0.000  0.000     0.925     1.506
 298   1 H      0.096  0.904  0.000  0.000     1.825     2.113
 299   1 H      0.087  0.913  0.000  0.000     1.910     2.161
 300   1 H      0.082  0.918  0.000  0.000     1.955     2.186
 301   1 H      0.077  0.923  0.000  0.000     2.006     2.215
 302   7 N     -0.376  1.283  4.093  0.000    29.706     8.095
 303   6 C      0.034  1.029  2.936  0.000    20.030     6.377
 304   6 C      0.194  1.112  2.693  0.000    23.846     7.996
 305   8 O     -0.353  1.748  4.604  0.000    20.755     6.108
 306   6 C      0.066  1.028  2.906  0.000    19.700     6.360
 307   8 O     -0.512  1.750  4.762  0.000    23.173     6.498
 308   1 H      0.155  0.845  0.000  0.000     1.365     1.830
 309   1 H      0.088  0.912  0.000  0.000     1.895     2.152
 310   1 H      0.053  0.947  0.000  0.000     2.276     2.359
 311   1 H      0.048  0.952  0.000  0.000     2.341     2.393
 312   1 H      0.314  0.686  0.000  0.000     0.681     1.296
 313   7 N     -0.399  1.318  4.080  0.000    30.332     8.180
 314   6 C      0.035  1.037  2.928  0.000    19.998     6.369
 315   6 C      0.205  1.081  2.714  0.000    23.646     7.964
 316   8 O     -0.373  1.742  4.631  0.000    21.146     6.165
 317   6 C     -0.075  1.031  3.044  0.000    21.921     6.663
 318   6 C      0.003  1.065  2.931  0.000    27.945     8.671
 319   6 C     -0.053  1.076  2.977  0.000    29.309     8.880
 320   6 C     -0.040  1.063  2.977  0.000    28.998     8.833
 321   6 C     -0.084  1.067  3.017  0.000    30.114     8.999
 322   6 C     -0.097  1.058  3.039  0.000    30.441     9.048
 323   6 C      0.143  1.037  2.820  0.000    24.878     8.175
 324   8 O     -0.402  1.678  4.723  0.000    20.884     6.169
 325   1 H      0.165  0.835  0.000  0.000     1.306     1.790
 326   1 H      0.080  0.920  0.000  0.000     1.983     2.202
 327   1 H      0.044  0.956  0.000  0.000     2.394     2.419
 328   1 H      0.055  0.945  0.000  0.000     2.262     2.352
 329   1 H      0.061  0.939  0.000  0.000     2.185     2.311
 330   1 H      0.022  0.978  0.000  0.000     2.706     2.573
 331   1 H      0.082  0.918  0.000  0.000     1.957     2.187
 332   1 H      0.031  0.969  0.000  0.000     2.568     2.506
 333   1 H      0.339  0.661  0.000  0.000     0.615     1.231
 334   7 N     -0.393  1.292  4.102  0.000    30.191     8.160
 335   6 C      0.050  1.031  2.919  0.000    19.752     6.330
 336   6 C      0.168  1.126  2.706  0.000    24.373     8.085
 337   8 O     -0.396  1.799  4.596  0.000    21.599     6.231
 338   6 C     -0.083  1.028  3.056  0.000    22.044     6.676
 339   6 C     -0.011  1.020  2.991  0.000    20.734     6.475
 340   6 C     -0.139  1.008  3.131  0.000    23.192     6.859
 341   6 C     -0.119  0.994  3.125  0.000    22.748     6.787
 342   1 H      0.182  0.818  0.000  0.000     1.201     1.717
 343   1 H      0.052  0.948  0.000  0.000     2.297     2.370
 344   1 H      0.048  0.952  0.000  0.000     2.349     2.397
 345   1 H      0.058  0.942  0.000  0.000     2.218     2.329
 346   1 H      0.050  0.950  0.000  0.000     2.314     2.378
 347   1 H      0.052  0.948  0.000  0.000     2.296     2.369
 348   1 H      0.045  0.955  0.000  0.000     2.386     2.415
 349   1 H      0.045  0.955  0.000  0.000     2.387     2.416
 350   1 H      0.040  0.960  0.000  0.000     2.444     2.445
 351   1 H      0.041  0.959  0.000  0.000     2.429     2.437
 352   1 H      0.045  0.955  0.000  0.000     2.378     2.411
 353   7 N     -0.390  1.306  4.085  0.000    30.104     8.149
 354   6 C      0.060  1.014  2.926  0.000    19.579     6.301
 355   6 C      0.193  1.097  2.710  0.000    23.871     8.002
 356   8 O     -0.404  1.776  4.628  0.000    21.769     6.255
 357   6 C     -0.135  1.010  3.125  0.000    23.115     6.849
 358   1 H      0.164  0.836  0.000  0.000     1.309     1.793
 359   1 H      0.055  0.945  0.000  0.000     2.253     2.347
 360   1 H      0.048  0.952  0.000  0.000     2.341     2.392
 361   1 H      0.076  0.924  0.000  0.000     2.023     2.224
 362   1 H      0.063  0.937  0.000  0.000     2.164     2.300
 363   7 N     -0.399  1.308  4.092  0.000    30.350     8.182
 364   6 C      0.036  1.038  2.927  0.000    19.989     6.368
 365   6 C      0.191  1.098  2.711  0.000    23.917     8.009
 366   8 O     -0.365  1.745  4.620  0.000    20.987     6.142
 367   6 C     -0.141  1.006  3.135  0.000    23.261     6.873
 368   1 H      0.174  0.826  0.000  0.000     1.250     1.751
 369   1 H      0.056  0.944  0.000  0.000     2.251     2.346
 370   1 H      0.071  0.929  0.000  0.000     2.074     2.252
 371   1 H      0.064  0.936  0.000  0.000     2.153     2.294
 372   1 H      0.065  0.935  0.000  0.000     2.140     2.287
 373   7 N     -0.408  1.314  4.094  0.000    30.609     8.217
 374   6 C      0.038  1.034  2.929  0.000    19.908     6.347
 375   6 C      0.259  1.043  2.698  0.000    22.648     7.796
 376   8 O     -0.507  1.750  4.757  0.000    23.937     6.560
 377   6 C     -0.069  1.006  3.063  0.000    21.791     6.641
 378   6 C     -0.032  1.055  2.977  0.000    28.748     8.794
 379   6 C     -0.024  1.065  2.959  0.000    28.565     8.767
 380   6 C     -0.026  1.081  2.945  0.000    28.538     8.756
 381   7 N     -0.131  1.218  3.913  0.000    23.849     7.253
 382   6 C      0.024  1.087  2.889  0.000    27.410     8.585
 383   6 C     -0.048  1.051  2.997  0.000    29.200     8.861
 384   6 C     -0.070  1.059  3.010  0.000    29.734     8.942
 385   6 C     -0.053  1.063  2.990  0.000    29.327     8.882
 386   6 C     -0.052  1.062  2.991  0.000    29.302     8.878
 387   1 H      0.166  0.834  0.000  0.000     1.297     1.784
 388   1 H      0.056  0.944  0.000  0.000     2.242     2.341
 389   1 H      0.049  0.951  0.000  0.000     2.335     2.390
 390   1 H      0.061  0.939  0.000  0.000     2.187     2.312
 391   1 H      0.046  0.954  0.000  0.000     2.365     2.405
 392   1 H      0.197  0.803  0.000  0.000     1.121     1.659
 393   1 H      0.043  0.957  0.000  0.000     2.404     2.425
 394   1 H      0.052  0.948  0.000  0.000     2.299     2.371
 395   1 H      0.028  0.972  0.000  0.000     2.613     2.528
 396   1 H      0.046  0.954  0.000  0.000     2.374     2.410
 397   7 N     -0.149  1.208  3.941  0.000    24.226     7.310
 398   6 C      0.021  1.045  2.934  0.000    20.224     6.403
 399   6 C      0.183  1.119  2.698  0.000    24.060     8.031
 400   8 O     -0.378  1.774  4.604  0.000    21.241     6.179
 401   6 C     -0.085  1.028  3.057  0.000    22.063     6.677
 402   6 C     -0.021  1.025  2.997  0.000    20.917     6.505
 403   6 C     -0.149  1.017  3.132  0.000    23.425     6.898
 404   6 C     -0.136  0.999  3.137  0.000    23.091     6.837
 405   1 H      0.234  0.766  0.000  0.000     0.947     1.524
 406   1 H      0.092  0.908  0.000  0.000     1.858     2.132
 407   1 H      0.057  0.943  0.000  0.000     2.238     2.339
 408   1 H      0.071  0.929  0.000  0.000     2.079     2.255
 409   1 H      0.054  0.946  0.000  0.000     2.269     2.355
 410   1 H      0.046  0.954  0.000  0.000     2.365     2.405
 411   1 H      0.059  0.941  0.000  0.000     2.206     2.323
 412   1 H      0.064  0.936  0.000  0.000     2.153     2.294
 413   1 H      0.042  0.958  0.000  0.000     2.422     2.433
 414   1 H      0.048  0.952  0.000  0.000     2.349     2.397
 415   1 H      0.051  0.949  0.000  0.000     2.310     2.376
 416   7 N     -0.404  1.294  4.111  0.000    30.491     8.201
 417   6 C      0.055  1.020  2.924  0.000    19.629     6.304
 418   6 C      0.238  1.085  2.677  0.000    23.016     7.857
 419   8 O     -0.557  1.813  4.744  0.000    25.076     6.714
 420   6 C     -0.059  0.993  3.066  0.000    21.566     6.599
 421   6 C     -0.004  1.012  2.993  0.000    20.600     6.452
 422   6 C     -0.128  1.004  3.124  0.000    22.977     6.828
 423   6 C     -0.133  1.006  3.127  0.000    23.008     6.821
 424   1 H      0.173  0.827  0.000  0.000     1.253     1.753
 425   1 H      0.049  0.951  0.000  0.000     2.332     2.388
 426   1 H      0.046  0.954  0.000  0.000     2.372     2.408
 427   1 H      0.057  0.943  0.000  0.000     2.235     2.337
 428   1 H      0.032  0.968  0.000  0.000     2.565     2.504
 429   1 H      0.053  0.947  0.000  0.000     2.282     2.362
 430   1 H      0.038  0.962  0.000  0.000     2.477     2.461
 431   1 H      0.038  0.962  0.000  0.000     2.469     2.457
 432   1 H      0.038  0.962  0.000  0.000     2.471     2.458
 433   1 H      0.041  0.959  0.000  0.000     2.437     2.441
 434   1 H      0.045  0.955  0.000  0.000     2.386     2.416
 435   7 N     -0.143  1.223  3.920  0.000    24.100     7.291
 436   6 C     -0.034  1.026  3.008  0.000    21.244     6.573
 437   6 C      0.207  1.081  2.711  0.000    23.601     7.956
 438   8 O     -0.393  1.774  4.619  0.000    21.547     6.223
 439   1 H      0.238  0.762  0.000  0.000     0.932     1.512
 440   1 H      0.109  0.891  0.000  0.000     1.708     2.044
 441   1 H      0.131  0.869  0.000  0.000     1.530     1.934
 442   7 N     -0.397  1.310  4.088  0.000    30.302     8.176
 443   6 C      0.027  1.038  2.935  0.000    20.128     6.390
 444   6 C      0.205  1.080  2.715  0.000    23.648     7.964
 445   8 O     -0.356  1.738  4.617  0.000    20.814     6.117
 446   6 C      0.035  1.042  2.923  0.000    20.330     6.481
 447   8 O     -0.523  1.782  4.741  0.000    23.425     6.532
 448   1 H      0.189  0.811  0.000  0.000     1.166     1.692
 449   1 H      0.078  0.922  0.000  0.000     2.002     2.212
 450   1 H      0.074  0.926  0.000  0.000     2.044     2.236
 451   1 H      0.077  0.923  0.000  0.000     2.006     2.214
 452   1 H      0.335  0.665  0.000  0.000     0.624     1.241
 453   7 N     -0.391  1.286  4.106  0.000    30.136     8.153
 454   6 C      0.027  1.043  2.929  0.000    20.145     6.396
 455   6 C      0.238  1.081  2.681  0.000    23.027     7.857
 456   8 O     -0.527  1.788  4.739  0.000    24.382     6.620
 457   6 C     -0.077  1.027  3.050  0.000    21.915     6.655
 458   6 C     -0.017  1.024  2.993  0.000    20.846     6.494
 459   6 C     -0.151  1.017  3.134  0.000    23.449     6.901
 460   6 C     -0.122  0.995  3.127  0.000    22.808     6.795
 461   1 H      0.188  0.812  0.000  0.000     1.168     1.693
 462   1 H      0.049  0.951  0.000  0.000     2.329     2.387
 463   1 H      0.037  0.963  0.000  0.000     2.493     2.469
 464   1 H      0.037  0.963  0.000  0.000     2.490     2.468
 465   1 H      0.053  0.947  0.000  0.000     2.279     2.361
 466   1 H      0.056  0.944  0.000  0.000     2.246     2.344
 467   1 H      0.050  0.950  0.000  0.000     2.318     2.381
 468   1 H      0.053  0.947  0.000  0.000     2.284     2.363
 469   1 H      0.047  0.953  0.000  0.000     2.353     2.399
 470   1 H      0.033  0.967  0.000  0.000     2.538     2.491
 471   1 H      0.048  0.952  0.000  0.000     2.346     2.395
 472   7 N     -0.153  1.218  3.935  0.000    24.302     7.322
 473   6 C     -0.026  1.018  3.008  0.000    21.089     6.546
 474   6 C      0.201  1.083  2.715  0.000    23.714     7.975
 475   8 O     -0.395  1.787  4.608  0.000    21.582     6.229
 476   1 H      0.244  0.756  0.000  0.000     0.906     1.491
 477   1 H      0.091  0.909  0.000  0.000     1.872     2.139
 478   1 H      0.126  0.874  0.000  0.000     1.565     1.956
 479   7 N     -0.400  1.290  4.110  0.000    30.361     8.183
 480   6 C     -0.021  1.025  2.995  0.000    21.096     6.567
 481   6 C      0.317  1.083  2.600  0.000    21.618     7.606
 482   8 O     -0.654  1.801  4.853  0.000    27.475     7.028
 483   8 O     -0.632  1.788  4.844  0.000    26.919     6.956
 484   1 H      0.171  0.829  0.000  0.000     1.268     1.764
 485   1 H      0.020  0.980  0.000  0.000     2.737     2.587
 486   1 H      0.036  0.964  0.000  0.000     2.509     2.477
 487   1 H      0.186  0.814  0.000  0.000     1.178     1.700
 488   1 H      0.085  0.915  0.000  0.000     1.929     2.172
 489   1 H      0.181  0.819  0.000  0.000     1.207     1.721
 490   1 H      0.087  0.913  0.000  0.000     1.909     2.160
 491   1 H      0.203  0.797  0.000  0.000     1.092     1.637
 492   1 H      0.069  0.931  0.000  0.000     2.092     2.262
 493   1 H      0.188  0.812  0.000  0.000     1.171     1.695
 494   1 H      0.083  0.917  0.000  0.000     1.952     2.185
 495   1 H      0.193  0.807  0.000  0.000     1.144     1.676
 496   1 H      0.063  0.937  0.000  0.000     2.158     2.297
 497   1 H      0.193  0.807  0.000  0.000     1.144     1.675
 498   1 H      0.088  0.912  0.000  0.000     1.895     2.153
 499   1 H      0.192  0.808  0.000  0.000     1.150     1.680
 500   1 H      0.064  0.936  0.000  0.000     2.151     2.293
 501   1 H      0.183  0.817  0.000  0.000     1.197     1.714
 502   1 H      0.086  0.914  0.000  0.000     1.923     2.168
 503   1 H      0.190  0.810  0.000  0.000     1.158     1.685
 504   1 H      0.078  0.922  0.000  0.000     1.999     2.211
 505   1 H      0.178  0.822  0.000  0.000     1.226     1.734
 506   1 H      0.080  0.920  0.000  0.000     1.977     2.199
 507   1 H      0.182  0.818  0.000  0.000     1.202     1.717
 508   1 H      0.088  0.912  0.000  0.000     1.903     2.157
 509   1 H      0.181  0.819  0.000  0.000     1.207     1.721
 510   1 H      0.088  0.912  0.000  0.000     1.901     2.156
 511   1 H      0.183  0.817  0.000  0.000     1.197     1.714
 512   1 H      0.074  0.926  0.000  0.000     2.041     2.234
 513   1 H      0.186  0.814  0.000  0.000     1.182     1.703
 514   1 H      0.097  0.903  0.000  0.000     1.816     2.107
 515   1 H      0.174  0.826  0.000  0.000     1.250     1.751

 Mol. C6AA /au·bohr⁶  :    2384703.773422
 Mol. C8AA /au·bohr⁸  :   52828287.363816
 Mol. α(0) /au        :       2319.338968

 
molecular dipole:
                 x           y           z       tot (Debye)
 q only:     -138.365    -129.956    -441.524
   full:     -140.392    -126.068    -442.208    1222.050
molecular quadrupole (traceless):
                xx          xy          yy          xz          yz          zz
 q only:    87838.810  -26795.835   89316.535  -91491.032  -86091.853 -177155.345
  q+dip:    87186.472  -26498.484   90798.237  -92903.710  -83683.186 -177984.709
   full:    87185.352  -26498.286   90795.445  -92908.026  -83676.693 -177980.797
speedup  1.46
cpu  time for grad   56.07 s
wall time for grad   38.33 s

SCC energy    :    -789.1314557
rep           :      12.8612373
ES            :       2.4426443
AES           :      -0.0476426
AXC           :       0.2192584
disp          :      -0.6502220
XB            :       0.0000000
fix           :       0.0000000
Gborn         :       0.0000000
Gsasa         :       0.0000000
Ghb           :       0.0000000
Gshift        :       0.0000000
Gsolv         :      -0.5809021     -364.52
Etot ala COSMO:    -789.1314557
grad norm     :       1.6050079
total E       :    -776.1990260
atomizationE  :     140.8281897    88371.02
(atE without considering molecular charge,
 total energy contains solvation terms)
H-L gap (eV)  :          1.3550

------------------------------------------------------------------------
 * finished run on 2019/05/12 at 13:12:24.283     
------------------------------------------------------------------------
 total:
 * wall-time:     0 d,  0 h,  0 min, 39.297 sec
 *  cpu-time:     0 d,  0 h,  0 min, 57.367 sec
 * ratio c/w:     1.460 speedup
 SCF:
 * wall-time:     0 d,  0 h,  0 min, 38.804 sec
 *  cpu-time:     0 d,  0 h,  0 min, 56.838 sec
 * ratio c/w:     1.465 speedup

