      -----------------------------------------------------------      
     |                   =====================                   |     
     |                           x T B                           |     
     |                   =====================                   |     
     |                         S. Grimme                         |     
     |          Mulliken Center for Theoretical Chemistry        |     
     |                    University of Bonn                     |     
     |                 Version 6.0.1 (SAW181210)                 |     
      -----------------------------------------------------------      

   This program is distributed in the hope that it will be useful,
   but WITHOUT ANY WARRANTY; without even the implied warranty of
   MERCHANTABILITY or FITNESS FOR A PARTICULAR PURPOSE.
   
   FOR NON-COMMERCIAL, ACADEMIA USE ONLY.
   
   Cite this work as:
   S. Grimme, C. Bannwarth, P. Shushkov, J. Comput. Theory Chem., 2017,
   13, 1989-2009.
   C. Bannwarth, S. Ehlert and S. Grimme., ChemRxiv, 2018, preprint.
   http://doi.org/10.26434/chemrxiv.7246238.v1
   
   for sTDA-xTB:
   S. Grimme and C. Bannwarth, J. Chem. Phys., 2016, 145, 054103.
   
   in the mass-spec context:
   V. Asgeirsson, C. Bauer and S. Grimme, Chem. Sci., 2017, 8, 4879.
   
   if GBSA is used:
   P. Shushkov, F. März and S. Grimme, unpublished.
   
   for ANC optimizer:
   S. Grimme, unpublished.
   Rational Function algorithm used in ANCopt:
   F. Eckert, P. Pulay, H.-J. Werner, J. Comput. Chem., 1997, 18, 1473.
   
   with help from (in alphabetical order)
   C. Bannwarth, F. Bohle, G. Brandenburg, E. Caldeweyher, M. Checinski,
   S. Dohm, S. Ehlert, S. Ehrlich, F. März, H. Neugebauer, J. Pisarek,
   P. Pracht, P. Shushkov, and S. Spicher.
   
 * started run on 2019/05/12 at 13:13:03.209     
========================================================================
 # omp threads = 2
========================================================================
number of atoms            : 358
number of electrons        : 980
charge                     : -2
spin                       : .0
first test random number   : .3651

########################################################################
# WARNING! Please study the warnings concerning your input carefully
#  - Process number higher than OMP_NUM_THREADS, I hope you know what you are doing.
########################################################################

           ------------------------------------------------- 
          |                 G F N 2 - x T B                 |
          | Geometry, Frequencies, Noncovalent interactions |
          |            JCTC 2018 parametrisation            |
           ------------------------------------------------- 
 
      method parameters     
 k(s)        :  1.8500
 k(p)        :  2.2300
 k(d)        :  2.2300
 k(f)        :  2.0000
 kEN (H0ij)  : -2.0000
 D4 a1       :  0.5200
 D4 a2       :  5.0000
 D4 s6       :  1.0000
 D4 s8       :  2.7000
 D4 s9       :  5.0000
 alphaj      :  2.0000

 Solvent             : h2o
 Using internal parameter file: .param_gbsa2_h2o
 Gsolv ref. state (COSMO-RS): gsolv [1 M gas/solution]
 temperature (mdtemp)       :    298.150000000000     
 dielectric constant        :    80.2000000000000     
 rho                        :    1.00000000000000     
 mass                       :    18.0000000000000     
 surface tension            :    15.5689454083859     
 probe radius               :   0.975313790000000     
 vdW radii scaling          :    1.00000000000000     
 Gshift (Eh)                :   1.857443126794793E-003
 c1                         :    1.55243817000000     
 soset                      :   0.130326360000000     
 HB correction              :  T

            Z     q(EN)     CN     RAES       Cart. coordinates
     1  N   5.0   -0.21    3.21    1.96    30.81847    63.95885   168.69835
     2  C   4.0    0.03    4.29    4.18    31.14221    66.38527   169.93711
     3  C   4.0    0.15    3.46    3.10    30.16626    68.54653   168.24947
     4  O   6.0   -0.31    1.27    1.80    30.98968    68.83802   166.08195
     5  C   4.0   -0.04    4.40    4.38    33.97734    66.93249   170.29450
     6  C   4.0   -0.03    4.18    3.97    35.30709    65.22697   172.16842
     7  C   4.0   -0.08    4.11    3.83    38.09914    64.99087   171.50459
     8  C   4.0   -0.08    4.13    3.85    35.02247    66.30490   174.81684
     9  H   1.0    0.08    1.02    1.43    31.83525    63.70932   167.09411
    10  H   1.0    0.04    1.05    1.44    30.12452    66.34115   171.72496
    11  H   1.0    0.05    1.03    1.43    34.85809    66.72648   168.42447
    12  H   1.0    0.05    1.03    1.43    34.22297    68.90954   170.85366
    13  H   1.0    0.03    1.06    1.44    34.44937    63.34420   172.09349
    14  H   1.0    0.03    1.00    1.43    39.08470    63.81014   172.87011
    15  H   1.0    0.04    1.00    1.43    38.36980    64.15145   169.64474
    16  H   1.0    0.05    1.00    1.43    39.04099    66.81298   171.47859
    17  H   1.0    0.03    1.00    1.43    35.83125    65.01840   176.19535
    18  H   1.0    0.04    1.00    1.43    36.02045    68.09969   174.96458
    19  H   1.0    0.04    1.00    1.43    33.04383    66.61969   175.26618
    20  N   5.0   -0.14    3.48    2.06    28.44674    70.11062   169.23246
    21  C   4.0    0.04    4.56    4.61    27.61410    72.22450   167.71360
    22  C   4.0    0.16    3.49    3.11    29.80685    74.08776   167.51684
    23  O   6.0   -0.32    1.34    1.80    31.17813    74.58397   169.29653
    24  C   4.0   -0.02    4.25    4.10    25.14018    73.32683   168.70712
    25  C   4.0   -0.07    4.13    3.86    24.42933    75.70690   167.25747
    26  C   4.0   -0.08    4.12    3.84    23.02110    71.36145   168.47949
    27  H   1.0    0.10    1.09    1.44    28.06777    70.13138   171.11761
    28  H   1.0    0.05    1.07    1.44    27.26222    71.48247   165.80660
    29  H   1.0    0.05    1.05    1.44    25.37904    73.78908   170.71287
    30  H   1.0    0.04    1.01    1.43    22.57941    76.34458   167.87109
    31  H   1.0    0.07    1.01    1.43    25.75970    77.22951   167.58672
    32  H   1.0    0.05    1.00    1.43    24.35647    75.33205   165.23828
    33  H   1.0    0.03    1.00    1.43    21.30316    72.11414   169.29672
    34  H   1.0    0.04    1.00    1.43    22.67853    70.94518   166.49967
    35  H   1.0    0.04    1.00    1.43    23.53027    69.62232   169.44578
    36  N   5.0   -0.14    3.49    2.07    30.26367    74.91606   165.19030
    37  C   4.0    0.04    4.40    4.38    32.23951    76.69909   164.59906
    38  C   4.0    0.15    3.47    3.10    34.88529    75.81073   165.42056
    39  O   6.0   -0.32    1.29    1.80    36.57348    77.31711   165.66567
    40  C   4.0   -0.02    4.33    4.26    31.76702    79.29839   165.82528
    41  C   4.0    0.15    3.21    3.04    29.32866    80.56751   164.94663
    42  O   6.0   -0.30    1.20    1.80    27.54065    80.82239   166.39013
    43  N   5.0   -0.18    3.17    1.95    29.29828    81.33736   162.50785
    44  H   1.0    0.11    1.10    1.44    28.96203    74.60098   163.79598
    45  H   1.0    0.05    1.05    1.44    32.27057    76.90095   162.53228
    46  H   1.0    0.06    1.04    1.43    31.64292    79.04782   167.85648
    47  H   1.0    0.05    1.03    1.43    33.38012    80.50734   165.38537
    48  H   1.0    0.11    1.03    1.43    27.78552    82.33359   161.91691
    49  H   1.0    0.08    1.03    1.43    30.87094    81.38994   161.46014
    50  N   5.0   -0.14    3.49    2.07    35.20241    73.32672   165.85653
    51  C   4.0    0.04    4.46    4.48    37.57579    72.37758   166.83825
    52  C   4.0    0.15    3.47    3.10    38.25393    73.43813   169.44382
    53  O   6.0   -0.31    1.31    1.80    40.40329    73.24842   170.24875
    54  C   4.0   -0.02    4.35    4.30    39.86251    72.86023   165.14686
    55  C   4.0    0.16    3.32    3.06    41.96071    71.08043   166.04674
    56  O   6.0   -0.31    1.22    1.80    41.59876    68.80071   166.05700
    57  N   5.0   -0.18    3.16    1.95    44.21905    72.11020   166.53430
    58  H   1.0    0.10    1.07    1.44    33.85540    72.05985   165.39179
    59  H   1.0    0.05    1.07    1.44    37.39731    70.32801   167.07111
    60  H   1.0    0.05    1.03    1.43    39.36108    72.37079   163.20195
    61  H   1.0    0.06    1.03    1.43    40.44380    74.82664   165.24816
    62  H   1.0    0.09    1.02    1.43    45.36158    70.97563   167.65945
    63  H   1.0    0.09    1.04    1.43    44.23964    73.96187   166.97487
    64  N   5.0   -0.14    3.51    2.08    36.37497    74.51929   170.76458
    65  C   4.0    0.04    4.40    4.39    36.92499    75.73905   173.15167
    66  C   4.0    0.14    3.40    3.08    34.73380    75.68939   175.04068
    67  O   6.0   -0.33    1.30    1.80    34.85789    76.90234   176.98971
    68  C   4.0   -0.03    4.27    4.14    37.92102    78.45342   172.79849
    69  C   4.0   -0.04    4.18    3.96    36.21269    80.11943   171.15597
    70  C   4.0   -0.05    4.15    3.91    36.85943    82.91999   171.50797
    71  C   4.0   -0.03    4.12    3.84    35.60630    84.00542   173.89293
    72  N   5.0   -0.12    4.03    2.94    37.24689    85.85101   175.25013
    73  H   1.0    0.11    1.11    1.45    34.66470    74.81194   169.95391
    74  H   1.0    0.05    1.06    1.44    38.45618    74.64865   174.04212
    75  H   1.0    0.06    1.03    1.43    38.12534    79.26484   174.68645
    76  H   1.0    0.05    1.03    1.43    39.78783    78.33695   171.94572
    77  H   1.0    0.06    1.04    1.43    36.47567    79.59296   169.18550
    78  H   1.0    0.05    1.03    1.43    34.23462    79.80190   171.65306
    79  H   1.0    0.04    1.03    1.43    38.91023    83.07382   171.65572
    80  H   1.0    0.04    1.02    1.43    36.24874    83.97513   169.85044
    81  H   1.0    0.04    1.02    1.43    33.83681    84.91865   173.38138
    82  H   1.0    0.05    1.03    1.43    35.20273    82.48480   175.21739
    83  H   1.0    0.05    1.03    1.43    36.20465    87.22996   176.07364
    84  H   1.0    0.10    1.10    1.44    38.19591    84.89160   176.73915
    85  H   1.0    0.05    1.02    1.43    38.53632    86.65986   174.05640
    86  N   5.0   -0.14    3.48    2.06    32.75952    74.17498   174.55726
    87  C   4.0    0.04    4.40    4.38    30.48463    74.40368   176.06157
    88  C   4.0    0.15    3.38    3.07    29.29560    71.76575   176.39539
    89  O   6.0   -0.33    1.27    1.80    28.07092    70.74107   174.70927
    90  C   4.0    0.05    4.15    3.91    28.70750    76.28798   174.75948
    91  O   6.0   -0.26    2.07    1.83    27.08860    77.41641   176.50743
    92  H   1.0    0.10    1.09    1.44    32.47210    73.53148   172.77086
    93  H   1.0    0.06    1.07    1.44    31.02113    75.16125   177.90362
    94  H   1.0    0.05    1.01    1.43    29.86990    77.73089   173.81712
    95  H   1.0    0.05    1.01    1.43    27.63166    75.28419   173.29136
    96  H   1.0    0.12    1.03    1.43    25.85404    78.42035   175.61801
    97  N   5.0   -0.14    3.44    2.04    29.78032    70.61757   178.59580
    98  C   4.0    0.03    4.41    4.39    28.64840    68.19202   179.26686
    99  C   4.0    0.15    3.46    3.10    25.93049    68.68682   180.12752
   100  O   6.0   -0.30    1.25    1.80    25.48977    70.33057   181.68735
   101  C   4.0   -0.05    4.38    4.35    29.98278    66.96984   181.50238
   102  C   4.0   -0.03    4.17    3.94    32.41802    65.54806   180.84780
   103  C   4.0   -0.09    4.11    3.82    33.82833    64.96049   183.31097
   104  C   4.0   -0.09    4.11    3.81    31.83281    63.08777   179.45847
   105  H   1.0    0.08    1.06    1.44    30.61680    71.56299   180.03772
   106  H   1.0    0.04    1.05    1.44    28.67353    66.98896   177.58516
   107  H   1.0    0.05    1.03    1.43    30.41092    68.45957   182.86770
   108  H   1.0    0.04    1.03    1.43    28.68877    65.64518   182.41848
   109  H   1.0    0.04    1.05    1.44    33.60969    66.77323   179.69421
   110  H   1.0    0.03    1.00    1.43    35.63478    64.08700   182.89903
   111  H   1.0    0.03    1.00    1.43    34.17908    66.68112   184.37993
   112  H   1.0    0.03    1.00    1.43    32.71743    63.68486   184.48100
   113  H   1.0    0.03    1.00    1.43    33.56510    62.06653   179.04881
   114  H   1.0    0.03    1.00    1.43    30.65142    61.89808   180.64143
   115  H   1.0    0.03    1.00    1.43    30.86205    63.43336   177.68688
   116  N   5.0   -0.13    3.48    2.06    24.11298    67.24058   179.11408
   117  C   4.0    0.03    4.41    4.40    21.49958    68.00368   179.29255
   118  C   4.0    0.07    3.23    3.04    19.93549    66.00567   180.59176
   119  O   6.0   -0.30    1.13    1.80    20.66723    63.86119   181.05272
   120  C   4.0   -0.03    4.25    4.10    20.42087    68.66241   176.65282
   121  C   4.0   -0.07    4.11    3.82    21.86936    70.88347   175.49525
   122  C   4.0   -0.08    4.12    3.84    20.47616    66.37626   174.90301
   123  H   1.0    0.07    1.06    1.44    24.55237    65.93766   177.78666
   124  H   1.0    0.06    1.07    1.44    21.48467    69.71555   180.45974
   125  H   1.0    0.03    1.05    1.44    18.45064    69.23917   176.91035
   126  H   1.0    0.04    1.00    1.43    21.00041    71.43403   173.72266
   127  H   1.0    0.05    1.00    1.43    21.80024    72.50789   176.75874
   128  H   1.0    0.06    1.01    1.43    23.83014    70.40746   175.14952
   129  H   1.0    0.03    1.00    1.43    19.52382    66.84687   173.14373
   130  H   1.0    0.04    1.00    1.43    22.40114    65.82516   174.43163
   131  H   1.0    0.04    1.00    1.43    19.51441    64.76965   175.76544
   132  N   5.0   -0.22    3.25    1.97     9.37924    74.23630   169.41740
   133  C   4.0    0.02    4.41    4.40    11.99739    74.61253   168.70210
   134  C   4.0    0.14    3.44    3.09    12.20610    76.82899   166.85393
   135  O   6.0   -0.33    1.28    1.80    14.03420    78.26115   166.84894
   136  C   4.0   -0.03    4.33    4.26    13.21712    72.26020   167.54484
   137  C   4.0   -0.06    4.19    3.99    12.77346    69.85131   169.07915
   138  C   4.0   -0.08    4.15    3.89    16.05042    72.72822   167.24543
   139  C   4.0   -0.08    4.03    3.67    13.54378    70.06298   171.84511
   140  H   1.0    0.07    1.02    1.43     8.58223    72.50261   169.39989
   141  H   1.0    0.04    1.05    1.44    13.05648    75.20059   170.39516
   142  H   1.0    0.03    1.05    1.44    12.37723    71.98021   165.66750
   143  H   1.0    0.03    1.03    1.43    10.79144    69.31492   168.99892
   144  H   1.0    0.03    1.03    1.43    13.86627    68.34369   168.18125
   145  H   1.0    0.03    1.00    1.43    16.94783    71.07095   166.42139
   146  H   1.0    0.05    1.00    1.43    16.40248    74.34275   166.02466
   147  H   1.0    0.04    1.00    1.43    16.90713    73.12292   169.06232
   148  H   1.0    0.03    1.00    1.43    13.32553    68.23201   172.75314
   149  H   1.0    0.03    1.00    1.43    15.50066    70.64478   172.04132
   150  H   1.0    0.04    1.00    1.43    12.35544    71.41512   172.83516
   151  N   5.0   -0.15    3.47    2.06    10.38334    76.96867   165.12717
   152  C   4.0    0.03    4.32    4.23    10.46172    78.81228   163.08474
   153  C   4.0    0.08    3.24    3.04    10.07316    81.46193   164.17157
   154  O   6.0   -0.32    1.17    1.80    11.47676    83.25004   163.68805
   155  C   4.0   -0.05    4.31    4.22     8.40723    78.17792   161.13036
   156  C   4.0   -0.02    3.54    3.14     8.73701    79.60125   158.68367
   157  C   4.0   -0.05    3.47    3.10    10.82969    79.11806   157.16468
   158  C   4.0   -0.05    3.45    3.09     6.97320    81.37208   157.88311
   159  C   4.0   -0.06    3.43    3.09    11.13070    80.31720   154.87277
   160  C   4.0   -0.05    3.43    3.09     7.27092    82.60720   155.60694
   161  C   4.0    0.06    3.44    3.09     9.34073    82.07366   154.05827
   162  O   6.0   -0.26    2.11    1.84     9.52355    83.26230   151.79645
   163  H   1.0    0.07    1.07    1.44     9.02353    75.62207   165.04625
   164  H   1.0    0.05    1.05    1.44    12.34976    78.76866   162.22116
   165  H   1.0    0.03    1.03    1.43     8.53390    76.15078   160.76794
   166  H   1.0    0.03    1.03    1.43     6.56726    78.56213   161.97160
   167  H   1.0    0.04    1.03    1.43    12.22316    77.76920   157.79022
   168  H   1.0    0.04    1.03    1.43     5.37313    81.79232   159.07386
   169  H   1.0    0.04    1.03    1.43    12.74972    79.90750   153.70543
   170  H   1.0    0.05    1.03    1.43     5.98250    84.08482   155.04145
   171  H   1.0    0.11    1.03    1.43    11.14510    82.84051   151.02210
   172  N   5.0   -0.19    3.27    1.97    11.22899    83.52067   169.36800
   173  C   4.0    0.04    4.33    4.25    13.19501    84.32235   171.07425
   174  C   4.0    0.15    3.42    3.08    15.82525    84.57408   169.91436
   175  O   6.0   -0.30    1.23    1.80    17.40658    85.93009   170.94455
   176  C   4.0   -0.03    4.28    4.17    13.35616    82.48571   173.28430
   177  C   4.0    0.25    3.10    3.02    10.88589    82.34681   174.90169
   178  O   6.0   -0.30    1.20    1.80     9.17777    83.87522   174.37926
   179  O   6.0   -0.30    1.16    1.80    10.80775    80.72071   176.59702
   180  H   1.0    0.09    1.03    1.43    10.59972    81.73221   169.64282
   181  H   1.0    0.06    1.05    1.44    12.69732    86.21046   171.80032
   182  H   1.0    0.05    1.03    1.43    13.74592    80.58007   172.60336
   183  H   1.0    0.06    1.02    1.43    14.90694    83.02238   174.54143
   184  N   5.0   -0.14    3.49    2.07    16.24205    83.33002   167.73429
   185  C   4.0    0.04    4.41    4.40    18.77875    83.18120   166.73076
   186  C   4.0    0.15    3.46    3.10    18.92169    83.50910   163.86389
   187  O   6.0   -0.29    1.29    1.80    20.91774    83.10757   162.72580
   188  C   4.0   -0.02    4.34    4.27    20.11968    80.67670   167.40279
   189  C   4.0   -0.01    3.56    3.14    19.93966    79.99432   170.14542
   190  C   4.0   -0.05    3.49    3.11    18.07337    78.32320   170.94582
   191  C   4.0   -0.03    3.45    3.10    21.60157    80.94601   171.93737
   192  C   4.0   -0.04    3.43    3.09    17.84624    77.62675   173.44113
   193  C   4.0   -0.04    3.43    3.09    21.38818    80.26847   174.45845
   194  C   4.0    0.07    3.44    3.09    19.48213    78.63272   175.23960
   195  O   6.0   -0.24    2.10    1.84    19.12477    77.96681   177.71422
   196  H   1.0    0.11    1.09    1.44    15.04759    81.89265   167.30777
   197  H   1.0    0.07    1.07    1.44    19.83231    84.75306   167.58726
   198  H   1.0    0.05    1.03    1.43    19.22991    79.18963   166.27972
   199  H   1.0    0.06    1.03    1.43    22.08603    80.86597   166.81481
   200  H   1.0    0.07    1.06    1.44    16.76477    77.60728   169.56822
   201  H   1.0    0.06    1.03    1.43    23.07637    82.23112   171.35531
   202  H   1.0    0.05    1.03    1.43    16.36786    76.37198   174.07835
   203  H   1.0    0.05    1.03    1.43    22.63310    81.09765   175.85188
   204  H   1.0    0.12    1.03    1.43    20.31525    78.85494   178.77896
   205  N   5.0   -0.13    3.47    2.06    16.81894    84.18724   162.64230
   206  C   4.0    0.03    4.43    4.42    16.98105    84.63583   159.92219
   207  C   4.0    0.17    3.53    3.13    19.14115    86.50333   159.44621
   208  O   6.0   -0.28    1.26    1.80    19.63281    88.25179   160.90075
   209  C   4.0   -0.05    4.23    4.07    14.47902    85.53676   158.77266
   210  C   4.0   -0.04    4.21    4.02    14.15935    88.41313   158.66801
   211  C   4.0   -0.05    4.15    3.91    11.56486    89.29501   159.57412
   212  C   4.0   -0.03    4.15    3.90    11.45964    89.10332   162.45458
   213  N   5.0   -0.13    4.00    2.86     9.03161    90.03732   163.52968
   214  H   1.0    0.10    1.08    1.44    15.17115    84.44544   163.57678
   215  H   1.0    0.04    1.06    1.44    17.55404    82.84254   159.04502
   216  H   1.0    0.04    1.03    1.43    14.34959    84.76192   156.86856
   217  H   1.0    0.06    1.04    1.43    12.96237    84.66713   159.87127
   218  H   1.0    0.07    1.05    1.44    15.58982    89.32002   159.83567
   219  H   1.0    0.05    1.03    1.43    14.48793    89.07463   156.74761
   220  H   1.0    0.03    1.02    1.43    11.30037    91.25922   158.98392
   221  H   1.0    0.04    1.02    1.43    10.09994    88.13902   158.69866
   222  H   1.0    0.06    1.04    1.44    11.68994    87.14246   163.01012
   223  H   1.0    0.04    1.02    1.43    13.00023    90.19693   163.27146
   224  H   1.0    0.05    1.01    1.43     9.02898    89.48176   165.43715
   225  H   1.0    0.04    1.03    1.43     8.88611    91.92514   163.36768
   226  H   1.0    0.05    1.02    1.43     7.53071    89.21742   162.57244
   227  N   5.0   -0.13    3.47    2.06    20.46037    86.08148   157.37019
   228  C   4.0    0.04    4.29    4.18    22.54129    87.67869   156.59056
   229  C   4.0    0.09    3.20    3.04    21.57202    90.17397   155.43831
   230  O   6.0   -0.29    1.13    1.80    19.35217    90.77457   155.36600
   231  C   4.0   -0.04    4.26    4.11    24.16638    86.22241   154.69669
   232  C   4.0    0.24    3.08    3.02    26.86688    87.21633   154.21335
   233  O   6.0   -0.29    1.16    1.80    28.55327    86.55827   155.76249
   234  O   6.0   -0.29    1.16    1.80    27.31426    88.46883   152.27050
   235  H   1.0    0.07    1.07    1.44    19.89254    84.82370   156.04488
   236  H   1.0    0.07    1.05    1.44    23.64457    88.18476   158.28429
   237  H   1.0    0.05    1.03    1.43    24.36475    84.29804   155.42132
   238  H   1.0    0.05    1.03    1.43    23.15531    86.14736   152.89900
   239  N   5.0   -0.21    3.24    1.96    19.17102    77.91224   153.75011
   240  C   4.0    0.03    4.42    4.42    20.18771    77.46108   156.25691
   241  C   4.0    0.14    3.46    3.10    22.31800    75.53623   155.94858
   242  O   6.0   -0.31    1.24    1.80    21.97000    73.45380   154.98282
   243  C   4.0   -0.02    4.26    4.12    18.20127    76.61037   158.16771
   244  C   4.0   -0.08    4.13    3.85    16.63183    74.41637   157.20201
   245  C   4.0   -0.07    4.15    3.89    19.56299    75.94467   160.61368
   246  H   1.0    0.08    1.02    1.43    18.45805    76.41081   152.78991
   247  H   1.0    0.04    1.06    1.44    20.97934    79.26963   156.89192
   248  H   1.0    0.04    1.05    1.44    16.95917    78.23559   158.52560
   249  H   1.0    0.03    1.00    1.43    15.30581    73.80398   158.65636
   250  H   1.0    0.03    1.00    1.43    15.56885    74.92842   155.52367
   251  H   1.0    0.05    1.01    1.43    17.87285    72.83973   156.75610
   252  H   1.0    0.04    1.00    1.43    18.20466    75.42887   162.07960
   253  H   1.0    0.05    1.00    1.43    20.83343    74.35102   160.34394
   254  H   1.0    0.05    1.00    1.43    20.65043    77.54123   161.32018
   255  N   5.0   -0.14    3.45    2.05    24.60696    76.34506   156.61210
   256  C   4.0    0.03    4.40    4.38    26.86781    74.83782   156.26013
   257  C   4.0    0.14    3.39    3.08    27.44877    73.31209   158.68494
   258  O   6.0   -0.32    1.27    1.80    27.29290    74.26588   160.78692
   259  C   4.0   -0.03    4.32    4.23    29.16655    76.52323   155.71185
   260  C   4.0   -0.01    3.52    3.12    29.25252    77.66263   153.10100
   261  C   4.0   -0.04    3.45    3.10    27.58142    79.55257   152.32707
   262  C   4.0   -0.05    3.47    3.10    31.17025    76.94634   151.45603
   263  C   4.0   -0.03    3.42    3.09    27.87015    80.76516   150.03976
   264  C   4.0   -0.05    3.43    3.09    31.46669    78.12425   149.14696
   265  C   4.0    0.07    3.44    3.09    29.85140    80.07518   148.43296
   266  O   6.0   -0.25    2.11    1.84    30.18904    81.36830   146.23427
   267  H   1.0    0.08    1.07    1.44    24.80447    77.95640   157.61422
   268  H   1.0    0.05    1.06    1.44    26.51231    73.52031   154.71413
   269  H   1.0    0.05    1.03    1.43    29.18601    78.03289   157.12525
   270  H   1.0    0.04    1.04    1.43    30.86451    75.38109   155.97435
   271  H   1.0    0.05    1.03    1.43    26.07314    80.16208   153.55877
   272  H   1.0    0.05    1.03    1.43    32.49977    75.49049   151.97370
   273  H   1.0    0.06    1.03    1.43    26.64185    82.29015   149.49469
   274  H   1.0    0.04    1.03    1.43    32.99527    77.53990   147.92546
   275  H   1.0    0.11    1.04    1.43    31.59792    80.66862   145.30214
   276  N   5.0   -0.14    3.50    2.07    28.16840    70.93502   158.26739
   277  C   4.0    0.04    4.34    4.27    28.75023    69.10396   160.16976
   278  C   4.0    0.08    3.26    3.05    31.16618    67.75237   159.45004
   279  O   6.0   -0.30    1.14    1.80    31.57340    67.15609   157.25309
   280  C   4.0   -0.04    4.41    4.40    26.71665    67.05237   160.28854
   281  C   4.0   -0.04    4.08    3.76    24.16387    68.18882   160.91091
   282  S   6.0   -0.06    2.50    3.10    22.04673    65.61519   161.75028
   283  C   4.0   -0.08    3.87    3.43    19.08897    67.34981   162.21337
   284  H   1.0    0.08    1.07    1.44    28.05762    70.22161   156.48267
   285  H   1.0    0.06    1.05    1.44    28.95506    70.05475   162.00042
   286  H   1.0    0.05    1.04    1.43    26.61852    66.09142   158.47266
   287  H   1.0    0.04    1.05    1.44    27.23009    65.68880   161.75018
   288  H   1.0    0.04    1.07    1.44    24.26575    69.44927   162.53669
   289  H   1.0    0.05    1.06    1.44    23.35747    69.19362   159.30436
   290  H   1.0    0.03    1.04    1.43    17.77414    66.09406   163.14404
   291  H   1.0    0.03    1.04    1.43    19.48241    68.97186   163.40593
   292  H   1.0    0.04    1.03    1.43    18.35461    67.94586   160.39691
   293  N   5.0   -0.20    3.23    1.96    50.40749    71.21553   180.55811
   294  C   4.0    0.03    4.27    4.15    49.66966    73.77917   179.97695
   295  C   4.0    0.25    3.16    3.03    51.26986    75.75694   181.53093
   296  O   6.0   -0.30    1.16    1.80    51.01973    78.01232   180.98177
   297  C   4.0   -0.04    4.32    4.24    46.86250    74.21918   180.59408
   298  C   4.0   -0.02    3.58    3.15    45.21431    72.34193   179.26583
   299  C   4.0   -0.04    3.47    3.10    44.52862    72.67898   176.75962
   300  C   4.0   -0.05    3.48    3.10    44.40104    70.17278   180.50054
   301  C   4.0   -0.04    3.38    3.07    43.05851    70.90807   175.51993
   302  C   4.0   -0.05    3.38    3.07    42.93064    68.39485   179.26101
   303  C   4.0   -0.05    3.37    3.07    42.25321    68.76054   176.77217
   304  O   6.0   -0.30    1.18    1.80    52.65717    74.85474   183.22474
   305  H   1.0    0.08    1.02    1.43    50.07960    70.63847   182.35991
   306  H   1.0    0.04    1.05    1.44    50.00354    74.09087   177.96221
   307  H   1.0    0.04    1.03    1.43    46.59891    74.04407   182.64129
   308  H   1.0    0.05    1.03    1.43    46.39704    76.14836   180.04605
   309  H   1.0    0.05    1.03    1.43    45.16470    74.34636   175.76075
   310  H   1.0    0.04    1.03    1.43    44.90675    69.87762   182.45995
   311  H   1.0    0.07    1.03    1.43    42.55890    71.18967   173.55970
   312  H   1.0    0.04    1.03    1.43    42.31919    66.72582   180.26616
   313  H   1.0    0.04    1.03    1.43    41.12903    67.38182   175.77657
   314  N   5.0   -0.19    3.27    1.97    30.64166    77.06575   184.44496
   315  C   4.0    0.03    4.38    4.35    32.05108    78.34539   182.50053
   316  C   4.0    0.15    3.41    3.08    34.63875    79.12948   183.52651
   317  O   6.0   -0.30    1.24    1.80    34.89341    79.68643   185.75589
   318  C   4.0    0.06    4.25    4.10    30.52842    80.70495   181.69392
   319  O   6.0   -0.26    2.13    1.84    27.97485    80.06780   181.40536
   320  C   4.0   -0.07    4.07    3.75    31.66017    81.91202   179.33140
   321  H   1.0    0.09    1.03    1.43    30.15827    78.15961   185.94641
   322  H   1.0    0.05    1.05    1.44    32.28419    77.02841   180.92950
   323  H   1.0    0.05    1.05    1.44    30.57401    82.05228   183.25847
   324  H   1.0    0.13    1.03    1.43    27.74733    78.94921   179.93935
   325  H   1.0    0.04    1.00    1.43    30.46152    83.46121   178.71960
   326  H   1.0    0.06    1.00    1.43    33.54023    82.61874   179.75105
   327  H   1.0    0.06    1.00    1.43    31.78988    80.51413   177.83358
   328  N   5.0   -0.14    3.48    2.07    36.47072    79.26193   181.81838
   329  C   4.0    0.04    4.36    4.32    39.05981    79.90477   182.39954
   330  C   4.0    0.25    3.16    3.03    39.97250    82.27947   180.84556
   331  O   6.0   -0.30    1.16    1.80    42.05079    83.19054   181.39472
   332  C   4.0   -0.03    4.32    4.24    40.84445    77.69371   181.78241
   333  C   4.0   -0.01    3.57    3.15    40.04279    75.32770   183.11066
   334  C   4.0   -0.04    3.47    3.10    40.67754    74.90240   185.61688
   335  C   4.0   -0.03    3.48    3.10    38.57089    73.53882   181.87595
   336  C   4.0   -0.04    3.38    3.07    39.87893    72.74380   186.85656
   337  C   4.0   -0.04    3.38    3.07    37.76636    71.37645   183.11548
   338  C   4.0   -0.05    3.37    3.07    38.42177    70.97262   185.60432
   339  O   6.0   -0.33    1.32    1.80    38.49752    83.02981   179.15175
   340  H   1.0    0.10    1.09    1.44    36.13491    78.68944   180.01658
   341  H   1.0    0.06    1.06    1.44    39.16281    80.34977   184.41428
   342  H   1.0    0.05    1.03    1.43    40.82460    77.37787   179.73520
   343  H   1.0    0.05    1.03    1.43    42.74790    78.25519   182.33045
   344  H   1.0    0.05    1.03    1.43    41.80348    76.28696   186.61574
   345  H   1.0    0.06    1.03    1.43    38.06242    73.82919   179.91654
   346  H   1.0    0.04    1.03    1.43    40.37261    72.45192   188.81679
   347  H   1.0    0.04    1.03    1.43    36.62666    70.01241   182.11033
   348  H   1.0    0.04    1.03    1.43    37.78985    69.30970   186.59992
   349  H   1.0    0.10    1.08    1.44    29.19073    76.46469   183.79220
   350  H   1.0    0.08    1.07    1.44    31.28385    62.71339   169.75892
   351  H   1.0    0.04    1.05    1.44    18.16973    66.39633   181.13997
   352  H   1.0    0.09    1.07    1.44     9.14906    74.75293   171.02135
   353  H   1.0    0.05    1.05    1.44     8.62305    81.80297   165.33430
   354  H   1.0    0.10    1.07    1.44     9.88009    84.54288   169.53568
   355  H   1.0    0.06    1.05    1.44    22.79383    91.40794   154.69294
   356  H   1.0    0.08    1.07    1.44    17.88924    79.02569   153.84925
   357  H   1.0    0.06    1.05    1.44    32.44802    67.33831   160.77538
   358  H   1.0    0.09    1.08    1.44    49.55739    70.13845   179.55323

  Z AO/shell   Hii/eV     exponent
  1     Wed Apr 25 08:07:45 CEST 2018   EN: 2.200 GM2: 0.406  GM3: 0.0800  RAES: 1.40
     1s    -10.707211    1.230000
  6     Wed Apr 25 08:07:45 CEST 2018   EN: 2.550 GM2: 0.538  GM3: 0.1500  RAES: 3.00
     2s    -13.970922    2.096432
     2p    -10.063292    1.800000
  7     Wed Apr 25 08:07:45 CEST 2018   EN: 3.040 GM2: 0.461  GM3:-0.0640  RAES: 1.90
     2s    -16.686243    2.339881
     2p    -12.523956    2.014332
  8     Wed Apr 25 08:07:45 CEST 2018   EN: 3.440 GM2: 0.452  GM3:-0.0517  RAES: 1.80
     2s    -20.229985    2.439742
     2p    -15.503117    2.137023
 16     Tue Apr 24 11:44:34 CEST 2018   EN: 2.580 GM2: 0.340  GM3:-0.0502  RAES: 3.10
     3s    -20.029654    1.981333
     3p    -11.377694    2.025643
     3d     -0.420282    1.702555
 no old-style atom pair restraining (fixing) potential

molecular fragmentation (1/2 indicates fragments):
111111111111111111111111111111111111111111111111111111111111111111111111
111111111111111111111111111111111111111111111111111111111112222222222222
222222222222222222222222222222222222222222222222222222222222222222222222
222222222222222222222222222222222222222222222222222222222222222222222222
2222222222222222222222222222222222222222222222222222222222222112222222
# atoms in fragment 1/2:   133   225
 fragment masses (1/2) :      871.06     1625.87
CMA distance (Bohr)    :  10.627
constraining FC (au)   :  0.0500
           ------------------------------------------------- 
          |        Self-Consistent Charge Iterations        |
           ------------------------------------------------- 

 Ncao       : 892
 Nao        : 891
 Nshell     : 535
 Nel        : 980
 T(el)      :   500.0
 intcut     :    35.0
 scfconv/Eh :  0.100E-06
   qconv/e  :  0.100E-04
 intneglect :  0.100E-08
 broydamp   :      0.400
 iter      E             dE          RMSdq      gap      omega  full diag
   1   -559.5671262 -0.559567E+03  0.460E+00    3.14       0.0  T
   2   -560.8436842 -0.127656E+01  0.220E+00    1.64       1.0  T
   3   -560.9144731 -0.707889E-01  0.120E+00    1.69       1.0  T
   4   -560.9951302 -0.806571E-01  0.255E-01    0.88       1.0  T
   5   -560.9999277 -0.479752E-02  0.126E-01    1.02       1.0  T
   6   -561.0008677 -0.939964E-03  0.551E-02    1.04       1.0  T
   7   -561.0011472 -0.279448E-03  0.214E-02    1.06       1.0  T
   8   -561.0011780 -0.308205E-04  0.103E-02    1.07       1.0  T
   9   -561.0011856 -0.767542E-05  0.437E-03    1.08       1.2  T
  10   -561.0011871 -0.141998E-05  0.195E-03    1.08       2.7  T
  11   -561.0011873 -0.269517E-06  0.827E-04    1.08       6.4  T
  12   -561.0011874 -0.460175E-07  0.384E-04    1.08      13.8  T
  13   -561.0011874 -0.146146E-07  0.199E-04    1.08      26.5  T
  14   -561.0011874 -0.286514E-08  0.897E-05    1.08      58.9  T
  15   -561.0011874 -0.735668E-09  0.406E-05    1.08     130.2  T
speedup  1.93
cpu  time for SCC   15.67 s
wall time for SCC    8.13 s

   *** convergence criteria satisfied after 15 iterations ***

          eigenvalues
 #    :         478        479        480        481        482        483        484        485
 occ. :        2.000      2.000      2.000      2.000      2.000      2.000      2.000      2.000
 eps  :       -10.228    -10.178    -10.163    -10.149    -10.122    -10.121     -9.990     -9.957
 #    :         486        487        488        489        490        491        492        493
 occ. :        2.000      2.000      2.000      2.000      2.000      0.000      0.000      0.000
 eps  :        -9.928     -9.807     -9.706     -9.698     -9.264     -8.186     -8.100     -7.864
 #    :         494        495        496        497        498        499        500        501
 occ. :        0.000      0.000      0.000      0.000      0.000      0.000      0.000      0.000
 eps  :        -7.816     -6.845     -6.670     -6.611     -6.596     -6.587     -6.408     -6.243


   #   Z            q   n(s)   n(p)   n(d)      C6AA      α(0)
   1   7 N     -0.383  1.318  4.065  0.000    29.893     8.120
   2   6 C      0.030  1.060  2.910  0.000    20.083     6.384
   3   6 C      0.265  1.055  2.681  0.000    22.535     7.775
   4   8 O     -0.511  1.745  4.766  0.000    24.026     6.572
   5   6 C     -0.061  1.058  3.003  0.000    21.656     6.623
   6   6 C     -0.010  1.054  2.956  0.000    20.719     6.474
   7   6 C     -0.106  1.038  3.068  0.000    22.579     6.774
   8   6 C     -0.111  1.041  3.071  0.000    22.675     6.788
   9   1 H      0.161  0.839  0.000  0.000     1.331     1.807
  10   1 H      0.043  0.957  0.000  0.000     2.404     2.425
  11   1 H      0.037  0.963  0.000  0.000     2.490     2.468
  12   1 H      0.008  0.992  0.000  0.000     2.922     2.673
  13   1 H      0.043  0.957  0.000  0.000     2.406     2.426
  14   1 H      0.043  0.957  0.000  0.000     2.412     2.429
  15   1 H      0.038  0.962  0.000  0.000     2.478     2.462
  16   1 H      0.024  0.976  0.000  0.000     2.674     2.557
  17   1 H      0.053  0.947  0.000  0.000     2.289     2.366
  18   1 H      0.023  0.977  0.000  0.000     2.684     2.562
  19   1 H      0.039  0.961  0.000  0.000     2.464     2.455
  20   7 N     -0.176  1.254  3.922  0.000    24.802     7.396
  21   6 C      0.021  1.063  2.916  0.000    20.206     6.398
  22   6 C      0.282  1.043  2.676  0.000    22.232     7.721
  23   8 O     -0.499  1.729  4.770  0.000    23.753     6.534
  24   6 C     -0.016  1.060  2.955  0.000    20.818     6.490
  25   6 C     -0.123  1.038  3.085  0.000    22.911     6.824
  26   6 C     -0.119  1.043  3.077  0.000    22.841     6.814
  27   1 H      0.225  0.775  0.000  0.000     0.989     1.558
  28   1 H      0.068  0.932  0.000  0.000     2.103     2.268
  29   1 H      0.040  0.960  0.000  0.000     2.449     2.447
  30   1 H      0.055  0.945  0.000  0.000     2.257     2.349
  31   1 H      0.044  0.956  0.000  0.000     2.391     2.418
  32   1 H      0.045  0.955  0.000  0.000     2.377     2.411
  33   1 H      0.054  0.946  0.000  0.000     2.265     2.354
  34   1 H      0.046  0.954  0.000  0.000     2.367     2.406
  35   1 H      0.061  0.939  0.000  0.000     2.183     2.311
  36   7 N     -0.187  1.255  3.932  0.000    25.051     7.434
  37   6 C      0.020  1.062  2.918  0.000    20.246     6.408
  38   6 C      0.278  1.038  2.684  0.000    22.291     7.731
  39   8 O     -0.451  1.731  4.720  0.000    22.727     6.392
  40   6 C     -0.103  1.059  3.044  0.000    22.458     6.746
  41   6 C      0.288  1.038  2.674  0.000    22.119     7.701
  42   8 O     -0.477  1.751  4.726  0.000    23.291     6.470
  43   7 N     -0.278  1.262  4.017  0.000    27.196     7.745
  44   1 H      0.235  0.765  0.000  0.000     0.943     1.521
  45   1 H      0.082  0.918  0.000  0.000     1.960     2.189
  46   1 H      0.078  0.922  0.000  0.000     1.996     2.209
  47   1 H      0.093  0.907  0.000  0.000     1.851     2.128
  48   1 H      0.216  0.784  0.000  0.000     1.030     1.590
  49   1 H      0.223  0.777  0.000  0.000     0.995     1.563
  50   7 N     -0.186  1.240  3.946  0.000    25.033     7.431
  51   6 C      0.032  1.055  2.912  0.000    20.031     6.372
  52   6 C      0.279  1.040  2.681  0.000    22.278     7.730
  53   8 O     -0.479  1.743  4.736  0.000    23.318     6.474
  54   6 C     -0.098  1.060  3.038  0.000    22.355     6.730
  55   6 C      0.300  1.037  2.663  0.000    21.908     7.664
  56   8 O     -0.492  1.745  4.747  0.000    23.617     6.516
  57   7 N     -0.285  1.304  3.981  0.000    27.358     7.768
  58   1 H      0.208  0.792  0.000  0.000     1.064     1.616
  59   1 H      0.083  0.917  0.000  0.000     1.947     2.182
  60   1 H      0.083  0.917  0.000  0.000     1.945     2.181
  61   1 H      0.075  0.925  0.000  0.000     2.030     2.228
  62   1 H      0.229  0.771  0.000  0.000     0.971     1.544
  63   1 H      0.224  0.776  0.000  0.000     0.992     1.561
  64   7 N     -0.195  1.249  3.946  0.000    25.235     7.461
  65   6 C      0.025  1.058  2.917  0.000    20.161     6.394
  66   6 C      0.274  1.044  2.682  0.000    22.366     7.745
  67   8 O     -0.471  1.734  4.737  0.000    23.142     6.450
  68   6 C     -0.071  1.054  3.017  0.000    21.862     6.657
  69   6 C     -0.071  1.050  3.021  0.000    21.860     6.657
  70   6 C     -0.089  1.056  3.033  0.000    22.205     6.709
  71   6 C     -0.040  1.055  2.985  0.000    21.389     6.602
  72   7 N     -0.174  1.241  3.933  0.000    24.753     7.389
  73   1 H      0.217  0.783  0.000  0.000     1.024     1.585
  74   1 H      0.076  0.924  0.000  0.000     2.019     2.222
  75   1 H      0.064  0.936  0.000  0.000     2.157     2.297
  76   1 H      0.055  0.945  0.000  0.000     2.253     2.347
  77   1 H      0.070  0.930  0.000  0.000     2.086     2.258
  78   1 H      0.034  0.966  0.000  0.000     2.524     2.485
  79   1 H      0.075  0.925  0.000  0.000     2.033     2.230
  80   1 H      0.082  0.918  0.000  0.000     1.955     2.187
  81   1 H      0.108  0.892  0.000  0.000     1.711     2.046
  82   1 H      0.099  0.901  0.000  0.000     1.797     2.096
  83   1 H      0.283  0.717  0.000  0.000     0.767     1.372
  84   1 H      0.301  0.699  0.000  0.000     0.711     1.321
  85   1 H      0.282  0.718  0.000  0.000     0.770     1.375
  86   7 N     -0.190  1.261  3.930  0.000    25.131     7.445
  87   6 C      0.020  1.061  2.919  0.000    20.237     6.405
  88   6 C      0.266  1.045  2.688  0.000    22.503     7.768
  89   8 O     -0.466  1.726  4.739  0.000    23.035     6.435
  90   6 C      0.088  1.033  2.879  0.000    19.323     6.297
  91   8 O     -0.463  1.704  4.759  0.000    22.109     6.347
  92   1 H      0.217  0.783  0.000  0.000     1.024     1.585
  93   1 H      0.074  0.926  0.000  0.000     2.043     2.235
  94   1 H      0.031  0.969  0.000  0.000     2.579     2.511
  95   1 H      0.046  0.954  0.000  0.000     2.373     2.409
  96   1 H      0.329  0.671  0.000  0.000     0.639     1.256
  97   7 N     -0.152  1.248  3.904  0.000    24.291     7.320
  98   6 C      0.020  1.062  2.918  0.000    20.241     6.407
  99   6 C      0.275  1.042  2.683  0.000    22.357     7.744
 100   8 O     -0.487  1.752  4.735  0.000    23.502     6.500
 101   6 C     -0.075  1.058  3.016  0.000    21.913     6.662
 102   6 C     -0.017  1.058  2.959  0.000    20.838     6.493
 103   6 C     -0.117  1.043  3.075  0.000    22.799     6.808
 104   6 C     -0.120  1.042  3.079  0.000    22.858     6.817
 105   1 H      0.201  0.799  0.000  0.000     1.100     1.643
 106   1 H      0.075  0.925  0.000  0.000     2.036     2.231
 107   1 H      0.057  0.943  0.000  0.000     2.238     2.340
 108   1 H      0.063  0.937  0.000  0.000     2.160     2.299
 109   1 H      0.037  0.963  0.000  0.000     2.490     2.468
 110   1 H      0.047  0.953  0.000  0.000     2.362     2.404
 111   1 H      0.034  0.966  0.000  0.000     2.535     2.490
 112   1 H      0.048  0.952  0.000  0.000     2.349     2.397
 113   1 H      0.050  0.950  0.000  0.000     2.318     2.381
 114   1 H      0.051  0.949  0.000  0.000     2.303     2.373
 115   1 H      0.041  0.959  0.000  0.000     2.441     2.443
 116   7 N     -0.159  1.238  3.921  0.000    24.439     7.342
 117   6 C      0.019  1.060  2.921  0.000    20.257     6.408
 118   6 C      0.201  1.080  2.719  0.000    23.724     7.977
 119   8 O     -0.367  1.753  4.614  0.000    21.033     6.149
 120   6 C     -0.018  1.065  2.953  0.000    20.858     6.496
 121   6 C     -0.115  1.038  3.078  0.000    22.766     6.803
 122   6 C     -0.122  1.040  3.082  0.000    22.894     6.823
 123   1 H      0.214  0.786  0.000  0.000     1.038     1.596
 124   1 H      0.100  0.900  0.000  0.000     1.789     2.092
 125   1 H      0.056  0.944  0.000  0.000     2.242     2.341
 126   1 H      0.055  0.945  0.000  0.000     2.256     2.349
 127   1 H      0.031  0.969  0.000  0.000     2.568     2.506
 128   1 H      0.055  0.945  0.000  0.000     2.258     2.350
 129   1 H      0.067  0.933  0.000  0.000     2.118     2.276
 130   1 H      0.053  0.947  0.000  0.000     2.289     2.366
 131   1 H      0.047  0.953  0.000  0.000     2.351     2.398
 132   7 N     -0.394  1.299  4.096  0.000    30.215     8.164
 133   6 C      0.038  1.057  2.905  0.000    19.939     6.359
 134   6 C      0.265  1.051  2.685  0.000    22.537     7.774
 135   8 O     -0.498  1.748  4.750  0.000    23.743     6.533
 136   6 C     -0.022  1.065  2.957  0.000    20.923     6.506
 137   6 C     -0.062  1.050  3.011  0.000    21.681     6.629
 138   6 C     -0.108  1.038  3.070  0.000    22.624     6.781
 139   6 C     -0.104  1.033  3.072  0.000    22.555     6.773
 140   1 H      0.175  0.825  0.000  0.000     1.245     1.748
 141   1 H      0.020  0.980  0.000  0.000     2.733     2.585
 142   1 H      0.042  0.958  0.000  0.000     2.420     2.433
 143   1 H      0.041  0.959  0.000  0.000     2.437     2.441
 144   1 H      0.053  0.947  0.000  0.000     2.288     2.365
 145   1 H      0.050  0.950  0.000  0.000     2.322     2.383
 146   1 H      0.032  0.968  0.000  0.000     2.554     2.499
 147   1 H      0.039  0.961  0.000  0.000     2.467     2.456
 148   1 H      0.043  0.957  0.000  0.000     2.403     2.424
 149   1 H      0.036  0.964  0.000  0.000     2.502     2.473
 150   1 H      0.024  0.976  0.000  0.000     2.675     2.558
 151   7 N     -0.169  1.245  3.924  0.000    24.653     7.374
 152   6 C      0.026  1.062  2.912  0.000    20.146     6.392
 153   6 C      0.197  1.093  2.710  0.000    23.807     7.991
 154   8 O     -0.348  1.738  4.610  0.000    20.673     6.096
 155   6 C     -0.084  1.059  3.025  0.000    22.092     6.690
 156   6 C     -0.002  1.074  2.928  0.000    28.081     8.692
 157   6 C     -0.043  1.081  2.962  0.000    29.064     8.841
 158   6 C     -0.044  1.084  2.960  0.000    29.085     8.844
 159   6 C     -0.074  1.076  2.998  0.000    29.850     8.959
 160   6 C     -0.060  1.075  2.985  0.000    29.488     8.905
 161   6 C      0.146  1.046  2.809  0.000    24.830     8.166
 162   8 O     -0.429  1.722  4.706  0.000    21.418     6.247
 163   1 H      0.226  0.774  0.000  0.000     0.981     1.552
 164   1 H      0.086  0.914  0.000  0.000     1.923     2.169
 165   1 H      0.082  0.918  0.000  0.000     1.955     2.187
 166   1 H      0.077  0.923  0.000  0.000     2.012     2.218
 167   1 H      0.044  0.956  0.000  0.000     2.393     2.419
 168   1 H      0.060  0.940  0.000  0.000     2.198     2.318
 169   1 H      0.031  0.969  0.000  0.000     2.579     2.511
 170   1 H      0.062  0.938  0.000  0.000     2.173     2.305
 171   1 H      0.344  0.656  0.000  0.000     0.603     1.220
 172   7 N     -0.368  1.293  4.075  0.000    29.489     8.065
 173   6 C      0.045  1.051  2.903  0.000    19.829     6.343
 174   6 C      0.270  1.052  2.678  0.000    22.436     7.757
 175   8 O     -0.520  1.758  4.762  0.000    24.238     6.601
 176   6 C     -0.079  1.068  3.012  0.000    22.010     6.679
 177   6 C      0.374  1.023  2.603  0.000    20.668     7.440
 178   8 O     -0.630  1.760  4.870  0.000    26.856     6.948
 179   8 O     -0.655  1.777  4.878  0.000    27.514     7.033
 180   1 H      0.136  0.864  0.000  0.000     1.499     1.918
 181   1 H      0.035  0.965  0.000  0.000     2.514     2.480
 182   1 H      0.014  0.986  0.000  0.000     2.819     2.626
 183   1 H     -0.004  1.004  0.000  0.000     3.122     2.763
 184   7 N     -0.185  1.258  3.927  0.000    25.014     7.428
 185   6 C      0.028  1.058  2.914  0.000    20.113     6.386
 186   6 C      0.272  1.045  2.683  0.000    22.401     7.751
 187   8 O     -0.515  1.755  4.760  0.000    24.120     6.585
 188   6 C     -0.068  1.052  3.015  0.000    21.787     6.644
 189   6 C      0.006  1.078  2.916  0.000    27.892     8.663
 190   6 C     -0.052  1.087  2.965  0.000    29.286     8.875
 191   6 C     -0.039  1.083  2.956  0.000    28.967     8.826
 192   6 C     -0.055  1.071  2.984  0.000    29.359     8.885
 193   6 C     -0.082  1.077  3.006  0.000    30.064     8.991
 194   6 C      0.140  1.048  2.812  0.000    24.949     8.186
 195   8 O     -0.442  1.724  4.718  0.000    21.677     6.285
 196   1 H      0.228  0.772  0.000  0.000     0.973     1.546
 197   1 H      0.071  0.929  0.000  0.000     2.073     2.252
 198   1 H      0.056  0.944  0.000  0.000     2.252     2.347
 199   1 H      0.069  0.931  0.000  0.000     2.091     2.262
 200   1 H      0.071  0.929  0.000  0.000     2.075     2.253
 201   1 H      0.038  0.962  0.000  0.000     2.474     2.460
 202   1 H      0.033  0.967  0.000  0.000     2.549     2.497
 203   1 H      0.034  0.966  0.000  0.000     2.529     2.487
 204   1 H      0.341  0.659  0.000  0.000     0.610     1.227
 205   7 N     -0.167  1.242  3.925  0.000    24.611     7.368
 206   6 C      0.022  1.064  2.913  0.000    20.199     6.399
 207   6 C      0.296  1.035  2.669  0.000    21.977     7.677
 208   8 O     -0.505  1.756  4.749  0.000    23.886     6.553
 209   6 C     -0.090  1.059  3.031  0.000    22.214     6.710
 210   6 C     -0.078  1.047  3.031  0.000    21.985     6.675
 211   6 C     -0.092  1.056  3.036  0.000    22.249     6.716
 212   6 C     -0.060  1.061  3.000  0.000    21.749     6.656
 213   7 N     -0.146  1.231  3.915  0.000    24.144     7.298
 214   1 H      0.234  0.766  0.000  0.000     0.950     1.527
 215   1 H      0.053  0.947  0.000  0.000     2.283     2.363
 216   1 H      0.063  0.937  0.000  0.000     2.162     2.299
 217   1 H      0.098  0.902  0.000  0.000     1.804     2.100
 218   1 H      0.054  0.946  0.000  0.000     2.274     2.358
 219   1 H      0.060  0.940  0.000  0.000     2.195     2.317
 220   1 H      0.083  0.917  0.000  0.000     1.948     2.183
 221   1 H      0.085  0.915  0.000  0.000     1.925     2.170
 222   1 H      0.121  0.879  0.000  0.000     1.606     1.982
 223   1 H      0.104  0.896  0.000  0.000     1.751     2.069
 224   1 H      0.293  0.707  0.000  0.000     0.734     1.342
 225   1 H      0.300  0.700  0.000  0.000     0.714     1.324
 226   1 H      0.306  0.694  0.000  0.000     0.695     1.306
 227   7 N     -0.165  1.241  3.925  0.000    24.570     7.362
 228   6 C      0.042  1.056  2.902  0.000    19.881     6.350
 229   6 C      0.204  1.086  2.710  0.000    23.667     7.967
 230   8 O     -0.341  1.735  4.606  0.000    20.544     6.077
 231   6 C     -0.097  1.072  3.024  0.000    22.342     6.729
 232   6 C      0.368  1.022  2.610  0.000    20.758     7.456
 233   8 O     -0.648  1.777  4.870  0.000    27.316     7.007
 234   8 O     -0.632  1.773  4.859  0.000    26.914     6.955
 235   1 H      0.205  0.795  0.000  0.000     1.080     1.628
 236   1 H      0.077  0.923  0.000  0.000     2.008     2.216
 237   1 H      0.049  0.951  0.000  0.000     2.330     2.387
 238   1 H      0.040  0.960  0.000  0.000     2.451     2.448
 239   7 N     -0.390  1.322  4.069  0.000    30.109     8.149
 240   6 C      0.035  1.059  2.906  0.000    19.991     6.367
 241   6 C      0.277  1.045  2.678  0.000    22.319     7.736
 242   8 O     -0.487  1.743  4.744  0.000    23.498     6.499
 243   6 C     -0.015  1.059  2.956  0.000    20.806     6.488
 244   6 C     -0.109  1.035  3.075  0.000    22.644     6.785
 245   6 C     -0.104  1.037  3.068  0.000    22.545     6.769
 246   1 H      0.169  0.831  0.000  0.000     1.280     1.772
 247   1 H      0.019  0.981  0.000  0.000     2.754     2.595
 248   1 H      0.030  0.970  0.000  0.000     2.584     2.514
 249   1 H      0.046  0.954  0.000  0.000     2.365     2.405
 250   1 H      0.048  0.952  0.000  0.000     2.346     2.395
 251   1 H      0.047  0.953  0.000  0.000     2.354     2.400
 252   1 H      0.044  0.956  0.000  0.000     2.400     2.423
 253   1 H      0.026  0.974  0.000  0.000     2.639     2.541
 254   1 H      0.028  0.972  0.000  0.000     2.611     2.527
 255   7 N     -0.164  1.241  3.923  0.000    24.548     7.359
 256   6 C      0.020  1.064  2.916  0.000    20.249     6.408
 257   6 C      0.265  1.047  2.688  0.000    22.529     7.772
 258   8 O     -0.479  1.734  4.745  0.000    23.328     6.476
 259   6 C     -0.074  1.056  3.018  0.000    21.904     6.662
 260   6 C     -0.002  1.076  2.926  0.000    28.067     8.690
 261   6 C     -0.035  1.081  2.953  0.000    28.861     8.810
 262   6 C     -0.045  1.085  2.960  0.000    29.113     8.848
 263   6 C     -0.053  1.074  2.979  0.000    29.316     8.879
 264   6 C     -0.076  1.079  2.997  0.000    29.902     8.967
 265   6 C      0.145  1.048  2.807  0.000    24.835     8.167
 266   8 O     -0.441  1.725  4.715  0.000    21.655     6.282
 267   1 H      0.191  0.809  0.000  0.000     1.152     1.682
 268   1 H      0.081  0.919  0.000  0.000     1.968     2.194
 269   1 H      0.058  0.942  0.000  0.000     2.229     2.335
 270   1 H      0.063  0.937  0.000  0.000     2.163     2.300
 271   1 H      0.030  0.970  0.000  0.000     2.590     2.517
 272   1 H      0.053  0.947  0.000  0.000     2.277     2.360
 273   1 H      0.034  0.966  0.000  0.000     2.528     2.486
 274   1 H      0.053  0.947  0.000  0.000     2.281     2.362
 275   1 H      0.356  0.644  0.000  0.000     0.574     1.190
 276   7 N     -0.158  1.238  3.920  0.000    24.418     7.339
 277   6 C      0.026  1.052  2.921  0.000    20.140     6.391
 278   6 C      0.200  1.084  2.716  0.000    23.742     7.981
 279   8 O     -0.348  1.750  4.598  0.000    20.674     6.096
 280   6 C     -0.063  1.051  3.012  0.000    21.661     6.617
 281   6 C      0.000  1.059  2.941  0.000    20.580     6.459
 282  16 S     -0.218  1.920  4.249  0.049   150.365    20.639
 283   6 C     -0.063  1.055  3.008  0.000    21.789     6.659
 284   1 H      0.222  0.778  0.000  0.000     1.001     1.567
 285   1 H      0.088  0.912  0.000  0.000     1.895     2.153
 286   1 H      0.074  0.926  0.000  0.000     2.046     2.237
 287   1 H      0.076  0.924  0.000  0.000     2.021     2.223
 288   1 H      0.040  0.960  0.000  0.000     2.447     2.446
 289   1 H      0.045  0.955  0.000  0.000     2.386     2.415
 290   1 H      0.080  0.920  0.000  0.000     1.975     2.198
 291   1 H      0.055  0.945  0.000  0.000     2.259     2.351
 292   1 H      0.063  0.937  0.000  0.000     2.167     2.302
 293   7 N     -0.394  1.325  4.069  0.000    30.194     8.161
 294   6 C      0.033  1.071  2.896  0.000    20.042     6.378
 295   6 C      0.366  1.029  2.606  0.000    20.800     7.464
 296   8 O     -0.648  1.771  4.878  0.000    27.341     7.010
 297   6 C     -0.045  1.048  2.997  0.000    21.363     6.579
 298   6 C      0.012  1.087  2.901  0.000    27.739     8.639
 299   6 C     -0.039  1.078  2.961  0.000    28.960     8.825
 300   6 C     -0.039  1.079  2.959  0.000    28.957     8.825
 301   6 C     -0.037  1.081  2.956  0.000    28.913     8.818
 302   6 C     -0.035  1.081  2.954  0.000    28.870     8.811
 303   6 C     -0.039  1.077  2.962  0.000    28.972     8.827
 304   8 O     -0.641  1.772  4.870  0.000    27.159     6.987
 305   1 H      0.145  0.855  0.000  0.000     1.438     1.878
 306   1 H     -0.000  1.000  0.000  0.000     3.063     2.737
 307   1 H     -0.000  1.000  0.000  0.000     3.064     2.737
 308   1 H      0.009  0.991  0.000  0.000     2.901     2.664
 309   1 H      0.013  0.987  0.000  0.000     2.835     2.633
 310   1 H      0.016  0.984  0.000  0.000     2.791     2.612
 311   1 H      0.044  0.956  0.000  0.000     2.399     2.422
 312   1 H      0.047  0.953  0.000  0.000     2.355     2.400
 313   1 H      0.049  0.951  0.000  0.000     2.334     2.389
 314   7 N     -0.388  1.317  4.071  0.000    30.046     8.141
 315   6 C      0.022  1.064  2.913  0.000    20.214     6.404
 316   6 C      0.273  1.043  2.684  0.000    22.387     7.748
 317   8 O     -0.520  1.750  4.769  0.000    24.221     6.598
 318   6 C      0.116  1.045  2.839  0.000    18.768     6.184
 319   8 O     -0.477  1.719  4.758  0.000    22.404     6.390
 320   6 C     -0.144  1.047  3.097  0.000    23.334     6.888
 321   1 H      0.156  0.844  0.000  0.000     1.358     1.826
 322   1 H      0.035  0.965  0.000  0.000     2.514     2.479
 323   1 H      0.022  0.978  0.000  0.000     2.707     2.573
 324   1 H      0.323  0.677  0.000  0.000     0.656     1.272
 325   1 H      0.067  0.933  0.000  0.000     2.117     2.276
 326   1 H      0.050  0.950  0.000  0.000     2.323     2.383
 327   1 H      0.054  0.946  0.000  0.000     2.267     2.355
 328   7 N     -0.184  1.252  3.932  0.000    24.989     7.424
 329   6 C      0.023  1.069  2.908  0.000    20.202     6.402
 330   6 C      0.363  1.028  2.609  0.000    20.846     7.472
 331   8 O     -0.613  1.777  4.836  0.000    26.443     6.894
 332   6 C     -0.048  1.048  3.001  0.000    21.430     6.589
 333   6 C      0.014  1.085  2.901  0.000    27.703     8.633
 334   6 C     -0.034  1.078  2.956  0.000    28.850     8.808
 335   6 C     -0.039  1.080  2.959  0.000    28.964     8.826
 336   6 C     -0.034  1.080  2.953  0.000    28.842     8.807
 337   6 C     -0.034  1.080  2.955  0.000    28.857     8.809
 338   6 C     -0.036  1.078  2.958  0.000    28.908     8.817
 339   8 O     -0.581  1.727  4.855  0.000    25.668     6.793
 340   1 H      0.222  0.778  0.000  0.000     1.002     1.568
 341   1 H      0.029  0.971  0.000  0.000     2.598     2.521
 342   1 H      0.024  0.976  0.000  0.000     2.673     2.557
 343   1 H      0.025  0.975  0.000  0.000     2.658     2.549
 344   1 H      0.008  0.992  0.000  0.000     2.917     2.671
 345   1 H      0.021  0.979  0.000  0.000     2.718     2.578
 346   1 H      0.038  0.962  0.000  0.000     2.482     2.463
 347   1 H      0.050  0.950  0.000  0.000     2.318     2.381
 348   1 H      0.052  0.948  0.000  0.000     2.294     2.369
 349   1 H      0.189  0.811  0.000  0.000     1.161     1.688
 350   1 H      0.189  0.811  0.000  0.000     1.163     1.689
 351   1 H      0.076  0.924  0.000  0.000     2.020     2.223
 352   1 H      0.161  0.839  0.000  0.000     1.327     1.804
 353   1 H      0.088  0.912  0.000  0.000     1.893     2.152
 354   1 H      0.194  0.806  0.000  0.000     1.139     1.672
 355   1 H      0.062  0.938  0.000  0.000     2.178     2.308
 356   1 H      0.180  0.820  0.000  0.000     1.213     1.725
 357   1 H      0.085  0.915  0.000  0.000     1.930     2.173
 358   1 H      0.179  0.821  0.000  0.000     1.217     1.728

 Mol. C6AA /au·bohr⁶  :    1247578.808885
 Mol. C8AA /au·bohr⁸  :   28283061.827821
 Mol. α(0) /au        :       1686.755729

 
molecular dipole:
                 x           y           z       tot (Debye)
 q only:      -89.693    -159.749    -362.401
   full:      -89.658    -159.122    -361.329    1029.090
molecular quadrupole (traceless):
                xx          xy          yy          xz          yz          zz
 q only:    35369.853  -10697.542   22185.190  -24013.432  -43308.699  -57555.043
  q+dip:    35132.053  -10647.651   22086.346  -23986.704  -43007.957  -57218.398
   full:    35134.105  -10650.536   22088.720  -23987.941  -43005.670  -57222.825
speedup  1.94
cpu  time for grad   20.94 s
wall time for grad   10.78 s

SCC energy    :    -561.0119823
rep           :       6.9458130
ES            :       1.9539768
AES           :      -0.0555048
AXC           :       0.1818487
disp          :      -0.4691001
XB            :       0.0000000
fix           :       0.0000000
Gborn         :       0.0000000
Gsasa         :       0.0000000
Ghb           :       0.0000000
Gshift        :       0.0000000
Gsolv         :      -0.5853904     -367.34
Etot ala COSMO:    -561.0119823
grad norm     :       0.5340086
total E       :    -554.0227618
atomizationE  :     102.7570826    64481.04
(atE without considering molecular charge,
 total energy contains solvation terms)
H-L gap (eV)  :          1.0780

------------------------------------------------------------------------
 * finished run on 2019/05/12 at 13:13:14.680     
------------------------------------------------------------------------
 total:
 * wall-time:     0 d,  0 h,  0 min, 11.468 sec
 *  cpu-time:     0 d,  0 h,  0 min, 22.115 sec
 * ratio c/w:     1.928 speedup
 SCF:
 * wall-time:     0 d,  0 h,  0 min, 11.210 sec
 *  cpu-time:     0 d,  0 h,  0 min, 21.801 sec
 * ratio c/w:     1.945 speedup

