      -----------------------------------------------------------      
     |                   =====================                   |     
     |                           x T B                           |     
     |                   =====================                   |     
     |                         S. Grimme                         |     
     |          Mulliken Center for Theoretical Chemistry        |     
     |                    University of Bonn                     |     
     |                 Version 6.0.1 (SAW181210)                 |     
      -----------------------------------------------------------      

   This program is distributed in the hope that it will be useful,
   but WITHOUT ANY WARRANTY; without even the implied warranty of
   MERCHANTABILITY or FITNESS FOR A PARTICULAR PURPOSE.
   
   FOR NON-COMMERCIAL, ACADEMIA USE ONLY.
   
   Cite this work as:
   S. Grimme, C. Bannwarth, P. Shushkov, J. Comput. Theory Chem., 2017,
   13, 1989-2009.
   C. Bannwarth, S. Ehlert and S. Grimme., ChemRxiv, 2018, preprint.
   http://doi.org/10.26434/chemrxiv.7246238.v1
   
   for sTDA-xTB:
   S. Grimme and C. Bannwarth, J. Chem. Phys., 2016, 145, 054103.
   
   in the mass-spec context:
   V. Asgeirsson, C. Bauer and S. Grimme, Chem. Sci., 2017, 8, 4879.
   
   if GBSA is used:
   P. Shushkov, F. März and S. Grimme, unpublished.
   
   for ANC optimizer:
   S. Grimme, unpublished.
   Rational Function algorithm used in ANCopt:
   F. Eckert, P. Pulay, H.-J. Werner, J. Comput. Chem., 1997, 18, 1473.
   
   with help from (in alphabetical order)
   C. Bannwarth, F. Bohle, G. Brandenburg, E. Caldeweyher, M. Checinski,
   S. Dohm, S. Ehlert, S. Ehrlich, F. März, H. Neugebauer, J. Pisarek,
   P. Pracht, P. Shushkov, and S. Spicher.
   
 * started run on 2019/05/05 at 22:41:42.104     
========================================================================
 # omp threads = 2
========================================================================
number of atoms            : 1378
number of electrons        : 3814
charge                     : 0
spin                       : .0
first test random number   : .3107

########################################################################
# WARNING! Please study the warnings concerning your input carefully
#  - Process number higher than OMP_NUM_THREADS, I hope you know what you are doing.
########################################################################

           ------------------------------------------------- 
          |                 G F N 2 - x T B                 |
          | Geometry, Frequencies, Noncovalent interactions |
          |            JCTC 2018 parametrisation            |
           ------------------------------------------------- 
 
      method parameters     
 k(s)        :  1.8500
 k(p)        :  2.2300
 k(d)        :  2.2300
 k(f)        :  2.0000
 kEN (H0ij)  : -2.0000
 D4 a1       :  0.5200
 D4 a2       :  5.0000
 D4 s6       :  1.0000
 D4 s8       :  2.7000
 D4 s9       :  5.0000
 alphaj      :  2.0000

 Solvent             : h2o
 Using internal parameter file: .param_gbsa2_h2o
 Gsolv ref. state (COSMO-RS): gsolv [1 M gas/solution]
 temperature (mdtemp)       :    298.150000000000     
 dielectric constant        :    80.2000000000000     
 rho                        :    1.00000000000000     
 mass                       :    18.0000000000000     
 surface tension            :    15.5689454083859     
 probe radius               :   0.975313790000000     
 vdW radii scaling          :    1.00000000000000     
 Gshift (Eh)                :   1.857443126794793E-003
 c1                         :    1.55243817000000     
 soset                      :   0.130326360000000     
 HB correction              :  T

            Z     q(EN)     CN     RAES       Cart. coordinates
     1  N   5.0   -0.19    3.19    1.95    83.38983    88.16705   154.28479
     2  C   4.0    0.04    4.22    4.04    84.61248    87.70407   156.74143
     3  C   4.0    0.09    3.20    3.04    87.45841    88.10847   156.72064
     4  O   6.0   -0.27    1.13    1.80    88.71696    87.52266   154.86304
     5  C   4.0   -0.03    4.33    4.25    84.10036    85.00365   157.62015
     6  C   4.0   -0.02    3.53    3.13    81.35270    84.41973   158.11148
     7  C   4.0   -0.05    3.47    3.10    79.74644    83.70730   156.15183
     8  C   4.0   -0.04    3.46    3.10    80.34548    84.56335   160.52655
     9  C   4.0   -0.05    3.44    3.09    77.19908    83.16873   156.57702
    10  C   4.0   -0.04    3.43    3.09    77.80569    84.03233   160.97064
    11  C   4.0    0.06    3.44    3.09    76.23721    83.33125   158.99398
    12  O   6.0   -0.25    2.10    1.84    73.73900    82.74354   159.40783
    13  H   1.0    0.09    1.02    1.43    83.74321    86.80456   152.96765
    14  H   1.0    0.06    1.06    1.44    83.83580    89.08546   158.05668
    15  H   1.0    0.05    1.03    1.43    84.76177    83.70352   156.16506
    16  H   1.0    0.04    1.04    1.43    85.12837    84.67862   159.37571
    17  H   1.0    0.05    1.03    1.43    80.49099    83.56746   154.25644
    18  H   1.0    0.06    1.03    1.43    81.54923    85.09436   162.08746
    19  H   1.0    0.05    1.03    1.43    75.98966    82.62827   155.02367
    20  H   1.0    0.05    1.03    1.43    77.05547    84.16839   162.86414
    21  H   1.0    0.12    1.03    1.43    72.93019    82.25599   157.81479
    22  N   5.0   -0.19    3.16    1.95    90.17394    85.45908   168.87725
    23  C   4.0    0.03    4.32    4.24    87.38093    85.52333   168.92260
    24  C   4.0    0.14    3.41    3.08    85.98442    83.22164   169.93550
    25  O   6.0   -0.32    1.27    1.80    86.26221    81.12594   168.96040
    26  C   4.0   -0.03    4.30    4.20    86.33969    85.85592   166.22218
    27  C   4.0    0.24    3.11    3.03    86.35103    88.58657   165.30378
    28  O   6.0   -0.28    1.18    1.80    87.87226    90.14749   166.25998
    29  O   6.0   -0.29    1.17    1.80    84.82602    89.11948   163.56901
    30  H   1.0    0.10    1.03    1.43    90.86369    86.41339   167.35035
    31  H   1.0    0.05    1.06    1.44    87.00676    87.08424   170.21518
    32  H   1.0    0.05    1.03    1.43    87.49620    84.75232   164.92394
    33  H   1.0    0.05    1.04    1.43    84.39327    85.18507   166.17494
    34  N   5.0   -0.14    3.51    2.08    84.31390    83.72431   171.74207
    35  C   4.0    0.03    4.46    4.48    82.86259    81.81191   173.02520
    36  C   4.0    0.14    3.42    3.09    80.27178    81.59837   171.81199
    37  O   6.0   -0.31    1.24    1.80    79.13983    83.48620   171.01075
    38  C   4.0   -0.05    4.41    4.40    82.59803    82.54134   175.78798
    39  C   4.0   -0.02    4.24    4.08    85.03578    83.22920   177.13535
    40  C   4.0   -0.08    4.12    3.84    84.64083    83.79234   179.90947
    41  C   4.0   -0.07    4.17    3.93    86.84991    81.05035   176.88213
    42  H   1.0    0.08    1.07    1.44    83.92651    85.50632   172.36568
    43  H   1.0    0.05    1.07    1.44    83.77911    79.97131   172.89859
    44  H   1.0    0.04    1.04    1.43    81.35081    84.17595   175.90514
    45  H   1.0    0.04    1.04    1.43    81.76844    80.94830   176.79709
    46  H   1.0    0.04    1.06    1.44    85.79356    84.94129   176.27553
    47  H   1.0    0.04    1.00    1.43    86.45496    84.27044   180.76174
    48  H   1.0    0.04    1.00    1.43    83.33880    85.37782   180.09277
    49  H   1.0    0.04    1.00    1.43    83.85092    82.12560   180.82599
    50  H   1.0    0.04    1.00    1.43    88.60736    81.52656   177.84400
    51  H   1.0    0.04    1.00    1.43    86.01088    79.37605   177.74006
    52  H   1.0    0.05    1.01    1.43    87.21274    80.70831   174.88280
    53  N   5.0   -0.14    3.53    2.10    79.32881    79.27967   171.77420
    54  C   4.0    0.04    4.51    4.54    77.16318    78.53701   170.24163
    55  C   4.0    0.15    3.45    3.10    75.96887    76.17674   171.34145
    56  O   6.0   -0.30    1.28    1.80    76.85326    75.17708   173.25385
    57  C   4.0   -0.02    4.33    4.26    78.00411    77.83403   167.53365
    58  C   4.0   -0.07    4.13    3.86    78.45386    80.16595   165.96518
    59  C   4.0   -0.06    4.15    3.90    80.40028    76.22966   167.57145
    60  H   1.0    0.12    1.12    1.45    80.04312    77.82269   172.81544
    61  H   1.0    0.06    1.06    1.44    75.83659    80.11304   170.24541
    62  H   1.0    0.05    1.07    1.44    76.48666    76.73799   166.67572
    63  H   1.0    0.04    1.00    1.43    79.04157    79.59904   164.07357
    64  H   1.0    0.05    1.00    1.43    76.70587    81.25066   165.86125
    65  H   1.0    0.06    1.01    1.43    79.93163    81.29601   166.85146
    66  H   1.0    0.04    1.00    1.43    80.93129    75.77234   165.63448
    67  H   1.0    0.06    1.01    1.43    81.90828    77.29735   168.48041
    68  H   1.0    0.06    1.00    1.43    80.03178    74.49867   168.62592
    69  N   5.0   -0.14    3.53    2.10    73.97710    75.29424   170.09612
    70  C   4.0    0.04    4.44    4.44    72.92641    72.81492   170.55155
    71  C   4.0    0.15    3.45    3.09    73.04736    71.35605   168.07790
    72  O   6.0   -0.30    1.25    1.80    71.72266    71.94376   166.26565
    73  C   4.0   -0.02    4.34    4.28    70.18631    72.97933   171.44917
    74  C   4.0   -0.01    3.55    3.14    69.89718    73.72955   174.16848
    75  C   4.0   -0.03    3.47    3.10    69.97655    71.92486   176.06955
    76  C   4.0   -0.03    3.47    3.10    69.48522    76.22966   174.82800
    77  C   4.0   -0.04    3.37    3.07    69.68553    72.60894   178.58477
    78  C   4.0   -0.03    3.39    3.08    69.19421    76.92318   177.33377
    79  C   4.0   -0.04    3.37    3.07    69.31137    75.11283   179.22161
    80  H   1.0    0.12    1.13    1.45    73.04169    76.28635   168.73363
    81  H   1.0    0.07    1.08    1.44    74.04324    71.85872   171.99530
    82  H   1.0    0.05    1.04    1.43    69.20176    74.38150   170.30588
    83  H   1.0    0.05    1.04    1.43    69.30381    71.13306   171.21295
    84  H   1.0    0.07    1.03    1.43    70.26757    69.96332   175.58578
    85  H   1.0    0.07    1.03    1.43    69.39074    77.65451   173.36913
    86  H   1.0    0.05    1.03    1.43    69.75167    71.18409   180.04364
    87  H   1.0    0.07    1.03    1.43    68.87484    78.87905   177.81754
    88  H   1.0    0.05    1.03    1.43    69.11106    75.65518   181.17937
    89  N   5.0   -0.13    3.49    2.07    74.63284    69.43798   168.00986
    90  C   4.0    0.04    4.37    4.33    74.88039    67.90730   165.75353
    91  C   4.0    0.15    3.40    3.08    73.03980    65.68120   165.89148
    92  O   6.0   -0.31    1.31    1.80    72.73744    64.50769   167.88703
    93  C   4.0   -0.08    4.10    3.80    77.60349    67.01157   165.44551
    94  H   1.0    0.10    1.09    1.44    75.76478    68.89941   169.47440
    95  H   1.0    0.06    1.07    1.44    74.40985    69.00523   164.07546
    96  H   1.0    0.04    1.01    1.43    77.74333    65.86640   163.73908
    97  H   1.0    0.04    1.00    1.43    78.83748    68.65374   165.29244
    98  H   1.0    0.05    1.01    1.43    78.13072    65.88718   167.08957
    99  N   5.0   -0.14    3.45    2.05    71.82281    65.13318   163.75798
   100  C   4.0    0.04    4.44    4.45    70.00112    63.09417   163.59735
   101  C   4.0    0.14    3.44    3.09    70.95543    61.07972   161.82479
   102  O   6.0   -0.30    1.24    1.80    71.81337    61.67121   159.75176
   103  C   4.0   -0.04    4.28    4.17    67.48022    64.10328   162.61848
   104  C   4.0   -0.05    4.21    4.02    65.35428    62.16254   162.47297
   105  C   4.0   -0.04    4.18    3.96    64.58894    61.13641   165.04866
   106  C   4.0   -0.03    4.13    3.86    62.35340    59.34873   164.81812
   107  N   5.0   -0.11    4.01    2.89    62.83528    57.15665   163.10414
   108  H   1.0    0.10    1.07    1.44    72.07226    66.08561   162.10069
   109  H   1.0    0.06    1.07    1.44    69.74790    62.24946   165.45873
   110  H   1.0    0.05    1.03    1.43    66.85283    65.61128   163.87325
   111  H   1.0    0.06    1.03    1.43    67.76935    64.84217   160.71741
   112  H   1.0    0.04    1.03    1.43    63.69699    63.04504   161.62448
   113  H   1.0    0.05    1.03    1.43    65.97411    60.57517   161.31646
   114  H   1.0    0.06    1.03    1.43    66.16875    60.10273   165.87258
   115  H   1.0    0.05    1.03    1.43    64.05037    62.69922   166.27888
   116  H   1.0    0.05    1.02    1.43    61.90364    58.60229   166.68517
   117  H   1.0    0.04    1.02    1.43    60.74146    60.39186   164.06979
   118  H   1.0    0.06    1.02    1.43    61.24413    56.00581   163.02288
   119  H   1.0    0.05    1.02    1.43    63.25291    57.79727   161.29378
   120  H   1.0    0.10    1.03    1.43    64.35273    56.10218   163.77310
   121  N   5.0   -0.14    3.47    2.06    70.77591    58.70623   162.64304
   122  C   4.0    0.03    4.45    4.47    71.32771    56.53493   161.03678
   123  C   4.0    0.14    3.46    3.10    69.32460    54.53182   161.28244
   124  O   6.0   -0.30    1.29    1.80    67.91297    54.49592   163.11925
   125  C   4.0   -0.04    4.40    4.38    73.86183    55.40488   161.75109
   126  C   4.0   -0.04    4.09    3.78    76.03690    57.17177   161.18229
   127  S   6.0   -0.05    2.50    3.10    79.02267    55.55605   161.11237
   128  C   4.0   -0.06    3.89    3.45    79.16818    54.30505   164.27199
   129  H   1.0    0.09    1.06    1.44    70.24489    58.22435   164.43261
   130  H   1.0    0.05    1.07    1.44    71.35416    57.16421   159.07524
   131  H   1.0    0.05    1.04    1.43    73.87506    55.00047   163.77121
   132  H   1.0    0.05    1.05    1.44    74.15096    53.66822   160.68340
   133  H   1.0    0.05    1.07    1.44    75.73455    58.04293   159.33980
   134  H   1.0    0.05    1.07    1.44    76.12761    58.62308   162.64115
   135  H   1.0    0.05    1.04    1.43    80.92562    53.25626   164.49686
   136  H   1.0    0.04    1.04    1.43    79.10393    55.86597   165.61558
   137  H   1.0    0.05    1.04    1.43    77.56002    53.05406   164.57245
   138  N   5.0   -0.14    3.48    2.06    69.22444    52.84997   159.41728
   139  C   4.0    0.03    4.47    4.49    67.48967    50.72024   159.53255
   140  C   4.0    0.15    3.46    3.10    68.23233    49.12154   161.76999
   141  O   6.0   -0.30    1.24    1.80    70.47544    48.67367   162.21030
   142  C   4.0   -0.05    4.26    4.13    67.46133    49.19713   157.08158
   143  C   4.0   -0.05    4.21    4.01    65.83994    50.50104   155.09548
   144  C   4.0   -0.05    4.16    3.91    66.67709    50.01916   152.37805
   145  C   4.0   -0.04    4.13    3.86    65.88152    52.20557   150.67163
   146  N   5.0   -0.12    3.99    2.84    65.52814    51.45913   147.98066
   147  H   1.0    0.07    1.06    1.44    70.30725    52.91233   157.82424
   148  H   1.0    0.04    1.07    1.44    65.55270    51.38543   159.75554
   149  H   1.0    0.05    1.03    1.43    69.38129    49.02894   156.35404
   150  H   1.0    0.04    1.03    1.43    66.67898    47.32630   157.44441
   151  H   1.0    0.04    1.03    1.43    63.90297    49.82640   155.27878
   152  H   1.0    0.04    1.04    1.43    65.91175    52.53438   155.41673
   153  H   1.0    0.04    1.03    1.43    68.72744    49.84530   152.30813
   154  H   1.0    0.04    1.03    1.43    65.80026    48.29006   151.68263
   155  H   1.0    0.04    1.03    1.43    64.09384    52.96524   151.35382
   156  H   1.0    0.04    1.02    1.43    67.33660    53.66255   150.73588
   157  H   1.0    0.05    1.01    1.43    64.98957    53.02004   146.91485
   158  H   1.0    0.05    1.01    1.43    67.20810    50.74103   147.25689
   159  H   1.0    0.05    1.01    1.43    64.13352    50.08152   147.84271
   160  N   5.0   -0.14    3.40    2.02    66.32560    48.41289   163.24776
   161  C   4.0    0.02    4.28    4.15    66.66764    46.82741   165.44551
   162  C   4.0    0.15    3.34    3.06    66.21978    48.28817   167.83412
   163  O   6.0   -0.29    1.23    1.80    65.10862    47.30551   169.61235
   164  H   1.0    0.08    1.06    1.44    64.49068    48.92312   162.95485
   165  H   1.0    0.05    1.03    1.43    65.34294    45.25138   165.37559
   166  H   1.0    0.06    1.04    1.43    68.58949    46.08664   165.47385
   167  N   5.0   -0.12    3.53    2.10    67.05504    50.64843   167.88136
   168  C   4.0    0.04    4.43    4.44    67.38763    52.01093   170.26620
   169  C   4.0    0.15    3.51    3.12    66.06482    54.55261   170.15470
   170  O   6.0   -0.29    1.30    1.80    65.60373    55.52015   168.14215
   171  C   4.0   -0.03    4.30    4.19    70.23544    52.32840   170.79532
   172  C   4.0   -0.01    3.53    3.13    71.81903    49.98892   170.23029
   173  C   4.0   -0.03    3.45    3.09    72.75445    49.53350   167.79066
   174  C   4.0   -0.04    3.49    3.11    72.35950    48.23148   172.12002
   175  C   4.0   -0.02    3.40    3.08    74.18686    47.39811   167.25775
   176  C   4.0   -0.04    3.41    3.08    73.78057    46.07530   171.61357
   177  C   4.0    0.08    3.42    3.08    74.69898    45.65578   169.18338
   178  O   6.0   -0.23    2.09    1.84    76.11438    43.51850   168.68450
   179  H   1.0    0.11    1.07    1.44    67.51613    51.66700   166.31100
   180  H   1.0    0.05    1.07    1.44    66.52213    50.98103   171.82522
   181  H   1.0    0.05    1.03    1.43    70.95354    53.86475   169.62558
   182  H   1.0    0.04    1.03    1.43    70.48678    52.78383   172.78898
   183  H   1.0    0.07    1.03    1.43    72.35383    50.86764   166.29966
   184  H   1.0    0.05    1.06    1.44    71.66219    48.54895   174.01163
   185  H   1.0    0.08    1.03    1.43    74.90118    47.08441   165.37181
   186  H   1.0    0.06    1.03    1.43    74.16985    44.73359   173.10079
   187  H   1.0    0.13    1.02    1.43    76.29769    42.50561   170.22462
   188  N   5.0   -0.10    3.70    2.27    65.45444    55.64865   172.32222
   189  C   4.0    0.04    4.66    4.72    64.35840    58.14498   172.27309
   190  C   4.0    0.14    3.44    3.09    66.24623    60.25580   171.59279
   191  O   6.0   -0.29    1.23    1.80    68.52902    59.80227   171.15248
   192  C   4.0   -0.04    4.44    4.45    63.49668    58.49269   175.00563
   193  C   4.0   -0.04    4.35    4.29    65.51491    57.24736   176.43993
   194  C   4.0   -0.02    4.39    4.36    66.10450    54.91166   174.92059
   195  H   1.0    0.05    1.05    1.44    62.78237    58.16765   170.94650
   196  H   1.0    0.05    1.03    1.43    63.36440    60.49391   175.47050
   197  H   1.0    0.04    1.03    1.43    61.67688    57.57617   175.30988
   198  H   1.0    0.05    1.03    1.43    67.15897    58.48324   176.57221
   199  H   1.0    0.05    1.03    1.43    64.84784    56.75792   178.32588
   200  H   1.0    0.04    1.02    1.43    68.10194    54.42978   175.06610
   201  H   1.0    0.04    1.02    1.43    64.94799    53.32429   175.54231
   202  N   5.0   -0.14    3.52    2.09    65.21822    62.54426   171.55121
   203  C   4.0    0.04    4.48    4.51    66.64119    64.81004   171.07689
   204  C   4.0    0.16    3.51    3.12    68.41942    64.98957   173.25196
   205  O   6.0   -0.30    1.24    1.80    67.67676    65.55081   175.38169
   206  C   4.0   -0.03    4.32    4.23    64.92531    67.12307   170.96540
   207  C   4.0    0.04    3.71    3.24    63.20944    67.15708   168.71095
   208  N   5.0   -0.17    2.60    1.91    60.95689    65.84372   168.62403
   209  C   4.0   -0.02    3.61    3.17    63.43432    68.33060   166.45273
   210  C   4.0    0.04    3.57    3.15    59.86463    66.21978   166.41683
   211  N   5.0   -0.12    3.48    2.07    61.33672    67.71455   165.06000
   212  H   1.0    0.08    1.07    1.44    63.34361    62.88063   171.85168
   213  H   1.0    0.05    1.06    1.44    67.61817    64.77036   169.26464
   214  H   1.0    0.06    1.04    1.43    63.74613    67.15708   172.65481
   215  H   1.0    0.04    1.03    1.43    66.09694    68.81437   170.88981
   216  H   1.0    0.05    1.01    1.43    64.97634    69.52869   165.85747
   217  H   1.0    0.04    1.01    1.43    58.07506    65.44121   165.81967
   218  H   1.0    0.07    1.04    1.43    60.97201    68.31359   163.26476
   219  N   5.0   -0.12    3.51    2.09    70.78346    64.37540   172.67938
   220  C   4.0    0.04    4.48    4.50    72.77713    64.11273   174.55588
   221  C   4.0    0.14    3.51    3.12    74.31536    66.54103   174.72406
   222  O   6.0   -0.31    1.32    1.80    74.76134    67.75612   172.80221
   223  C   4.0   -0.03    4.37    4.33    74.49300    61.93010   173.80376
   224  C   4.0   -0.03    3.77    3.31    75.73644    60.85107   175.95805
   225  C   4.0   -0.00    3.67    3.21    77.80380    61.75246   177.18259
   226  C   4.0    0.00    3.92    3.49    74.98622    58.64576   177.23740
   227  N   5.0   -0.11    3.49    2.07    78.42174    60.21801   179.15925
   228  C   4.0    0.04    3.90    3.47    76.71531    58.27537   179.24240
   229  C   4.0   -0.05    3.40    3.08    73.02090    56.89776   176.87646
   230  C   4.0   -0.04    3.38    3.07    76.54713    56.22502   180.89213
   231  C   4.0   -0.05    3.36    3.07    72.83949    54.86441   178.51107
   232  C   4.0   -0.04    3.37    3.07    74.60827    54.54127   180.51229
   233  H   1.0    0.12    1.12    1.45    71.39763    64.03714   170.88414
   234  H   1.0    0.05    1.08    1.44    71.98722    63.73290   176.42104
   235  H   1.0    0.06    1.04    1.44    73.36672    60.45989   172.90048
   236  H   1.0    0.05    1.04    1.44    75.93297    62.61418   172.49985
   237  H   1.0    0.07    1.03    1.43    78.81669    63.44755   176.66481
   238  H   1.0    0.11    1.06    1.44    79.90139    60.47312   180.36867
   239  H   1.0    0.05    1.02    1.43    71.68108    57.13586   175.35523
   240  H   1.0    0.07    1.03    1.43    77.88883    55.97179   182.40958
   241  H   1.0    0.05    1.03    1.43    71.33715    53.50570   178.26541
   242  H   1.0    0.06    1.03    1.43    74.42119    52.93689   181.75951
   243  N   5.0   -0.10    3.67    2.23    75.14684    67.22322   177.00874
   244  C   4.0    0.04    4.63    4.70    76.66429    69.50790   177.30354
   245  C   4.0    0.15    3.47    3.10    79.31180    69.13562   176.41726
   246  O   6.0   -0.32    1.28    1.80    80.47965    67.22322   176.99740
   247  C   4.0   -0.04    4.38    4.35    76.65106    70.00679   180.17214
   248  C   4.0   -0.04    4.30    4.20    76.13895    67.49912   181.31543
   249  C   4.0   -0.01    4.38    4.34    74.37205    66.20277   179.47105
   250  H   1.0    0.05    1.06    1.44    75.77234    71.06881   176.29820
   251  H   1.0    0.05    1.03    1.43    78.48221    70.73433   180.77118
   252  H   1.0    0.04    1.03    1.43    75.16763    71.35416   180.64646
   253  H   1.0    0.05    1.03    1.43    77.89639    66.44465   181.51763
   254  H   1.0    0.04    1.03    1.43    75.24322    67.73345   183.15413
   255  H   1.0    0.05    1.03    1.43    74.62528    64.15998   179.52774
   256  H   1.0    0.04    1.02    1.43    72.41052    66.68087   179.87734
   257  N   5.0   -0.14    3.50    2.07    80.25855    71.00456   175.06610
   258  C   4.0    0.04    4.38    4.35    82.65283    70.74378   173.78298
   259  C   4.0    0.14    3.41    3.08    83.67707    73.33459   173.08189
   260  O   6.0   -0.32    1.30    1.80    82.33347    75.25645   173.25574
   261  C   4.0   -0.06    4.12    3.84    82.38071    69.06192   171.46239
   262  H   1.0    0.11    1.09    1.44    79.41006    72.71854   174.82611
   263  H   1.0    0.06    1.07    1.44    84.01344    69.89529   175.07555
   264  H   1.0    0.05    1.00    1.43    84.21186    68.89941   170.53265
   265  H   1.0    0.05    1.00    1.43    81.72687    67.20054   172.05577
   266  H   1.0    0.05    1.00    1.43    81.01255    69.91041   170.17549
   267  N   5.0   -0.14    3.48    2.07    86.10536    73.35916   172.41482
   268  C   4.0    0.04    4.44    4.45    87.31101    75.56447   171.28287
   269  C   4.0    0.14    3.49    3.11    88.39382    74.82181   168.72418
   270  O   6.0   -0.33    1.30    1.80    88.78310    72.57681   168.20640
   271  C   4.0   -0.04    4.32    4.24    89.47663    76.47721   172.92693
   272  C   4.0   -0.04    4.32    4.24    91.69706    74.68764   172.78142
   273  C   4.0   -0.01    4.27    4.15    93.85702    75.44731   174.42548
   274  N   5.0   -0.14    3.48    2.06    95.05888    73.18531   175.32310
   275  C   4.0    0.10    3.37    3.07    96.92782    73.13806   176.94638
   276  N   5.0   -0.17    3.29    1.98    97.95205    75.24511   177.74006
   277  N   5.0   -0.17    3.34    2.00    97.86135    70.94409   177.69282
   278  H   1.0    0.10    1.07    1.44    87.29589    71.86061   172.63969
   279  H   1.0    0.06    1.06    1.44    85.92962    77.07625   171.05043
   280  H   1.0    0.05    1.03    1.43    90.09079    78.33481   172.28065
   281  H   1.0    0.04    1.03    1.43    88.85113    76.58492   174.88658
   282  H   1.0    0.05    1.05    1.44    91.08290    72.81303   173.37480
   283  H   1.0    0.06    1.05    1.44    92.37547    74.62528   170.83878
   284  H   1.0    0.05    1.03    1.43    95.21573    76.55658   173.34645
   285  H   1.0    0.05    1.03    1.43    93.17672    76.53957   176.03364
   286  H   1.0    0.07    1.08    1.44    94.41260    71.49778   174.65036
   287  H   1.0    0.09    1.04    1.43    97.29632    76.93830   177.09378
   288  H   1.0    0.10    1.03    1.43    99.40714    75.19409   179.00429
   289  H   1.0    0.09    1.04    1.43    97.12624    69.30003   177.00496
   290  H   1.0    0.14    1.25    1.48    99.31644    70.89496   178.95705
   291  N   5.0   -0.14    3.48    2.06    88.96452    76.73421   167.19728
   292  C   4.0    0.03    4.45    4.46    90.73330    76.44508   165.11858
   293  C   4.0    0.07    3.31    3.06    93.40348    76.62272   166.12581
   294  O   6.0   -0.29    1.14    1.80    93.96662    78.33859   167.59601
   295  C   4.0   -0.02    4.40    4.37    90.40638    78.52000   163.13626
   296  C   4.0   -0.05    4.24    4.08    88.06690    77.99466   161.53755
   297  C   4.0   -0.07    4.18    3.96    92.67594    78.61638   161.38449
   298  C   4.0   -0.08    4.03    3.68    85.93151    79.74832   162.12148
   299  H   1.0    0.10    1.09    1.44    88.22753    78.50866   167.35791
   300  H   1.0    0.04    1.06    1.44    90.38181    74.60071   164.27388
   301  H   1.0    0.05    1.06    1.44    90.21363    80.31146   164.13404
   302  H   1.0    0.04    1.04    1.43    88.55067    78.21765   159.54767
   303  H   1.0    0.04    1.04    1.43    87.42817    76.06903   161.89660
   304  H   1.0    0.05    1.00    1.43    92.38681    80.10926   159.99554
   305  H   1.0    0.06    1.01    1.43    94.36536    79.00755   162.49564
   306  H   1.0    0.04    1.00    1.43    92.86680    76.79846   160.43395
   307  H   1.0    0.04    1.00    1.43    84.32713    79.27400   160.91961
   308  H   1.0    0.05    1.00    1.43    85.41183    79.53668   164.10380
   309  H   1.0    0.04    1.00    1.43    86.53433    81.68340   161.75676
   310  N   5.0   -0.19    3.28    1.98    90.92794    67.70510   161.40149
   311  C   4.0    0.03    4.44    4.45    89.49553    68.16430   163.65027
   312  C   4.0    0.15    3.49    3.11    90.44795    66.47867   165.77810
   313  O   6.0   -0.32    1.28    1.80    91.17172    64.30548   165.35669
   314  C   4.0   -0.02    4.33    4.26    86.73464    67.58605   163.04555
   315  C   4.0   -0.07    4.15    3.90    85.19263    66.90575   165.36614
   316  C   4.0   -0.08    4.13    3.86    85.59325    69.81026   161.67172
   317  H   1.0    0.12    1.06    1.44    91.04322    65.83616   160.94040
   318  H   1.0    0.05    1.06    1.44    89.73364    70.10127   164.30789
   319  H   1.0    0.06    1.07    1.44    86.67606    65.91742   161.83802
   320  H   1.0    0.04    1.00    1.43    83.25188    66.51835   164.79166
   321  H   1.0    0.05    1.01    1.43    86.01088    65.23334   166.24864
   322  H   1.0    0.05    1.00    1.43    85.23231    68.48745   166.68517
   323  H   1.0    0.03    1.00    1.43    83.62226    69.39263   161.24276
   324  H   1.0    0.04    1.00    1.43    85.71230    71.47699   162.87737
   325  H   1.0    0.04    1.00    1.43    86.64016    70.12962   159.92751
   326  N   5.0   -0.15    3.53    2.10    90.42150    67.49534   168.06656
   327  C   4.0    0.04    4.53    4.58    91.20762    66.09128   170.22651
   328  C   4.0    0.15    3.53    3.13    89.06467    65.99868   172.05199
   329  O   6.0   -0.32    1.26    1.80    88.26721    67.96021   173.07811
   330  C   4.0   -0.03    4.41    4.40    93.39026    67.39141   171.45484
   331  C   4.0   -0.01    3.60    3.17    94.22363    66.18954   173.89825
   332  C   4.0   -0.03    3.48    3.10    96.01887    64.29037   173.86991
   333  C   4.0   -0.03    3.49    3.11    93.22963    66.99078   176.21317
   334  C   4.0   -0.03    3.38    3.07    96.84090    63.22267   176.07522
   335  C   4.0   -0.04    3.38    3.07    94.07245    65.96277   178.42981
   336  C   4.0   -0.04    3.40    3.08    95.89414    64.07305   178.36367
   337  H   1.0    0.11    1.10    1.44    89.85647    69.29814   168.45017
   338  H   1.0    0.06    1.08    1.44    91.72730    64.17509   169.67660
   339  H   1.0    0.04    1.04    1.43    94.99274    67.35739   170.16037
   340  H   1.0    0.05    1.04    1.43    92.85546    69.33782   171.86302
   341  H   1.0    0.05    1.03    1.43    96.77854    63.64408   172.08978
   342  H   1.0    0.06    1.03    1.43    91.78588    68.43265   176.25096
   343  H   1.0    0.07    1.03    1.43    98.22418    61.72223   176.03364
   344  H   1.0    0.05    1.03    1.43    93.32790    66.61473   180.21560
   345  H   1.0    0.05    1.04    1.43    96.57633    63.26236   180.10789
   346  N   5.0   -0.14    3.51    2.08    88.21997    63.69132   172.51875
   347  C   4.0    0.04    4.48    4.50    86.07702    63.24724   174.14203
   348  C   4.0    0.16    3.45    3.09    86.82724    63.13574   176.89914
   349  O   6.0   -0.30    1.29    1.80    88.39382    61.57861   177.63424
   350  C   4.0   -0.02    4.41    4.40    84.86192    60.76225   173.43338
   351  C   4.0   -0.01    3.61    3.17    83.63927    60.80004   170.91815
   352  C   4.0   -0.04    3.50    3.11    81.19397    61.70711   170.65737
   353  C   4.0   -0.03    3.49    3.11    84.91295    59.94967   168.82623
   354  C   4.0   -0.04    3.39    3.07    80.01478    61.73924   168.33679
   355  C   4.0   -0.04    3.39    3.08    83.75643    59.99691   166.49619
   356  C   4.0   -0.05    3.39    3.07    81.30168    60.88886   166.24486
   357  H   1.0    0.11    1.10    1.44    88.99286    62.08317   171.78932
   358  H   1.0    0.05    1.07    1.44    84.75421    64.80815   173.90770
   359  H   1.0    0.06    1.04    1.43    86.30945    59.29771   173.41070
   360  H   1.0    0.06    1.04    1.43    83.41817    60.30493   174.82989
   361  H   1.0    0.05    1.03    1.43    80.19808    62.39875   172.29954
   362  H   1.0    0.06    1.03    1.43    86.81968    59.24480   169.00764
   363  H   1.0    0.05    1.03    1.43    78.10048    62.42521   168.16104
   364  H   1.0    0.05    1.03    1.43    84.76744    59.33551   164.85024
   365  H   1.0    0.04    1.03    1.43    80.40595    60.91532   164.41183
   366  N   5.0   -0.13    3.49    2.07    85.60648    64.69477   178.43737
   367  C   4.0    0.04    4.51    4.55    86.18095    64.77981   181.10000
   368  C   4.0    0.15    3.46    3.10    85.22097    62.49513   182.49839
   369  O   6.0   -0.30    1.29    1.80    83.40683    61.25358   181.69904
   370  C   4.0   -0.03    4.43    4.44    85.02444    67.06259   182.26596
   371  C   4.0   -0.01    3.58    3.16    86.21497    69.46822   181.47227
   372  C   4.0   -0.03    3.46    3.10    88.46941    70.26757   182.56642
   373  C   4.0   -0.04    3.48    3.10    85.03389    71.01212   179.69404
   374  C   4.0   -0.02    3.36    3.07    89.54088    72.54658   181.86156
   375  C   4.0   -0.04    3.36    3.07    86.09591    73.29113   178.97028
   376  C   4.0   -0.03    3.36    3.07    88.34658    74.07537   180.07010
   377  H   1.0    0.10    1.08    1.44    84.21753    65.91175   177.88557
   378  H   1.0    0.05    1.07    1.44    88.23130    64.83650   181.29464
   379  H   1.0    0.05    1.05    1.44    83.03645    67.14196   181.73494
   380  H   1.0    0.06    1.05    1.44    85.20018    66.92087   184.31253
   381  H   1.0    0.07    1.04    1.43    89.38593    69.10539   183.97049
   382  H   1.0    0.06    1.04    1.43    83.26322    70.42064   178.86823
   383  H   1.0    0.07    1.03    1.43    91.30400    73.14562   182.69870
   384  H   1.0    0.06    1.03    1.43    85.18129    74.44953   177.56054
   385  H   1.0    0.06    1.03    1.43    89.17239    75.86494   179.54097
   386  N   5.0   -0.14    3.38    2.01    86.48331    61.93577   184.59977
   387  C   4.0    0.02    4.25    4.10    85.83324    59.81172   186.23249
   388  C   4.0    0.16    3.34    3.06    86.83480    57.33051   185.19314
   389  O   6.0   -0.29    1.25    1.80    88.21241    55.99069   186.44603
   390  H   1.0    0.11    1.09    1.44    87.99887    62.94110   185.23661
   391  H   1.0    0.06    1.03    1.43    86.63827    60.11218   188.10332
   392  H   1.0    0.07    1.03    1.43    83.78478    59.67377   186.39879
   393  N   5.0   -0.13    3.59    2.15    86.14694    56.70501   182.89146
   394  C   4.0    0.04    4.52    4.56    87.11826    54.44867   181.70282
   395  C   4.0    0.15    3.42    3.08    89.69773    54.86630   180.38757
   396  O   6.0   -0.29    1.20    1.80    91.12636    53.02571   179.84333
   397  C   4.0    0.05    4.30    4.19    85.21341    53.63420   179.74506
   398  O   6.0   -0.24    2.15    1.85    84.78255    55.72235   178.09155
   399  C   4.0   -0.06    4.12    3.84    82.74354    52.94634   181.00173
   400  H   1.0    0.11    1.10    1.44    84.92239    57.71790   181.80108
   401  H   1.0    0.06    1.06    1.44    87.38282    52.96146   183.10311
   402  H   1.0    0.05    1.04    1.43    85.90127    51.99581   178.70382
   403  H   1.0    0.14    1.03    1.43    83.55045    55.25559   176.79142
   404  H   1.0    0.06    1.00    1.43    81.37160    52.35864   179.58255
   405  H   1.0    0.05    1.00    1.43    83.03645    51.40055   182.33021
   406  H   1.0    0.06    1.00    1.43    81.99521    54.57151   182.02218
   407  N   5.0   -0.13    3.50    2.08    90.27032    57.28137   179.86790
   408  C   4.0    0.04    4.44    4.45    92.58523    57.99191   178.57532
   409  C   4.0    0.17    3.46    3.10    92.93861    56.56706   176.09600
   410  O   6.0   -0.29    1.26    1.80    95.03810    55.83006   175.45350
   411  C   4.0   -0.02    4.34    4.27    94.89637    57.56105   180.24584
   412  C   4.0    0.05    3.71    3.25    94.87936    59.00669   182.66091
   413  N   5.0   -0.17    2.60    1.91    96.09823    58.13931   184.79252
   414  C   4.0   -0.01    3.63    3.19    93.80411    61.23468   183.29586
   415  C   4.0    0.06    3.56    3.15    95.76942    59.77581   186.64634
   416  N   5.0   -0.10    3.48    2.06    94.39748    61.68065   185.78274
   417  H   1.0    0.11    1.08    1.44    89.14971    58.77993   180.32899
   418  H   1.0    0.06    1.07    1.44    92.41894    59.99880   178.14069
   419  H   1.0    0.07    1.04    1.43    94.99841    55.55983   180.72016
   420  H   1.0    0.05    1.04    1.43    96.57822    58.12230   179.19704
   421  H   1.0    0.05    1.01    1.43    92.68917    62.43655   182.07887
   422  H   1.0    0.05    1.01    1.43    96.49697    59.59251   188.54552
   423  H   1.0    0.09    1.05    1.44    93.86647    63.23023   186.79941
   424  N   5.0   -0.11    3.56    2.12    90.88637    56.17588   174.71839
   425  C   4.0    0.03    4.42    4.41    91.06400    55.08929   172.22017
   426  C   4.0    0.15    3.43    3.09    91.58746    57.33618   170.47974
   427  O   6.0   -0.31    1.31    1.80    91.37392    59.52259   171.31122
   428  C   4.0   -0.04    4.27    4.13    88.59602    53.77404   171.50964
   429  C   4.0   -0.03    4.15    3.90    87.51321    51.88998   173.42771
   430  C   4.0    0.24    3.10    3.02    84.62760    51.50826   173.10457
   431  O   6.0   -0.30    1.20    1.80    83.10826    53.30350   173.53164
   432  O   6.0   -0.27    1.16    1.80    83.82257    49.39177   172.40726
   433  H   1.0    0.09    1.06    1.44    89.09113    56.59162   175.28531
   434  H   1.0    0.06    1.05    1.44    92.53043    53.64932   172.06900
   435  H   1.0    0.05    1.04    1.43    87.16361    55.22535   171.21862
   436  H   1.0    0.05    1.03    1.43    88.90972    52.73469   169.75975
   437  H   1.0    0.06    1.03    1.43    88.43351    50.06451   173.17449
   438  H   1.0    0.06    1.03    1.43    87.85714    52.59296   175.33255
   439  N   5.0   -0.13    3.40    2.02    92.34335    56.81650   168.12892
   440  C   4.0    0.04    4.42    4.42    92.32823    58.74024   166.10313
   441  C   4.0    0.15    3.41    3.08    91.02054    57.78593   163.74286
   442  O   6.0   -0.29    1.23    1.80    90.64259    55.50881   163.40271
   443  C   4.0    0.06    4.18    3.97    94.98896    59.72290   165.27354
   444  O   6.0   -0.23    2.07    1.83    96.48752    57.69900   164.25498
   445  C   4.0   -0.06    4.02    3.66    96.41004    61.08161   167.45240
   446  H   1.0    0.10    1.05    1.44    92.97830    55.08929   167.55633
   447  H   1.0    0.06    1.08    1.44    91.27376    60.31249   166.91382
   448  H   1.0    0.05    1.05    1.44    94.71306    61.13074   163.79578
   449  H   1.0    0.12    1.01    1.43    98.14859    58.33773   163.74286
   450  H   1.0    0.05    0.99    1.43    98.25063    61.73357   166.79477
   451  H   1.0    0.05    1.00    1.43    95.31778    62.70300   168.10246
   452  H   1.0    0.06    1.00    1.43    96.68594    59.78526   169.03032
   453  N   5.0   -0.14    3.45    2.05    90.34213    59.56794   162.10447
   454  C   4.0    0.04    4.24    4.08    89.01365    58.99346   159.73476
   455  C   4.0    0.07    3.21    3.04    88.91916    61.27058   157.97920
   456  O   6.0   -0.31    1.19    1.80    89.34624    63.41731   158.79178
   457  C   4.0   -0.07    4.11    3.83    86.32646    58.12230   160.27333
   458  H   1.0    0.11    1.08    1.44    90.68417    61.44822   162.35769
   459  H   1.0    0.05    1.06    1.44    90.09646    57.53649   158.76155
   460  H   1.0    0.04    1.00    1.43    85.38538    57.71034   158.48754
   461  H   1.0    0.06    1.00    1.43    86.39260    56.42722   161.44118
   462  H   1.0    0.04    1.00    1.43    85.32302    59.62085   161.26732
   463  N   5.0   -0.20    3.23    1.96    84.12682    65.30137   152.83726
   464  C   4.0    0.03    4.21    4.02    81.46798    65.69065   152.42530
   465  C   4.0    0.07    3.24    3.04    80.93318    68.09250   150.97021
   466  O   6.0   -0.29    1.13    1.80    82.32213    69.97277   151.16107
   467  C   4.0   -0.05    4.40    4.39    80.12249    65.92876   154.96131
   468  C   4.0   -0.03    4.17    3.93    79.91462    63.79337   156.89450
   469  C   4.0   -0.08    4.12    3.84    78.69575    64.91776   159.25099
   470  C   4.0   -0.07    4.08    3.76    78.42741    61.49168   155.93263
   471  H   1.0    0.10    1.03    1.43    85.19829    66.90008   152.73332
   472  H   1.0    0.04    1.06    1.44    80.78578    64.10895   151.29524
   473  H   1.0    0.04    1.05    1.44    81.05790    67.46700   155.96286
   474  H   1.0    0.04    1.05    1.44    78.17607    66.44843   154.53045
   475  H   1.0    0.04    1.06    1.44    81.78923    63.04504   157.30646
   476  H   1.0    0.04    1.00    1.43    78.51433    63.44566   160.67962
   477  H   1.0    0.03    1.00    1.43    79.88627    66.44276   159.95963
   478  H   1.0    0.05    1.00    1.43    76.83437    65.65097   158.75777
   479  H   1.0    0.04    1.00    1.43    78.36694    60.06494   157.41606
   480  H   1.0    0.06    1.00    1.43    76.51500    62.08317   155.44886
   481  H   1.0    0.04    1.00    1.43    79.37038    60.73390   154.26589
   482  N   5.0   -0.21    3.21    1.96    71.39952    74.27568   149.54913
   483  C   4.0    0.03    4.30    4.20    69.00334    72.96043   149.85905
   484  C   4.0    0.15    3.40    3.08    68.67453    72.02124   152.57458
   485  O   6.0   -0.28    1.20    1.80    66.81882    72.64484   153.86527
   486  C   4.0   -0.05    4.28    4.15    68.91264    70.71921   148.00145
   487  C   4.0   -0.05    4.17    3.95    66.42198    69.26035   147.95798
   488  C   4.0   -0.05    4.15    3.90    66.60528    66.81504   146.42164
   489  C   4.0   -0.04    4.12    3.85    64.51524    64.96689   147.18131
   490  N   5.0   -0.12    3.99    2.82    64.51902    62.56505   145.70921
   491  H   1.0    0.08    1.03    1.43    72.21777    73.93931   147.83704
   492  H   1.0    0.05    1.05    1.44    67.45188    74.24544   149.43008
   493  H   1.0    0.04    1.03    1.43    69.23956    71.43731   146.09849
   494  H   1.0    0.05    1.03    1.43    70.39796    69.38696   148.51545
   495  H   1.0    0.06    1.03    1.43    65.89474    68.76524   149.88739
   496  H   1.0    0.04    1.03    1.43    64.96311    70.44142   147.10950
   497  H   1.0    0.04    1.03    1.43    66.40119    67.24401   144.41664
   498  H   1.0    0.05    1.03    1.43    68.42698    65.91931   146.76746
   499  H   1.0    0.05    1.02    1.43    64.75146    64.48123   149.16930
   500  H   1.0    0.04    1.02    1.43    62.68977    65.87585   146.89029
   501  H   1.0    0.05    1.01    1.43    63.05827    61.40098   146.31770
   502  H   1.0    0.05    1.01    1.43    64.27525    62.94866   143.79681
   503  H   1.0    0.06    1.01    1.43    66.22734    61.62585   145.95865
   504  N   5.0   -0.14    3.56    2.12    70.56804    70.60205   153.43063
   505  C   4.0    0.04    4.45    4.46    70.41308    69.09972   155.74554
   506  C   4.0    0.15    3.42    3.09    71.39196    70.66819   157.91117
   507  O   6.0   -0.30    1.24    1.80    71.51479    69.74978   160.06735
   508  C   4.0   -0.03    4.33    4.25    71.97021    66.69788   155.42807
   509  C   4.0    0.25    3.16    3.03    70.87417    64.95555   153.49866
   510  O   6.0   -0.29    1.19    1.80    68.50823    64.68532   153.46464
   511  O   6.0   -0.30    1.17    1.80    72.38406    63.85195   152.03601
   512  H   1.0    0.08    1.06    1.44    72.27257    70.45087   152.54246
   513  H   1.0    0.07    1.06    1.44    68.48745    68.49123   156.14806
   514  H   1.0    0.04    1.04    1.43    73.87506    67.20243   154.82714
   515  H   1.0    0.06    1.03    1.43    72.04202    65.69821   157.22709
   516  N   5.0   -0.12    3.49    2.07    71.97399    73.06247   157.41606
   517  C   4.0    0.03    4.42    4.42    72.84516    74.78212   159.39838
   518  C   4.0    0.15    3.42    3.08    70.70221    76.36383   160.54545
   519  O   6.0   -0.28    1.34    1.80    68.63485    76.51689   159.49287
   520  C   4.0   -0.05    4.36    4.31    74.92385    76.52067   158.38549
   521  C   4.0   -0.03    4.19    3.98    77.64506    75.71943   158.93729
   522  C   4.0   -0.08    4.13    3.86    78.00033    72.91130   158.43840
   523  C   4.0   -0.08    4.10    3.81    79.49699    77.27467   157.38583
   524  H   1.0    0.09    1.08    1.44    71.86250    73.86750   155.66806
   525  H   1.0    0.06    1.07    1.44    73.60861    73.62183   160.91961
   526  H   1.0    0.04    1.04    1.43    74.72543    76.62839   156.33892
   527  H   1.0    0.05    1.05    1.44    74.65929    78.38583   159.21886
   528  H   1.0    0.03    1.06    1.44    78.04757    76.06147   160.92906
   529  H   1.0    0.04    1.00    1.43    79.95242    72.39918   158.84847
   530  H   1.0    0.04    1.00    1.43    76.72476    71.84738   159.65728
   531  H   1.0    0.04    1.00    1.43    77.57136    72.52201   156.46175
   532  H   1.0    0.04    1.00    1.43    81.41506    76.66051   157.81857
   533  H   1.0    0.04    1.00    1.43    79.10204    76.98744   155.38461
   534  H   1.0    0.04    1.02    1.43    79.27022    79.26455   157.86771
   535  N   5.0   -0.14    3.47    2.06    71.23322    77.53357   162.70918
   536  C   4.0    0.04    4.45    4.46    69.45121    79.12849   164.01120
   537  C   4.0    0.14    3.54    3.13    70.88551    80.42674   166.12203
   538  O   6.0   -0.32    1.38    1.80    71.83415    79.13605   167.79255
   539  C   4.0   -0.02    4.35    4.29    67.12873    77.81891   165.11292
   540  C   4.0    0.01    3.63    3.19    65.65097    76.32036   163.21563
   541  C   4.0   -0.02    3.50    3.11    64.01069    77.51656   161.55267
   542  C   4.0   -0.02    3.50    3.11    65.92120    73.72388   163.06067
   543  C   4.0   -0.03    3.37    3.07    62.65953    76.15029   159.77444
   544  C   4.0   -0.02    3.37    3.07    64.56816    72.33115   161.30134
   545  C   4.0   -0.02    3.37    3.07    62.93354    73.54435   159.65161
   546  H   1.0    0.08    1.07    1.44    72.93019    77.39562   163.61247
   547  H   1.0    0.05    1.07    1.44    68.67831    80.43430   162.61848
   548  H   1.0    0.06    1.04    1.43    67.73912    76.52634   166.59635
   549  H   1.0    0.05    1.03    1.43    65.87207    79.24944   165.89904
   550  H   1.0    0.05    1.03    1.43    63.78581    79.54234   161.64716
   551  H   1.0    0.07    1.03    1.43    67.20432    72.76957   164.32868
   552  H   1.0    0.05    1.03    1.43    61.39720    77.10838   158.48943
   553  H   1.0    0.05    1.03    1.43    64.78736    70.30347   161.21630
   554  H   1.0    0.06    1.03    1.43    61.87719    72.46721   158.27778
   555  N   5.0   -0.09    3.66    2.22    71.08582    82.96086   166.07290
   556  C   4.0    0.04    4.64    4.71    72.67130    84.16461   168.01364
   557  C   4.0    0.16    3.46    3.10    71.72644    83.73754   170.65737
   558  O   6.0   -0.30    1.32    1.80    69.49467    83.24243   171.03532
   559  C   4.0   -0.04    4.39    4.36    72.59949    86.96141   167.30500
   560  C   4.0   -0.04    4.32    4.24    72.09304    86.92550   164.53466
   561  C   4.0   -0.01    4.35    4.29    70.22411    84.82413   164.19640
   562  H   1.0    0.05    1.06    1.44    74.59504    83.44085   167.87947
   563  H   1.0    0.05    1.03    1.43    71.09149    87.91950   168.32923
   564  H   1.0    0.04    1.02    1.43    74.40985    87.85147   167.72452
   565  H   1.0    0.04    1.03    1.43    71.29747    88.72830   163.93562
   566  H   1.0    0.05    1.03    1.43    73.83348    86.54378   163.50098
   567  H   1.0    0.06    1.02    1.43    68.30981    85.46097   164.60836
   568  H   1.0    0.05    1.02    1.43    70.31481    84.05123   162.28966
   569  N   5.0   -0.15    3.47    2.06    73.45554    83.86226   172.45450
   570  C   4.0    0.04    4.48    4.51    72.92641    82.84748   174.94138
   571  C   4.0    0.16    3.50    3.11    71.27668    84.62004   176.42859
   572  O   6.0   -0.29    1.28    1.80    69.23200    83.89438   177.22228
   573  C   4.0   -0.04    4.35    4.30    75.34148    82.24465   176.37757
   574  C   4.0   -0.02    3.59    3.16    74.99944    82.15962   179.19893
   575  C   4.0   -0.04    3.47    3.10    73.72577    80.17729   180.37434
   576  C   4.0   -0.04    3.48    3.11    75.94242    84.06824   180.69560
   577  C   4.0   -0.04    3.41    3.08    73.41963    80.09414   182.98594
   578  C   4.0   -0.03    3.46    3.10    75.65896    84.01722   183.29586
   579  C   4.0    0.07    3.44    3.09    74.40418    82.03867   184.44481
   580  O   6.0   -0.23    2.10    1.84    74.17552    82.12371   187.03752
   581  H   1.0    0.09    1.07    1.44    75.20731    84.63894   172.25230
   582  H   1.0    0.06    1.07    1.44    71.92675    81.06357   174.69949
   583  H   1.0    0.05    1.03    1.43    76.03123    80.40028   175.77097
   584  H   1.0    0.05    1.04    1.43    76.74366    83.69407   175.95616
   585  H   1.0    0.05    1.04    1.43    72.95854    78.66929   179.23295
   586  H   1.0    0.05    1.03    1.43    76.92129    85.63293   179.82443
   587  H   1.0    0.06    1.03    1.43    72.43131    78.53890   183.86278
   588  H   1.0    0.07    1.03    1.43    76.42241    85.53089   184.43158
   589  H   1.0    0.13    1.03    1.43    74.99755    83.64683   187.69703
   590  N   5.0   -0.15    3.50    2.08    72.16296    86.94251   176.75174
   591  C   4.0    0.04    4.43    4.44    70.83638    88.79255   178.30887
   592  C   4.0    0.15    3.43    3.09    68.27391    89.47285   177.15803
   593  O   6.0   -0.29    1.22    1.80    66.35584    89.61836   178.48084
   594  C   4.0   -0.05    4.30    4.20    72.42753    91.17739   178.61690
   595  C   4.0   -0.03    4.21    4.02    72.18375    92.36980   181.19448
   596  C   4.0    0.24    3.14    3.03    73.48010    90.82023   183.22216
   597  O   6.0   -0.28    1.16    1.80    75.85549    90.94306   183.40357
   598  O   6.0   -0.29    1.17    1.80    72.10438    89.48608   184.62245
   599  H   1.0    0.07    1.06    1.44    73.79191    87.60770   175.96561
   600  H   1.0    0.06    1.06    1.44    70.53402    87.97241   180.17403
   601  H   1.0    0.05    1.04    1.43    74.40985    90.69740   178.32588
   602  H   1.0    0.04    1.04    1.43    71.82659    92.56445   177.21850
   603  H   1.0    0.05    1.03    1.43    73.04925    94.23874   181.16047
   604  H   1.0    0.06    1.03    1.43    70.18820    92.52665   181.68203
   605  N   5.0   -0.14    3.46    2.05    68.26068    89.83190   174.67682
   606  C   4.0    0.04    4.36    4.31    65.94955    90.47063   173.32188
   607  C   4.0    0.17    3.37    3.07    63.88408    88.35981   173.44283
   608  O   6.0   -0.27    1.24    1.80    61.63908    88.92672   173.31811
   609  C   4.0   -0.04    4.25    4.09    66.63552    91.26809   170.60068
   610  C   4.0   -0.03    4.17    3.93    64.44154    92.10902   168.92260
   611  C   4.0    0.26    3.12    3.03    62.89575    89.91505   167.83790
   612  O   6.0   -0.26    1.17    1.80    60.56950    90.22686   167.54688
   613  O   6.0   -0.29    1.18    1.80    63.96722    87.86092   167.32200
   614  H   1.0    0.08    1.06    1.44    69.81593    89.69584   173.54676
   615  H   1.0    0.06    1.06    1.44    65.05382    92.08824   174.22895
   616  H   1.0    0.04    1.03    1.43    67.95455    92.84602   170.70839
   617  H   1.0    0.06    1.03    1.43    67.53125    89.66372   169.66904
   618  H   1.0    0.06    1.03    1.43    63.16787    93.28443   170.03565
   619  H   1.0    0.05    1.03    1.43    65.19366    93.18995   167.33901
   620  N   5.0   -0.12    3.47    2.06    64.61729    85.96741   173.68471
   621  C   4.0    0.04    4.39    4.36    62.78425    83.91139   174.04187
   622  C   4.0    0.16    3.40    3.08    63.54959    82.33914   176.33222
   623  O   6.0   -0.29    1.23    1.80    63.45322    79.99021   176.30198
   624  C   4.0    0.04    4.15    3.89    62.56505    82.28812   171.64759
   625  O   6.0   -0.23    2.05    1.83    64.88941    81.10704   171.03154
   626  H   1.0    0.11    1.06    1.44    66.45599    85.38916   173.64314
   627  H   1.0    0.06    1.06    1.44    60.91532    84.69941   174.40470
   628  H   1.0    0.05    1.01    1.43    61.14397    80.83114   171.96317
   629  H   1.0    0.06    1.01    1.43    61.99813    83.49565   170.07723
   630  H   1.0    0.16    1.06    1.44    66.19332    82.38827   170.73863
   631  N   5.0   -0.12    3.49    2.07    64.27147    83.70163   178.33155
   632  C   4.0    0.04    4.40    4.37    65.09350    82.58102   180.72583
   633  C   4.0    0.15    3.44    3.09    62.94299    81.01633   181.80297
   634  O   6.0   -0.30    1.28    1.80    63.09984    78.70331   181.85967
   635  C   4.0   -0.04    4.28    4.16    65.94199    84.64838   182.60422
   636  C   4.0   -0.04    4.17    3.95    67.24779    83.69785   184.98527
   637  C   4.0   -0.04    4.16    3.91    67.60684    85.79167   186.92980
   638  C   4.0   -0.03    4.12    3.84    65.20877    86.23386   188.49071
   639  N   5.0   -0.11    3.98    2.80    65.39019    88.32957   190.38233
   640  H   1.0    0.10    1.07    1.44    64.30926    85.62915   178.35234
   641  H   1.0    0.06    1.06    1.44    66.72433    81.36026   180.42347
   642  H   1.0    0.07    1.03    1.43    67.26291    85.89938   181.63857
   643  H   1.0    0.05    1.04    1.43    64.27714    85.70663   183.19948
   644  H   1.0    0.05    1.03    1.43    66.10261    82.21631   185.84132
   645  H   1.0    0.05    1.03    1.43    69.10350    82.95519   184.49016
   646  H   1.0    0.06    1.03    1.43    69.12618    85.27010   188.21859
   647  H   1.0    0.06    1.03    1.43    68.07738    87.54722   185.96037
   648  H   1.0    0.04    1.02    1.43    63.66676    86.69496   187.20570
   649  H   1.0    0.05    1.02    1.43    64.77225    84.50665   189.52439
   650  H   1.0    0.06    1.01    1.43    63.69321    88.50531   191.35743
   651  H   1.0    0.07    1.01    1.43    66.82827    87.95163   191.66923
   652  H   1.0    0.06    1.01    1.43    65.77947    90.02654   189.46959
   653  N   5.0   -0.15    3.47    2.06    60.88886    82.28056   182.51351
   654  C   4.0    0.03    4.41    4.40    58.85551    81.06357   183.93459
   655  C   4.0    0.15    3.40    3.08    57.04894    79.48187   182.30942
   656  O   6.0   -0.30    1.23    1.80    55.62975    77.95686   183.32231
   657  C   4.0   -0.04    4.30    4.20    57.37586    83.01944   185.44448
   658  C   4.0   -0.03    4.21    4.01    56.29305    81.93663   187.87277
   659  C   4.0    0.25    3.12    3.03    54.18789    83.53345   188.98204
   660  O   6.0   -0.27    1.19    1.80    54.11041    85.84647   188.47371
   661  O   6.0   -0.27    1.17    1.80    52.61564    82.45441   190.38233
   662  H   1.0    0.08    1.06    1.44    60.57328    84.14383   182.13746
   663  H   1.0    0.05    1.07    1.44    59.72668    79.76155   185.27062
   664  H   1.0    0.05    1.03    1.43    58.62875    84.57657   185.93958
   665  H   1.0    0.06    1.04    1.43    55.81117    83.71297   184.29741
   666  H   1.0    0.06    1.04    1.43    55.52960    80.06391   187.48538
   667  H   1.0    0.05    1.03    1.43    57.79538    81.80813   189.27495
   668  N   5.0   -0.14    3.46    2.05    57.09807    79.84659   179.82065
   669  C   4.0    0.04    4.39    4.37    55.77715    78.15718   178.08021
   670  C   4.0    0.16    3.39    3.08    56.96012    75.50400   178.08966
   671  O   6.0   -0.30    1.23    1.80    55.60330    73.65018   177.86101
   672  C   4.0   -0.05    4.26    4.12    55.78660    79.24188   175.38924
   673  C   4.0   -0.05    4.18    3.97    54.01404    77.90206   173.54298
   674  C   4.0   -0.05    4.17    3.93    54.84552    78.26867   170.80477
   675  C   4.0   -0.04    4.12    3.84    52.70824    77.84159   168.91126
   676  N   5.0   -0.12    4.01    2.88    51.52527    75.30369   169.13236
   677  H   1.0    0.08    1.06    1.44    58.03159    81.29034   178.94760
   678  H   1.0    0.06    1.06    1.44    53.81751    78.00600   178.69438
   679  H   1.0    0.04    1.03    1.43    55.21212    81.21853   175.47806
   680  H   1.0    0.05    1.03    1.43    57.69711    79.09637   174.63146
   681  H   1.0    0.06    1.03    1.43    54.00837    75.88384   173.95116
   682  H   1.0    0.04    1.03    1.43    52.11297    78.66740   173.74707
   683  H   1.0    0.04    1.03    1.43    55.52960    80.19619   170.56477
   684  H   1.0    0.04    1.03    1.43    56.34974    76.92885   170.37580
   685  H   1.0    0.04    1.02    1.43    51.24181    79.25322   169.22874
   686  H   1.0    0.04    1.02    1.43    53.46035    78.02489   167.00264
   687  H   1.0    0.05    1.01    1.43    50.08719    75.11472   167.80577
   688  H   1.0    0.05    1.01    1.43    52.87075    73.90529   168.81867
   689  H   1.0    0.06    1.02    1.43    50.76938    75.06936   170.93138
   690  N   5.0   -0.14    3.44    2.04    59.46779    75.33959   178.34478
   691  C   4.0    0.04    4.38    4.35    60.83028    72.89807   178.36367
   692  C   4.0    0.14    3.36    3.07    62.24001    72.19131   180.83166
   693  O   6.0   -0.29    1.21    1.80    63.30393    70.09371   181.03197
   694  C   4.0   -0.02    4.34    4.28    62.70489    72.87161   176.17726
   695  C   4.0   -0.01    3.55    3.14    61.47656    72.79413   173.63180
   696  C   4.0   -0.03    3.48    3.11    59.85518    70.82504   172.98740
   697  C   4.0   -0.04    3.46    3.10    61.97545    74.64606   171.83656
   698  C   4.0   -0.03    3.39    3.08    58.72512    70.72866   170.62336
   699  C   4.0   -0.04    3.37    3.07    60.86618    74.53835   169.45551
   700  C   4.0   -0.04    3.37    3.07    59.23724    72.57304   168.85268
   701  H   1.0    0.11    1.06    1.44    60.62808    76.86649   178.54509
   702  H   1.0    0.06    1.07    1.44    59.41298    71.42219   178.12557
   703  H   1.0    0.06    1.04    1.43    63.85573    74.57803   176.26986
   704  H   1.0    0.06    1.04    1.43    63.90108    71.20487   176.34923
   705  H   1.0    0.06    1.03    1.43    59.47157    69.35105   174.34612
   706  H   1.0    0.07    1.03    1.43    63.23590    76.18430   172.29576
   707  H   1.0    0.05    1.03    1.43    57.44200    69.20743   170.16793
   708  H   1.0    0.05    1.03    1.43    61.27247    75.98588   168.07412
   709  H   1.0    0.05    1.03    1.43    58.37363    72.48800   167.00453
   710  N   5.0   -0.13    3.40    2.02    62.18899    73.87884   182.70815
   711  C   4.0    0.02    4.27    4.14    63.81416    73.66908   184.90968
   712  C   4.0    0.15    3.31    3.05    62.68599    72.17241   187.04696
   713  O   6.0   -0.31    1.22    1.80    63.45700    72.54847   189.21448
   714  H   1.0    0.10    1.07    1.44    61.03059    75.41896   182.74595
   715  H   1.0    0.05    1.03    1.43    65.57349    72.75445   184.35410
   716  H   1.0    0.06    1.03    1.43    64.23367    75.55880   185.61266
   717  N   5.0   -0.13    3.49    2.07    60.88319    70.49056   186.44981
   718  C   4.0    0.03    4.43    4.42    59.58873    68.91831   188.32631
   719  C   4.0    0.16    3.56    3.14    61.26869    66.71111   188.90456
   720  O   6.0   -0.28    1.30    1.80    62.41576    65.71333   187.18491
   721  C   4.0   -0.04    4.29    4.17    57.10941    67.82037   187.28507
   722  C   4.0   -0.05    4.16    3.93    55.05717    69.71199   186.54997
   723  C   4.0   -0.05    4.17    3.95    54.31828    71.48266   188.71748
   724  C   4.0   -0.03    4.14    3.87    55.53716    74.07915   188.44536
   725  N   5.0   -0.12    4.00    2.87    55.52015    75.50967   190.85287
   726  H   1.0    0.09    1.07    1.44    60.26903    70.17119   184.65079
   727  H   1.0    0.04    1.06    1.44    59.16543    70.05214   189.99305
   728  H   1.0    0.06    1.03    1.43    57.55538    66.73000   185.59565
   729  H   1.0    0.05    1.03    1.43    56.30438    66.58827   188.72504
   730  H   1.0    0.05    1.03    1.43    55.74125    70.87039   184.99094
   731  H   1.0    0.05    1.03    1.43    53.37153    68.68020   185.97171
   732  H   1.0    0.04    1.03    1.43    52.27360    71.72833   188.72693
   733  H   1.0    0.04    1.03    1.43    54.93622    70.66441   190.50327
   734  H   1.0    0.05    1.03    1.43    57.49491    73.84860   187.85010
   735  H   1.0    0.06    1.02    1.43    54.49781    75.17141   187.04130
   736  H   1.0    0.06    1.02    1.43    56.36486    77.26522   190.59776
   737  H   1.0    0.06    1.02    1.43    53.67200    75.77423   191.46514
   738  H   1.0    0.05    1.02    1.43    56.51225    74.51945   192.23048
   739  N   5.0   -0.09    3.64    2.20    61.41231    65.90041   191.30830
   740  C   4.0    0.03    4.58    4.64    62.84851    63.54770   191.79207
   741  C   4.0    0.15    3.41    3.08    61.78648    61.23846   190.39556
   742  O   6.0   -0.28    1.26    1.80    59.84951    61.46523   189.09354
   743  C   4.0   -0.05    4.35    4.30    62.74268    63.29637   194.66067
   744  C   4.0   -0.04    4.30    4.20    62.66331    65.99868   195.54317
   745  C   4.0   -0.02    4.33    4.25    61.00602    67.35361   193.65912
   746  H   1.0    0.04    1.05    1.44    64.80815    63.76880   191.19680
   747  H   1.0    0.05    1.03    1.43    61.04949    62.27025   195.22948
   748  H   1.0    0.03    1.02    1.43    64.42076    62.32694   195.35798
   749  H   1.0    0.04    1.03    1.43    61.85451    66.09317   197.43479
   750  H   1.0    0.04    1.03    1.43    64.56627    66.78858   195.55073
   751  H   1.0    0.04    1.02    1.43    59.02937    67.28369   194.23359
   752  H   1.0    0.05    1.02    1.43    61.60507    69.31137   193.42668
   753  N   5.0   -0.16    3.39    2.02    63.08094    59.07472   190.54296
   754  C   4.0    0.03    4.44    4.45    62.73134    57.20956   188.51528
   755  C   4.0    0.14    3.47    3.10    63.23590    54.40332   188.83464
   756  O   6.0   -0.29    1.33    1.80    62.50080    52.95390   187.19058
   757  C   4.0   -0.02    4.37    4.32    64.23179    58.05238   186.19659
   758  C   4.0    0.16    3.26    3.05    63.18299    56.96957   183.77963
   759  O   6.0   -0.31    1.27    1.80    64.19210    55.13464   182.74217
   760  N   5.0   -0.18    3.18    1.95    61.09673    58.05049   182.90280
   761  H   1.0    0.07    1.04    1.44    64.30548    58.58717   191.94891
   762  H   1.0    0.07    1.09    1.44    60.67532    57.22846   188.39056
   763  H   1.0    0.06    1.04    1.43    64.16753    60.10651   186.06053
   764  H   1.0    0.05    1.04    1.43    66.18198    57.42121   186.38934
   765  H   1.0    0.09    1.02    1.43    60.28982    57.40798   181.27385
   766  H   1.0    0.10    1.03    1.43    60.30116    59.52448   183.85711
   767  N   5.0   -0.15    3.45    2.04    64.44721    53.56617   190.84531
   768  C   4.0    0.04    4.39    4.36    64.49257    50.83552   191.38955
   769  C   4.0    0.16    3.40    3.08    66.12718    49.36720   189.51306
   770  O   6.0   -0.30    1.24    1.80    65.97978    47.05229   189.42424
   771  C   4.0   -0.03    4.29    4.17    61.79971    49.62987   191.41601
   772  C   4.0   -0.05    4.16    3.91    59.84384    50.65977   193.30196
   773  C   4.0   -0.05    4.19    3.97    60.74524    50.41411   196.01749
   774  C   4.0   -0.04    4.14    3.89    60.80193    47.67212   196.87354
   775  N   5.0   -0.12    4.00    2.86    61.37830    47.47181   199.61742
   776  H   1.0    0.07    1.05    1.44    65.39019    54.67922   192.10576
   777  H   1.0    0.04    1.05    1.44    65.29570    50.61820   193.27361
   778  H   1.0    0.07    1.04    1.43    60.98902    49.87365   189.53762
   779  H   1.0    0.05    1.03    1.43    62.01892    47.62487   191.83364
   780  H   1.0    0.05    1.03    1.43    59.50936    52.65532   192.91267
   781  H   1.0    0.04    1.03    1.43    58.08829    49.59964   193.10732
   782  H   1.0    0.04    1.03    1.43    62.65197    51.17945   196.17434
   783  H   1.0    0.04    1.03    1.43    59.46590    51.45157   197.25526
   784  H   1.0    0.04    1.02    1.43    58.96323    46.81040   196.53150
   785  H   1.0    0.04    1.02    1.43    62.25891    46.65922   195.82852
   786  H   1.0    0.06    1.01    1.43    61.40664    45.58397   200.16166
   787  H   1.0    0.06    1.02    1.43    63.13385    48.27116   199.99537
   788  H   1.0    0.06    1.02    1.43    60.00825    48.41667   200.66244
   789  N   5.0   -0.12    3.50    2.08    67.65786    50.71269   188.04663
   790  C   4.0    0.03    4.43    4.43    69.35294    49.51460   186.23627
   791  C   4.0    0.15    3.43    3.09    72.05336    49.52216   187.24161
   792  O   6.0   -0.29    1.29    1.80    72.77524    51.20023   188.68347
   793  C   4.0   -0.05    4.30    4.19    69.23578    50.86764   183.68514
   794  C   4.0   -0.03    4.23    4.07    66.64874    50.79583   182.43603
   795  C   4.0   -0.01    4.24    4.09    65.88530    48.10675   181.77463
   796  N   5.0   -0.14    3.41    2.03    67.64274    46.94079   179.99640
   797  C   4.0    0.09    3.35    3.06    67.57660    47.29228   177.51141
   798  N   5.0   -0.18    3.27    1.97    65.83427    48.78139   176.49851
   799  N   5.0   -0.18    3.29    1.98    69.25090    46.15278   176.03553
   800  H   1.0    0.09    1.07    1.44    67.76557    52.63643   188.07120
   801  H   1.0    0.05    1.07    1.44    68.78791    47.55495   185.94903
   802  H   1.0    0.05    1.03    1.43    69.74223    52.84430   183.96293
   803  H   1.0    0.04    1.03    1.43    70.57560    49.97191   182.40202
   804  H   1.0    0.08    1.05    1.44    65.24279    51.57062   183.72672
   805  H   1.0    0.05    1.03    1.43    66.69599    51.90321   180.69937
   806  H   1.0    0.05    1.03    1.43    65.85695    46.96914   183.49050
   807  H   1.0    0.05    1.03    1.43    64.01447    48.12565   180.91102
   808  H   1.0    0.08    1.06    1.44    69.00901    45.78239   180.70693
   809  H   1.0    0.08    1.04    1.43    64.54170    49.65822   177.62668
   810  H   1.0    0.09    1.03    1.43    65.78703    49.04973   174.58989
   811  H   1.0    0.09    1.02    1.43    70.59260    45.00382   176.80843
   812  H   1.0    0.09    1.06    1.44    69.19798    46.42490   174.12880
   813  N   5.0   -0.14    3.43    2.03    73.54058    47.64566   186.48383
   814  C   4.0    0.04    4.41    4.40    76.14651    47.44157   187.37956
   815  C   4.0    0.16    3.45    3.09    77.53924    49.91144   186.80886
   816  O   6.0   -0.30    1.25    1.80    77.90395    50.58040   184.64323
   817  C   4.0   -0.05    4.27    4.13    77.49199    45.15122   186.23438
   818  C   4.0   -0.05    4.19    3.97    79.80691    44.27250   187.71593
   819  C   4.0   -0.05    4.16    3.93    80.98232    41.92546   186.49705
   820  C   4.0   -0.04    4.11    3.83    83.71864    41.50783   187.30775
   821  N   5.0   -0.12    4.00    2.87    84.05123    41.45303   190.11210
   822  H   1.0    0.07    1.06    1.44    73.00767    46.25104   185.26495
   823  H   1.0    0.05    1.06    1.44    76.16729    47.13165   189.41668
   824  H   1.0    0.04    1.03    1.43    76.16540    43.57708   186.15879
   825  H   1.0    0.05    1.03    1.43    78.11560    45.63688   184.33332
   826  H   1.0    0.04    1.03    1.43    81.21853    45.77294   187.73860
   827  H   1.0    0.04    1.03    1.43    79.25133    43.79818   189.64156
   828  H   1.0    0.04    1.03    1.43    79.89383    40.26439   187.04696
   829  H   1.0    0.04    1.03    1.43    80.95019    42.14278   184.44859
   830  H   1.0    0.04    1.02    1.43    84.37059    39.70314   186.55753
   831  H   1.0    0.04    1.02    1.43    84.87704    43.03851   186.56319
   832  H   1.0    0.06    1.01    1.43    85.94285    41.16390   190.55996
   833  H   1.0    0.05    1.02    1.43    83.46542    43.15945   190.89256
   834  H   1.0    0.05    1.01    1.43    82.98354    39.99605   190.88689
   835  N   5.0   -0.13    3.37    2.01    78.12694    51.34574   188.78173
   836  C   4.0    0.03    4.27    4.13    79.72565    53.55672   188.53607
   837  C   4.0    0.16    3.33    3.06    78.44252    55.92077   187.53829
   838  O   6.0   -0.31    1.24    1.80    79.72754    57.60074   186.53674
   839  H   1.0    0.10    1.05    1.44    77.51845    51.01882   190.58075
   840  H   1.0    0.06    1.03    1.43    80.50233    54.00837   190.38989
   841  H   1.0    0.06    1.03    1.43    81.27144    53.10319   187.25294
   842  N   5.0   -0.13    3.48    2.07    75.94998    56.10974   187.79152
   843  C   4.0    0.04    4.45    4.47    74.65173    58.31127   186.78807
   844  C   4.0    0.15    3.49    3.11    74.67063    60.34273   188.81575
   845  O   6.0   -0.32    1.35    1.80    75.78179    62.33828   188.44536
   846  C   4.0   -0.04    4.35    4.29    71.99667    57.61208   185.93958
   847  C   4.0   -0.02    3.56    3.14    70.57748    59.70967   184.64512
   848  C   4.0   -0.04    3.49    3.11    69.39263    61.60318   186.02651
   849  C   4.0   -0.04    3.49    3.11    70.32993    59.72668   182.07321
   850  C   4.0   -0.04    3.39    3.07    68.04147    63.49101   184.82843
   851  C   4.0   -0.04    3.38    3.07    68.98823    61.61262   180.84299
   852  C   4.0   -0.03    3.37    3.07    67.82604    63.49479   182.22060
   853  H   1.0    0.11    1.07    1.44    74.81992    54.80772   188.65512
   854  H   1.0    0.06    1.07    1.44    75.57959    59.03315   185.09677
   855  H   1.0    0.05    1.04    1.43    72.12517    56.03982   184.61489
   856  H   1.0    0.05    1.04    1.43    70.90630    57.05272   187.59498
   857  H   1.0    0.05    1.03    1.43    69.52869    61.59940   188.06364
   858  H   1.0    0.05    1.06    1.44    71.19731    58.23946   180.97716
   859  H   1.0    0.06    1.04    1.43    67.15330    64.96311   185.92636
   860  H   1.0    0.06    1.03    1.43    68.85405    61.60696   178.80587
   861  H   1.0    0.07    1.03    1.43    66.76024    64.95555   181.27574
   862  N   5.0   -0.14    3.48    2.06    73.57270    59.82116   191.00972
   863  C   4.0    0.04    4.38    4.34    73.41396    61.76191   192.99960
   864  C   4.0    0.16    3.38    3.07    75.99533    62.55182   194.04273
   865  O   6.0   -0.29    1.20    1.80    76.15029    64.14675   195.75482
   866  C   4.0    0.03    4.13    3.86    71.66030    60.91343   195.17468
   867  O   6.0   -0.21    2.03    1.83    72.72421    58.91221   196.61276
   868  H   1.0    0.09    1.05    1.44    72.79035    58.12230   191.47270
   869  H   1.0    0.04    1.06    1.44    72.54847    63.43243   192.16245
   870  H   1.0    0.05    1.01    1.43    71.33338    62.51969   196.42189
   871  H   1.0    0.03    1.01    1.43    69.87640    60.27092   194.36965
   872  H   1.0    0.12    1.03    1.43    71.56392    58.42277   197.97147
   873  N   5.0   -0.12    3.57    2.13    77.95875    61.31783   193.06007
   874  C   4.0    0.03    4.38    4.34    80.61382    61.90175   193.50983
   875  C   4.0    0.15    3.42    3.08    81.50388    63.74046   191.46703
   876  O   6.0   -0.31    1.28    1.80    82.74732    65.59428   192.00561
   877  C   4.0   -0.04    4.23    4.06    82.17662    59.44700   193.52306
   878  C   4.0   -0.03    4.14    3.87    81.47364    57.57239   195.65089
   879  C   4.0    0.25    3.08    3.02    79.16629    55.81495   195.15011
   880  O   6.0   -0.29    1.22    1.80    77.80758    56.07195   193.21692
   881  O   6.0   -0.26    1.16    1.80    78.65039    54.14443   196.76016
   882  H   1.0    0.11    1.12    1.45    77.75655    59.81361   191.87332
   883  H   1.0    0.05    1.06    1.44    80.92184    62.75213   195.35987
   884  H   1.0    0.06    1.03    1.43    81.89505    58.48135   191.72593
   885  H   1.0    0.05    1.03    1.43    84.16461    59.93644   193.75738
   886  H   1.0    0.05    1.03    1.43    83.09692    56.35163   195.98915
   887  H   1.0    0.04    1.04    1.43    81.04468    58.66087   197.34597
   888  N   5.0   -0.13    3.42    2.03    80.79523    63.24913   189.11810
   889  C   4.0    0.02    4.27    4.14    81.13538    65.07460   187.08665
   890  C   4.0    0.15    3.36    3.07    79.87872    67.58416   187.66868
   891  O   6.0   -0.29    1.22    1.80    81.06357    69.62128   187.48160
   892  H   1.0    0.11    1.07    1.44    79.97509    61.59940   188.54930
   893  H   1.0    0.06    1.03    1.43    83.14794    65.40530   186.79374
   894  H   1.0    0.05    1.03    1.43    80.32091    64.32438   185.34999
   895  N   5.0   -0.14    3.51    2.08    77.48632    67.40275   188.44725
   896  C   4.0    0.03    4.44    4.45    76.01423    69.60239   189.24472
   897  C   4.0    0.16    3.55    3.14    77.41829    70.96677   191.24782
   898  O   6.0   -0.28    1.26    1.80    77.53735    73.27979   191.20058
   899  C   4.0   -0.05    4.40    4.38    73.44987    68.87862   190.31619
   900  C   4.0   -0.02    4.18    3.97    71.32582    68.18131   188.47938
   901  C   4.0   -0.07    4.11    3.82    69.08460    67.17976   189.99116
   902  C   4.0   -0.07    4.10    3.80    70.53213    70.39607   186.82398
   903  H   1.0    0.11    1.10    1.44    76.50367    65.74735   188.54930
   904  H   1.0    0.05    1.06    1.44    75.68730    70.77402   187.58365
   905  H   1.0    0.05    1.04    1.43    73.72766    67.24401   191.53884
   906  H   1.0    0.05    1.04    1.43    72.76579    70.47733   191.42168
   907  H   1.0    0.04    1.06    1.44    72.00612    66.72622   187.19058
   908  H   1.0    0.05    1.01    1.43    67.56715    66.68087   188.69103
   909  H   1.0    0.04    1.00    1.43    69.67986    65.51491   191.04940
   910  H   1.0    0.05    1.00    1.43    68.44209    68.64430   191.28940
   911  H   1.0    0.05    1.00    1.43    69.02224    69.78380   185.56353
   912  H   1.0    0.05    1.00    1.43    69.86506    71.92864   188.02773
   913  H   1.0    0.04    1.00    1.43    72.15541    71.02535   185.72227
   914  N   5.0   -0.13    3.50    2.08    78.48977    69.55136   193.02984
   915  C   4.0    0.05    4.48    4.50    79.93730    70.81181   194.99704
   916  C   4.0    0.17    3.55    3.14    82.16906    72.17808   193.85754
   917  O   6.0   -0.33    1.63    1.81    82.49032    74.32670   194.40745
   918  C   4.0   -0.04    4.25    4.10    80.77634    69.13751   197.21369
   919  C   4.0   -0.02    3.70    3.24    82.09914    70.75512   199.20357
   920  C   4.0   -0.01    3.59    3.16    81.00121    72.01557   201.17833
   921  C   4.0    0.00    3.93    3.50    84.71641    71.39952   199.26782
   922  N   5.0   -0.11    3.49    2.07    82.79645    73.33459   202.49736
   923  C   4.0    0.04    3.93    3.51    85.09058    72.99444   201.35219
   924  C   4.0   -0.05    3.44    3.09    86.77433    70.76457   197.78061
   925  C   4.0   -0.03    3.43    3.09    87.44329    73.94687   201.97958
   926  C   4.0   -0.05    3.40    3.08    89.10625    71.70376   198.42122
   927  C   4.0   -0.05    3.41    3.08    89.42561    73.27790   200.49425
   928  H   1.0    0.10    1.06    1.44    78.39339    67.62951   193.15456
   929  H   1.0    0.06    1.07    1.44    78.62961    72.14218   195.87009
   930  H   1.0    0.05    1.03    1.43    79.13227    68.24178   198.06974
   931  H   1.0    0.05    1.03    1.43    82.09158    67.70132   196.54284
   932  H   1.0    0.05    1.01    1.43    79.01133    71.97588   201.62998
   933  H   1.0    0.09    1.04    1.43    82.47520    74.39662   204.07339
   934  H   1.0    0.05    1.03    1.43    86.54945    69.55703   196.15166
   935  H   1.0    0.07    1.03    1.43    87.69273    75.17519   203.58963
   936  H   1.0    0.05    1.03    1.43    90.72763    71.20676   197.28739
   937  H   1.0    0.05    1.03    1.43    91.28888    73.98466   200.93456
   938  N   5.0   -0.13    3.47    2.06    83.60337    71.01590   192.16812
   939  C   4.0    0.04    4.37    4.33    85.85781    72.24044   191.12499
   940  C   4.0    0.17    3.38    3.07    85.33058    74.78024   189.74927
   941  O   6.0   -0.31    1.34    1.80    86.47764    75.32448   187.90301
   942  C   4.0   -0.03    4.26    4.13    87.29211    70.34316   189.43747
   943  C   4.0   -0.03    4.14    3.88    88.75476    68.26824   190.84153
   944  C   4.0    0.24    3.09    3.02    89.60891    66.04403   189.15023
   945  O   6.0   -0.32    1.25    1.80    88.97964    66.04214   186.88445
   946  O   6.0   -0.30    1.16    1.80    90.88448    64.22423   190.03651
   947  H   1.0    0.12    1.09    1.44    83.27077    69.24523   191.48215
   948  H   1.0    0.05    1.06    1.44    87.07290    72.78657   192.69724
   949  H   1.0    0.07    1.03    1.43    85.92584    69.40585   188.21293
   950  H   1.0    0.07    1.03    1.43    88.65460    71.39007   188.30174
   951  H   1.0    0.05    1.03    1.43    90.44417    69.10161   191.67490
   952  H   1.0    0.05    1.03    1.43    87.54722    67.49723   192.32119
   953  N   5.0   -0.13    3.51    2.08    83.58825    76.34682   190.62799
   954  C   4.0    0.04    4.36    4.30    83.55612    79.03212   189.90234
   955  C   4.0    0.14    3.29    3.05    82.55646    80.98421   191.99427
   956  O   6.0   -0.28    1.25    1.80    80.31524    81.73065   191.89789
   957  C   4.0   -0.01    4.28    4.15    82.04434    79.46676   187.37200
   958  C   4.0   -0.04    4.20    4.00    83.15361    78.25733   184.96071
   959  C   4.0   -0.06    4.15    3.91    81.77600    82.31079   186.87311
   960  C   4.0   -0.06    4.01    3.63    81.98765    75.81203   184.09143
   961  H   1.0    0.13    1.19    1.46    82.17662    75.83659   191.83742
   962  H   1.0    0.07    1.07    1.44    85.55923    79.46676   189.69825
   963  H   1.0    0.06    1.06    1.44    80.25099    78.51433   187.71404
   964  H   1.0    0.03    1.04    1.43    82.94007    79.60471   183.41680
   965  H   1.0    0.06    1.05    1.44    85.15105    77.88317   185.29897
   966  H   1.0    0.04    1.00    1.43    80.72909    82.58858   185.12133
   967  H   1.0    0.08    1.03    1.43    80.75933    83.17440   188.44347
   968  H   1.0    0.05    1.00    1.43    83.65250    83.14227   186.70870
   969  H   1.0    0.05    1.00    1.43    82.94952    75.18086   182.38312
   970  H   1.0    0.07    1.00    1.43    82.19930    74.40229   185.57865
   971  H   1.0    0.05    1.00    1.43    79.99021    76.12383   183.69837
   972  N   5.0   -0.12    3.36    2.00    84.02477    81.80246   193.92368
   973  C   4.0    0.03    4.38    4.35    86.30189    80.62894   195.12176
   974  C   4.0    0.15    3.38    3.07    88.64893    80.59303   193.55518
   975  O   6.0   -0.27    1.25    1.80    88.82846    82.08214   191.79396
   976  C   4.0   -0.03    4.40    4.37    85.76710    77.97009   196.14033
   977  C   4.0   -0.00    4.34    4.27    83.24999    77.72065   197.48392
   978  C   4.0    0.25    3.18    3.03    83.15928    79.25700   199.81017
   979  O   6.0   -0.29    1.22    1.80    85.20585    79.84659   200.82685
   980  O   6.0   -0.26    1.19    1.80    81.02389    79.86549   200.58118
   981  H   1.0    0.10    1.06    1.44    83.65439    83.47108   194.81374
   982  H   1.0    0.06    1.07    1.44    86.72330    81.87994   196.70346
   983  H   1.0    0.06    1.06    1.44    85.76899    76.64539   194.56240
   984  H   1.0    0.05    1.04    1.43    87.24676    77.46743   197.48203
   985  H   1.0    0.08    1.05    1.44    81.74577    78.35938   196.23103
   986  H   1.0    0.07    1.06    1.44    82.94763    75.74966   197.99982
   987  N   5.0   -0.14    3.40    2.02    90.47063    78.97165   194.24304
   988  C   4.0    0.04    4.37    4.33    92.74775    78.41985   192.65756
   989  C   4.0    0.18    3.52    3.12    92.30177    77.66585   189.86644
   990  O   6.0   -0.28    1.34    1.80    91.85391    75.53802   189.26550
   991  C   4.0   -0.03    4.31    4.22    94.35591    76.34115   193.90478
   992  C   4.0    0.16    3.25    3.04    96.70862    75.70053   192.38166
   993  O   6.0   -0.28    1.26    1.80    97.20561    76.82492   190.38233
   994  N   5.0   -0.18    3.17    1.95    98.15426    73.88451   193.30196
   995  H   1.0    0.07    1.06    1.44    90.45173    77.98521   195.89844
   996  H   1.0    0.06    1.06    1.44    93.72474    80.23209   192.56307
   997  H   1.0    0.04    1.03    1.43    94.95684    76.98177   195.76805
   998  H   1.0    0.05    1.03    1.43    93.22396    74.62906   194.08052
   999  H   1.0    0.09    1.02    1.43    99.76052    73.36483   192.37032
  1000  H   1.0    0.08    1.03    1.43    97.66482    73.00200   194.94413
  1001  N   5.0   -0.12    3.61    2.17    92.60224    79.38928   188.15812
  1002  C   4.0    0.05    4.52    4.56    91.74242    78.82236   185.68069
[...]
1092   6 C     -0.077  1.081  2.996  0.000    29.914     8.969
1093   6 C      0.143  1.053  2.804  0.000    24.889     8.176
1094   8 O     -0.431  1.731  4.700  0.000    21.468     6.255
1095   1 H      0.153  0.847  0.000  0.000     1.380     1.840
1096   1 H      0.066  0.934  0.000  0.000     2.126     2.280
1097   1 H      0.038  0.962  0.000  0.000     2.472     2.459
1098   1 H      0.047  0.953  0.000  0.000     2.361     2.403
1099   1 H      0.038  0.962  0.000  0.000     2.470     2.458
1100   1 H      0.043  0.957  0.000  0.000     2.415     2.430
1101   1 H      0.065  0.935  0.000  0.000     2.139     2.287
1102   1 H      0.051  0.949  0.000  0.000     2.302     2.372
1103   1 H      0.340  0.660  0.000  0.000     0.611     1.228
1104   7 N     -0.393  1.339  4.054  0.000    30.188     8.160
1105   6 C     -0.004  1.043  2.962  0.000    20.746     6.501
1106   6 C      0.201  1.087  2.712  0.000    23.725     7.977
1107   8 O     -0.367  1.740  4.628  0.000    21.040     6.150
1108   1 H      0.171  0.829  0.000  0.000     1.270     1.765
1109   1 H      0.039  0.961  0.000  0.000     2.459     2.452
1110   1 H      0.072  0.928  0.000  0.000     2.068     2.249
1111   7 N     -0.381  1.321  4.060  0.000    29.856     8.115
1112   6 C      0.042  1.047  2.910  0.000    19.876     6.349
1113   6 C      0.199  1.081  2.720  0.000    23.767     7.985
1114   8 O     -0.363  1.751  4.611  0.000    20.951     6.137
1115   6 C     -0.079  1.052  3.027  0.000    21.997     6.674
1116   6 C      0.002  1.072  2.926  0.000    27.981     8.677
1117   6 C     -0.049  1.078  2.971  0.000    29.227     8.866
1118   6 C     -0.045  1.076  2.969  0.000    29.114     8.849
1119   6 C     -0.031  1.077  2.954  0.000    28.778     8.797
1120   6 C     -0.026  1.077  2.949  0.000    28.653     8.778
1121   6 C     -0.033  1.085  2.948  0.000    28.825     8.805
1122   1 H      0.157  0.843  0.000  0.000     1.354     1.823
1123   1 H      0.060  0.940  0.000  0.000     2.197     2.318
1124   1 H      0.061  0.939  0.000  0.000     2.190     2.314
1125   1 H      0.071  0.929  0.000  0.000     2.073     2.252
1126   1 H      0.056  0.944  0.000  0.000     2.244     2.343
1127   1 H      0.030  0.970  0.000  0.000     2.587     2.515
1128   1 H      0.031  0.969  0.000  0.000     2.570     2.507
1129   1 H      0.006  0.994  0.000  0.000     2.954     2.688
1130   1 H      0.038  0.962  0.000  0.000     2.478     2.462
1131   7 N     -0.387  1.314  4.072  0.000    30.003     8.135
1132   6 C     -0.009  1.040  2.969  0.000    20.816     6.510
1133   6 C      0.268  1.042  2.690  0.000    22.473     7.762
1134   8 O     -0.529  1.767  4.762  0.000    24.441     6.628
1135   1 H      0.175  0.825  0.000  0.000     1.245     1.748
1136   1 H      0.047  0.953  0.000  0.000     2.354     2.399
1137   1 H      0.033  0.967  0.000  0.000     2.546     2.495
1138   7 N     -0.161  1.240  3.921  0.000    24.484     7.349
1139   6 C      0.011  1.060  2.930  0.000    20.407     6.433
1140   6 C      0.277  1.038  2.685  0.000    22.311     7.736
1141   8 O     -0.483  1.741  4.742  0.000    23.414     6.488
1142   6 C     -0.081  1.056  3.025  0.000    22.040     6.682
1143   6 C     -0.084  1.054  3.030  0.000    22.111     6.695
1144   6 C     -0.101  1.056  3.045  0.000    22.431     6.743
1145   6 C     -0.054  1.059  2.995  0.000    21.646     6.641
1146   7 N     -0.139  1.231  3.908  0.000    23.990     7.275
1147   1 H      0.234  0.766  0.000  0.000     0.947     1.524
1148   1 H      0.072  0.928  0.000  0.000     2.062     2.246
1149   1 H      0.069  0.931  0.000  0.000     2.100     2.266
1150   1 H      0.074  0.926  0.000  0.000     2.047     2.237
1151   1 H      0.069  0.931  0.000  0.000     2.095     2.263
1152   1 H      0.085  0.915  0.000  0.000     1.928     2.171
1153   1 H      0.095  0.905  0.000  0.000     1.830     2.116
1154   1 H      0.075  0.925  0.000  0.000     2.034     2.230
1155   1 H      0.096  0.904  0.000  0.000     1.821     2.110
1156   1 H      0.129  0.871  0.000  0.000     1.542     1.942
1157   1 H      0.294  0.706  0.000  0.000     0.731     1.340
1158   1 H      0.312  0.688  0.000  0.000     0.680     1.292
1159   1 H      0.267  0.733  0.000  0.000     0.820     1.418
1160   7 N     -0.099  1.241  3.858  0.000    23.179     7.150
1161   6 C      0.019  1.064  2.917  0.000    20.227     6.399
1162   6 C      0.276  1.044  2.680  0.000    22.333     7.739
1163   8 O     -0.450  1.745  4.704  0.000    22.695     6.387
1164   6 C     -0.071  1.052  3.019  0.000    21.832     6.648
1165   6 C     -0.063  1.044  3.020  0.000    21.687     6.625
1166   6 C     -0.016  1.057  2.959  0.000    20.914     6.520
1167   1 H      0.049  0.951  0.000  0.000     2.332     2.388
1168   1 H      0.075  0.925  0.000  0.000     2.034     2.230
1169   1 H      0.038  0.962  0.000  0.000     2.477     2.461
1170   1 H      0.057  0.943  0.000  0.000     2.229     2.335
1171   1 H      0.028  0.972  0.000  0.000     2.614     2.528
1172   1 H      0.089  0.911  0.000  0.000     1.891     2.150
1173   1 H      0.066  0.934  0.000  0.000     2.129     2.282
1174   7 N     -0.184  1.238  3.947  0.000    24.993     7.425
1175   6 C      0.019  1.055  2.926  0.000    20.257     6.408
1176   6 C      0.197  1.075  2.728  0.000    23.792     7.988
1177   8 O     -0.335  1.757  4.578  0.000    20.427     6.060
1178   6 C     -0.091  1.056  3.034  0.000    22.210     6.707
1179   6 C      0.293  1.030  2.677  0.000    22.023     7.684
1180   8 O     -0.501  1.757  4.744  0.000    23.803     6.541
1181   7 N     -0.274  1.266  4.008  0.000    27.096     7.731
1182   1 H      0.195  0.805  0.000  0.000     1.134     1.668
1183   1 H      0.125  0.875  0.000  0.000     1.576     1.963
1184   1 H      0.078  0.922  0.000  0.000     2.004     2.214
1185   1 H      0.067  0.933  0.000  0.000     2.124     2.279
1186   1 H      0.249  0.751  0.000  0.000     0.888     1.477
1187   1 H      0.233  0.767  0.000  0.000     0.954     1.530
1188   7 N     -0.375  1.319  4.057  0.000    29.698     8.094
1189   6 C     -0.012  1.043  2.969  0.000    20.881     6.521
1190   6 C      0.271  1.048  2.680  0.000    22.420     7.754
1191   8 O     -0.530  1.761  4.770  0.000    24.470     6.632
1192   1 H      0.165  0.835  0.000  0.000     1.302     1.788
1193   1 H      0.063  0.937  0.000  0.000     2.170     2.304
1194   1 H      0.075  0.925  0.000  0.000     2.033     2.230
1195   7 N     -0.172  1.241  3.931  0.000    24.732     7.386
1196   6 C      0.021  1.055  2.924  0.000    20.216     6.401
1197   6 C      0.280  1.040  2.680  0.000    22.267     7.727
1198   8 O     -0.496  1.744  4.752  0.000    23.701     6.527
1199   6 C     -0.086  1.055  3.031  0.000    22.131     6.696
1200   6 C      0.004  1.074  2.922  0.000    27.934     8.669
1201   6 C     -0.045  1.077  2.968  0.000    29.124     8.850
1202   6 C     -0.038  1.080  2.958  0.000    28.953     8.825
1203   6 C     -0.034  1.083  2.952  0.000    28.851     8.808
1204   6 C     -0.032  1.083  2.949  0.000    28.810     8.802
1205   6 C     -0.033  1.082  2.952  0.000    28.828     8.805
1206   1 H      0.213  0.787  0.000  0.000     1.043     1.600
1207   1 H      0.096  0.904  0.000  0.000     1.817     2.108
1208   1 H      0.088  0.912  0.000  0.000     1.898     2.154
1209   1 H      0.051  0.949  0.000  0.000     2.301     2.372
1210   1 H      0.010  0.990  0.000  0.000     2.895     2.661
1211   1 H      0.052  0.948  0.000  0.000     2.299     2.371
1212   1 H      0.044  0.956  0.000  0.000     2.392     2.419
1213   1 H      0.057  0.943  0.000  0.000     2.234     2.337
1214   1 H      0.053  0.947  0.000  0.000     2.280     2.361
1215   7 N     -0.174  1.244  3.930  0.000    24.772     7.392
1216   6 C      0.030  1.062  2.908  0.000    20.075     6.380
1217   6 C      0.284  1.037  2.680  0.000    22.198     7.715
1218   8 O     -0.520  1.768  4.752  0.000    24.237     6.601
1219   6 C      0.091  1.033  2.876  0.000    19.286     6.293
1220   8 O     -0.469  1.728  4.741  0.000    22.235     6.365
1221   1 H      0.227  0.773  0.000  0.000     0.980     1.551
1222   1 H      0.066  0.934  0.000  0.000     2.134     2.285
1223   1 H      0.033  0.967  0.000  0.000     2.539     2.492
1224   1 H      0.051  0.949  0.000  0.000     2.304     2.374
1225   1 H      0.308  0.692  0.000  0.000     0.697     1.311
1226   7 N     -0.177  1.245  3.931  0.000    24.826     7.400
1227   6 C      0.030  1.058  2.912  0.000    20.077     6.381
1228   6 C      0.273  1.038  2.689  0.000    22.387     7.748
1229   8 O     -0.495  1.743  4.752  0.000    23.678     6.524
1230   6 C     -0.064  1.054  3.010  0.000    21.729     6.637
1231   6 C     -0.101  1.072  3.030  0.000    22.438     6.745
1232   6 C      0.356  1.031  2.613  0.000    20.954     7.491
1233   8 O     -0.631  1.768  4.862  0.000    26.884     6.952
1234   8 O     -0.622  1.770  4.852  0.000    26.659     6.923
1235   1 H      0.227  0.773  0.000  0.000     0.980     1.551
1236   1 H      0.056  0.944  0.000  0.000     2.247     2.344
1237   1 H      0.046  0.954  0.000  0.000     2.375     2.410
1238   1 H      0.059  0.941  0.000  0.000     2.208     2.324
1239   1 H      0.074  0.926  0.000  0.000     2.039     2.233
1240   1 H      0.018  0.982  0.000  0.000     2.762     2.599
1241   7 N     -0.157  1.238  3.920  0.000    24.407     7.337
1242   6 C     -0.029  1.051  2.978  0.000    21.151     6.559
1243   6 C      0.283  1.039  2.679  0.000    22.212     7.717
1244   8 O     -0.512  1.775  4.737  0.000    24.060     6.576
1245   1 H      0.220  0.780  0.000  0.000     1.009     1.573
1246   1 H      0.097  0.903  0.000  0.000     1.813     2.106
1247   1 H      0.110  0.890  0.000  0.000     1.694     2.036
1248   7 N     -0.204  1.257  3.947  0.000    25.435     7.490
1249   6 C      0.031  1.052  2.917  0.000    20.050     6.375
1250   6 C      0.298  1.028  2.674  0.000    21.941     7.672
1251   8 O     -0.519  1.759  4.760  0.000    24.205     6.596
1252   6 C     -0.061  1.052  3.009  0.000    21.662     6.624
1253   6 C     -0.015  1.055  2.960  0.000    20.817     6.490
1254   6 C     -0.106  1.042  3.063  0.000    22.573     6.774
1255   6 C     -0.113  1.042  3.071  0.000    22.709     6.795
1256   1 H      0.239  0.761  0.000  0.000     0.927     1.508
1257   1 H      0.075  0.925  0.000  0.000     2.027     2.227
1258   1 H      0.029  0.971  0.000  0.000     2.595     2.519
1259   1 H      0.034  0.966  0.000  0.000     2.531     2.488
1260   1 H      0.048  0.952  0.000  0.000     2.350     2.397
1261   1 H      0.077  0.923  0.000  0.000     2.016     2.220
1262   1 H      0.022  0.978  0.000  0.000     2.704     2.572
1263   1 H      0.035  0.965  0.000  0.000     2.523     2.484
1264   1 H      0.067  0.933  0.000  0.000     2.122     2.278
1265   1 H      0.033  0.967  0.000  0.000     2.546     2.495
1266   1 H      0.039  0.961  0.000  0.000     2.464     2.455
1267   7 N     -0.193  1.246  3.947  0.000    25.188     7.454
1268   6 C      0.049  1.051  2.900  0.000    19.753     6.327
1269   6 C      0.299  1.020  2.680  0.000    21.923     7.668
1270   8 O     -0.466  1.729  4.737  0.000    23.044     6.436
1271   6 C     -0.063  1.050  3.013  0.000    21.700     6.632
1272   6 C     -0.043  1.069  2.974  0.000    29.007     8.833
1273   6 C      0.004  1.058  2.937  0.000    27.895     8.663
1274   6 C     -0.013  1.068  2.945  0.000    28.138     8.684
1275   7 N     -0.108  1.226  3.881  0.000    23.355     7.178
1276   6 C      0.061  1.058  2.881  0.000    26.509     8.438
1277   6 C     -0.041  1.074  2.966  0.000    29.007     8.832
1278   6 C     -0.046  1.069  2.976  0.000    29.132     8.851
1279   6 C     -0.053  1.074  2.979  0.000    29.318     8.880
1280   6 C     -0.053  1.072  2.981  0.000    29.326     8.881
1281   1 H      0.188  0.812  0.000  0.000     1.168     1.693
1282   1 H      0.030  0.970  0.000  0.000     2.593     2.518
1283   1 H      0.037  0.963  0.000  0.000     2.484     2.465
1284   1 H      0.054  0.946  0.000  0.000     2.270     2.356
1285   1 H     -0.010  1.010  0.000  0.000     3.234     2.812
1286   1 H      0.169  0.831  0.000  0.000     1.278     1.771
1287   1 H      0.013  0.987  0.000  0.000     2.841     2.636
1288   1 H      0.054  0.946  0.000  0.000     2.265     2.353
1289   1 H      0.054  0.946  0.000  0.000     2.266     2.354
1290   1 H      0.074  0.926  0.000  0.000     2.047     2.237
1291   7 N     -0.193  1.253  3.940  0.000    25.180     7.453
1292   6 C      0.039  1.065  2.896  0.000    19.924     6.357
1293   6 C      0.292  1.037  2.671  0.000    22.047     7.689
1294   8 O     -0.456  1.719  4.737  0.000    22.829     6.406
1295   6 C     -0.050  1.046  3.003  0.000    21.462     6.596
1296   6 C     -0.087  1.064  3.023  0.000    22.166     6.704
1297   6 C      0.365  1.030  2.605  0.000    20.810     7.465
1298   8 O     -0.622  1.767  4.855  0.000    26.663     6.923
1299   8 O     -0.652  1.767  4.885  0.000    27.443     7.024
1300   1 H      0.217  0.783  0.000  0.000     1.024     1.585
1301   1 H      0.047  0.953  0.000  0.000     2.352     2.398
1302   1 H      0.041  0.959  0.000  0.000     2.430     2.438
1303   1 H      0.059  0.941  0.000  0.000     2.214     2.327
1304   1 H      0.033  0.967  0.000  0.000     2.545     2.495
1305   1 H      0.024  0.976  0.000  0.000     2.669     2.555
1306   7 N     -0.213  1.258  3.955  0.000    25.645     7.521
1307   6 C      0.037  1.075  2.888  0.000    19.979     6.369
1308   6 C      0.276  1.067  2.656  0.000    22.325     7.736
1309   8 O     -0.504  1.770  4.734  0.000    23.868     6.550
1310   6 C     -0.010  1.065  2.945  0.000    20.724     6.476
1311   6 C     -0.072  1.054  3.018  0.000    21.870     6.658
1312   6 C     -0.122  1.048  3.074  0.000    22.900     6.823
1313   6 C     -0.096  1.036  3.060  0.000    22.397     6.749
1314   1 H      0.214  0.786  0.000  0.000     1.036     1.594
1315   1 H      0.048  0.952  0.000  0.000     2.342     2.393
1316   1 H      0.022  0.978  0.000  0.000     2.700     2.570
1317   1 H      0.052  0.948  0.000  0.000     2.300     2.372
1318   1 H      0.058  0.942  0.000  0.000     2.219     2.329
1319   1 H      0.058  0.942  0.000  0.000     2.223     2.332
1320   1 H      0.049  0.951  0.000  0.000     2.337     2.391
1321   1 H      0.044  0.956  0.000  0.000     2.399     2.422
1322   1 H      0.050  0.950  0.000  0.000     2.325     2.384
1323   1 H      0.014  0.986  0.000  0.000     2.827     2.630
1324   1 H      0.030  0.970  0.000  0.000     2.584     2.514
1325   7 N     -0.181  1.252  3.928  0.000    24.911     7.413
1326   6 C      0.020  1.063  2.918  0.000    20.253     6.409
1327   6 C      0.274  1.038  2.688  0.000    22.363     7.744
1328   8 O     -0.486  1.743  4.743  0.000    23.482     6.497
1329   6 C     -0.056  1.052  3.004  0.000    21.568     6.610
1330   6 C     -0.068  1.049  3.019  0.000    21.797     6.646
1331   6 C      0.373  1.016  2.611  0.000    20.686     7.444
1332   8 O     -0.635  1.746  4.889  0.000    26.983     6.964
1333   8 O     -0.691  1.786  4.905  0.000    28.453     7.152
1334   1 H      0.213  0.787  0.000  0.000     1.044     1.600
1335   1 H      0.084  0.916  0.000  0.000     1.939     2.177
1336   1 H      0.039  0.961  0.000  0.000     2.468     2.457
1337   1 H      0.061  0.939  0.000  0.000     2.190     2.314
1338   1 H     -0.002  1.002  0.000  0.000     3.085     2.747
1339   1 H      0.041  0.959  0.000  0.000     2.436     2.441
1340   7 N     -0.189  1.254  3.935  0.000    25.109     7.442
1341   6 C      0.026  1.064  2.910  0.000    20.153     6.395
1342   6 C      0.225  1.075  2.700  0.000    23.264     7.899
1343   8 O     -0.345  1.742  4.603  0.000    20.616     6.088
1344   6 C     -0.109  1.063  3.047  0.000    22.583     6.765
1345   6 C      0.291  1.032  2.677  0.000    22.058     7.690
1346   8 O     -0.519  1.768  4.751  0.000    24.201     6.596
1347   7 N     -0.273  1.266  4.007  0.000    27.053     7.725
1348   1 H      0.216  0.784  0.000  0.000     1.028     1.588
1349   1 H      0.093  0.907  0.000  0.000     1.849     2.127
1350   1 H      0.110  0.890  0.000  0.000     1.697     2.037
1351   1 H      0.086  0.914  0.000  0.000     1.914     2.164
1352   1 H      0.256  0.744  0.000  0.000     0.862     1.455
1353   1 H      0.252  0.748  0.000  0.000     0.877     1.467
1354   1 H      0.187  0.813  0.000  0.000     1.175     1.698
1355   1 H      0.046  0.954  0.000  0.000     2.373     2.409
1356   1 H      0.185  0.815  0.000  0.000     1.183     1.704
1357   1 H      0.093  0.907  0.000  0.000     1.845     2.124
1358   1 H      0.186  0.814  0.000  0.000     1.182     1.703
1359   1 H      0.106  0.894  0.000  0.000     1.729     2.056
1360   1 H      0.180  0.820  0.000  0.000     1.214     1.726
1361   1 H      0.069  0.931  0.000  0.000     2.094     2.263
1362   1 H      0.173  0.827  0.000  0.000     1.252     1.753
1363   1 H      0.096  0.904  0.000  0.000     1.823     2.112
1364   1 H      0.185  0.815  0.000  0.000     1.185     1.705
1365   1 H      0.094  0.906  0.000  0.000     1.845     2.124
1366   1 H      0.156  0.844  0.000  0.000     1.362     1.828
1367   1 H      0.175  0.825  0.000  0.000     1.241     1.745
1368   1 H      0.063  0.937  0.000  0.000     2.165     2.301
1369   1 H      0.183  0.817  0.000  0.000     1.197     1.714
1370   1 H      0.058  0.942  0.000  0.000     2.220     2.330
1371   1 H      0.185  0.815  0.000  0.000     1.186     1.706
1372   1 H      0.074  0.926  0.000  0.000     2.041     2.234
1373   1 H      0.170  0.830  0.000  0.000     1.275     1.769
1374   1 H      0.076  0.924  0.000  0.000     2.021     2.223
1375   1 H      0.185  0.815  0.000  0.000     1.188     1.707
1376   1 H      0.084  0.916  0.000  0.000     1.935     2.175
1377   1 H      0.184  0.816  0.000  0.000     1.190     1.709
1378   1 H      0.069  0.931  0.000  0.000     2.091     2.261

 Mol. C6AA /au·bohr⁶  :   18475692.066311
 Mol. C8AA /au·bohr⁸  :  417489613.107144
 Mol. α(0) /au        :       6481.632347

 
molecular dipole:
                 x           y           z       tot (Debye)
 q only:      -36.811    -160.919     -87.050
   full:      -33.016    -149.488     -82.037     441.473
molecular quadrupole (traceless):
                xx          xy          yy          xz          yz          zz
 q only:    20879.827  -20729.714   -2664.088  -16611.652  -51889.144  -18215.738
  q+dip:    19560.458  -19101.941   -2181.409  -15044.273  -48365.003  -17379.049
   full:    19567.356  -19101.201   -2184.141  -15052.790  -48362.916  -17383.215
speedup  1.74
cpu  time for grad   11 m 57.6 s
wall time for grad    6 m 51.3 s

SCC energy    :   -2187.1099764
rep           :      27.0581487
ES            :       8.2764724
AES           :      -0.4671105
AXC           :       0.6999169
disp          :      -2.0377939
XB            :       0.0000000
fix           :       0.0000000
Gborn         :       0.0000000
Gsasa         :       0.0000000
Ghb           :       0.0000000
Gshift        :       0.0000000
Gsolv         :      -2.7803613    -1744.70
Etot ala COSMO:   -2187.1099764
grad norm     :       1.1198579
total E       :   -2159.7970287
atomizationE  :     397.9132672   249694.35
(atE without considering molecular charge,
 total energy contains solvation terms)
H-L gap (eV)  :          0.9562

------------------------------------------------------------------------
 * finished run on 2019/05/05 at 22:48:52.209     
------------------------------------------------------------------------
 total:
 * wall-time:     0 d,  0 h,  7 min, 10.103 sec
 *  cpu-time:     0 d,  0 h, 12 min, 15.771 sec
 * ratio c/w:     1.711 speedup
 SCF:
 * wall-time:     0 d,  0 h,  6 min, 58.108 sec
 *  cpu-time:     0 d,  0 h, 12 min,  5.454 sec
 * ratio c/w:     1.735 speedup

