      -----------------------------------------------------------      
     |                   =====================                   |     
     |                           x T B                           |     
     |                   =====================                   |     
     |                         S. Grimme                         |     
     |          Mulliken Center for Theoretical Chemistry        |     
     |                    University of Bonn                     |     
     |                 Version 6.0.1 (SAW181210)                 |     
      -----------------------------------------------------------      

   This program is distributed in the hope that it will be useful,
   but WITHOUT ANY WARRANTY; without even the implied warranty of
   MERCHANTABILITY or FITNESS FOR A PARTICULAR PURPOSE.
   
   FOR NON-COMMERCIAL, ACADEMIA USE ONLY.
   
   Cite this work as:
   S. Grimme, C. Bannwarth, P. Shushkov, J. Comput. Theory Chem., 2017,
   13, 1989-2009.
   C. Bannwarth, S. Ehlert and S. Grimme., ChemRxiv, 2018, preprint.
   http://doi.org/10.26434/chemrxiv.7246238.v1
   
   for sTDA-xTB:
   S. Grimme and C. Bannwarth, J. Chem. Phys., 2016, 145, 054103.
   
   in the mass-spec context:
   V. Asgeirsson, C. Bauer and S. Grimme, Chem. Sci., 2017, 8, 4879.
   
   if GBSA is used:
   P. Shushkov, F. März and S. Grimme, unpublished.
   
   for ANC optimizer:
   S. Grimme, unpublished.
   Rational Function algorithm used in ANCopt:
   F. Eckert, P. Pulay, H.-J. Werner, J. Comput. Chem., 1997, 18, 1473.
   
   with help from (in alphabetical order)
   C. Bannwarth, F. Bohle, G. Brandenburg, E. Caldeweyher, M. Checinski,
   S. Dohm, S. Ehlert, S. Ehrlich, F. März, H. Neugebauer, J. Pisarek,
   P. Pracht, P. Shushkov, and S. Spicher.
   
 * started run on 2019/02/12 at 02:59:56.806     
========================================================================
 # omp threads = 12
========================================================================
number of atoms            : 611
number of electrons        : 1578
charge                     : 2
spin                       : .0
first test random number   : .8217

########################################################################
# WARNING! Please study the warnings concerning your input carefully
#  - Process number higher than OMP_NUM_THREADS, I hope you know what you are doing.
########################################################################

           ------------------------------------------------- 
          |                 G F N 2 - x T B                 |
          | Geometry, Frequencies, Noncovalent interactions |
          |            JCTC 2018 parametrisation            |
           ------------------------------------------------- 
 
      method parameters     
 k(s)        :  1.8500
 k(p)        :  2.2300
 k(d)        :  2.2300
 k(f)        :  2.0000
 kEN (H0ij)  : -2.0000
 D4 a1       :  0.5200
 D4 a2       :  5.0000
 D4 s6       :  1.0000
 D4 s8       :  2.7000
 D4 s9       :  5.0000
 alphaj      :  2.0000

 Solvent             : h2o
 Using internal parameter file: .param_gbsa2_h2o
 Gsolv ref. state (COSMO-RS): gsolv [1 M gas/solution]
 temperature (mdtemp)       :    298.150000000000     
 dielectric constant        :    80.2000000000000     
 rho                        :    1.00000000000000     
 mass                       :    18.0000000000000     
 surface tension            :    15.5689454083859     
 probe radius               :   0.975313790000000     
 vdW radii scaling          :    1.00000000000000     
 Gshift (Eh)                :   1.857443126794793E-003
 c1                         :    1.55243817000000     
 soset                      :   0.130326360000000     
 HB correction              :  T

            Z     q(EN)     CN     RAES       Cart. coordinates
     1  N   5.0   -0.21    3.24    1.96    57.20696    27.91831     1.15713
     2  C   4.0    0.02    4.32    4.23    57.53049    29.72184     3.19069
     3  C   4.0    0.15    3.43    3.09    55.47060    29.29041     5.18685
     4  O   6.0   -0.32    1.25    1.80    55.93670    29.11635     7.44819
     5  C   4.0   -0.04    4.35    4.29    57.42935    32.42030     2.15469
     6  C   4.0   -0.04    4.05    3.71    59.03865    34.20138     3.73508
     7  S   6.0   -0.03    2.50    3.10    58.25481    37.50053     3.18285
     8  C   4.0   -0.06    3.89    3.44    58.46740    37.70021    -0.22559
     9  H   1.0    0.09    1.03    1.43    57.31951    28.57297    -0.63759
    10  H   1.0    0.04    1.05    1.44    59.37542    29.40199     4.09844
    11  H   1.0    0.04    1.03    1.43    58.14154    32.38492     0.21642
    12  H   1.0    0.05    1.04    1.43    55.46912    33.06947     2.11015
    13  H   1.0    0.05    1.08    1.44    58.68676    33.90922     5.74391
    14  H   1.0    0.05    1.06    1.44    61.05383    33.92232     3.37915
    15  H   1.0    0.06    1.04    1.44    58.48342    39.68754    -0.72734
    16  H   1.0    0.05    1.04    1.43    60.20690    36.80523    -0.85376
    17  H   1.0    0.05    1.04    1.43    56.84053    36.78489    -1.08000
    18  N   5.0   -0.15    3.51    2.08    53.13206    29.12647     4.25941
    19  C   4.0    0.03    4.44    4.44    50.99634    28.76609     5.94007
    20  C   4.0    0.15    3.49    3.11    51.29388    26.28138     7.39368
    21  O   6.0   -0.32    1.28    1.80    50.84374    26.13859     9.66265
    22  C   4.0   -0.05    4.34    4.28    48.50830    28.81343     4.46936
    23  C   4.0   -0.02    4.18    3.96    46.17776    28.80349     6.20363
    24  C   4.0   -0.07    4.11    3.82    45.98996    31.23982     7.73901
    25  C   4.0   -0.08    4.10    3.81    43.78909    28.46563     4.61959
    26  H   1.0    0.08    1.06    1.44    52.78804    29.35937     2.39025
    27  H   1.0    0.05    1.06    1.44    51.02886    30.28934     7.34489
    28  H   1.0    0.04    1.03    1.43    48.47848    30.50288     3.28709
    29  H   1.0    0.04    1.03    1.43    48.45979    27.16392     3.22741
    30  H   1.0    0.04    1.05    1.44    46.33926    27.19788     7.50033
    31  H   1.0    0.04    1.00    1.43    44.25054    31.23967     8.82826
    32  H   1.0    0.04    1.00    1.43    47.55806    31.42135     9.04854
    33  H   1.0    0.05    1.00    1.43    45.97331    32.85534     6.47047
    34  H   1.0    0.04    1.00    1.43    42.13651    28.33669     5.83397
    35  H   1.0    0.05    1.00    1.43    43.54557    30.06332     3.34788
    36  H   1.0    0.04    1.00    1.43    43.89780    26.74779     3.49745
    37  N   5.0   -0.15    3.50    2.08    52.05584    24.32426     6.00617
    38  C   4.0    0.03    4.46    4.48    52.47661    21.85767     7.10937
    39  C   4.0    0.15    3.50    3.12    54.19566    22.05301     9.42006
    40  O   6.0   -0.32    1.28    1.80    53.76135    20.83171    11.33986
    41  C   4.0    0.05    4.23    4.06    53.61232    20.01014     5.14368
    42  O   6.0   -0.26    2.12    1.84    51.86420    19.51774     3.18861
    43  C   4.0   -0.06    4.11    3.81    54.21564    17.47393     6.37012
    44  H   1.0    0.08    1.07    1.44    52.37680    24.55557     4.13583
    45  H   1.0    0.05    1.05    1.44    50.66130    21.08147     7.75366
    46  H   1.0    0.04    1.03    1.43    55.33686    20.87981     4.37986
    47  H   1.0    0.12    1.02    1.43    51.63716    21.02673     2.18542
    48  H   1.0    0.05    1.00    1.43    54.77223    16.15741     4.89745
    49  H   1.0    0.05    1.00    1.43    55.72843    17.67783     7.73713
    50  H   1.0    0.05    1.00    1.43    52.51938    16.78092     7.29405
    51  N   5.0   -0.14    3.51    2.08    56.20937    23.55001     9.17683
    52  C   4.0    0.04    4.42    4.42    57.97927    23.85170    11.24082
    53  C   4.0    0.16    3.48    3.11    56.67751    24.97031    13.58184
    54  O   6.0   -0.31    1.30    1.80    57.14529    24.18289    15.71004
    55  C   4.0   -0.04    4.28    4.16    60.15284    25.60439    10.53087
    56  C   4.0   -0.05    4.18    3.97    61.76208    24.66079     8.30793
    57  C   4.0   -0.01    4.22    4.04    64.54254    24.44240     9.00321
    58  N   5.0   -0.14    3.40    2.02    65.00042    22.12209    10.39814
    59  C   4.0    0.10    3.34    3.06    67.14752    21.58774    11.60153
    60  N   5.0   -0.17    3.24    1.97    68.84902    23.36444    12.10012
    61  N   5.0   -0.18    3.24    1.96    67.58879    19.19585    12.28454
    62  H   1.0    0.09    1.07    1.44    56.56221    24.46982     7.53833
    63  H   1.0    0.05    1.05    1.44    58.68981    21.98380    11.79825
    64  H   1.0    0.06    1.03    1.43    59.36367    27.44958    10.06544
    65  H   1.0    0.05    1.04    1.43    61.33034    25.82726    12.20613
    66  H   1.0    0.04    1.03    1.43    61.06946    22.85042     7.60905
    67  H   1.0    0.04    1.03    1.43    61.59878    25.98037     6.73355
    68  H   1.0    0.05    1.02    1.43    65.68486    24.43458     7.28653
    69  H   1.0    0.04    1.03    1.43    65.07806    26.08500    10.12683
    70  H   1.0    0.08    1.07    1.44    63.86209    20.66616     9.90344
    71  H   1.0    0.09    1.02    1.43    68.45276    25.25353    12.03357
    72  H   1.0    0.10    1.04    1.43    70.31763    22.88853    13.20859
    73  H   1.0    0.09    1.03    1.43    66.35360    17.81561    11.85351
    74  H   1.0    0.09    1.03    1.43    69.09599    18.71557    13.34251
    75  N   5.0   -0.14    3.53    2.10    55.11103    26.89056    13.14264
    76  C   4.0    0.04    4.44    4.45    53.77370    28.07926    15.22004
    77  C   4.0    0.16    3.46    3.10    52.18856    26.09646    16.60892
    78  O   6.0   -0.33    1.29    1.80    52.10206    26.03027    18.93153
    79  C   4.0   -0.04    4.27    4.13    52.20232    30.29912    14.23995
    80  C   4.0   -0.04    4.20    4.00    53.95471    32.49026    13.50503
    81  C   4.0   -0.00    4.22    4.04    52.60238    34.55888    12.04062
    82  N   5.0   -0.14    3.42    2.03    50.54847    35.62584    13.50300
    83  C   4.0    0.10    3.35    3.06    48.69700    36.99012    12.52317
    84  N   5.0   -0.19    3.27    1.97    48.47366    37.26479    10.01487
    85  N   5.0   -0.18    3.26    1.97    46.95309    37.98008    14.03450
    86  H   1.0    0.11    1.07    1.44    54.78874    27.52446    11.36432
    87  H   1.0    0.06    1.06    1.44    55.15560    28.77057    16.60584
    88  H   1.0    0.06    1.03    1.43    51.10908    29.65262    12.61539
    89  H   1.0    0.05    1.03    1.43    50.89800    30.91282    15.71094
    90  H   1.0    0.05    1.03    1.43    54.76611    33.28017    15.22687
    91  H   1.0    0.05    1.03    1.43    55.48940    31.78548    12.32684
    92  H   1.0    0.05    1.02    1.43    53.96415    36.03921    11.55419
    93  H   1.0    0.05    1.03    1.43    51.84428    33.76377    10.29068
    94  H   1.0    0.11    1.10    1.44    50.63472    35.46015    15.43274
    95  H   1.0    0.10    1.07    1.44    49.97932    36.97103     8.85600
    96  H   1.0    0.09    1.04    1.43    47.15043    38.47943     9.38618
    97  H   1.0    0.13    1.10    1.44    47.13732    37.91883    15.97274
    98  H   1.0    0.09    1.03    1.43    45.53262    39.00973    13.30856
    99  N   5.0   -0.14    3.51    2.09    50.94521    24.46801    15.14330
   100  C   4.0    0.03    4.50    4.54    49.43457    22.44442    16.21531
   101  C   4.0    0.16    3.48    3.10    51.08974    20.67984    17.81275
   102  O   6.0   -0.32    1.28    1.80    50.39998    19.98996    19.92273
   103  C   4.0   -0.02    4.26    4.12    48.00918    21.02042    14.12715
   104  C   4.0   -0.07    4.12    3.84    46.66325    18.69287    15.18402
   105  C   4.0   -0.08    4.12    3.84    46.10245    22.79426    12.88527
   106  H   1.0    0.11    1.09    1.44    51.01202    24.66005    13.23577
   107  H   1.0    0.05    1.06    1.44    48.06911    23.26408    17.54888
   108  H   1.0    0.06    1.06    1.44    49.41897    20.40037    12.74608
   109  H   1.0    0.04    1.00    1.43    45.68173    17.70411    13.67825
   110  H   1.0    0.06    1.00    1.43    47.98172    17.38786    16.07120
   111  H   1.0    0.04    1.00    1.43    45.28219    19.24230    16.60228
   112  H   1.0    0.03    1.00    1.43    44.94820    21.75962    11.54107
   113  H   1.0    0.03    1.00    1.43    44.85914    23.59410    14.31054
   114  H   1.0    0.05    1.00    1.43    47.05375    24.33314    11.91468
   115  N   5.0   -0.13    3.49    2.07    53.28933    20.00500    16.78214
   116  C   4.0    0.04    4.43    4.43    55.05214    18.39126    18.14376
   117  C   4.0    0.16    3.51    3.12    55.74793    19.56757    20.69253
   118  O   6.0   -0.32    1.30    1.80    55.74673    18.33151    22.66892
   119  C   4.0   -0.04    4.37    4.32    57.44866    18.02962    16.58349
   120  C   4.0   -0.02    4.19    3.99    59.49828    16.48592    17.93553
   121  C   4.0   -0.06    4.11    3.81    58.52206    13.91620    18.82080
   122  C   4.0   -0.07    4.10    3.81    61.75061    16.14356    16.15928
   123  H   1.0    0.11    1.09    1.44    53.69738    20.48331    14.96561
   124  H   1.0    0.06    1.05    1.44    54.13006    16.57809    18.55639
   125  H   1.0    0.05    1.03    1.43    56.92766    17.07860    14.82784
   126  H   1.0    0.06    1.04    1.43    58.19844    19.90159    16.15202
   127  H   1.0    0.06    1.06    1.44    60.14136    17.53849    19.59671
   128  H   1.0    0.05    1.00    1.43    60.05317    12.83856    19.66782
   129  H   1.0    0.06    1.00    1.43    57.06048    14.11274    20.25025
   130  H   1.0    0.05    1.00    1.43    57.74439    12.83624    17.25377
   131  H   1.0    0.05    1.00    1.43    63.22629    15.09064    17.11972
   132  H   1.0    0.04    1.00    1.43    61.17621    15.10367    14.48367
   133  H   1.0    0.05    1.00    1.43    62.49243    17.98476    15.64074
   134  N   5.0   -0.13    3.52    2.09    56.40473    21.99542    20.61389
   135  C   4.0    0.04    4.45    4.46    57.17126    23.31029    22.88617
   136  C   4.0    0.16    3.50    3.11    55.03315    23.20474    24.82193
   137  O   6.0   -0.32    1.29    1.80    55.44366    22.74369    27.06609
   138  C   4.0   -0.03    4.29    4.17    57.90415    26.03956    22.27848
   139  C   4.0   -0.03    4.23    4.06    58.98410    27.42319    24.56587
   140  C   4.0    0.16    3.23    3.04    61.44351    26.24820    25.45815
   141  O   6.0   -0.31    1.28    1.80    62.72976    24.84977    24.12709
   142  N   5.0   -0.18    3.20    1.96    62.10684    26.80507    27.83115
   143  H   1.0    0.12    1.10    1.44    56.50046    22.92768    18.93628
   144  H   1.0    0.07    1.06    1.44    58.78643    22.31442    23.72861
   145  H   1.0    0.07    1.03    1.43    59.33834    25.97898    20.79919
   146  H   1.0    0.06    1.03    1.43    56.25061    27.05375    21.58870
   147  H   1.0    0.06    1.03    1.43    59.32127    29.39543    24.06419
   148  H   1.0    0.05    1.03    1.43    57.64920    27.41084    26.13372
   149  H   1.0    0.12    1.07    1.44    61.28174    28.23693    28.80161
   150  H   1.0    0.11    1.03    1.43    63.76734    26.14358    28.48939
   151  N   5.0   -0.14    3.51    2.09    52.73360    23.68732    23.91102
   152  C   4.0    0.04    4.44    4.44    50.54198    23.60172    25.54470
   153  C   4.0    0.16    3.51    3.12    50.39450    21.02698    26.84227
   154  O   6.0   -0.32    1.31    1.80    50.10996    20.86140    29.14020
   155  C   4.0   -0.05    4.36    4.31    48.10240    24.08964    24.08052
   156  C   4.0   -0.02    4.18    3.95    47.69026    26.87957    23.41007
   157  C   4.0   -0.08    4.11    3.82    45.51180    27.11478    21.53636
   158  C   4.0   -0.08    4.11    3.82    47.12846    28.44202    25.76317
   159  H   1.0    0.11    1.09    1.44    52.48342    24.19018    22.07553
   160  H   1.0    0.05    1.06    1.44    50.77323    24.98580    27.07264
   161  H   1.0    0.06    1.03    1.43    48.16559    22.94388    22.36713
   162  H   1.0    0.04    1.03    1.43    46.52114    23.42285    25.22799
   163  H   1.0    0.06    1.06    1.44    49.40995    27.60549    22.52419
   164  H   1.0    0.04    1.00    1.43    45.18073    29.08560    21.06265
   165  H   1.0    0.04    1.00    1.43    45.93236    26.07765    19.81354
   166  H   1.0    0.03    1.00    1.43    43.78570    26.35605    22.35169
   167  H   1.0    0.04    1.00    1.43    46.54991    30.33330    25.22560
   168  H   1.0    0.04    1.00    1.43    45.60651    27.59685    26.85859
   169  H   1.0    0.04    1.00    1.43    48.78579    28.59464    26.96471
   170  N   5.0   -0.14    3.52    2.09    50.52864    19.02976    25.31567
   171  C   4.0    0.03    4.44    4.44    50.37876    16.48800    26.31554
   172  C   4.0    0.17    3.49    3.11    52.31236    16.14935    28.43361
   173  O   6.0   -0.30    1.28    1.80    51.73420    15.18452    30.46096
   174  C   4.0   -0.03    4.27    4.15    50.78009    14.52828    24.23660
   175  C   4.0   -0.03    4.18    3.96    48.48275    14.32239    22.50632
   176  C   4.0    0.25    3.11    3.03    49.02434    12.86716    20.04248
   177  O   6.0   -0.32    1.28    1.80    51.21824    12.91727    19.18498
   178  O   6.0   -0.33    1.25    1.80    47.19711    11.82404    18.95649
   179  H   1.0    0.11    1.10    1.44    50.75010    19.25877    23.42281
   180  H   1.0    0.05    1.05    1.44    48.51761    16.20173    27.19942
   181  H   1.0    0.07    1.03    1.43    52.43403    15.06746    23.12696
   182  H   1.0    0.06    1.03    1.43    51.18587    12.70211    25.10977
   183  H   1.0    0.05    1.02    1.43    46.89077    13.43144    23.46789
   184  H   1.0    0.05    1.03    1.43    47.90643    16.22077    21.92083
   185  N   5.0   -0.13    3.53    2.10    54.61116    17.02743    27.91085
   186  C   4.0    0.04    4.47    4.49    56.69588    16.65428    29.63751
   187  C   4.0    0.16    3.48    3.11    56.20807    18.00484    32.14043
   188  O   6.0   -0.31    1.31    1.80    56.46608    16.94924    34.20451
   189  C   4.0    0.06    4.25    4.09    59.15125    17.60597    28.39157
   190  O   6.0   -0.24    2.12    1.84    59.69709    16.21158    26.19547
   191  C   4.0   -0.05    4.10    3.80    61.38087    17.34095    30.19318
   192  H   1.0    0.11    1.10    1.44    54.96280    17.72422    26.16058
   193  H   1.0    0.07    1.06    1.44    56.86074    14.62300    30.04578
   194  H   1.0    0.06    1.04    1.43    58.87453    19.61077    27.89827
   195  H   1.0    0.14    1.04    1.43    58.45853    16.61109    24.90697
   196  H   1.0    0.06    1.00    1.43    63.10957    17.80166    29.19385
   197  H   1.0    0.05    1.00    1.43    61.16303    18.60994    31.79022
   198  H   1.0    0.06    1.00    1.43    61.50252    15.40606    30.87033
   199  N   5.0   -0.14    3.51    2.08    55.56421    20.42880    31.97166
   200  C   4.0    0.04    4.52    4.57    55.07486    21.88092    34.24599
   201  C   4.0    0.16    3.50    3.11    52.86465    20.74329    35.72096
   202  O   6.0   -0.29    1.24    1.80    52.95635    20.49930    38.02420
   203  C   4.0   -0.02    4.26    4.12    54.57837    24.68285    33.63498
   204  C   4.0   -0.07    4.14    3.88    53.74430    26.07594    36.02212
   205  C   4.0   -0.07    4.11    3.82    56.95653    25.91114    32.55461
   206  H   1.0    0.11    1.10    1.44    55.28722    21.26199    30.26461
   207  H   1.0    0.06    1.06    1.44    56.73062    21.71236    35.48478
   208  H   1.0    0.05    1.05    1.44    53.07434    24.74447    32.21737
   209  H   1.0    0.04    1.00    1.43    53.45728    28.06064    35.59267
   210  H   1.0    0.05    1.00    1.43    51.99562    25.30516    36.76788
   211  H   1.0    0.05    1.00    1.43    55.18988    25.89040    37.46512
   212  H   1.0    0.05    1.00    1.43    56.59868    27.88683    32.12987
   213  H   1.0    0.04    1.00    1.43    58.49825    25.78629    33.90263
   214  H   1.0    0.06    1.00    1.43    57.53164    24.97567    30.81881
   215  N   5.0   -0.14    3.51    2.08    50.81084    20.20581    34.36298
   216  C   4.0    0.04    4.45    4.45    48.53194    19.30626    35.58627
   217  C   4.0    0.16    3.49    3.11    49.00653    16.81620    36.95513
   218  O   6.0   -0.32    1.31    1.80    48.18666    16.44658    39.09199
   219  C   4.0   -0.05    4.35    4.29    46.38406    19.08641    33.67214
   220  C   4.0   -0.02    4.18    3.96    43.86267    18.22580    34.83064
   221  C   4.0   -0.07    4.11    3.82    43.08574    19.85387    37.08656
   222  C   4.0   -0.07    4.11    3.81    41.81907    18.32403    32.79146
   223  H   1.0    0.12    1.11    1.45    50.79821    20.33587    32.45374
   224  H   1.0    0.05    1.06    1.44    48.02439    20.67351    37.06213
   225  H   1.0    0.04    1.03    1.43    46.14430    20.93486    32.79023
   226  H   1.0    0.05    1.03    1.43    46.95581    17.75457    32.20160
   227  H   1.0    0.05    1.05    1.44    44.06760    16.26705    35.47169
   228  H   1.0    0.05    1.00    1.43    41.15713    19.40286    37.63406
   229  H   1.0    0.05    1.00    1.43    44.29756    19.48997    38.70185
   230  H   1.0    0.04    1.00    1.43    43.19114    21.84419    36.59588
   231  H   1.0    0.05    1.00    1.43    40.00452    17.75255    33.56155
   232  H   1.0    0.04    1.00    1.43    41.64603    20.23166    32.05000
   233  H   1.0    0.04    1.00    1.43    42.29265    17.06046    31.24436
   234  N   5.0   -0.14    3.51    2.09    50.41566    15.12482    35.72857
   235  C   4.0    0.04    4.45    4.47    51.07621    12.77166    36.95177
   236  C   4.0    0.16    3.49    3.11    52.33354    13.27748    39.51095
   237  O   6.0   -0.30    1.25    1.80    51.86407    12.01326    41.38746
   238  C   4.0   -0.03    4.28    4.17    52.80666    11.19336    35.27083
   239  C   4.0   -0.03    4.21    4.02    53.03045     8.52550    36.29849
   240  C   4.0    0.25    3.12    3.03    54.56978     6.74201    34.61157
   241  O   6.0   -0.30    1.25    1.80    55.67418     7.54818    32.71157
   242  O   6.0   -0.31    1.42    1.80    54.56030     4.45297    35.29620
   243  H   1.0    0.12    1.10    1.44    51.00148    15.39459    33.92477
   244  H   1.0    0.05    1.05    1.44    49.33632    11.70423    37.35454
   245  H   1.0    0.06    1.03    1.43    52.03153    11.15568    33.35769
   246  H   1.0    0.07    1.03    1.43    54.67259    12.06625    35.14806
   247  H   1.0    0.07    1.03    1.43    53.89847     8.53488    38.17009
   248  H   1.0    0.05    1.04    1.43    51.15607     7.69033    36.53332
   249  N   5.0   -0.12    3.40    2.02    54.02103    15.15729    39.49263
   250  C   4.0    0.03    4.14    3.88    55.40761    15.88695    41.73761
   251  C   4.0    0.11    3.14    3.03    53.58741    16.70852    43.83606
   252  O   6.0   -0.27    1.11    1.80    53.68126    15.82407    45.97788
   253  H   1.0    0.11    1.08    1.44    54.50648    15.94807    37.82214
   254  H   1.0    0.06    1.02    1.43    56.54131    14.30510    42.44226
   255  H   1.0    0.06    1.03    1.43    56.63645    17.46008    41.23552
   256  N   5.0   -0.19    3.25    1.97    47.53290    15.78581    44.43513
   257  C   4.0    0.04    4.41    4.39    46.07249    13.62462    45.26227
   258  C   4.0    0.16    3.49    3.11    47.51813    12.16334    47.28768
   259  O   6.0   -0.26    1.26    1.80    46.55383    11.67043    49.33696
   260  C   4.0   -0.02    4.28    4.15    45.40255    11.95005    42.99257
   261  C   4.0   -0.07    4.14    3.89    44.60248     9.32242    43.86050
   262  C   4.0   -0.07    4.11    3.83    43.28594    13.18493    41.46646
   263  H   1.0    0.12    1.07    1.44    47.85713    15.95695    42.55230
   264  H   1.0    0.06    1.05    1.44    44.33743    14.29223    46.19229
   265  H   1.0    0.06    1.06    1.44    47.09995    11.76939    41.82525
   266  H   1.0    0.04    1.00    1.43    44.08895     8.20986    42.22045
   267  H   1.0    0.06    1.00    1.43    46.12944     8.34155    44.82703
   268  H   1.0    0.06    1.00    1.43    43.01833     9.45200    45.16208
   269  H   1.0    0.04    1.00    1.43    42.88441    12.05738    39.80012
   270  H   1.0    0.05    1.00    1.43    41.58578    13.32619    42.60557
   271  H   1.0    0.05    1.00    1.43    43.84767    15.05824    40.84689
   272  N   5.0   -0.13    3.46    2.05    49.88834    11.50844    46.70678
   273  C   4.0    0.06    4.33    4.25    51.30353     9.98205    48.46990
   274  C   4.0    0.11    3.26    3.05    51.38495    11.22659    51.08347
   275  O   6.0   -0.24    1.11    1.80    50.98408    10.01506    53.01391
   276  C   4.0    0.05    4.14    3.87    53.98182     9.46908    47.51011
   277  O   6.0   -0.23    2.05    1.83    53.96285     7.09126    46.30161
   278  H   1.0    0.11    1.08    1.44    50.57319    11.71678    44.92875
   279  H   1.0    0.08    1.06    1.44    50.34417     8.15645    48.73618
   280  H   1.0    0.07    1.01    1.43    54.53086    10.98054    46.20727
   281  H   1.0    0.06    1.01    1.43    55.29308     9.44466    49.11908
   282  H   1.0    0.13    1.02    1.43    55.55728     6.79539    45.47210
   283  O   6.0   -0.32    1.97    1.82    52.29218    36.78573     6.17808
   284  H   1.0    0.13    1.00    1.43    54.01643    37.32202     5.98590
   285  H   1.0    0.13    0.97    1.43    51.44132    37.34052     4.67340
   286  O   6.0   -0.29    1.93    1.82    64.02785    20.62406    21.44253
   287  H   1.0    0.14    0.97    1.43    65.40143    19.93875    22.40848
   288  H   1.0    0.17    1.02    1.43    63.55766    22.16980    22.29725
   289  O   6.0   -0.29    1.92    1.82    42.25669    11.04441    20.80491
   290  H   1.0    0.15    1.00    1.43    43.97622    11.32493    20.20524
   291  H   1.0    0.14    1.00    1.43    41.25558    12.46888    20.25707
   292  O   6.0   -0.28    1.92    1.82    60.13250    13.44582    35.40554
   293  H   1.0    0.14    0.97    1.43    61.30713    14.43513    36.36819
   294  H   1.0    0.16    1.02    1.43    58.77588    14.60204    34.95293
   295  O   6.0   -0.28    1.93    1.82    55.59270    10.64321    28.63741
   296  H   1.0    0.14    0.97    1.43    57.09479    10.10403    27.76703
   297  H   1.0    0.17    1.03    1.43    55.56077     9.65749    30.19411
   298  O   6.0   -0.30    1.92    1.82    53.45074    31.07316    20.80491
   299  H   1.0    0.15    1.00    1.43    52.34804    32.42206    20.20524
   300  H   1.0    0.14    1.00    1.43    52.71767    29.49395    20.25707
   301  N   5.0   -0.20    3.20    1.96    40.73015    12.29374     4.25941
   302  C   4.0    0.03    4.22    4.04    41.48591    14.32352     5.94007
   303  C   4.0    0.08    3.21    3.04    39.18531    15.30820     7.39368
   304  O   6.0   -0.32    1.15    1.80    39.28673    15.76942     9.66265
   305  C   4.0   -0.05    4.34    4.26    42.77092    16.45456     4.46936
   306  C   4.0   -0.02    4.18    3.96    43.92759    18.47784     6.20363
   307  C   4.0   -0.07    4.11    3.82    46.13141    17.42231     7.73901
   308  C   4.0   -0.08    4.10    3.81    44.82932    20.71542     4.61959
   309  H   1.0    0.09    1.02    1.43    41.10385    12.47523     2.39025
   310  H   1.0    0.04    1.05    1.44    42.78882    13.53374     7.34489
   311  H   1.0    0.04    1.03    1.43    44.24894    15.63566     3.28709
   312  H   1.0    0.05    1.03    1.43    41.36667    17.32132     3.22741
   313  H   1.0    0.04    1.05    1.44    42.45634    19.14077     7.50033
   314  H   1.0    0.04    1.00    1.43    47.00099    18.92877     8.82826
   315  H   1.0    0.04    1.00    1.43    45.50457    15.97353     9.04854
   316  H   1.0    0.05    1.00    1.43    47.53882    16.62897     6.47047
   317  H   1.0    0.04    1.00    1.43    45.54395    22.21106     5.83397
   318  H   1.0    0.05    1.00    1.43    46.33473    20.12746     3.34788
   319  H   1.0    0.04    1.00    1.43    43.28728    21.48018     3.49745
   320  N   5.0   -0.19    3.26    1.97    37.80431    11.69786    13.14264
   321  C   4.0    0.03    4.32    4.24    39.50241    12.26167    15.22004
   322  C   4.0    0.15    3.41    3.08    38.57784    14.62584    16.60892
   323  O   6.0   -0.32    1.29    1.80    38.56376    14.73385    18.93153
   324  C   4.0   -0.04    4.27    4.13    42.21056    12.51260    14.23995
   325  C   4.0   -0.04    4.20    4.00    43.23195     9.89941    13.50503
   326  C   4.0   -0.01    4.22    4.04    45.69959    10.03625    12.04062
   327  N   5.0   -0.14    3.42    2.03    47.65056    11.28151    13.50300
   328  C   4.0    0.10    3.35    3.06    49.75780    12.20280    12.52317
   329  N   5.0   -0.19    3.26    1.97    50.10734    12.25888    10.01487
   330  N   5.0   -0.18    3.26    1.97    51.48709    13.21808    14.03450
   331  H   1.0    0.10    1.03    1.43    38.51443    11.66002    11.36432
   332  H   1.0    0.06    1.05    1.44    39.41016    10.71926    16.60584
   333  H   1.0    0.05    1.03    1.43    42.19729    13.78262    12.61539
   334  H   1.0    0.05    1.03    1.43    43.39420    13.33532    15.71094
   335  H   1.0    0.06    1.03    1.43    43.51033     8.80177    15.22687
   336  H   1.0    0.04    1.03    1.43    41.85425     8.92273    12.32684
   337  H   1.0    0.05    1.02    1.43    46.30071     8.11676    11.55419
   338  H   1.0    0.04    1.03    1.43    45.39005    11.09034    10.29068
   339  H   1.0    0.11    1.10    1.44    47.46394    11.28966    15.43274
   340  H   1.0    0.08    1.03    1.43    49.10010    11.10181     8.85600
   341  H   1.0    0.08    1.04    1.43    51.82086    12.79750     9.38618
   342  H   1.0    0.13    1.10    1.44    51.34192    13.08916    15.97274
   343  H   1.0    0.09    1.03    1.43    53.08902    13.93343    13.30856
   344  N   5.0   -0.14    3.48    2.06    37.78922    16.51684    15.14330
   345  C   4.0    0.03    4.41    4.39    36.79207    18.83689    16.21531
   346  C   4.0    0.09    3.25    3.04    34.43631    18.28576    17.81275
   347  O   6.0   -0.29    1.12    1.80    34.18374    19.22805    19.92273
   348  C   4.0   -0.02    4.25    4.11    36.27154    20.78331    14.12715
   349  C   4.0   -0.07    4.12    3.84    34.92878    23.11270    15.18402
   350  C   4.0   -0.08    4.12    3.84    38.76110    21.54767    12.88527
   351  H   1.0    0.10    1.09    1.44    37.92213    16.36296    13.23577
   352  H   1.0    0.05    1.06    1.44    38.18464    19.60958    17.54888
   353  H   1.0    0.05    1.05    1.44    35.02967    19.87242    12.74608
   354  H   1.0    0.04    1.00    1.43    34.56326    24.45710    13.67825
   355  H   1.0    0.06    1.00    1.43    33.13938    22.62337    16.07120
   356  H   1.0    0.04    1.00    1.43    36.09514    24.03402    16.60228
   357  H   1.0    0.04    1.00    1.43    38.44219    23.06460    11.54107
   358  H   1.0    0.03    1.00    1.43    40.07543    22.22449    14.31054
   359  H   1.0    0.05    1.00    1.43    39.61816    19.95438    11.91468
   360  N   5.0   -0.19    3.21    1.96    36.21894    15.35840    23.91102
   361  C   4.0    0.04    4.23    4.05    37.24062    17.29919    25.54470
   362  C   4.0    0.09    3.22    3.04    35.08456    18.71429    26.84227
   363  O   6.0   -0.28    1.11    1.80    35.08344    19.04350    29.14020
   364  C   4.0   -0.04    4.35    4.29    38.88296    19.16797    24.08052
   365  C   4.0   -0.02    4.18    3.95    41.50518    18.12993    23.41007
   366  C   4.0   -0.08    4.11    3.82    42.79810    19.89893    21.53636
   367  C   4.0   -0.08    4.11    3.82    43.13919    17.83525    25.76317
   368  H   1.0    0.12    1.05    1.44    36.77952    15.32363    22.07553
   369  H   1.0    0.05    1.05    1.44    38.32363    16.40689    27.07264
   370  H   1.0    0.06    1.03    1.43    37.85910    19.68613    22.36713
   371  H   1.0    0.04    1.03    1.43    39.09613    20.87078    25.22799
   372  H   1.0    0.06    1.06    1.44    41.27399    16.27768    22.52419
   373  H   1.0    0.04    1.00    1.43    44.67042    19.20024    21.06265
   374  H   1.0    0.04    1.00    1.43    41.68965    20.05328    19.81354
   375  H   1.0    0.03    1.00    1.43    43.00407    21.77313    22.35169
   376  H   1.0    0.04    1.00    1.43    45.06637    17.39064    25.22560
   377  H   1.0    0.04    1.00    1.43    43.16823    19.57587    26.85859
   378  H   1.0    0.04    1.00    1.43    42.44271    16.32364    26.96471
   379  N   5.0   -0.21    3.20    1.96    37.05048    32.91955     6.00617
   380  C   4.0    0.03    4.26    4.12    38.97623    34.51724     7.10937
   381  C   4.0    0.07    3.23    3.04    37.94753    35.90831     9.42006
   382  O   6.0   -0.32    1.16    1.80    39.22237    36.14284    11.33986
   383  C   4.0    0.05    4.22    4.05    40.00838    36.42456     5.14368
   384  O   6.0   -0.26    2.12    1.84    41.30887    35.15684     3.18861
   385  C   4.0   -0.06    4.11    3.81    41.90314    38.21515     6.37012
   386  H   1.0    0.09    1.03    1.43    36.68969    33.08185     4.13583
   387  H   1.0    0.04    1.05    1.44    40.55609    33.33324     7.75366
   388  H   1.0    0.05    1.03    1.43    38.39296    37.48322     4.37986
   389  H   1.0    0.12    1.02    1.43    40.11557    34.20573     2.18542
   390  H   1.0    0.05    1.00    1.43    42.76498    39.35544     4.89745
   391  H   1.0    0.05    1.00    1.43    40.97017    39.42332     7.73713
   392  H   1.0    0.05    1.00    1.43    43.35144    37.09266     7.29405
   393  N   5.0   -0.20    3.24    1.97    37.48131    31.88585    15.14330
   394  C   4.0    0.03    4.40    4.38    39.98911    31.58938    16.21531
   395  C   4.0    0.15    3.44    3.09    40.68970    33.90509    17.81275
   396  O   6.0   -0.32    1.28    1.80    41.63203    33.65268    19.92273
   397  C   4.0   -0.02    4.26    4.12    41.93502    31.06696    14.12715
   398  C   4.0   -0.07    4.12    3.84    44.62371    31.06513    15.18402
   399  C   4.0   -0.08    4.12    3.84    41.35219    28.52876    12.88527
   400  H   1.0    0.09    1.02    1.43    37.28158    31.84768    13.23577
   401  H   1.0    0.04    1.05    1.44    39.96199    29.99703    17.54888
   402  H   1.0    0.05    1.06    1.44    41.76710    32.59790    12.74608
   403  H   1.0    0.04    1.00    1.43    45.97075    30.70948    13.67825
   404  H   1.0    0.06    1.00    1.43    45.09464    32.85946    16.07120
   405  H   1.0    0.04    1.00    1.43    44.83842    29.59438    16.60228
   406  H   1.0    0.03    1.00    1.43    42.82535    28.04648    11.54107
   407  H   1.0    0.03    1.00    1.43    41.28117    27.05211    14.31054
   408  H   1.0    0.04    1.00    1.43    39.54384    28.58317    11.91468
   409  N   5.0   -0.14    3.46    2.05    40.17432    36.14741    16.78214
   410  C   4.0    0.04    4.33    4.26    40.69046    38.48092    18.14376
   411  C   4.0    0.09    3.28    3.05    39.32385    38.49534    20.69253
   412  O   6.0   -0.29    1.12    1.80    40.39491    39.11233    22.66892
   413  C   4.0   -0.05    4.35    4.30    39.80538    40.73719    16.58349
   414  C   4.0   -0.02    4.19    3.99    40.11746    43.28406    17.93553
   415  C   4.0   -0.06    4.11    3.81    42.83102    43.72349    18.82080
   416  C   4.0   -0.07    4.10    3.81    39.28779    45.40581    16.15928
   417  H   1.0    0.11    1.09    1.44    39.55607    36.26164    14.96561
   418  H   1.0    0.07    1.05    1.44    42.72175    38.58896    18.55639
   419  H   1.0    0.05    1.03    1.43    40.88949    40.76150    14.82784
   420  H   1.0    0.05    1.03    1.43    37.80933    40.45054    16.15202
   421  H   1.0    0.05    1.06    1.44    38.88437    43.31470    19.59671
   422  H   1.0    0.05    1.00    1.43    42.99872    45.58829    19.66782
   423  H   1.0    0.06    1.00    1.43    43.39160    42.35946    20.25025
   424  H   1.0    0.05    1.00    1.43    44.15512    43.58999    17.25377
   425  H   1.0    0.05    1.00    1.43    39.46181    47.21025    17.11972
   426  H   1.0    0.05    1.00    1.43    40.47556    45.42832    14.48367
   427  H   1.0    0.05    1.00    1.43    37.32235    45.12765    15.64074
   428  N   5.0   -0.19    3.24    1.96    37.26321    33.82498    23.91102
   429  C   4.0    0.03    4.33    4.25    38.43315    31.96978    25.54470
   430  C   4.0    0.15    3.45    3.09    40.73668    33.12943    26.84227
   431  O   6.0   -0.31    1.31    1.80    41.02235    32.96579    29.14020
   432  C   4.0   -0.05    4.36    4.31    39.23038    29.61308    24.08052
   433  C   4.0   -0.03    4.18    3.95    37.02031    27.86119    23.41007
   434  C   4.0   -0.08    4.11    3.82    37.90584    25.85698    21.53636
   435  C   4.0   -0.07    4.11    3.82    35.94809    26.59343    25.76317
   436  H   1.0    0.09    1.02    1.43    36.95281    33.35688    22.07553
   437  H   1.0    0.05    1.05    1.44    37.11888    31.47801    27.07264
   438  H   1.0    0.05    1.03    1.43    40.19106    30.24068    22.36713
   439  H   1.0    0.04    1.03    1.43    40.59847    28.57706    25.22799
   440  H   1.0    0.04    1.05    1.44    35.53180    28.98753    22.52419
   441  H   1.0    0.05    1.00    1.43    36.36460    24.58486    21.06265
   442  H   1.0    0.03    1.00    1.43    38.59374    26.73976    19.81354
   443  H   1.0    0.03    1.00    1.43    39.42596    24.74150    22.35169
   444  H   1.0    0.05    1.00    1.43    34.59946    25.14675    25.22560
   445  H   1.0    0.04    1.00    1.43    37.44100    25.69797    26.85859
   446  H   1.0    0.05    1.00    1.43    34.98725    27.95241    26.96471
   447  N   5.0   -0.14    3.48    2.07    42.39925    34.24421    25.31567
   448  C   4.0    0.04    4.33    4.26    44.67542    35.38529    26.31554
   449  C   4.0    0.10    3.26    3.05    44.00190    37.22915    28.43361
   450  O   6.0   -0.28    1.11    1.80    45.12654    37.21087    30.46096
   451  C   4.0   -0.03    4.27    4.13    46.17192    36.71271    24.23660
   452  C   4.0   -0.03    4.18    3.96    47.49890    34.82610    22.50632
   453  C   4.0    0.25    3.11    3.03    48.48837    36.02274    20.04248
   454  O   6.0   -0.32    1.28    1.80    47.34803    37.89766    19.18498
   455  O   6.0   -0.33    1.25    1.80    50.30536    34.96188    18.95649
   456  H   1.0    0.11    1.10    1.44    42.09020    34.32149    23.42281
   457  H   1.0    0.05    1.05    1.44    45.85391    33.91662    27.19942
   458  H   1.0    0.07    1.03    1.43    44.87801    37.87547    23.12696
   459  H   1.0    0.06    1.03    1.43    47.55054    37.97721    25.10977
   460  H   1.0    0.05    1.02    1.43    49.06647    33.89288    23.46789
   461  H   1.0    0.05    1.03    1.43    46.14301    33.37780    21.92083
   462  N   5.0   -0.19    3.21    1.96    41.23966    33.90058    34.36298
   463  C   4.0    0.04    4.24    4.07    43.15815    32.37676    35.58627
   464  C   4.0    0.09    3.21    3.04    45.07731    34.03280    36.95513
   465  O   6.0   -0.28    1.12    1.80    45.80734    33.50758    39.09199
   466  C   4.0   -0.04    4.34    4.28    44.42249    30.62657    33.67214
   467  C   4.0   -0.02    4.18    3.96    46.42848    28.87329    34.83064
   468  C   4.0   -0.07    4.11    3.82    45.40700    27.38641    37.08656
   469  C   4.0   -0.08    4.11    3.81    47.36521    27.05436    32.79146
   470  H   1.0    0.13    1.07    1.44    41.13334    33.82461    32.45374
   471  H   1.0    0.05    1.06    1.44    42.22785    31.25359    37.06213
   472  H   1.0    0.05    1.03    1.43    42.94155    29.49471    32.79023
   473  H   1.0    0.06    1.03    1.43    45.29001    31.78764    32.20160
   474  H   1.0    0.05    1.05    1.44    48.02235    30.03013    35.47169
   475  H   1.0    0.04    1.00    1.43    46.76189    25.94170    37.63406
   476  H   1.0    0.06    1.00    1.43    45.11624    28.61783    38.70185
   477  H   1.0    0.04    1.00    1.43    43.63064    26.48253    36.59588
   478  H   1.0    0.04    1.00    1.43    48.76741    25.76866    33.56155
   479  H   1.0    0.04    1.00    1.43    45.79968    25.95070    32.05000
   480  H   1.0    0.04    1.00    1.43    48.22271    28.09628    31.24436
   481  N   5.0   -0.20    3.19    1.95    42.25641    -1.95422    42.26928
   482  C   4.0    0.03    4.22    4.04    43.59848    -0.88225    40.14197
   483  C   4.0    0.09    3.19    3.03    43.10270    -2.36487    37.69627
   484  O   6.0   -0.31    1.14    1.80    42.77026    -1.21665    35.70781
   485  C   4.0   -0.04    4.30    4.20    46.43409    -0.67018    40.65824
   486  C   4.0   -0.04    4.03    3.67    47.16429     1.81591    41.93931
   487  S   6.0   -0.03    2.46    3.10    48.56135     4.13683    39.79703
   488  C   4.0   -0.07    3.87    3.42    45.96993     4.77388    37.61256
   489  H   1.0    0.09    1.02    1.43    43.23046    -2.77853    43.69906
   490  H   1.0    0.05    1.06    1.44    42.78384     0.99251    39.77773
   491  H   1.0    0.05    1.03    1.43    46.96556    -2.26983    41.84282
   492  H   1.0    0.05    1.05    1.44    47.46389    -0.83464    38.87944
   493  H   1.0    0.04    1.06    1.44    45.56846     2.67757    42.91536
   494  H   1.0    0.06    1.08    1.44    48.64987     1.52483    43.33213
   495  H   1.0    0.04    1.05    1.44    46.72962     6.02512    36.17764
   496  H   1.0    0.05    1.03    1.43    45.31862     3.03748    36.73831
   497  H   1.0    0.04    1.03    1.43    44.44645     5.71861    38.60882
   498  N   5.0   -0.20    3.21    1.96    40.28671     0.53070    31.17408
   499  C   4.0    0.04    4.23    4.06    41.53651     0.18647    28.77991
   500  C   4.0    0.09    3.19    3.03    39.98924    -1.37430    26.88877
   501  O   6.0   -0.26    1.12    1.80    40.84573    -1.87394    24.80064
   502  C   4.0   -0.03    4.27    4.13    44.15688    -0.98085    29.12704
   503  C   4.0   -0.05    4.20    4.00    45.93167     0.80726    30.52885
   504  C   4.0   -0.04    4.15    3.90    48.66887    -0.12529    30.58245
   505  C   4.0   -0.03    4.14    3.87    50.26511     1.74261    32.10437
   506  N   5.0   -0.11    4.00    2.85    52.97533     1.07439    32.19252
   507  H   1.0    0.11    1.04    1.43    40.46255    -0.86636    32.46742
   508  H   1.0    0.05    1.06    1.44    41.71309     2.07053    27.92239
   509  H   1.0    0.06    1.03    1.43    43.93350    -2.73226    30.19271
   510  H   1.0    0.06    1.03    1.43    44.87551    -1.42009    27.24696
   511  H   1.0    0.04    1.03    1.43    45.86267     2.65840    29.62508
   512  H   1.0    0.05    1.03    1.43    45.23017     1.01359    32.45555
   513  H   1.0    0.05    1.02    1.43    48.72776    -2.00055    31.43653
   514  H   1.0    0.05    1.02    1.43    49.37149    -0.26212    28.65049
   515  H   1.0    0.05    1.02    1.43    50.10476     3.62427    31.28137
   516  H   1.0    0.05    1.02    1.43    49.57591     1.82598    34.04456
   517  H   1.0    0.12    1.16    1.46    53.96472     2.46297    33.45812
   518  H   1.0    0.07    1.03    1.43    53.17675    -0.69317    32.94463
   519  H   1.0    0.07    1.02    1.43    53.75579     1.12281    30.42262
   520  N   5.0   -0.21    3.23    1.96    69.40957    35.42848    36.39005
   521  C   4.0    0.03    4.32    4.23    69.91315    32.82811    35.66993
   522  C   4.0    0.15    3.46    3.10    67.62854    31.78607    34.23903
   523  O   6.0   -0.30    1.27    1.80    67.80638    30.68570    32.19848
   524  C   4.0   -0.03    4.27    4.14    70.43078    31.23065    38.01533
   525  C   4.0   -0.02    4.18    3.97    70.90686    28.45538    37.35151
   526  C   4.0    0.26    3.09    3.02    69.23837    26.55407    38.82780
   527  O   6.0   -0.27    1.19    1.80    68.32397    27.29754    40.88879
   528  O   6.0   -0.26    1.16    1.80    68.95164    24.41725    37.91848
   529  H   1.0    0.09    1.02    1.43    69.73594    35.94122    38.21095
   530  H   1.0    0.05    1.05    1.44    71.53195    32.75408    34.36232
   531  H   1.0    0.06    1.02    1.43    72.05849    32.03617    38.99442
   532  H   1.0    0.06    1.04    1.43    68.80003    31.34692    39.27904
   533  H   1.0    0.07    1.03    1.43    70.62040    28.09828    35.33919
   534  H   1.0    0.06    1.02    1.43    72.86128    27.92238    37.74784
   535  N   5.0   -0.14    3.52    2.09    65.40617    32.18498    35.35773
   536  C   4.0    0.04    4.43    4.42    63.08998    31.22444    34.27220
   537  C   4.0    0.15    3.43    3.09    62.48164    32.40470    31.69435
   538  O   6.0   -0.32    1.29    1.80    61.00507    31.34107    30.25127
   539  C   4.0   -0.05    4.28    4.15    60.87264    31.65025    36.07095
   540  C   4.0   -0.04    4.16    3.91    60.97775    29.88988    38.36253
   541  C   4.0   -0.01    4.19    3.98    58.65903    30.24703    40.08282
   542  N   5.0   -0.14    3.38    2.01    59.20486    31.63110    42.38509
   543  C   4.0    0.10    3.33    3.06    59.40691    30.65527    44.70346
   544  N   5.0   -0.17    3.25    1.97    59.64653    28.16692    45.03615
   545  N   5.0   -0.17    3.23    1.96    59.60417    32.19470    46.67884
   546  H   1.0    0.08    1.07    1.44    65.35015    32.97190    37.10792
   547  H   1.0    0.06    1.05    1.44    63.32370    29.19226    33.90510
   548  H   1.0    0.04    1.03    1.43    60.92429    33.62496    36.65199
   549  H   1.0    0.05    1.03    1.43    59.13764    31.30442    35.01199
   550  H   1.0    0.05    1.03    1.43    61.05965    27.94761    37.68397
   551  H   1.0    0.06    1.03    1.43    62.69960    30.25197    39.43507
   552  H   1.0    0.04    1.03    1.43    57.20874    31.29320    39.05027
   553  H   1.0    0.04    1.03    1.43    57.83226    28.43087    40.58639
   554  H   1.0    0.08    1.07    1.44    59.42399    33.52002    42.23161
   555  H   1.0    0.09    1.04    1.43    59.47909    27.00478    43.53505
   556  H   1.0    0.10    1.03    1.43    59.08788    27.41783    46.70474
   557  H   1.0    0.09    1.02    1.43    59.09717    34.04558    46.59633
   558  H   1.0    0.10    1.02    1.43    59.41389    31.56271    48.48989
   559  N   5.0   -0.14    3.53    2.10    63.54087    34.62397    31.17408
   560  C   4.0    0.04    4.42    4.42    63.21408    35.87844    28.77991
   561  C   4.0    0.15    3.40    3.08    65.33938    35.31885    26.88877
   562  O   6.0   -0.28    1.23    1.80    65.34384    36.31042    24.80064
   563  C   4.0   -0.04    4.27    4.13    62.91483    38.73140    29.12704
   564  C   4.0   -0.05    4.20    4.00    60.47888    39.37436    30.52885
   565  C   4.0   -0.05    4.15    3.90    59.91790    42.21112    30.58245
   566  C   4.0   -0.03    4.13    3.87    57.50213    42.65955    32.10437
   567  N   5.0   -0.11    3.95    2.74    56.72571    45.34079    32.19252
   568  H   1.0    0.08    1.08    1.44    64.66285    35.47478    32.46742
   569  H   1.0    0.06    1.07    1.44    61.49415    35.08934    27.92239
   570  H   1.0    0.05    1.03    1.43    64.54329    39.41366    30.19271
   571  H   1.0    0.06    1.03    1.43    62.93591    39.57338    27.24696
   572  H   1.0    0.05    1.03    1.43    58.91026    38.38904    29.62508
   573  H   1.0    0.04    1.03    1.43    60.65095    38.66368    32.45555
   574  H   1.0    0.05    1.02    1.43    61.51248    43.19975    31.43653
   575  H   1.0    0.05    1.02    1.43    59.68509    42.88802    28.65049
   576  H   1.0    0.05    1.02    1.43    55.95274    41.57986    31.28137
   577  H   1.0    0.04    1.02    1.43    57.77452    42.02101    34.04456
   578  H   1.0    0.06    0.95    1.42    55.02847    45.50334    33.45812
   579  H   1.0    0.06    1.03    1.43    58.15576    46.39900    32.94463
   580  H   1.0    0.06    1.02    1.43    56.29355    45.99247    30.42262
   581  N   5.0   -0.14    3.37    2.01    67.06830    33.61876    27.60312
   582  C   4.0    0.03    4.17    3.94    69.01569    32.78209    25.90804
   583  C   4.0    0.10    3.10    3.02    71.48140    34.27721    25.98252
   584  O   6.0   -0.25    1.12    1.80    73.16582    33.72622    24.47206
   585  H   1.0    0.11    1.10    1.44    67.11463    32.92256    29.38443
   586  H   1.0    0.06    1.03    1.43    69.49485    30.82071    26.33893
   587  H   1.0    0.08    1.03    1.43    68.27218    32.89788    23.97961
   588  H   1.0    0.09    1.07    1.44    58.40407    26.71542     1.26931
   589  H   1.0    0.07    1.05    1.44    52.26341    18.00971    43.48252
   590  H   1.0    0.10    1.07    1.44    46.73530    17.21754    44.88961
   591  H   1.0    0.08    1.05    1.44    51.77237    13.06948    51.24078
   592  H   1.0    0.10    1.07    1.44    41.34801    -0.73921    43.03813
   593  H   1.0    0.06    1.04    1.43    43.05224    -4.25362    37.73009
   594  H   1.0    0.10    1.08    1.44    40.89096     1.92691    31.93437
   595  H   1.0    0.07    1.04    1.44    38.26629    -1.99163    27.35931
   596  H   1.0    0.10    1.07    1.44    70.37635    36.47286    35.45882
   597  H   1.0    0.07    1.04    1.43    71.70374    35.67086    27.23925
   598  H   1.0    0.10    1.07    1.44    41.50841    10.85404     4.72214
   599  H   1.0    0.06    1.05    1.44    37.54827    15.59030     6.49281
   600  H   1.0    0.10    1.07    1.44    37.12231    10.15640    13.36920
   601  H   1.0    0.06    1.04    1.43    33.08417    17.14907    17.14139
   602  H   1.0    0.10    1.07    1.44    36.63276    13.82613    24.52214
   603  H   1.0    0.07    1.04    1.44    33.64597    19.38838    25.81898
   604  H   1.0    0.09    1.07    1.44    37.47339    31.28684     6.22522
   605  H   1.0    0.06    1.05    1.44    36.20789    36.64538     9.38223
   606  H   1.0    0.09    1.07    1.44    36.47236    30.63742    15.70547
   607  H   1.0    0.06    1.05    1.44    37.50461    37.99383    20.79204
   608  H   1.0    0.10    1.07    1.44    35.72932    34.23273    24.52214
   609  H   1.0    0.07    1.05    1.44    42.61570    38.48906    28.18428
   610  H   1.0    0.10    1.07    1.44    39.70209    33.42941    34.91654
   611  H   1.0    0.07    1.05    1.44    45.76385    35.57816    36.11157

  Z AO/shell   Hii/eV     exponent
  1     Wed Apr 25 08:07:45 CEST 2018   EN: 2.200 GM2: 0.406  GM3: 0.0800  RAES: 1.40
     1s    -10.707211    1.230000
  6     Wed Apr 25 08:07:45 CEST 2018   EN: 2.550 GM2: 0.538  GM3: 0.1500  RAES: 3.00
     2s    -13.970922    2.096432
     2p    -10.063292    1.800000
  7     Wed Apr 25 08:07:45 CEST 2018   EN: 3.040 GM2: 0.461  GM3:-0.0640  RAES: 1.90
     2s    -16.686243    2.339881
     2p    -12.523956    2.014332
  8     Wed Apr 25 08:07:45 CEST 2018   EN: 3.440 GM2: 0.452  GM3:-0.0517  RAES: 1.80
     2s    -20.229985    2.439742
     2p    -15.503117    2.137023
 16     Tue Apr 24 11:44:34 CEST 2018   EN: 2.580 GM2: 0.340  GM3:-0.0502  RAES: 3.10
     3s    -20.029654    1.981333
     3p    -11.377694    2.025643
     3d     -0.420282    1.702555
 no old-style atom pair restraining (fixing) potential

molecular fragmentation (1/2 indicates fragments):
111111111111111111111111111111111111111111111111111111111111111111111111
111111111111111111111111111111111111111111111111111111111111111111111111
111111111111111111111111111111111111111111111111111111111111111111111111
111111111111111111111111111111111111111222222222222222222222222222222222
222222222222222222222222222222222222222222222222222222222222222222222222
222222222222222222222222222222222222222222222222222222222222222222222222
222222222222222222222222222222222222222222222222222222222222222222222222
222222222222222222222222222222222222222222222222222222222222222222222222
22222222222112222222222222222222222
# atoms in fragment 1/2:   257   354
 fragment masses (1/2) :     1742.10     2198.85
CMA distance (Bohr)    :   8.171
constraining FC (au)   :  0.0500
           ------------------------------------------------- 
          |        Self-Consistent Charge Iterations        |
           ------------------------------------------------- 

 Ncao       : 1436
 Nao        : 1434
 Nshell     : 884
 Nel        : 1578
 T(el)      :   500.0
 intcut     :    35.0
 scfconv/Eh :  0.100E-06
   qconv/e  :  0.100E-04
 intneglect :  0.100E-08
 broydamp   :      0.400
 iter      E             dE          RMSdq      gap      omega  full diag
   1   -901.8273218 -0.901827E+03  0.448E+00    2.69       0.0  T
   2   -903.8237942 -0.199647E+01  0.211E+00    1.57       1.0  T
   3   -903.9533721 -0.129578E+00  0.118E+00    1.85       1.0  T
   4   -904.1054881 -0.152116E+00  0.252E-01    1.37       1.0  T
   5   -904.1120320 -0.654393E-02  0.119E-01    1.56       1.0  T
   6   -904.1135659 -0.153387E-02  0.480E-02    1.56       1.0  T
   7   -904.1138146 -0.248754E-03  0.234E-02    1.56       1.0  T
   8   -904.1138650 -0.503786E-04  0.974E-03    1.56       1.0  T
   9   -904.1138764 -0.113545E-04  0.502E-03    1.56       1.0  T
  10   -904.1138789 -0.252548E-05  0.225E-03    1.57       1.8  T
  11   -904.1138795 -0.572321E-06  0.110E-03    1.57       3.7  T
  12   -904.1138796 -0.124142E-06  0.469E-04    1.57       8.6  T
  13   -904.1138796 -0.139311E-07  0.230E-04    1.57      17.6  T
  14   -904.1138796 -0.488706E-08  0.862E-05    1.57      46.9  T
  15   -904.1138796 -0.484420E-09  0.387E-05    1.57     104.6  T
speedup 10.55
cpu  time for SCC   57.56 s
wall time for SCC    5.46 s

   *** convergence criteria satisfied after 15 iterations ***

          eigenvalues
 #    :         777        778        779        780        781        782        783        784
 occ. :        2.000      2.000      2.000      2.000      2.000      2.000      2.000      2.000
 eps  :       -10.064    -10.052    -10.037     -9.946     -9.878     -9.851     -9.850     -9.816
 #    :         785        786        787        788        789        790        791        792
 occ. :        2.000      2.000      2.000      2.000      2.000      0.000      0.000      0.000
 eps  :        -9.695     -9.664     -9.599     -9.541     -9.511     -7.943     -7.906     -7.904
 #    :         793        794        795        796        797        798        799        800
 occ. :        0.000      0.000      0.000      0.000      0.000      0.000      0.000      0.000
 eps  :        -7.806     -7.773     -7.717     -7.613     -7.582     -7.579     -7.579     -7.533


   #   Z            q   n(s)   n(p)   n(d)      C6AA      α(0)
   1   7 N     -0.394  1.308  4.086  0.000    30.207     8.163
   2   6 C      0.022  1.061  2.916  0.000    20.210     6.403
   3   6 C      0.260  1.048  2.692  0.000    22.623     7.789
   4   8 O     -0.482  1.741  4.741  0.000    23.391     6.484
   5   6 C     -0.072  1.058  3.014  0.000    21.849     6.650
   6   6 C     -0.016  1.065  2.951  0.000    20.864     6.504
   7  16 S     -0.228  1.916  4.259  0.053   150.819    20.670
   8   6 C     -0.058  1.051  3.007  0.000    21.687     6.643
   9   1 H      0.164  0.836  0.000  0.000     1.309     1.792
  10   1 H      0.041  0.959  0.000  0.000     2.434     2.440
  11   1 H      0.053  0.947  0.000  0.000     2.281     2.362
  12   1 H      0.065  0.935  0.000  0.000     2.141     2.288
  13   1 H      0.073  0.927  0.000  0.000     2.057     2.243
  14   1 H      0.047  0.953  0.000  0.000     2.362     2.404
  15   1 H      0.053  0.947  0.000  0.000     2.280     2.361
  16   1 H      0.048  0.952  0.000  0.000     2.341     2.393
  17   1 H      0.061  0.939  0.000  0.000     2.185     2.311
  18   7 N     -0.171  1.242  3.929  0.000    24.696     7.381
  19   6 C      0.006  1.065  2.929  0.000    20.472     6.442
  20   6 C      0.272  1.042  2.685  0.000    22.396     7.750
  21   8 O     -0.479  1.742  4.736  0.000    23.315     6.474
  22   6 C     -0.088  1.064  3.024  0.000    22.172     6.703
  23   6 C     -0.013  1.055  2.958  0.000    20.776     6.483
  24   6 C     -0.129  1.042  3.086  0.000    23.026     6.842
  25   6 C     -0.121  1.042  3.080  0.000    22.880     6.820
  26   1 H      0.221  0.779  0.000  0.000     1.005     1.571
  27   1 H      0.093  0.907  0.000  0.000     1.849     2.127
  28   1 H      0.077  0.923  0.000  0.000     2.009     2.217
  29   1 H      0.057  0.943  0.000  0.000     2.229     2.335
  30   1 H      0.034  0.966  0.000  0.000     2.534     2.489
  31   1 H      0.045  0.955  0.000  0.000     2.382     2.414
  32   1 H      0.042  0.958  0.000  0.000     2.420     2.433
  33   1 H      0.061  0.939  0.000  0.000     2.187     2.313
  34   1 H      0.038  0.962  0.000  0.000     2.474     2.460
  35   1 H      0.052  0.948  0.000  0.000     2.300     2.372
  36   1 H      0.041  0.959  0.000  0.000     2.442     2.444
  37   7 N     -0.175  1.236  3.939  0.000    24.784     7.394
  38   6 C     -0.007  1.072  2.936  0.000    20.711     6.480
  39   6 C      0.267  1.041  2.692  0.000    22.496     7.767
  40   8 O     -0.479  1.741  4.738  0.000    23.328     6.476
  41   6 C      0.109  1.049  2.843  0.000    18.896     6.207
  42   8 O     -0.461  1.724  4.737  0.000    22.071     6.342
  43   6 C     -0.139  1.043  3.097  0.000    23.239     6.874
  44   1 H      0.211  0.789  0.000  0.000     1.052     1.606
  45   1 H      0.098  0.902  0.000  0.000     1.807     2.102
  46   1 H      0.038  0.962  0.000  0.000     2.479     2.463
  47   1 H      0.329  0.671  0.000  0.000     0.641     1.257
  48   1 H      0.080  0.920  0.000  0.000     1.979     2.200
  49   1 H      0.057  0.943  0.000  0.000     2.231     2.336
  50   1 H      0.071  0.929  0.000  0.000     2.074     2.252
  51   7 N     -0.167  1.236  3.931  0.000    24.614     7.368
  52   6 C      0.006  1.065  2.929  0.000    20.474     6.443
  53   6 C      0.268  1.042  2.690  0.000    22.470     7.763
  54   8 O     -0.495  1.746  4.749  0.000    23.679     6.524
  55   6 C     -0.098  1.058  3.040  0.000    22.360     6.731
  56   6 C     -0.087  1.053  3.035  0.000    22.165     6.703
  57   6 C     -0.031  1.054  2.978  0.000    21.211     6.571
  58   7 N     -0.142  1.221  3.921  0.000    24.070     7.287
  59   6 C      0.231  1.020  2.749  0.000    23.144     7.877
  60   7 N     -0.247  1.239  4.008  0.000    26.433     7.636
  61   7 N     -0.253  1.232  4.021  0.000    26.581     7.657
  62   1 H      0.214  0.786  0.000  0.000     1.036     1.594
  63   1 H      0.090  0.910  0.000  0.000     1.878     2.143
  64   1 H      0.087  0.913  0.000  0.000     1.908     2.160
  65   1 H      0.083  0.917  0.000  0.000     1.951     2.184
  66   1 H      0.077  0.923  0.000  0.000     2.005     2.214
  67   1 H      0.076  0.924  0.000  0.000     2.016     2.220
  68   1 H      0.091  0.909  0.000  0.000     1.873     2.140
  69   1 H      0.090  0.910  0.000  0.000     1.882     2.145
  70   1 H      0.232  0.768  0.000  0.000     0.957     1.533
  71   1 H      0.251  0.749  0.000  0.000     0.881     1.470
  72   1 H      0.244  0.756  0.000  0.000     0.909     1.493
  73   1 H      0.244  0.756  0.000  0.000     0.909     1.493
  74   1 H      0.247  0.753  0.000  0.000     0.896     1.483
  75   7 N     -0.170  1.243  3.926  0.000    24.671     7.377
  76   6 C      0.013  1.064  2.924  0.000    20.365     6.425
  77   6 C      0.274  1.044  2.683  0.000    22.373     7.746
  78   8 O     -0.511  1.749  4.762  0.000    24.033     6.573
  79   6 C     -0.084  1.056  3.028  0.000    22.103     6.693
  80   6 C     -0.085  1.053  3.032  0.000    22.116     6.695
  81   6 C     -0.022  1.051  2.971  0.000    21.037     6.544
  82   7 N     -0.152  1.221  3.931  0.000    24.290     7.320
  83   6 C      0.230  1.021  2.749  0.000    23.163     7.880
  84   7 N     -0.269  1.249  4.020  0.000    26.958     7.711
  85   7 N     -0.276  1.252  4.025  0.000    27.145     7.738
  86   1 H      0.235  0.765  0.000  0.000     0.942     1.521
  87   1 H      0.088  0.912  0.000  0.000     1.900     2.155
  88   1 H      0.081  0.919  0.000  0.000     1.972     2.196
  89   1 H      0.067  0.933  0.000  0.000     2.121     2.277
  90   1 H      0.066  0.934  0.000  0.000     2.127     2.281
  91   1 H      0.080  0.920  0.000  0.000     1.981     2.201
  92   1 H      0.082  0.918  0.000  0.000     1.961     2.190
  93   1 H      0.089  0.911  0.000  0.000     1.886     2.148
  94   1 H      0.229  0.771  0.000  0.000     0.968     1.541
  95   1 H      0.257  0.743  0.000  0.000     0.858     1.451
  96   1 H      0.221  0.779  0.000  0.000     1.003     1.569
  97   1 H      0.241  0.759  0.000  0.000     0.921     1.503
  98   1 H      0.216  0.784  0.000  0.000     1.027     1.588
  99   7 N     -0.176  1.247  3.929  0.000    24.810     7.398
 100   6 C      0.021  1.065  2.914  0.000    20.214     6.401
 101   6 C      0.279  1.043  2.679  0.000    22.286     7.731
 102   8 O     -0.521  1.753  4.768  0.000    24.259     6.604
 103   6 C     -0.027  1.064  2.963  0.000    21.018     6.521
 104   6 C     -0.114  1.036  3.078  0.000    22.741     6.799
 105   6 C     -0.130  1.043  3.088  0.000    23.057     6.846
 106   1 H      0.240  0.760  0.000  0.000     0.924     1.505
 107   1 H      0.060  0.940  0.000  0.000     2.196     2.317
 108   1 H      0.069  0.931  0.000  0.000     2.101     2.267
 109   1 H      0.068  0.932  0.000  0.000     2.111     2.272
 110   1 H      0.019  0.981  0.000  0.000     2.748     2.592
 111   1 H      0.036  0.964  0.000  0.000     2.499     2.472
 112   1 H      0.072  0.928  0.000  0.000     2.060     2.245
 113   1 H      0.045  0.955  0.000  0.000     2.387     2.416
 114   1 H      0.066  0.934  0.000  0.000     2.126     2.280
 115   7 N     -0.188  1.255  3.933  0.000    25.079     7.438
 116   6 C      0.024  1.059  2.917  0.000    20.174     6.395
 117   6 C      0.288  1.042  2.670  0.000    22.126     7.703
 118   8 O     -0.539  1.752  4.787  0.000    24.656     6.657
 119   6 C     -0.092  1.065  3.027  0.000    22.241     6.713
 120   6 C     -0.012  1.054  2.957  0.000    20.753     6.480
 121   6 C     -0.115  1.039  3.077  0.000    22.760     6.803
 122   6 C     -0.133  1.047  3.087  0.000    23.115     6.855
 123   1 H      0.244  0.756  0.000  0.000     0.907     1.492
 124   1 H      0.072  0.928  0.000  0.000     2.060     2.245
 125   1 H      0.073  0.927  0.000  0.000     2.056     2.242
 126   1 H      0.080  0.920  0.000  0.000     1.983     2.202
 127   1 H      0.029  0.971  0.000  0.000     2.598     2.521
 128   1 H      0.036  0.964  0.000  0.000     2.497     2.471
 129   1 H      0.017  0.983  0.000  0.000     2.781     2.608
 130   1 H      0.049  0.951  0.000  0.000     2.338     2.391
 131   1 H      0.049  0.951  0.000  0.000     2.337     2.391
 132   1 H      0.061  0.939  0.000  0.000     2.189     2.314
 133   1 H      0.063  0.937  0.000  0.000     2.165     2.301
 134   7 N     -0.185  1.253  3.932  0.000    25.013     7.428
 135   6 C      0.033  1.055  2.912  0.000    20.022     6.371
 136   6 C      0.278  1.043  2.679  0.000    22.300     7.733
 137   8 O     -0.517  1.744  4.774  0.000    24.172     6.592
 138   6 C     -0.075  1.052  3.023  0.000    21.935     6.667
 139   6 C     -0.102  1.056  3.046  0.000    22.441     6.744
 140   6 C      0.289  1.040  2.671  0.000    22.108     7.699
 141   8 O     -0.507  1.738  4.769  0.000    23.947     6.561
 142   7 N     -0.291  1.275  4.016  0.000    27.506     7.789
 143   1 H      0.246  0.754  0.000  0.000     0.897     1.484
 144   1 H      0.064  0.936  0.000  0.000     2.148     2.292
 145   1 H      0.089  0.911  0.000  0.000     1.889     2.150
 146   1 H      0.078  0.922  0.000  0.000     1.997     2.210
 147   1 H      0.096  0.904  0.000  0.000     1.819     2.109
 148   1 H      0.063  0.937  0.000  0.000     2.166     2.302
 149   1 H      0.238  0.762  0.000  0.000     0.932     1.512
 150   1 H      0.208  0.792  0.000  0.000     1.066     1.617
 151   7 N     -0.183  1.251  3.933  0.000    24.971     7.422
 152   6 C      0.032  1.057  2.911  0.000    20.037     6.373
 153   6 C      0.280  1.042  2.678  0.000    22.262     7.727
 154   8 O     -0.508  1.740  4.768  0.000    23.968     6.564
 155   6 C     -0.072  1.058  3.015  0.000    21.875     6.657
 156   6 C     -0.012  1.055  2.956  0.000    20.749     6.479
 157   6 C     -0.108  1.040  3.068  0.000    22.611     6.779
 158   6 C     -0.111  1.038  3.073  0.000    22.675     6.789
 159   1 H      0.236  0.764  0.000  0.000     0.940     1.519
 160   1 H      0.066  0.934  0.000  0.000     2.126     2.280
 161   1 H      0.065  0.935  0.000  0.000     2.144     2.290
 162   1 H      0.039  0.961  0.000  0.000     2.460     2.453
 163   1 H      0.054  0.946  0.000  0.000     2.271     2.357
 164   1 H      0.051  0.949  0.000  0.000     2.310     2.377
 165   1 H      0.040  0.960  0.000  0.000     2.446     2.446
 166   1 H      0.036  0.964  0.000  0.000     2.500     2.473
 167   1 H      0.050  0.950  0.000  0.000     2.318     2.381
 168   1 H      0.027  0.973  0.000  0.000     2.629     2.536
 169   1 H      0.033  0.967  0.000  0.000     2.548     2.496
 170   7 N     -0.191  1.253  3.939  0.000    25.152     7.448
 171   6 C      0.040  1.056  2.904  0.000    19.899     6.351
 172   6 C      0.286  1.040  2.674  0.000    22.153     7.708
 173   8 O     -0.510  1.742  4.768  0.000    24.002     6.569
 174   6 C     -0.053  1.047  3.006  0.000    21.518     6.604
 175   6 C     -0.089  1.060  3.029  0.000    22.188     6.707
 176   6 C      0.366  1.026  2.607  0.000    20.785     7.461
 177   8 O     -0.584  1.753  4.830  0.000    25.723     6.800
 178   8 O     -0.599  1.755  4.844  0.000    26.083     6.847
 179   1 H      0.235  0.765  0.000  0.000     0.944     1.522
 180   1 H      0.045  0.955  0.000  0.000     2.386     2.416
 181   1 H      0.063  0.937  0.000  0.000     2.159     2.298
 182   1 H      0.030  0.970  0.000  0.000     2.580     2.512
 183   1 H      0.025  0.975  0.000  0.000     2.657     2.549
 184   1 H      0.047  0.953  0.000  0.000     2.363     2.404
 185   7 N     -0.188  1.250  3.938  0.000    25.085     7.439
 186   6 C      0.018  1.063  2.919  0.000    20.277     6.411
 187   6 C      0.275  1.045  2.680  0.000    22.352     7.742
 188   8 O     -0.516  1.743  4.773  0.000    24.136     6.587
 189   6 C      0.121  1.044  2.836  0.000    18.706     6.175
 190   8 O     -0.456  1.709  4.748  0.000    21.969     6.327
 191   6 C     -0.130  1.041  3.089  0.000    23.057     6.847
 192   1 H      0.225  0.775  0.000  0.000     0.987     1.556
 193   1 H      0.078  0.922  0.000  0.000     1.999     2.211
 194   1 H      0.027  0.973  0.000  0.000     2.629     2.536
 195   1 H      0.317  0.683  0.000  0.000     0.672     1.287
 196   1 H      0.079  0.921  0.000  0.000     1.992     2.207
 197   1 H      0.044  0.956  0.000  0.000     2.394     2.420
 198   1 H      0.066  0.934  0.000  0.000     2.135     2.285
 199   7 N     -0.184  1.254  3.930  0.000    24.982     7.423
 200   6 C      0.021  1.066  2.913  0.000    20.222     6.402
 201   6 C      0.278  1.041  2.682  0.000    22.301     7.733
 202   8 O     -0.496  1.744  4.751  0.000    23.690     6.526
 203   6 C     -0.019  1.062  2.957  0.000    20.874     6.498
 204   6 C     -0.123  1.041  3.082  0.000    22.916     6.825
 205   6 C     -0.128  1.043  3.086  0.000    23.011     6.840
 206   1 H      0.232  0.768  0.000  0.000     0.956     1.532
 207   1 H      0.070  0.930  0.000  0.000     2.086     2.259
 208   1 H      0.042  0.958  0.000  0.000     2.423     2.434
 209   1 H      0.077  0.923  0.000  0.000     2.010     2.217
 210   1 H      0.033  0.967  0.000  0.000     2.550     2.497
 211   1 H      0.060  0.940  0.000  0.000     2.204     2.322
 212   1 H      0.075  0.925  0.000  0.000     2.029     2.228
 213   1 H      0.053  0.947  0.000  0.000     2.288     2.365
 214   1 H      0.045  0.955  0.000  0.000     2.380     2.412
 215   7 N     -0.199  1.253  3.946  0.000    25.329     7.475
 216   6 C      0.032  1.057  2.911  0.000    20.033     6.373
 217   6 C      0.282  1.042  2.677  0.000    22.230     7.721
 218   8 O     -0.494  1.739  4.755  0.000    23.652     6.520
 219   6 C     -0.068  1.058  3.010  0.000    21.790     6.645
 220   6 C     -0.005  1.055  2.950  0.000    20.638     6.462
 221   6 C     -0.116  1.040  3.076  0.000    22.781     6.806
 222   6 C     -0.110  1.041  3.069  0.000    22.662     6.787
 223   1 H      0.225  0.775  0.000  0.000     0.986     1.555
 224   1 H      0.072  0.928  0.000  0.000     2.068     2.249
 225   1 H      0.063  0.937  0.000  0.000     2.168     2.303
 226   1 H      0.036  0.964  0.000  0.000     2.499     2.472
 227   1 H      0.019  0.981  0.000  0.000     2.753     2.595
 228   1 H      0.048  0.952  0.000  0.000     2.346     2.395
 229   1 H      0.038  0.962  0.000  0.000     2.477     2.461
 230   1 H      0.049  0.951  0.000  0.000     2.338     2.391
 231   1 H      0.048  0.952  0.000  0.000     2.347     2.396
 232   1 H      0.043  0.957  0.000  0.000     2.406     2.426
 233   1 H      0.031  0.969  0.000  0.000     2.566     2.505
 234   7 N     -0.194  1.251  3.943  0.000    25.209     7.457
 235   6 C      0.037  1.058  2.905  0.000    19.952     6.359
 236   6 C      0.283  1.041  2.676  0.000    22.208     7.717
 237   8 O     -0.479  1.734  4.745  0.000    23.319     6.474
 238   6 C     -0.056  1.047  3.009  0.000    21.573     6.612
 239   6 C     -0.091  1.059  3.032  0.000    22.233     6.713
 240   6 C      0.368  1.025  2.607  0.000    20.760     7.457
 241   8 O     -0.587  1.761  4.826  0.000    25.804     6.811
 242   8 O     -0.577  1.744  4.833  0.000    25.531     6.775
 243   1 H      0.219  0.781  0.000  0.000     1.012     1.576
 244   1 H      0.053  0.947  0.000  0.000     2.278     2.360
 245   1 H      0.055  0.945  0.000  0.000     2.261     2.352
 246   1 H      0.046  0.954  0.000  0.000     2.369     2.407
 247   1 H      0.040  0.960  0.000  0.000     2.452     2.449
 248   1 H      0.047  0.953  0.000  0.000     2.356     2.401
 249   7 N     -0.161  1.234  3.926  0.000    24.477     7.348
 250   6 C     -0.022  1.050  2.972  0.000    21.051     6.546
 251   6 C      0.210  1.083  2.707  0.000    23.542     7.946
 252   8 O     -0.351  1.750  4.601  0.000    20.724     6.103
 253   1 H      0.206  0.794  0.000  0.000     1.075     1.624
 254   1 H      0.092  0.908  0.000  0.000     1.862     2.134
 255   1 H      0.117  0.883  0.000  0.000     1.640     2.003
 256   7 N     -0.409  1.318  4.090  0.000    30.611     8.217
 257   6 C      0.036  1.060  2.904  0.000    19.980     6.366
 258   6 C      0.276  1.048  2.676  0.000    22.334     7.739
 259   8 O     -0.513  1.752  4.760  0.000    24.064     6.577
 260   6 C     -0.014  1.061  2.952  0.000    20.780     6.484
 261   6 C     -0.105  1.038  3.067  0.000    22.563     6.773
 262   6 C     -0.108  1.039  3.070  0.000    22.625     6.782
 263   1 H      0.179  0.821  0.000  0.000     1.221     1.731
 264   1 H      0.026  0.974  0.000  0.000     2.645     2.543
 265   1 H      0.038  0.962  0.000  0.000     2.478     2.462
 266   1 H      0.044  0.956  0.000  0.000     2.393     2.419
 267   1 H      0.026  0.974  0.000  0.000     2.643     2.542
 268   1 H      0.038  0.962  0.000  0.000     2.471     2.458
 269   1 H      0.037  0.963  0.000  0.000     2.486     2.466
 270   1 H      0.042  0.958  0.000  0.000     2.418     2.432
 271   1 H      0.045  0.955  0.000  0.000     2.378     2.411
 272   7 N     -0.171  1.250  3.921  0.000    24.695     7.381
 273   6 C      0.032  1.056  2.912  0.000    20.039     6.374
 274   6 C      0.210  1.085  2.705  0.000    23.556     7.948
 275   8 O     -0.365  1.750  4.616  0.000    20.999     6.144
 276   6 C      0.078  1.039  2.883  0.000    19.494     6.325
 277   8 O     -0.477  1.720  4.756  0.000    22.396     6.389
 278   1 H      0.227  0.773  0.000  0.000     0.976     1.548
 279   1 H      0.087  0.913  0.000  0.000     1.912     2.162
 280   1 H      0.060  0.940  0.000  0.000     2.198     2.318
 281   1 H      0.045  0.955  0.000  0.000     2.388     2.417
 282   1 H      0.349  0.651  0.000  0.000     0.592     1.208
 283   8 O     -0.618  1.743  4.875  0.000    25.615     6.831
 284   1 H      0.309  0.691  0.000  0.000     0.695     1.309
 285   1 H      0.332  0.668  0.000  0.000     0.632     1.249
 286   8 O     -0.647  1.755  4.891  0.000    26.326     6.925
 287   1 H      0.312  0.688  0.000  0.000     0.687     1.302
 288   1 H      0.314  0.686  0.000  0.000     0.680     1.295
 289   8 O     -0.657  1.767  4.890  0.000    26.584     6.959
 290   1 H      0.308  0.692  0.000  0.000     0.697     1.312
 291   1 H      0.300  0.700  0.000  0.000     0.722     1.335
 292   8 O     -0.657  1.773  4.885  0.000    26.603     6.961
 293   1 H      0.323  0.677  0.000  0.000     0.657     1.273
 294   1 H      0.305  0.695  0.000  0.000     0.705     1.319
 295   8 O     -0.660  1.771  4.889  0.000    26.677     6.971
 296   1 H      0.320  0.680  0.000  0.000     0.664     1.280
 297   1 H      0.314  0.686  0.000  0.000     0.680     1.296
 298   8 O     -0.650  1.761  4.889  0.000    26.417     6.937
 299   1 H      0.312  0.688  0.000  0.000     0.686     1.301
 300   1 H      0.292  0.708  0.000  0.000     0.747     1.358
 301   7 N     -0.400  1.317  4.083  0.000    30.380     8.186
 302   6 C      0.039  1.056  2.905  0.000    19.942     6.361
 303   6 C      0.195  1.096  2.708  0.000    23.829     7.994
 304   8 O     -0.370  1.747  4.623  0.000    21.095     6.158
 305   6 C     -0.076  1.063  3.013  0.000    21.948     6.669
 306   6 C     -0.016  1.056  2.959  0.000    20.820     6.490
 307   6 C     -0.127  1.043  3.084  0.000    22.993     6.837
 308   6 C     -0.122  1.043  3.079  0.000    22.893     6.822
 309   1 H      0.168  0.832  0.000  0.000     1.286     1.776
 310   1 H      0.051  0.949  0.000  0.000     2.307     2.375
 311   1 H      0.064  0.936  0.000  0.000     2.153     2.295
 312   1 H      0.047  0.953  0.000  0.000     2.358     2.401
 313   1 H      0.027  0.973  0.000  0.000     2.624     2.533
 314   1 H      0.050  0.950  0.000  0.000     2.322     2.383
 315   1 H      0.033  0.967  0.000  0.000     2.545     2.495
 316   1 H      0.060  0.940  0.000  0.000     2.200     2.320
 317   1 H      0.049  0.951  0.000  0.000     2.333     2.389
 318   1 H      0.055  0.945  0.000  0.000     2.253     2.347
 319   1 H      0.036  0.964  0.000  0.000     2.503     2.474
 320   7 N     -0.393  1.312  4.081  0.000    30.167     8.157
 321   6 C      0.031  1.057  2.912  0.000    20.070     6.381
 322   6 C      0.266  1.051  2.683  0.000    22.511     7.770
 323   8 O     -0.519  1.756  4.763  0.000    24.205     6.596
 324   6 C     -0.076  1.056  3.020  0.000    21.949     6.670
 325   6 C     -0.073  1.049  3.023  0.000    21.886     6.660
 326   6 C     -0.016  1.050  2.966  0.000    20.929     6.527
 327   7 N     -0.151  1.221  3.929  0.000    24.261     7.315
 328   6 C      0.232  1.020  2.749  0.000    23.134     7.875
 329   7 N     -0.258  1.241  4.017  0.000    26.699     7.674
 330   7 N     -0.271  1.252  4.019  0.000    27.014     7.719
 331   1 H      0.169  0.831  0.000  0.000     1.281     1.773
 332   1 H      0.038  0.962  0.000  0.000     2.476     2.461
 333   1 H      0.073  0.927  0.000  0.000     2.050     2.239
 334   1 H      0.046  0.954  0.000  0.000     2.367     2.406
 335   1 H      0.050  0.950  0.000  0.000     2.317     2.380
 336   1 H      0.063  0.937  0.000  0.000     2.168     2.302
 337   1 H      0.074  0.926  0.000  0.000     2.046     2.237
 338   1 H      0.080  0.920  0.000  0.000     1.974     2.197
 339   1 H      0.226  0.774  0.000  0.000     0.983     1.553
 340   1 H      0.242  0.758  0.000  0.000     0.914     1.497
 341   1 H      0.240  0.760  0.000  0.000     0.921     1.504
 342   1 H      0.238  0.762  0.000  0.000     0.933     1.513
 343   1 H      0.229  0.771  0.000  0.000     0.968     1.541
 344   7 N     -0.165  1.245  3.921  0.000    24.578     7.363
 345   6 C      0.026  1.063  2.911  0.000    20.140     6.390
 346   6 C      0.204  1.085  2.711  0.000    23.667     7.967
 347   8 O     -0.367  1.762  4.605  0.000    21.031     6.149
 348   6 C     -0.020  1.063  2.957  0.000    20.899     6.502
 349   6 C     -0.118  1.038  3.080  0.000    22.822     6.812
 350   6 C     -0.130  1.043  3.087  0.000    23.042     6.844
 351   1 H      0.246  0.754  0.000  0.000     0.899     1.485
 352   1 H      0.074  0.926  0.000  0.000     2.045     2.236
 353   1 H      0.059  0.941  0.000  0.000     2.212     2.326
 354   1 H      0.066  0.934  0.000  0.000     2.133     2.284
 355   1 H      0.027  0.973  0.000  0.000     2.625     2.534
 356   1 H      0.050  0.950  0.000  0.000     2.322     2.383
 357   1 H      0.074  0.926  0.000  0.000     2.045     2.236
 358   1 H      0.052  0.948  0.000  0.000     2.291     2.367
 359   1 H      0.063  0.937  0.000  0.000     2.164     2.301
 360   7 N     -0.397  1.311  4.086  0.000    30.296     8.175
 361   6 C      0.049  1.052  2.899  0.000    19.769     6.334
 362   6 C      0.201  1.094  2.704  0.000    23.716     7.976
 363   8 O     -0.392  1.760  4.632  0.000    21.521     6.220
 364   6 C     -0.066  1.059  3.007  0.000    21.754     6.639
 365   6 C     -0.005  1.053  2.951  0.000    20.628     6.460
 366   6 C     -0.106  1.040  3.065  0.000    22.569     6.773
 367   6 C     -0.102  1.036  3.065  0.000    22.492     6.762
 368   1 H      0.184  0.816  0.000  0.000     1.193     1.711
 369   1 H      0.030  0.970  0.000  0.000     2.593     2.518
 370   1 H      0.071  0.929  0.000  0.000     2.075     2.253
 371   1 H      0.031  0.969  0.000  0.000     2.569     2.506
 372   1 H      0.041  0.959  0.000  0.000     2.435     2.440
 373   1 H      0.037  0.963  0.000  0.000     2.495     2.470
 374   1 H      0.045  0.955  0.000  0.000     2.386     2.416
 375   1 H      0.041  0.959  0.000  0.000     2.438     2.442
 376   1 H      0.030  0.970  0.000  0.000     2.586     2.515
 377   1 H      0.029  0.971  0.000  0.000     2.598     2.521
 378   1 H      0.020  0.980  0.000  0.000     2.728     2.583
 379   7 N     -0.391  1.312  4.079  0.000    30.126     8.152
 380   6 C      0.021  1.064  2.915  0.000    20.244     6.409
 381   6 C      0.190  1.095  2.715  0.000    23.939     8.013
 382   8 O     -0.357  1.741  4.616  0.000    20.838     6.120
 383   6 C      0.117  1.047  2.836  0.000    18.768     6.186
 384   8 O     -0.456  1.715  4.741  0.000    21.971     6.328
 385   6 C     -0.136  1.043  3.093  0.000    23.173     6.864
 386   1 H      0.162  0.838  0.000  0.000     1.323     1.802
 387   1 H      0.073  0.927  0.000  0.000     2.051     2.239
 388   1 H      0.020  0.980  0.000  0.000     2.739     2.588
 389   1 H      0.320  0.680  0.000  0.000     0.665     1.281
 390   1 H      0.073  0.927  0.000  0.000     2.058     2.243
 391   1 H      0.046  0.954  0.000  0.000     2.374     2.410
 392   1 H      0.078  0.922  0.000  0.000     1.995     2.209
 393   7 N     -0.392  1.312  4.080  0.000    30.151     8.155
 394   6 C      0.031  1.062  2.907  0.000    20.071     6.380
 395   6 C      0.266  1.050  2.684  0.000    22.506     7.769
 396   8 O     -0.509  1.749  4.760  0.000    23.985     6.566
 397   6 C     -0.026  1.065  2.961  0.000    21.004     6.518
 398   6 C     -0.117  1.038  3.078  0.000    22.790     6.807
 399   6 C     -0.118  1.040  3.078  0.000    22.816     6.810
 400   1 H      0.161  0.839  0.000  0.000     1.330     1.806
 401   1 H      0.027  0.973  0.000  0.000     2.636     2.539
 402   1 H      0.057  0.943  0.000  0.000     2.229     2.335
 403   1 H      0.063  0.937  0.000  0.000     2.162     2.299
 404   1 H      0.026  0.974  0.000  0.000     2.638     2.540
[...]
   257  C   3.986    N  256 1.014    C  260 0.967    H  264 0.964    C  258 0.938
   258  C   3.938    O  259 1.613    N  272 1.307    C  257 0.938
   259  O   1.942    C  258 1.613    N  272 0.192
   260  C   3.994    C  262 1.008    C  261 1.008    C  257 0.967    H  265 0.962
   261  C   3.997    C  260 1.008    H  268 0.987    H  267 0.984    H  266 0.982
   262  C   3.996    C  260 1.008    H  270 0.986    H  269 0.985    H  271 0.981
   263  H   0.968    N  256 0.924
   264  H   0.999    C  257 0.964
   265  H   0.999    C  260 0.962
   266  H   0.998    C  261 0.982
   267  H   0.999    C  261 0.984
   268  H   0.998    C  261 0.987
   269  H   0.998    C  262 0.985
   270  H   0.998    C  262 0.986
   271  H   0.998    C  262 0.981
   272  N   3.472    C  258 1.307    C  273 0.986    H  278 0.896    O  259 0.192
   273  C   3.971    N  272 0.986    C  274 0.970    C  276 0.968    H  279 0.944    O  275 0.055
   274  C   3.903    O  275 1.893    C  273 0.970    H  591 0.953
   275  O   2.038    C  274 1.893    C  273 0.055
   276  C   3.959    O  277 1.005    C  273 0.968    H  281 0.965    H  280 0.962
   277  O   1.926    C  276 1.005    H  282 0.864
   278  H   0.948    N  272 0.896
   279  H   0.992    C  273 0.944
   280  H   0.996    C  276 0.962
   281  H   0.998    C  276 0.965
   282  H   0.878    O  277 0.864
   283  O   1.842    H  284 0.894    H  285 0.888
   284  H   0.904    O  283 0.894
   285  H   0.890    O  283 0.888
   286  O   1.791    H  287 0.902    H  288 0.867
   287  H   0.903    O  286 0.902
   288  H   0.901    O  286 0.867
   289  O   1.786    H  291 0.881    H  290 0.863
   290  H   0.905    O  289 0.863
   291  H   0.910    O  289 0.881
   292  O   1.785    H  293 0.895    H  294 0.862
   293  H   0.896    O  292 0.895
   294  H   0.907    O  292 0.862
   295  O   1.790    H  296 0.897    H  297 0.854
   296  H   0.898    O  295 0.897
   297  H   0.901    O  295 0.854
   298  O   1.791    H  300 0.886    H  299 0.860
   299  H   0.902    O  298 0.860
   300  H   0.915    O  298 0.886
   301  N   2.996    C  302 1.009    H  598 0.956    H  309 0.953
   302  C   3.981    N  301 1.009    C  303 0.977    C  305 0.962    H  310 0.952    O  304 0.055
   303  C   3.886    O  304 1.874    C  302 0.977    H  599 0.954
   304  O   2.050    C  303 1.874    C  302 0.055
   305  C   3.988    C  306 0.993    H  312 0.974    H  311 0.967    C  302 0.962
   306  C   3.995    C  307 1.010    C  308 1.008    C  305 0.993    H  313 0.968
   307  C   3.994    C  306 1.010    H  316 0.983    H  315 0.980    H  314 0.977
   308  C   3.994    C  306 1.008    H  319 0.986    H  318 0.985    H  317 0.984
   309  H   0.972    N  301 0.953
   310  H   0.997    C  302 0.952
   311  H   0.996    C  305 0.967
   312  H   0.998    C  305 0.974
   313  H   0.999    C  306 0.968
   314  H   0.997    C  307 0.977
   315  H   0.999    C  307 0.980
   316  H   0.996    C  307 0.983
   317  H   0.997    C  308 0.984
   318  H   0.997    C  308 0.985
   319  H   0.999    C  308 0.986
   320  N   2.996    C  321 1.013    H  600 0.959    H  331 0.947
   321  C   3.984    N  320 1.013    C  324 0.977    H  332 0.960    C  322 0.938
   322  C   3.939    O  323 1.586    N  344 1.329    C  321 0.938
   323  O   1.955    C  322 1.586    N  344 0.191
   324  C   3.991    C  325 1.004    C  321 0.977    H  334 0.973    H  333 0.965
   325  C   3.992    C  326 1.008    C  324 1.004    H  335 0.975    H  336 0.968
   326  C   3.960    C  325 1.008    N  327 0.985    H  337 0.960    H  338 0.958
   327  N   3.483    C  328 1.338    C  326 0.985    H  339 0.875    N  330 0.113    N  329 0.094
   328  C   3.975    N  327 1.338    N  330 1.329    N  329 1.275
   329  N   3.345    C  328 1.275    H  341 0.920    H  340 0.915    N  330 0.095    N  327 0.094
   330  N   3.397    C  328 1.329    H  343 0.926    H  342 0.851    N  327 0.113    N  329 0.095
   331  H   0.971    N  320 0.947
   332  H   0.998    C  321 0.960
   333  H   0.995    C  324 0.965
   334  H   0.998    C  324 0.973
   335  H   0.997    C  325 0.975
   336  H   0.996    C  325 0.968
   337  H   0.994    C  326 0.960
   338  H   0.993    C  326 0.958
   339  H   0.949    N  327 0.875
   340  H   0.941    N  329 0.915
   341  H   0.942    N  329 0.920
   342  H   0.943    N  330 0.851    O  177 0.071
   343  H   0.947    N  330 0.926
   344  N   3.482    C  322 1.329    C  345 0.979    H  351 0.888    O  323 0.191
   345  C   3.963    N  344 0.979    C  346 0.971    C  348 0.951    H  352 0.942    O  347 0.056
   346  C   3.897    O  347 1.892    C  345 0.971    H  601 0.955
   347  O   2.043    C  346 1.892    C  345 0.056
   348  C   3.982    C  349 1.008    C  350 1.006    H  353 0.964    C  345 0.951
   349  C   3.992    C  348 1.008    H  355 0.984    H  354 0.983    H  356 0.982
   350  C   3.988    C  348 1.006    H  358 0.983    H  357 0.979    H  359 0.978
   351  H   0.939    N  344 0.888
   352  H   0.994    C  345 0.942
   353  H   0.996    C  348 0.964
   354  H   0.995    C  349 0.983
   355  H   0.999    C  349 0.984
   356  H   0.998    C  349 0.982
   357  H   0.993    C  350 0.979
   358  H   0.997    C  350 0.983
   359  H   0.996    C  350 0.978
   360  N   3.000    C  361 1.013    H  602 0.960    H  368 0.924
   361  C   3.986    N  360 1.013    C  362 0.975    C  364 0.964    H  369 0.957    O  363 0.054
   362  C   3.887    O  363 1.882    C  361 0.975    H  603 0.954
   363  O   2.018    C  362 1.882    C  361 0.054
   364  C   3.990    C  365 0.992    H  371 0.972    C  361 0.964    H  370 0.963
   365  C   3.994    C  367 1.009    C  366 1.006    C  364 0.992    H  372 0.962
   366  C   3.995    C  365 1.006    H  375 0.981    H  373 0.980    H  374 0.979
   367  C   3.996    C  365 1.009    H  377 0.985    H  378 0.980    H  376 0.977
   368  H   0.966    N  360 0.924
   369  H   0.999    C  361 0.957
   370  H   0.995    C  364 0.963
   371  H   0.999    C  364 0.972
   372  H   0.998    C  365 0.962
   373  H   0.998    C  366 0.980
   374  H   0.998    C  366 0.979
   375  H   0.998    C  366 0.981
   376  H   0.999    C  367 0.977
   377  H   0.999    C  367 0.985
   378  H   1.000    C  367 0.980
   379  N   2.999    C  380 1.015    H  604 0.954    H  386 0.951
   380  C   3.981    N  379 1.015    C  381 0.983    H  387 0.949    C  383 0.930    O  382 0.056
   381  C   3.895    O  382 1.873    C  380 0.983    H  605 0.954
   382  O   2.061    C  381 1.873    C  380 0.056
   383  C   3.957    C  385 1.006    O  384 0.998    H  388 0.962    C  380 0.930
   384  O   1.965    C  383 0.998    H  389 0.878
   385  C   3.988    C  383 1.006    H  391 0.983    H  390 0.982    H  392 0.978
   386  H   0.974    N  379 0.951
   387  H   0.995    C  380 0.949
   388  H   0.999    C  383 0.962
   389  H   0.898    O  384 0.878
   390  H   0.995    C  385 0.982
   391  H   0.998    C  385 0.983
   392  H   0.994    C  385 0.978
   393  N   2.995    C  394 1.012    H  606 0.960    H  400 0.951
   394  C   3.981    N  393 1.012    C  397 0.965    H  401 0.956    C  395 0.936
   395  C   3.939    O  396 1.594    N  409 1.323    C  394 0.936
   396  O   1.960    C  395 1.594    N  409 0.194
   397  C   3.991    C  398 1.008    C  399 1.008    C  394 0.965    H  402 0.959
   398  C   3.994    C  397 1.008    H  404 0.984    H  405 0.983    H  403 0.981
   399  C   3.993    C  397 1.008    H  407 0.984    H  408 0.983    H  406 0.979
   400  H   0.974    N  393 0.951
   401  H   0.999    C  394 0.956
   402  H   0.996    C  397 0.959
   403  H   0.996    C  398 0.981
   404  H   0.999    C  398 0.984
   405  H   0.999    C  398 0.983
   406  H   0.995    C  399 0.979
   407  H   0.998    C  399 0.984
   408  H   0.998    C  399 0.983
   409  N   3.475    C  395 1.323    C  410 0.976    H  417 0.884    O  396 0.194
   410  C   3.965    N  409 0.976    C  411 0.975    C  413 0.967    H  418 0.941    O  412 0.055
   411  C   3.896    O  412 1.884    C  410 0.975    H  607 0.954
   412  O   2.034    C  411 1.884    C  410 0.055
   413  C   3.985    C  414 0.994    H  420 0.972    C  410 0.967    H  419 0.966
   414  C   3.994    C  415 1.009    C  416 1.007    C  413 0.994    H  421 0.968
   415  C   3.994    C  414 1.009    H  422 0.985    H  424 0.985    H  423 0.983
   416  C   3.994    C  414 1.007    H  427 0.987    H  425 0.986    H  426 0.985
   417  H   0.941    N  409 0.884
   418  H   0.991    C  410 0.941
   419  H   0.994    C  413 0.966
   420  H   0.996    C  413 0.972
   421  H   1.000    C  414 0.968
   422  H   0.998    C  415 0.985
   423  H   0.998    C  415 0.983
   424  H   0.997    C  415 0.985
   425  H   0.998    C  416 0.986
   426  H   0.997    C  416 0.985
   427  H   0.998    C  416 0.987
   428  N   2.999    C  429 1.012    H  608 0.959    H  436 0.953
   429  C   3.985    N  428 1.012    C  432 0.979    H  437 0.960    C  430 0.936
   430  C   3.943    O  431 1.588    N  447 1.331    C  429 0.936
   431  O   1.948    C  430 1.588    N  447 0.196
   432  C   3.992    C  433 0.994    C  429 0.979    H  439 0.973    H  438 0.963
   433  C   3.996    C  435 1.010    C  434 1.007    C  432 0.994    H  440 0.967
   434  C   3.994    C  433 1.007    H  441 0.982    H  443 0.982    H  442 0.979
   435  C   3.996    C  433 1.010    H  445 0.986    H  444 0.985    H  446 0.983
   436  H   0.975    N  428 0.953
   437  H   0.999    C  429 0.960
   438  H   0.996    C  432 0.963
   439  H   0.999    C  432 0.973
   440  H   0.999    C  433 0.967
   441  H   0.997    C  434 0.982
   442  H   0.998    C  434 0.979
   443  H   0.999    C  434 0.982
   444  H   0.998    C  435 0.985
   445  H   0.999    C  435 0.986
   446  H   0.999    C  435 0.983
   447  N   3.484    C  430 1.331    C  448 0.979    H  456 0.880    O  431 0.196
   448  C   3.968    N  447 0.979    C  449 0.975    C  451 0.964    H  457 0.945    O  450 0.055
   449  C   3.903    O  450 1.889    C  448 0.975    H  609 0.955
   450  O   2.033    C  449 1.889    C  448 0.055
   451  C   3.984    C  452 1.005    H  459 0.974    C  448 0.964    H  458 0.964
   452  C   3.987    C  451 1.005    H  460 0.973    H  461 0.949    C  453 0.934
   453  C   3.936    O  454 1.492    O  455 1.472    C  452 0.934
   454  O   1.883    C  453 1.492    O  455 0.205    H   97 0.072
   455  O   1.865    C  453 1.472    O  454 0.205
   456  H   0.943    N  447 0.880
   457  H   0.995    C  448 0.945
   458  H   0.995    C  451 0.964
   459  H   0.997    C  451 0.974
   460  H   0.998    C  452 0.973
   461  H   0.998    C  452 0.949
   462  N   2.990    C  463 1.012    H  610 0.959    H  470 0.920
   463  C   3.987    N  462 1.012    C  464 0.982    C  466 0.960    H  471 0.958    O  465 0.054
   464  C   3.890    O  465 1.886    C  463 0.982    H  611 0.953
   465  O   2.024    C  464 1.886    C  463 0.054
   466  C   3.992    C  467 0.994    H  473 0.973    H  472 0.970    C  463 0.960
   467  C   3.996    C  468 1.009    C  469 1.008    C  466 0.994    H  474 0.969
   468  C   3.996    C  467 1.009    H  477 0.985    H  475 0.984    H  476 0.983
   469  C   3.996    C  467 1.008    H  479 0.986    H  480 0.983    H  478 0.981
   470  H   0.966    N  462 0.920
   471  H   0.998    C  463 0.958
   472  H   0.998    C  466 0.970
   473  H   0.998    C  466 0.973
   474  H   0.999    C  467 0.969
   475  H   0.999    C  468 0.984
   476  H   0.998    C  468 0.983
   477  H   0.999    C  468 0.985
   478  H   0.998    C  469 0.981
   479  H   0.999    C  469 0.986
   480  H   0.998    C  469 0.983
   481  N   2.999    C  482 1.018    H  592 0.955    H  489 0.951
   482  C   3.985    N  481 1.018    C  483 0.973    C  485 0.962    H  490 0.954    O  484 0.055
   483  C   3.892    O  484 1.886    C  482 0.973    H  593 0.953
   484  O   2.043    C  483 1.886    C  482 0.055
   485  C   3.991    C  486 1.006    H  492 0.969    H  491 0.966    C  482 0.962
   486  C   3.977    C  485 1.006    S  487 0.991    H  493 0.974    H  494 0.968
   487  S   2.089    C  488 1.010    C  486 0.991
   488  C   3.979    S  487 1.010    H  497 0.982    H  495 0.979    H  496 0.976
   489  H   0.972    N  481 0.951
   490  H   0.997    C  482 0.954
   491  H   0.995    C  485 0.966
   492  H   0.996    C  485 0.969
   493  H   0.998    C  486 0.974
   494  H   0.995    C  486 0.968
   495  H   0.997    C  488 0.979
   496  H   0.995    C  488 0.976
   497  H   0.998    C  488 0.982
   498  N   2.998    C  499 1.029    H  594 0.954    H  507 0.941
   499  C   3.987    N  498 1.029    C  500 0.985    C  502 0.960    H  508 0.929    O  501 0.063
   500  C   3.893    O  501 1.882    C  499 0.985    H  595 0.953
   501  O   2.028    C  500 1.882    C  499 0.063
   502  C   3.993    C  503 1.006    H  509 0.975    H  510 0.972    C  499 0.960
   503  C   3.994    C  502 1.006    C  504 1.003    H  511 0.976    H  512 0.969
   504  C   3.988    C  505 1.006    C  503 1.003    H  514 0.973    H  513 0.973
   505  C   3.936    C  504 1.006    N  506 0.972    H  515 0.972    H  516 0.968
   506  N   3.614    C  505 0.972    H  519 0.916    H  518 0.911    H  517 0.709    O  242 0.060
   507  H   0.970    N  498 0.941
   508  H   0.995    C  499 0.929
   509  H   0.997    C  502 0.975
   510  H   0.997    C  502 0.972
   511  H   0.999    C  503 0.976
   512  H   0.997    C  503 0.969
   513  H   0.995    C  504 0.973
   514  H   0.995    C  504 0.973
   515  H   0.994    C  505 0.972
   516  H   0.992    C  505 0.968
   517  H   0.904    N  506 0.709    O  242 0.176
   518  H   0.925    N  506 0.911
   519  H   0.930    N  506 0.916
   520  N   2.987    C  521 1.012    H  596 0.954    H  529 0.952
   521  C   3.988    N  520 1.012    C  524 0.982    H  530 0.964    C  522 0.940
   522  C   3.942    O  523 1.598    N  535 1.315    C  521 0.940
   523  O   1.935    C  522 1.598    N  535 0.189
   524  C   3.993    C  525 1.006    C  521 0.982    H  531 0.976    H  532 0.966
   525  C   3.987    C  524 1.006    H  533 0.974    H  534 0.967    C  526 0.919    O  528 0.053    O  527 0.052
   526  C   3.933    O  528 1.505    O  527 1.487    C  525 0.919
   527  O   1.781    C  526 1.487    O  528 0.215    C  525 0.052
   528  O   1.794    C  526 1.505    O  527 0.215    C  525 0.053
   529  H   0.970    N  520 0.952
   530  H   0.999    C  521 0.964
   531  H   0.998    C  524 0.976
   532  H   0.997    C  524 0.966
   533  H   1.000    C  525 0.974
   534  H   1.000    C  525 0.967
   535  N   3.477    C  522 1.315    C  536 0.981    H  546 0.911    O  523 0.189
   536  C   3.961    N  535 0.981    C  539 0.978    H  547 0.943    C  537 0.936    O  538 0.051
   537  C   3.952    O  538 1.608    N  559 1.313    C  536 0.936
   538  O   1.972    C  537 1.608    N  559 0.189    C  536 0.051
   539  C   3.980    C  540 1.007    C  536 0.978    H  548 0.968    H  549 0.967
   540  C   3.991    C  539 1.007    C  541 0.991    H  550 0.974    H  551 0.971
   541  C   3.953    N  542 0.992    C  540 0.991    H  553 0.961    H  552 0.958
   542  N   3.470    C  543 1.315    C  541 0.992    H  554 0.908    N  545 0.102    N  544 0.096
   543  C   3.975    N  545 1.318    N  542 1.315    N  544 1.310
   544  N   3.386    C  543 1.310    H  556 0.916    H  555 0.916    N  545 0.097    N  542 0.096
   545  N   3.381    C  543 1.318    H  558 0.915    H  557 0.911    N  542 0.102    N  544 0.097
   546  H   0.949    N  535 0.911
   547  H   0.995    C  536 0.943
   548  H   0.992    C  539 0.968
   549  H   0.992    C  539 0.967
   550  H   0.997    C  540 0.974
   551  H   0.996    C  540 0.971
   552  H   0.988    C  541 0.958
   553  H   0.994    C  541 0.961
   554  H   0.937    N  542 0.908
   555  H   0.946    N  544 0.916
   556  H   0.939    N  544 0.916
   557  H   0.933    N  545 0.911
   558  H   0.938    N  545 0.915
   559  N   3.488    C  537 1.313    C  560 0.982    H  568 0.918    O  538 0.189
   560  C   3.954    N  559 0.982    C  563 0.977    C  561 0.935    H  569 0.931    O  562 0.056
   561  C   3.946    O  562 1.640    N  581 1.290    C  560 0.935
   562  O   1.959    C  561 1.640    N  581 0.194    C  560 0.056
   563  C   3.980    C  564 1.005    C  560 0.977    H  570 0.972    H  571 0.967
   564  C   3.990    C  563 1.005    C  565 1.003    H  573 0.974    H  572 0.974
   565  C   3.986    C  566 1.008    C  564 1.003    H  575 0.972    H  574 0.971
   566  C   3.917    C  565 1.008    H  576 0.965    H  577 0.964    N  567 0.962
   567  N   3.666    C  566 0.962    H  580 0.899    H  579 0.898    H  578 0.888
   568  H   0.955    N  559 0.918
   569  H   0.989    C  560 0.931
   570  H   0.996    C  563 0.972
   571  H   0.993    C  563 0.967
   572  H   0.996    C  564 0.974
   573  H   0.996    C  564 0.974
   574  H   0.993    C  565 0.971
   575  H   0.994    C  565 0.972
   576  H   0.987    C  566 0.965
   577  H   0.986    C  566 0.964
   578  H   0.903    N  567 0.888
   579  H   0.912    N  567 0.898
   580  H   0.913    N  567 0.899
   581  N   3.468    C  561 1.290    C  582 1.010    H  585 0.897    O  562 0.194
   582  C   3.969    N  581 1.010    C  583 1.002    H  586 0.931    H  587 0.928    O  584 0.068
   583  C   3.902    O  584 1.886    C  582 1.002    H  597 0.952
   584  O   2.034    C  583 1.886    C  582 0.068
   585  H   0.957    N  581 0.897
   586  H   0.988    C  582 0.931
   587  H   0.984    C  582 0.928
   588  H   0.966    N    1 0.955
   589  H   0.993    C  251 0.952
   590  H   0.969    N  256 0.959
   591  H   0.994    C  274 0.953
   592  H   0.968    N  481 0.955
   593  H   0.994    C  483 0.953
   594  H   0.968    N  498 0.954
   595  H   0.994    C  500 0.953
   596  H   0.964    N  520 0.954
   597  H   0.993    C  583 0.952
   598  H   0.966    N  301 0.956
   599  H   0.995    C  303 0.954
   600  H   0.970    N  320 0.959
   601  H   0.995    C  346 0.955
   602  H   0.971    N  360 0.960
   603  H   0.995    C  362 0.954
   604  H   0.965    N  379 0.954
   605  H   0.994    C  381 0.954
   606  H   0.970    N  393 0.960
   607  H   0.995    C  411 0.954
   608  H   0.969    N  428 0.959
   609  H   0.995    C  449 0.955
   610  H   0.970    N  462 0.959
   611  H   0.994    C  464 0.953
 
molecular dipole:
                 x           y           z       tot (Debye)
 q only:      115.454      81.715      -2.027
   full:      116.202      81.600      -4.374     361.083
molecular quadrupole (traceless):
                xx          xy          yy          xz          yz          zz
 q only:     5120.394    6893.586     367.094     308.915    1683.941   -5487.488
  q+dip:     5301.729    6919.259     315.162     169.111    1599.351   -5616.891
   full:     5303.644    6918.020     322.180     170.120    1599.670   -5625.824
speedup 10.12
cpu  time for grad    1 m  3.8 s
wall time for grad    0 m  6.3 s

SCC energy    :    -904.1428148
rep           :      10.7657404
ES            :       2.8780462
AES           :      -0.1494323
AXC           :       0.3197386
disp          :      -0.7590311
XB            :       0.0000000
fix           :       0.0000000
Gborn         :       0.0000000
Gsasa         :       0.0000000
Ghb           :       0.0000000
Gshift        :       0.0000000
Gsolv         :      -0.8023618     -503.49
Etot ala COSMO:    -904.1428148
grad norm     :       0.7743109
total E       :    -893.2999741
atomizationE  :     161.6662254   101447.09
(atE without considering molecular charge,
 total energy contains solvation terms)
H-L gap (eV)  :          1.5686

------------------------------------------------------------------------
 * finished run on 2019/02/12 at 03:00:03.899     
------------------------------------------------------------------------
 total:
 * wall-time:     0 d,  0 h,  0 min,  7.091 sec
 *  cpu-time:     0 d,  0 h,  1 min, 11.543 sec
 * ratio c/w:    10.089 speedup
 SCF:
 * wall-time:     0 d,  0 h,  0 min,  6.721 sec
 *  cpu-time:     0 d,  0 h,  1 min,  7.936 sec
 * ratio c/w:    10.108 speedup

