      -----------------------------------------------------------      
     |                   =====================                   |     
     |                           x T B                           |     
     |                   =====================                   |     
     |                         S. Grimme                         |     
     |          Mulliken Center for Theoretical Chemistry        |     
     |                    University of Bonn                     |     
     |                 Version 6.0.1 (SAW181210)                 |     
      -----------------------------------------------------------      

   This program is distributed in the hope that it will be useful,
   but WITHOUT ANY WARRANTY; without even the implied warranty of
   MERCHANTABILITY or FITNESS FOR A PARTICULAR PURPOSE.
   
   FOR NON-COMMERCIAL, ACADEMIA USE ONLY.
   
   Cite this work as:
   S. Grimme, C. Bannwarth, P. Shushkov, J. Comput. Theory Chem., 2017,
   13, 1989-2009.
   C. Bannwarth, S. Ehlert and S. Grimme., ChemRxiv, 2018, preprint.
   http://doi.org/10.26434/chemrxiv.7246238.v1
   
   for sTDA-xTB:
   S. Grimme and C. Bannwarth, J. Chem. Phys., 2016, 145, 054103.
   
   in the mass-spec context:
   V. Asgeirsson, C. Bauer and S. Grimme, Chem. Sci., 2017, 8, 4879.
   
   if GBSA is used:
   P. Shushkov, F. März and S. Grimme, unpublished.
   
   for ANC optimizer:
   S. Grimme, unpublished.
   Rational Function algorithm used in ANCopt:
   F. Eckert, P. Pulay, H.-J. Werner, J. Comput. Chem., 1997, 18, 1473.
   
   with help from (in alphabetical order)
   C. Bannwarth, F. Bohle, G. Brandenburg, E. Caldeweyher, M. Checinski,
   S. Dohm, S. Ehlert, S. Ehrlich, F. März, H. Neugebauer, J. Pisarek,
   P. Pracht, P. Shushkov, and S. Spicher.
   
 * started run on 2019/05/10 at 12:43:57.161     
========================================================================
 # omp threads = 2
========================================================================
number of atoms            : 390
number of electrons        : 1026
charge                     : 2
spin                       : .0
first test random number   : .0463

########################################################################
# WARNING! Please study the warnings concerning your input carefully
#  - Process number higher than OMP_NUM_THREADS, I hope you know what you are doing.
########################################################################

           ------------------------------------------------- 
          |                 G F N 2 - x T B                 |
          | Geometry, Frequencies, Noncovalent interactions |
          |            JCTC 2018 parametrisation            |
           ------------------------------------------------- 
 
      method parameters     
 k(s)        :  1.8500
 k(p)        :  2.2300
 k(d)        :  2.2300
 k(f)        :  2.0000
 kEN (H0ij)  : -2.0000
 D4 a1       :  0.5200
 D4 a2       :  5.0000
 D4 s6       :  1.0000
 D4 s8       :  2.7000
 D4 s9       :  5.0000
 alphaj      :  2.0000

 Solvent             : h2o
 Using internal parameter file: .param_gbsa2_h2o
 Gsolv ref. state (COSMO-RS): gsolv [1 M gas/solution]
 temperature (mdtemp)       :    298.150000000000     
 dielectric constant        :    80.2000000000000     
 rho                        :    1.00000000000000     
 mass                       :    18.0000000000000     
 surface tension            :    15.5689454083859     
 probe radius               :   0.975313790000000     
 vdW radii scaling          :    1.00000000000000     
 Gshift (Eh)                :   1.857443126794793E-003
 c1                         :    1.55243817000000     
 soset                      :   0.130326360000000     
 HB correction              :  T

            Z     q(EN)     CN     RAES       Cart. coordinates
     1  N   5.0   -0.11    4.14    3.26    14.89018   183.00518    -5.61528
     2  C   4.0    0.01    4.30    4.19    12.22071   182.44042    -6.25589
     3  C   4.0    0.16    3.46    3.10    10.72474   183.36197    -3.92695
     4  O   6.0   -0.31    1.31    1.80    11.89843   183.74331    -1.95524
     5  C   4.0    0.04    4.12    3.84    11.83495   179.54336    -6.59765
     6  O   6.0   -0.26    2.08    1.84     9.26572   178.89770    -6.58693
     7  H   1.0    0.07    1.02    1.43    16.10087   181.54884    -6.05275
     8  H   1.0    0.08    1.02    1.43    15.52205   184.62450    -6.48485
     9  H   1.0    0.09    1.09    1.44    14.79179   183.31180    -3.61707
    10  H   1.0    0.07    1.04    1.43    11.55768   183.42237    -7.94297
    11  H   1.0    0.06    1.01    1.43    12.77099   178.92574    -8.33259
    12  H   1.0    0.05    1.01    1.43    12.70295   178.58504    -4.97377
    13  H   1.0    0.16    1.06    1.44     8.69133   178.45744    -8.26840
    14  N   5.0   -0.14    3.54    2.10     8.27934   183.59334    -4.28590
    15  C   4.0    0.04    4.38    4.34     6.58176   184.51273    -2.36318
    16  C   4.0    0.14    3.35    3.06     4.99558   182.38201    -1.13255
    17  O   6.0   -0.30    1.21    1.80     3.97901   182.72998     0.90740
    18  C   4.0   -0.03    4.21    4.02     4.88072   186.62224    -3.43989
    19  C   4.0   -0.03    4.16    3.92     3.60876   186.00359    -5.97861
    20  C   4.0    0.26    3.10    3.02     5.22885   186.48569    -8.40038
    21  O   6.0   -0.24    1.16    1.80     4.64528   188.31251    -9.74184
    22  O   6.0   -0.29    1.30    1.80     6.99319   184.94338    -8.85363
    23  H   1.0    0.12    1.19    1.46     7.64700   183.70060    -6.15979
    24  H   1.0    0.06    1.06    1.44     7.69816   185.32234    -0.81470
    25  H   1.0    0.06    1.03    1.43     3.40904   186.99689    -2.04229
    26  H   1.0    0.06    1.02    1.43     5.99759   188.34075    -3.66724
    27  H   1.0    0.05    1.02    1.43     3.00106   184.02920    -6.01339
    28  H   1.0    0.07    1.03    1.43     1.93929   187.19607    -6.18719
    29  N   5.0   -0.14    3.45    2.05     4.91925   180.18274    -2.41947
    30  C   4.0    0.03    4.30    4.19     3.31674   178.03053    -1.76578
    31  C   4.0    0.15    3.43    3.09     4.80032   175.97180    -0.35345
    32  O   6.0   -0.32    1.27    1.80     4.18380   175.11519     1.70988
    33  C   4.0   -0.07    4.11    3.82     2.16238   176.87880    -4.16019
    34  H   1.0    0.09    1.08    1.44     5.85463   180.08397    -4.09062
    35  H   1.0    0.06    1.05    1.44     1.84001   178.71338    -0.48601
    36  H   1.0    0.04    1.00    1.43     1.11317   175.18310    -3.67099
    37  H   1.0    0.05    1.00    1.43     0.87772   178.21623    -5.04052
    38  H   1.0    0.05    1.00    1.43     3.63131   176.38781    -5.51145
    39  N   5.0   -0.15    3.56    2.12     6.86115   175.18057    -1.56868
    40  C   4.0    0.03    4.40    4.39     8.52282   173.27721    -0.50430
    41  C   4.0    0.16    3.43    3.09     9.36927   174.17583     2.15121
    42  O   6.0   -0.30    1.26    1.80     9.56148   172.70931     3.92655
    43  C   4.0   -0.05    4.30    4.20    10.62570   172.72787    -2.42450
    44  C   4.0   -0.03    4.15    3.91     9.92129   170.73002    -4.44030
    45  C   4.0   -0.07    4.11    3.82     7.39577   171.21231    -5.75413
    46  C   4.0   -0.07    4.10    3.81    12.00845   170.63415    -6.44551
    47  H   1.0    0.08    1.07    1.44     7.30484   175.87591    -3.29559
    48  H   1.0    0.05    1.05    1.44     7.46507   171.52892    -0.14134
    49  H   1.0    0.05    1.03    1.43    11.12917   174.48407    -3.38195
    50  H   1.0    0.05    1.03    1.43    12.29176   172.04843    -1.41971
    51  H   1.0    0.04    1.05    1.44     9.81369   168.89132    -3.49578
    52  H   1.0    0.04    1.00    1.43     7.05055   169.70199    -7.10328
    53  H   1.0    0.04    1.00    1.43     5.83513   171.23817    -4.42211
    54  H   1.0    0.05    1.00    1.43     7.44028   172.98304    -6.80161
    55  H   1.0    0.05    1.00    1.43    11.66890   169.11252    -7.78169
    56  H   1.0    0.05    1.00    1.43    12.06574   172.39027    -7.51529
    57  H   1.0    0.04    1.00    1.43    13.85086   170.33942    -5.58632
    58  N   5.0   -0.13    3.49    2.07     9.73179   176.67238     2.35125
    59  C   4.0    0.03    4.34    4.28     9.97920   178.15119     4.67108
    60  C   4.0    0.17    3.43    3.09     8.98778   176.69049     6.99212
    61  O   6.0   -0.29    1.21    1.80    10.30541   176.29602     8.84576
    62  C   4.0   -0.04    4.27    4.14     8.52519   180.65155     4.27452
    63  C   4.0   -0.04    4.16    3.91     9.37693   182.88078     5.91393
    64  C   4.0   -0.04    4.18    3.95    11.45082   184.39897     4.58483
    65  C   4.0   -0.03    4.12    3.84    12.22029   186.70573     6.13000
    66  N   5.0   -0.11    4.01    2.89    14.30886   188.09184     4.84115
    67  H   1.0    0.08    1.09    1.44     9.61187   177.72391     0.75880
    68  H   1.0    0.06    1.05    1.44    11.98901   178.52346     5.02190
    69  H   1.0    0.06    1.04    1.43     8.75969   181.20389     2.29970
    70  H   1.0    0.06    1.03    1.43     6.51512   180.31217     4.55337
    71  H   1.0    0.05    1.03    1.43     7.74917   184.09674     6.24465
    72  H   1.0    0.05    1.02    1.43    10.03680   182.19496     7.74172
    73  H   1.0    0.05    1.03    1.43    13.08054   183.17147     4.29505
    74  H   1.0    0.06    1.03    1.43    10.75757   184.98820     2.73604
    75  H   1.0    0.05    1.02    1.43    10.61495   187.97412     6.36532
    76  H   1.0    0.05    1.02    1.43    12.86731   186.11237     7.99522
    77  H   1.0    0.07    1.02    1.43    14.87725   189.62345     5.90086
    78  H   1.0    0.07    1.02    1.43    15.83540   186.90446     4.59190
    79  H   1.0    0.07    1.02    1.43    13.72213   188.71626     3.09210
    80  N   5.0   -0.14    3.53    2.10     6.52746   176.07727     6.85038
    81  C   4.0    0.04    4.49    4.52     5.13346   174.95181     8.90874
    82  C   4.0    0.14    3.58    3.16     4.71530   172.13153     8.69169
    83  O   6.0   -0.30    1.40    1.80     4.39458   170.86720    10.61794
    84  C   4.0   -0.02    4.33    4.25     2.49091   176.18072     9.22082
    85  C   4.0   -0.04    4.20    4.00     0.60596   175.25129     7.19827
    86  C   4.0   -0.06    4.12    3.85     2.78731   179.05925     9.14901
    87  C   4.0   -0.06    4.01    3.64    -0.92545   172.91633     7.95550
    88  H   1.0    0.10    1.09    1.44     5.61517   176.21137     5.17298
    89  H   1.0    0.06    1.06    1.44     6.23039   175.27576    10.63322
    90  H   1.0    0.06    1.06    1.44     1.81297   175.60045    11.08214
    91  H   1.0    0.05    1.03    1.43    -0.73239   176.77121     6.81270
    92  H   1.0    0.06    1.03    1.43     1.59929   174.86645     5.43468
    93  H   1.0    0.06    1.00    1.43     1.05409   179.95053     9.78856
    94  H   1.0    0.05    1.00    1.43     4.32563   179.64919    10.36956
    95  H   1.0    0.05    1.00    1.43     3.17024   179.68549     7.23238
    96  H   1.0    0.05    1.00    1.43    -1.85927   172.11450     6.31021
    97  H   1.0    0.07    1.01    1.43     0.24409   171.46030     8.79916
    98  H   1.0    0.06    1.00    1.43    -2.36464   173.40839     9.34002
    99  N   5.0   -0.15    3.51    2.09     4.58447   171.10512     6.37717
   100  C   4.0    0.04    4.44    4.45     4.32861   168.39492     6.18454
   101  C   4.0    0.16    3.42    3.09     6.50040   167.03141     7.55182
   102  O   6.0   -0.28    1.22    1.80     6.36374   164.78034     8.03642
   103  C   4.0   -0.05    4.32    4.23     3.97357   167.46716     3.46728
   104  C   4.0   -0.02    4.18    3.97     2.29103   165.09645     3.37234
   105  C   4.0   -0.07    4.11    3.82    -0.48890   165.83536     3.58011
   106  C   4.0   -0.07    4.10    3.81     2.70053   163.61332     0.94046
   107  H   1.0    0.10    1.07    1.44     5.02140   172.10371     4.80699
   108  H   1.0    0.06    1.07    1.44     2.65853   167.85227     7.29616
   109  H   1.0    0.04    1.03    1.43     3.08294   168.97030     2.36986
   110  H   1.0    0.05    1.03    1.43     5.81425   167.03363     2.63771
   111  H   1.0    0.07    1.06    1.44     2.81655   163.87530     4.95966
   112  H   1.0    0.05    1.00    1.43    -1.65988   164.15127     3.68753
   113  H   1.0    0.05    1.00    1.43    -0.84087   166.95021     5.26793
   114  H   1.0    0.04    1.00    1.43    -1.04891   166.92160     1.92973
   115  H   1.0    0.05    1.00    1.43     1.50400   161.94368     0.91835
   116  H   1.0    0.03    1.00    1.43     2.26489   164.76492    -0.69868
   117  H   1.0    0.05    1.01    1.43     4.65775   162.99306     0.79041
   118  N   5.0   -0.13    3.52    2.09     8.43941   168.51506     8.32162
   119  C   4.0    0.05    4.42    4.41    10.42099   167.62660     9.96286
   120  C   4.0    0.16    3.51    3.12     9.98889   168.08732    12.78552
   121  O   6.0   -0.26    1.34    1.80    11.38395   167.01020    14.31718
   122  C   4.0   -0.03    4.33    4.25    12.96099   168.88230     9.34887
   123  C   4.0    0.17    3.31    3.06    14.98249   167.67267    11.02383
   124  O   6.0   -0.26    1.21    1.80    15.32375   165.38917    11.07077
   125  N   5.0   -0.16    3.17    1.95    16.27276   169.30075    12.49872
   126  H   1.0    0.10    1.09    1.44     8.72889   170.18765     7.43948
   127  H   1.0    0.08    1.06    1.44    10.61314   165.56817     9.74851
   128  H   1.0    0.05    1.03    1.43    13.44968   168.49958     7.38365
   129  H   1.0    0.06    1.03    1.43    12.82097   170.91533     9.65150
   130  H   1.0    0.12    1.03    1.43    17.79219   168.61195    13.42166
   131  H   1.0    0.09    1.03    1.43    16.19460   171.17324    12.16362
   132  N   5.0   -0.13    3.46    2.05     8.33414   169.81415    13.55819
   133  C   4.0    0.05    4.45    4.46     8.11563   170.12033    16.25779
   134  C   4.0    0.11    3.24    3.04     5.71175   168.87912    17.27381
   135  O   6.0   -0.23    1.12    1.80     3.59977   169.43496    16.51106
   136  C   4.0   -0.02    4.30    4.20     8.24285   172.89116    17.08807
   137  C   4.0    0.16    3.30    3.05     8.56831   172.69312    19.94002
   138  O   6.0   -0.24    1.20    1.80     6.76969   172.63649    21.38762
   139  N   5.0   -0.17    3.20    1.96    10.95589   172.30699    20.67626
   140  H   1.0    0.13    1.15    1.45     6.85559   170.40566    12.45165
   141  H   1.0    0.07    1.10    1.44     9.75218   169.13399    17.05635
   142  H   1.0    0.05    1.03    1.43     9.84678   173.80802    16.18663
   143  H   1.0    0.07    1.02    1.43     6.51142   173.87746    16.57762
   144  H   1.0    0.12    1.03    1.43    11.35532   172.12941    22.53176
   145  H   1.0    0.10    1.03    1.43    12.41055   172.54348    19.47023
   146  N   5.0   -0.20    3.22    1.96     5.03406   148.25642   -13.35492
   147  C   4.0    0.03    4.34    4.27     6.93258   149.92212   -14.41292
   148  C   4.0    0.09    3.26    3.04     9.46264   149.36272   -13.16916
   149  O   6.0   -0.27    1.12    1.80    11.44700   149.33344   -14.35670
   150  C   4.0   -0.03    4.27    4.13     6.33779   152.73037   -14.13070
   151  C   4.0   -0.07    4.13    3.87     8.39978   154.23622   -15.50748
   152  C   4.0   -0.08    4.13    3.86     3.74607   153.22745   -15.27994
   153  H   1.0    0.09    1.02    1.43     3.52808   148.94116   -12.40568
   154  H   1.0    0.05    1.05    1.44     7.11101   149.46951   -16.43360
   155  H   1.0    0.04    1.05    1.44     6.31890   153.19576   -12.11766
   156  H   1.0    0.04    1.00    1.43     7.90382   156.22440   -15.51777
   157  H   1.0    0.06    1.00    1.43    10.20717   153.99234   -14.57225
   158  H   1.0    0.05    1.00    1.43     8.56978   153.55361   -17.43574
   159  H   1.0    0.04    1.00    1.43     3.33684   155.24042   -15.29829
   160  H   1.0    0.04    1.00    1.43     3.72595   152.52231   -17.20574
   161  H   1.0    0.04    1.00    1.43     2.26888   152.27158   -14.22394
   162  N   5.0   -0.20    3.29    1.98   -11.14839   171.49155   -10.39870
   163  C   4.0    0.03    4.39    4.35    -9.30971   171.21303   -12.40685
   164  C   4.0    0.15    3.40    3.08    -8.01942   168.60788   -12.36280
   165  O   6.0   -0.28    1.20    1.80    -7.24629   167.53226   -14.26316
   166  C   4.0   -0.02    4.31    4.21    -7.33332   173.37626   -12.20212
   167  C   4.0   -0.05    4.21    4.03    -5.37682   172.82178   -10.12335
   168  C   4.0   -0.07    4.14    3.88    -8.71371   175.88781   -11.77147
   169  C   4.0   -0.08    4.01    3.63    -3.46598   174.91698    -9.60701
   170  H   1.0    0.08    1.04    1.43   -10.55720   172.49419    -8.88028
   171  H   1.0    0.06    1.05    1.44   -10.29221   171.34616   -14.22801
   172  H   1.0    0.05    1.05    1.44    -6.35094   173.44109   -14.02291
   173  H   1.0    0.04    1.04    1.43    -6.39286   172.49598    -8.37984
   174  H   1.0    0.05    1.03    1.43    -4.34876   171.10636   -10.62834
   175  H   1.0    0.05    1.00    1.43    -7.49583   177.44880   -12.30604
   176  H   1.0    0.05    1.00    1.43   -10.40830   175.97574   -12.92785
   177  H   1.0    0.05    1.00    1.43    -9.22097   176.15160    -9.80171
   178  H   1.0    0.04    1.00    1.43    -2.11739   174.27020    -8.20058
   179  H   1.0    0.05    1.00    1.43    -2.43097   175.40950   -11.31245
   180  H   1.0    0.05    1.00    1.43    -4.40564   176.59190    -8.88577
   181  N   5.0   -0.15    3.49    2.07    -7.78512   167.63671   -10.03243
   182  C   4.0    0.03    4.29    4.17    -6.68693   165.21041    -9.48997
   183  C   4.0    0.09    3.20    3.04    -8.53721   163.03209   -10.03559
   184  O   6.0   -0.27    1.13    1.80    -8.26997   160.91837    -9.15214
   185  C   4.0   -0.04    4.35    4.29    -5.85977   165.08920    -6.71789
   186  C   4.0   -0.03    4.15    3.90    -3.50589   166.61674    -5.95409
   187  C   4.0   -0.08    4.10    3.81    -4.15311   169.22242    -4.88430
   188  C   4.0   -0.08    4.11    3.83    -2.01351   165.17569    -3.93118
   189  H   1.0    0.08    1.09    1.44    -8.88904   168.32104    -8.62269
   190  H   1.0    0.05    1.05    1.44    -5.07971   164.90574   -10.76779
   191  H   1.0    0.05    1.03    1.43    -7.47654   165.69621    -5.59656
   192  H   1.0    0.06    1.04    1.44    -5.51610   163.09576    -6.32253
   193  H   1.0    0.04    1.05    1.44    -2.29843   166.83102    -7.61852
   194  H   1.0    0.04    1.00    1.43    -2.54597   170.48388    -5.06884
   195  H   1.0    0.04    1.01    1.43    -5.75049   170.04595    -5.85338
   196  H   1.0    0.04    1.00    1.43    -4.60781   169.05164    -2.88671
   197  H   1.0    0.03    1.00    1.43    -0.36041   166.26749    -3.39411
   198  H   1.0    0.04    1.00    1.43    -3.16662   164.86410    -2.26019
   199  H   1.0    0.04    1.00    1.43    -1.38902   163.34312    -4.61605
   200  N   5.0   -0.22    3.34    2.00    -1.78353   163.42465   -23.67073
   201  C   4.0    0.03    4.38    4.35    -1.02495   165.81703   -22.64304
   202  C   4.0    0.15    3.45    3.10     0.56613   165.50247   -20.26479
   203  O   6.0   -0.32    1.30    1.80     2.01068   167.14250   -19.48545
   204  C   4.0    0.06    4.25    4.09    -3.48003   167.27399   -21.95841
   205  O   6.0   -0.23    2.12    1.84    -4.49549   166.44928   -19.64841
   206  C   4.0   -0.06    4.08    3.77    -5.41749   167.17084   -24.13032
   207  H   1.0    0.09    1.04    1.43    -3.49436   162.78759   -23.10950
   208  H   1.0    0.04    1.05    1.44     0.04752   166.86828   -24.06411
   209  H   1.0    0.06    1.04    1.43    -2.95938   169.25301   -21.63390
   210  H   1.0    0.12    1.02    1.43    -4.45979   164.60397   -19.53230
   211  H   1.0    0.06    1.00    1.43    -6.98024   168.41288   -23.66518
   212  H   1.0    0.05    1.00    1.43    -4.54186   167.81864   -25.86750
   213  H   1.0    0.05    1.00    1.43    -6.14612   165.27953   -24.42160
   214  N   5.0   -0.14    3.61    2.16     0.15200   163.33613   -19.10432
   215  C   4.0    0.03    4.48    4.51     1.38280   162.64507   -16.79460
   216  C   4.0    0.15    3.51    3.12     3.95875   161.58449   -17.53273
   217  O   6.0   -0.32    1.38    1.80     5.90828   162.56797   -16.76078
   218  C   4.0   -0.05    4.35    4.29    -0.33677   160.86984   -15.32658
   219  C   4.0   -0.02    4.18    3.96     0.77736   160.07041   -12.77466
   220  C   4.0   -0.08    4.12    3.84     1.87929   162.31172   -11.32563
   221  C   4.0   -0.07    4.10    3.79    -1.24347   158.72686   -11.20130
   222  H   1.0    0.08    1.10    1.44    -1.04481   162.03448   -19.82632
   223  H   1.0    0.06    1.07    1.44     1.73390   164.38640   -15.73036
   224  H   1.0    0.05    1.03    1.43    -2.13205   161.84640   -15.03861
   225  H   1.0    0.04    1.03    1.43    -0.71875   159.20160   -16.47166
   226  H   1.0    0.04    1.05    1.44     2.31632   158.73315   -13.14092
   227  H   1.0    0.04    1.00    1.43     2.39824   161.72571    -9.42785
   228  H   1.0    0.05    1.00    1.43     3.56918   163.02010   -12.25100
   229  H   1.0    0.04    1.00    1.43     0.50164   163.83102   -11.19140
   230  H   1.0    0.05    1.00    1.43    -0.45660   158.14546    -9.39896
   231  H   1.0    0.05    1.00    1.43    -2.84398   159.96963   -10.86052
   232  H   1.0    0.05    1.00    1.43    -1.92146   157.05558   -12.18655
   233  N   5.0   -0.15    3.53    2.10     3.92261   159.68835   -19.17282
   234  C   4.0    0.03    4.43    4.43     6.11303   158.97825   -20.64846
   235  C   4.0    0.16    3.55    3.14     7.61245   161.31997   -21.36100
   236  O   6.0   -0.31    1.25    1.80     9.92190   161.32707   -21.35318
   237  C   4.0   -0.05    4.34    4.28     5.28820   157.72492   -23.11439
   238  C   4.0   -0.05    4.17    3.94     5.77821   154.89069   -23.19512
   239  C   4.0   -0.01    4.29    4.18     4.54654   153.93465   -25.61723
   240  N   5.0   -0.13    3.35    2.00     3.89678   151.27846   -25.55042
   241  C   4.0    0.10    3.37    3.07     2.74322   150.23039   -27.48386
   242  N   5.0   -0.17    3.26    1.97     2.00330   151.64287   -29.49393
   243  N   5.0   -0.17    3.22    1.96     2.29021   147.73597   -27.51368
   244  H   1.0    0.07    1.07    1.44     2.22828   159.01952   -19.76340
   245  H   1.0    0.04    1.05    1.44     7.33736   157.71360   -19.55933
   246  H   1.0    0.04    1.04    1.43     3.27112   158.04958   -23.34510
   247  H   1.0    0.05    1.04    1.43     6.21818   158.62316   -24.71600
   248  H   1.0    0.05    1.02    1.43     7.79411   154.47572   -23.20341
   249  H   1.0    0.04    1.03    1.43     4.96542   153.95607   -21.56183
   250  H   1.0    0.05    1.04    1.43     2.80135   154.99034   -25.95056
   251  H   1.0    0.05    1.02    1.43     5.83410   154.27929   -27.20533
   252  H   1.0    0.08    1.02    1.43     4.86727   150.11034   -24.19997
   253  H   1.0    0.09    1.04    1.43     3.13923   153.08775   -30.00820
   254  H   1.0    0.10    1.04    1.43     1.21340   150.69227   -30.94700
   255  H   1.0    0.10    1.04    1.43     2.52713   146.79204   -25.87742
   256  H   1.0    0.10    1.03    1.43     0.90395   147.04305   -28.62951
   257  N   5.0   -0.13    3.54    2.10     6.18901   163.27615   -22.08295
   258  C   4.0    0.04    4.33    4.25     7.34827   165.64851   -22.79751
   259  C   4.0    0.16    3.47    3.10     8.62054   166.93012   -20.50747
   260  O   6.0   -0.30    1.30    1.80    10.92823   167.15607   -20.48025
   261  C   4.0   -0.07    4.10    3.81     5.44798   167.32724   -24.14407
   262  H   1.0    0.08    1.07    1.44     4.35273   162.99156   -22.53476
   263  H   1.0    0.06    1.06    1.44     8.93387   165.21449   -24.07047
   264  H   1.0    0.06    1.00    1.43     6.42026   168.90745   -25.02268
   265  H   1.0    0.05    1.00    1.43     4.50568   166.21939   -25.59487
   266  H   1.0    0.07    1.02    1.43     4.06813   168.06189   -22.82129
   267  N   5.0   -0.14    3.50    2.08     7.18620   167.78296   -18.60289
   268  C   4.0    0.04    4.43    4.43     8.43795   169.20430   -16.60897
   269  C   4.0    0.16    3.40    3.08    10.28079   167.49258   -15.12568
   270  O   6.0   -0.31    1.22    1.80    11.81460   168.34934   -13.61688
   271  C   4.0   -0.04    4.19    3.99     6.55416   170.75973   -15.03592
   272  C   4.0   -0.03    4.19    3.98     7.90282   172.84288   -13.52736
   273  C   4.0    0.16    3.18    3.03     6.40426   175.02443   -12.38472
   274  O   6.0   -0.30    1.25    1.80     7.28139   176.30164   -10.65987
   275  N   5.0   -0.18    3.18    1.95     4.11288   175.55552   -13.32160
   276  H   1.0    0.12    1.10    1.44     5.26888   167.63579   -18.61992
   277  H   1.0    0.07    1.06    1.44     9.72002   170.56710   -17.53391
   278  H   1.0    0.05    1.03    1.43     5.24159   171.59971   -16.38958
   279  H   1.0    0.05    1.02    1.43     5.49779   169.53588   -13.75714
   280  H   1.0    0.06    1.03    1.43     9.00853   171.99646   -12.00554
   281  H   1.0    0.07    1.03    1.43     9.29106   173.78640   -14.74583
   282  H   1.0    0.09    1.03    1.43     3.36449   174.61516   -14.79030
   283  H   1.0    0.10    1.03    1.43     3.23264   177.12527   -12.69597
   284  N   5.0   -0.13    3.58    2.14    10.19410   165.06024   -15.78482
   285  C   4.0    0.04    4.35    4.28    11.86079   163.12433   -14.80569
   286  C   4.0    0.16    3.50    3.11    14.54668   163.41258   -15.81621
   287  O   6.0   -0.28    1.30    1.80    16.36650   163.38120   -14.38500
   288  C   4.0   -0.06    4.16    3.91    10.92574   160.50694   -15.57430
   289  H   1.0    0.12    1.17    1.46     8.63283   164.40705   -16.67804
   290  H   1.0    0.05    1.05    1.44    11.97977   163.29063   -12.73933
   291  H   1.0    0.05    1.00    1.43    12.19229   159.08534   -14.80955
   292  H   1.0    0.06    1.01    1.43     9.03927   160.23021   -14.82143
   293  H   1.0    0.07    1.02    1.43    10.90336   160.36082   -17.61641
   294  N   5.0   -0.14    3.52    2.09    14.68933   163.51334   -18.33894
   295  C   4.0    0.04    4.42    4.42    17.05062   163.88695   -19.67982
   296  C   4.0    0.17    3.53    3.13    18.87864   165.46001   -18.07705
   297  O   6.0   -0.24    1.22    1.80    21.11887   164.94052   -17.88568
   298  C   4.0   -0.04    4.30    4.20    16.61421   165.36951   -22.13217
   299  C   4.0   -0.04    4.19    3.99    15.13734   163.86749   -24.10094
   300  C   4.0   -0.00    4.19    3.99    16.86473   162.20922   -25.71881
   301  N   5.0   -0.13    3.41    2.03    15.33325   160.33394   -27.00192
   302  C   4.0    0.10    3.33    3.06    15.10971   159.93058   -29.46643
   303  N   5.0   -0.17    3.24    1.97    16.73727   160.87103   -31.13176
   304  N   5.0   -0.17    3.25    1.97    13.21996   158.46959   -30.28279
   305  H   1.0    0.11    1.09    1.44    13.07664   163.82439   -19.32466
   306  H   1.0    0.06    1.05    1.44    17.93203   162.05302   -20.06563
   307  H   1.0    0.06    1.03    1.43    15.55945   167.07388   -21.65541
   308  H   1.0    0.06    1.03    1.43    18.44473   165.94123   -22.88730
   309  H   1.0    0.07    1.04    1.43    13.72905   162.70737   -23.14108
   310  H   1.0    0.06    1.03    1.43    14.11255   165.18579   -25.30675
   311  H   1.0    0.05    1.03    1.43    17.85019   163.39558   -27.08059
   312  H   1.0    0.05    1.02    1.43    18.25151   161.24692   -24.53282
   313  H   1.0    0.08    1.08    1.44    14.01920   159.53287   -25.86405
   314  H   1.0    0.10    1.03    1.43    18.19263   161.96843   -30.58976
   315  H   1.0    0.10    1.03    1.43    16.50455   160.52824   -32.98832
   316  H   1.0    0.09    1.03    1.43    11.97058   157.70906   -29.06996
   317  H   1.0    0.10    1.03    1.43    13.05459   157.98634   -32.11468
   318  N   5.0   -0.13    3.57    2.13    17.76513   167.54015   -17.15327
   319  C   4.0    0.04    4.41    4.40    19.07066   169.38493   -15.64094
   320  C   4.0    0.18    3.48    3.11    20.66951   168.11163   -13.59903
   321  O   6.0   -0.25    1.25    1.80    22.97690   168.24580   -13.63740
   322  C   4.0   -0.04    4.24    4.09    17.15437   171.30385   -14.61976
   323  C   4.0   -0.02    4.17    3.95    16.18080   172.94486   -16.79238
   324  C   4.0    0.26    3.06    3.02    14.40942   175.23236   -16.11995
   325  O   6.0   -0.26    1.16    1.80    13.02384   175.94611   -17.89922
   326  O   6.0   -0.27    1.16    1.80    14.52587   176.19051   -13.97760
   327  H   1.0    0.09    1.09    1.44    15.87280   167.72363   -17.27027
   328  H   1.0    0.07    1.06    1.44    20.45496   170.36913   -16.84746
   329  H   1.0    0.07    1.03    1.43    15.57905   170.32707   -13.71975
   330  H   1.0    0.06    1.03    1.43    18.04883   172.51304   -13.21204
   331  H   1.0    0.06    1.03    1.43    17.78470   173.79760   -17.78252
   332  H   1.0    0.06    1.03    1.43    15.13930   171.81022   -18.16611
   333  N   5.0   -0.14    3.43    2.04    19.38296   167.11267   -11.62752
   334  C   4.0    0.05    4.33    4.25    20.91279   166.34551    -9.51205
   335  C   4.0    0.10    3.18    3.03    22.24306   163.78685    -9.79315
   336  O   6.0   -0.24    1.12    1.80    21.91621   162.20813   -11.43350
   337  C   4.0    0.02    4.12    3.83    19.60889   166.66695    -6.93622
   338  O   6.0   -0.24    2.04    1.83    21.46619   167.36776    -5.14765
   339  H   1.0    0.11    1.07    1.44    17.72954   166.23207   -11.99306
   340  H   1.0    0.08    1.09    1.44    22.47215   167.72263    -9.51423
   341  H   1.0    0.05    1.01    1.43    18.20960   168.18603    -7.09467
   342  H   1.0    0.03    1.02    1.43    18.67152   164.93092    -6.35676
   343  H   1.0    0.12    1.02    1.43    21.31944   166.23258    -3.70669
   344  N   5.0   -0.20    3.26    1.97    18.68988   158.86426    -1.05742
   345  C   4.0    0.03    4.24    4.08    16.27248   157.83260    -1.78965
   346  C   4.0    0.09    3.18    3.03    15.62823   155.58179    -0.08504
   347  O   6.0   -0.29    1.14    1.80    13.67383   155.50359     1.16720
   348  C   4.0   -0.05    4.33    4.26    16.40581   157.28579    -4.62084
   349  C   4.0   -0.02    4.20    4.00    17.08139   159.69217    -6.13131
   350  C   4.0   -0.06    4.09    3.78    17.36059   159.08328    -8.94384
   351  C   4.0   -0.08    4.11    3.83    15.10930   161.76064    -5.68515
   352  H   1.0    0.09    1.03    1.43    20.12440   158.71435    -2.30962
   353  H   1.0    0.04    1.06    1.44    14.80273   159.24478    -1.40330
   354  H   1.0    0.05    1.03    1.43    17.83950   155.83461    -4.91931
   355  H   1.0    0.05    1.02    1.43    14.58714   156.54421    -5.24964
   356  H   1.0    0.04    1.06    1.44    18.90614   160.38257    -5.46631
   357  H   1.0    0.07    1.00    1.43    17.67868   160.79406   -10.02928
   358  H   1.0    0.06    1.00    1.43    18.97027   157.83992    -9.23908
   359  H   1.0    0.05    1.00    1.43    15.67109   158.15026    -9.64733
   360  H   1.0    0.04    1.00    1.43    15.12989   163.11423    -7.22650
   361  H   1.0    0.04    1.00    1.43    13.22415   160.94932    -5.57084
   362  H   1.0    0.03    1.00    1.43    15.49202   162.75481    -3.93268
   363  N   5.0   -0.18    3.18    1.95    13.42564   157.32763     6.30524
   364  C   4.0    0.04    4.21    4.03    11.11244   158.73676     6.75554
   365  C   4.0    0.09    3.24    3.04     8.68810   157.26295     6.18866
   366  O   6.0   -0.25    1.11    1.80     6.59251   157.95637     6.93983
   367  C   4.0   -0.03    4.34    4.28    11.03855   161.25298     5.33043
   368  C   4.0   -0.03    4.10    3.80    10.16856   160.89742     2.60928
   369  S   6.0   -0.05    2.49    3.10    10.11507   163.85326     0.92014
   370  C   4.0   -0.07    3.88    3.44    13.46581   164.60719     0.82263
   371  H   1.0    0.11    1.04    1.43    14.30046   157.40979     4.60973
   372  H   1.0    0.07    1.06    1.44    11.09545   159.11233     8.78739
   373  H   1.0    0.07    1.04    1.43     9.69205   162.47849     6.30837
   374  H   1.0    0.05    1.03    1.43    12.93055   162.07788     5.41900
   375  H   1.0    0.06    1.06    1.44    11.38850   159.56839     1.60525
   376  H   1.0    0.06    1.08    1.44     8.23865   160.17841     2.58113
   377  H   1.0    0.04    1.04    1.43    13.74548   165.94193    -0.70313
   378  H   1.0    0.05    1.03    1.43    14.06000   165.41233     2.61532
   379  H   1.0    0.04    1.04    1.43    14.51858   162.87620     0.49112
   380  H   1.0    0.08    1.05    1.44     5.82733   167.55465    18.61674
   381  H   1.0    0.10    1.07    1.44     4.32437   147.34100   -14.60027
   382  H   1.0    0.07    1.05    1.44     9.54520   149.00137   -11.31615
   383  H   1.0    0.10    1.07    1.44   -12.52555   172.29054   -10.99670
   384  H   1.0    0.07    1.05    1.44   -10.03214   163.32020   -11.15507
   385  H   1.0    0.10    1.08    1.44    -1.84748   163.53002   -25.36701
   386  H   1.0    0.07    1.05    1.44    23.54891   163.25745    -8.53396
   387  H   1.0    0.09    1.07    1.44    18.52804   160.53000    -0.75462
   388  H   1.0    0.07    1.05    1.44    16.81498   154.11594     0.03320
   389  H   1.0    0.11    1.07    1.44    14.62357   157.83830     7.39920
   390  H   1.0    0.08    1.05    1.44     8.76558   155.67131     5.17292

  Z AO/shell   Hii/eV     exponent
  1     Wed Apr 25 08:07:45 CEST 2018   EN: 2.200 GM2: 0.406  GM3: 0.0800  RAES: 1.40
     1s    -10.707211    1.230000
  6     Wed Apr 25 08:07:45 CEST 2018   EN: 2.550 GM2: 0.538  GM3: 0.1500  RAES: 3.00
     2s    -13.970922    2.096432
     2p    -10.063292    1.800000
  7     Wed Apr 25 08:07:45 CEST 2018   EN: 3.040 GM2: 0.461  GM3:-0.0640  RAES: 1.90
     2s    -16.686243    2.339881
     2p    -12.523956    2.014332
  8     Wed Apr 25 08:07:45 CEST 2018   EN: 3.440 GM2: 0.452  GM3:-0.0517  RAES: 1.80
     2s    -20.229985    2.439742
     2p    -15.503117    2.137023
 16     Tue Apr 24 11:44:34 CEST 2018   EN: 2.580 GM2: 0.340  GM3:-0.0502  RAES: 3.10
     3s    -20.029654    1.981333
     3p    -11.377694    2.025643
     3d     -0.420282    1.702555
 no old-style atom pair restraining (fixing) potential

molecular fragmentation (1/2 indicates fragments):
111111111111111111111111111111111111111111111111111111111111111111111111
111111111111111111111111111111111111111111111111111111111111111111111111
122222222222222222222222222222222222222222222222222222222222222222222222
222222222222222222222222222222222222222222222222222222222222222222222222
222222222222222222222222222222222222222222222222222222222222222222222222
222222222222222222212222222222
# atoms in fragment 1/2:   146   244
 fragment masses (1/2) :      986.15     1594.01
CMA distance (Bohr)    :  21.701
constraining FC (au)   :  0.0500
           ------------------------------------------------- 
          |        Self-Consistent Charge Iterations        |
           ------------------------------------------------- 

 Ncao       : 933
 Nao        : 932
 Nshell     : 570
 Nel        : 1026
 T(el)      :   500.0
 intcut     :    35.0
 scfconv/Eh :  0.100E-06
   qconv/e  :  0.100E-04
 intneglect :  0.100E-08
 broydamp   :      0.400
 iter      E             dE          RMSdq      gap      omega  full diag
   1   -586.3858262 -0.586386E+03  0.450E+00    2.52       0.0  T
   2   -587.7577630 -0.137194E+01  0.209E+00    1.48       1.0  T
   3   -587.8437741 -0.860112E-01  0.118E+00    1.92       1.0  T
   4   -587.9306541 -0.868800E-01  0.247E-01    1.62       1.0  T
   5   -587.9354933 -0.483913E-02  0.116E-01    1.76       1.0  T
   6   -587.9361964 -0.703112E-03  0.443E-02    1.75       1.0  T
   7   -587.9363474 -0.151062E-03  0.198E-02    1.78       1.0  T
   8   -587.9363661 -0.186194E-04  0.823E-03    1.79       1.0  T
   9   -587.9363717 -0.566038E-05  0.364E-03    1.80       1.4  T
  10   -587.9363724 -0.688310E-06  0.152E-03    1.80       3.3  T
  11   -587.9363726 -0.176223E-06  0.725E-04    1.80       7.0  T
  12   -587.9363726 -0.372007E-07  0.296E-04    1.80      17.1  T
  13   -587.9363726 -0.427747E-08  0.143E-04    1.80      35.3  T
  14   -587.9363726 -0.123964E-08  0.538E-05    1.80      94.1  T
  15   -587.9363726 -0.174850E-09  0.222E-05    1.80     228.0  T
speedup  2.00
cpu  time for SCC   11.58 s
wall time for SCC    5.79 s

   *** convergence criteria satisfied after 15 iterations ***

          eigenvalues
 #    :         501        502        503        504        505        506        507        508
 occ. :        2.000      2.000      2.000      2.000      2.000      2.000      2.000      2.000
 eps  :       -10.715    -10.713    -10.704    -10.701    -10.614    -10.251    -10.202    -10.127
 #    :         509        510        511        512        513        514        515        516
 occ. :        2.000      2.000      2.000      2.000      2.000      0.000      0.000      0.000
 eps  :       -10.098    -10.022     -9.912     -9.753     -9.733     -7.936     -7.917     -7.896
 #    :         517        518        519        520        521        522        523        524
 occ. :        0.000      0.000      0.000      0.000      0.000      0.000      0.000      0.000
 eps  :        -7.659     -7.638     -7.554     -6.885     -6.680     -6.653     -6.534     -6.522


   #   Z            q   n(s)   n(p)   n(d)      C6AA      α(0)
   1   7 N     -0.176  1.241  3.936  0.000    24.807     7.397
   2   6 C     -0.033  1.079  2.954  0.000    21.185     6.557
   3   6 C      0.259  1.035  2.706  0.000    22.645     7.793
   4   8 O     -0.458  1.724  4.734  0.000    22.870     6.412
   5   6 C      0.062  1.040  2.898  0.000    19.763     6.371
   6   8 O     -0.458  1.687  4.771  0.000    21.998     6.332
   7   1 H      0.295  0.705  0.000  0.000     0.728     1.337
   8   1 H      0.302  0.698  0.000  0.000     0.706     1.317
   9   1 H      0.329  0.671  0.000  0.000     0.634     1.247
  10   1 H      0.111  0.889  0.000  0.000     1.684     2.030
  11   1 H      0.058  0.942  0.000  0.000     2.224     2.332
  12   1 H      0.080  0.920  0.000  0.000     1.979     2.200
  13   1 H      0.334  0.666  0.000  0.000     0.628     1.245
  14   7 N     -0.188  1.269  3.919  0.000    25.085     7.439
  15   6 C      0.011  1.067  2.922  0.000    20.393     6.431
  16   6 C      0.267  1.046  2.688  0.000    22.495     7.766
  17   8 O     -0.464  1.745  4.719  0.000    22.997     6.430
  18   6 C     -0.062  1.054  3.008  0.000    21.694     6.632
  19   6 C     -0.102  1.068  3.035  0.000    22.459     6.748
  20   6 C      0.367  1.027  2.606  0.000    20.776     7.459
  21   8 O     -0.624  1.781  4.843  0.000    26.712     6.929
  22   8 O     -0.611  1.765  4.846  0.000    26.380     6.886
  23   1 H      0.248  0.752  0.000  0.000     0.891     1.479
  24   1 H      0.098  0.902  0.000  0.000     1.805     2.101
  25   1 H      0.063  0.937  0.000  0.000     2.169     2.303
  26   1 H      0.052  0.948  0.000  0.000     2.296     2.370
  27   1 H      0.031  0.969  0.000  0.000     2.578     2.511
  28   1 H      0.028  0.972  0.000  0.000     2.621     2.532
  29   7 N     -0.187  1.246  3.940  0.000    25.047     7.433
  30   6 C      0.013  1.064  2.924  0.000    20.371     6.428
  31   6 C      0.267  1.046  2.687  0.000    22.491     7.766
  32   8 O     -0.490  1.742  4.748  0.000    23.565     6.509
  33   6 C     -0.133  1.044  3.089  0.000    23.108     6.854
  34   1 H      0.212  0.788  0.000  0.000     1.049     1.604
  35   1 H      0.090  0.910  0.000  0.000     1.883     2.146
  36   1 H      0.070  0.930  0.000  0.000     2.083     2.257
  37   1 H      0.068  0.932  0.000  0.000     2.112     2.273
  38   1 H      0.068  0.932  0.000  0.000     2.107     2.270
  39   7 N     -0.172  1.247  3.925  0.000    24.717     7.384
  40   6 C      0.011  1.068  2.921  0.000    20.398     6.432
  41   6 C      0.274  1.044  2.683  0.000    22.375     7.745
  42   8 O     -0.490  1.750  4.741  0.000    23.574     6.510
  43   6 C     -0.084  1.063  3.021  0.000    22.105     6.693
  44   6 C     -0.015  1.060  2.955  0.000    20.818     6.490
  45   6 C     -0.121  1.041  3.080  0.000    22.872     6.819
  46   6 C     -0.112  1.040  3.072  0.000    22.698     6.793
  47   1 H      0.224  0.776  0.000  0.000     0.992     1.560
  48   1 H      0.083  0.917  0.000  0.000     1.949     2.183
  49   1 H      0.068  0.932  0.000  0.000     2.110     2.272
  50   1 H      0.066  0.934  0.000  0.000     2.131     2.283
  51   1 H      0.046  0.954  0.000  0.000     2.364     2.405
  52   1 H      0.042  0.958  0.000  0.000     2.417     2.431
  53   1 H      0.045  0.955  0.000  0.000     2.382     2.413
  54   1 H      0.044  0.956  0.000  0.000     2.394     2.420
  55   1 H      0.037  0.963  0.000  0.000     2.493     2.469
  56   1 H      0.039  0.961  0.000  0.000     2.467     2.456
  57   1 H      0.038  0.962  0.000  0.000     2.478     2.462
  58   7 N     -0.180  1.247  3.933  0.000    24.901     7.411
  59   6 C      0.004  1.076  2.920  0.000    20.526     6.453
  60   6 C      0.284  1.039  2.676  0.000    22.183     7.712
  61   8 O     -0.480  1.746  4.734  0.000    23.346     6.478
  62   6 C     -0.080  1.061  3.020  0.000    22.031     6.682
  63   6 C     -0.076  1.050  3.026  0.000    21.951     6.670
  64   6 C     -0.099  1.057  3.042  0.000    22.381     6.735
  65   6 C     -0.052  1.060  2.992  0.000    21.599     6.634
  66   7 N     -0.149  1.231  3.918  0.000    24.209     7.308
  67   1 H      0.207  0.793  0.000  0.000     1.071     1.621
  68   1 H      0.097  0.903  0.000  0.000     1.813     2.106
  69   1 H      0.064  0.936  0.000  0.000     2.148     2.292
  70   1 H      0.053  0.947  0.000  0.000     2.280     2.361
  71   1 H      0.066  0.934  0.000  0.000     2.129     2.282
  72   1 H      0.059  0.941  0.000  0.000     2.211     2.326
  73   1 H      0.085  0.915  0.000  0.000     1.924     2.169
  74   1 H      0.081  0.919  0.000  0.000     1.967     2.193
  75   1 H      0.116  0.884  0.000  0.000     1.648     2.008
  76   1 H      0.118  0.882  0.000  0.000     1.628     1.996
  77   1 H      0.301  0.699  0.000  0.000     0.710     1.320
  78   1 H      0.302  0.698  0.000  0.000     0.706     1.317
  79   1 H      0.298  0.702  0.000  0.000     0.719     1.328
  80   7 N     -0.177  1.238  3.939  0.000    24.828     7.400
  81   6 C      0.015  1.061  2.924  0.000    20.321     6.419
  82   6 C      0.274  1.045  2.681  0.000    22.361     7.744
  83   8 O     -0.499  1.752  4.748  0.000    23.772     6.537
  84   6 C     -0.024  1.070  2.955  0.000    20.967     6.512
  85   6 C     -0.078  1.054  3.023  0.000    21.981     6.675
  86   6 C     -0.124  1.043  3.081  0.000    22.935     6.829
  87   6 C     -0.109  1.037  3.073  0.000    22.653     6.788
  88   1 H      0.207  0.793  0.000  0.000     1.069     1.620
  89   1 H      0.081  0.919  0.000  0.000     1.971     2.196
  90   1 H      0.050  0.950  0.000  0.000     2.317     2.380
  91   1 H      0.057  0.943  0.000  0.000     2.237     2.339
  92   1 H      0.054  0.946  0.000  0.000     2.271     2.356
  93   1 H      0.057  0.943  0.000  0.000     2.234     2.337
  94   1 H      0.055  0.945  0.000  0.000     2.264     2.353
  95   1 H      0.056  0.944  0.000  0.000     2.243     2.342
  96   1 H      0.043  0.957  0.000  0.000     2.403     2.424
  97   1 H      0.026  0.974  0.000  0.000     2.644     2.543
  98   1 H      0.035  0.965  0.000  0.000     2.515     2.480
  99   7 N     -0.171  1.247  3.924  0.000    24.698     7.381
 100   6 C      0.027  1.060  2.913  0.000    20.124     6.387
 101   6 C      0.283  1.045  2.672  0.000    22.212     7.717
 102   8 O     -0.485  1.754  4.731  0.000    23.459     6.494
 103   6 C     -0.073  1.059  3.015  0.000    21.898     6.662
 104   6 C     -0.009  1.055  2.954  0.000    20.699     6.471
 105   6 C     -0.117  1.042  3.075  0.000    22.786     6.806
 106   6 C     -0.116  1.042  3.074  0.000    22.769     6.803
 107   1 H      0.220  0.780  0.000  0.000     1.010     1.574
 108   1 H      0.076  0.924  0.000  0.000     2.023     2.224
 109   1 H      0.068  0.932  0.000  0.000     2.109     2.271
 110   1 H      0.055  0.945  0.000  0.000     2.262     2.352
 111   1 H      0.029  0.971  0.000  0.000     2.595     2.519
 112   1 H      0.041  0.959  0.000  0.000     2.429     2.437
 113   1 H      0.031  0.969  0.000  0.000     2.577     2.510
 114   1 H      0.055  0.945  0.000  0.000     2.257     2.349
 115   1 H      0.044  0.956  0.000  0.000     2.396     2.421
 116   1 H      0.058  0.942  0.000  0.000     2.225     2.333
 117   1 H      0.033  0.967  0.000  0.000     2.543     2.494
 118   7 N     -0.195  1.245  3.950  0.000    25.239     7.461
 119   6 C      0.040  1.052  2.908  0.000    19.900     6.352
 120   6 C      0.268  1.048  2.684  0.000    22.476     7.765
 121   8 O     -0.501  1.755  4.747  0.000    23.815     6.543
 122   6 C     -0.102  1.064  3.038  0.000    22.426     6.740
 123   6 C      0.300  1.035  2.666  0.000    21.914     7.665
 124   8 O     -0.494  1.754  4.740  0.000    23.648     6.520
 125   7 N     -0.296  1.284  4.012  0.000    27.626     7.806
 126   1 H      0.213  0.787  0.000  0.000     1.043     1.600
 127   1 H      0.076  0.924  0.000  0.000     2.026     2.226
 128   1 H      0.084  0.916  0.000  0.000     1.935     2.175
 129   1 H      0.074  0.926  0.000  0.000     2.037     2.232
 130   1 H      0.237  0.763  0.000  0.000     0.937     1.517
 131   1 H      0.238  0.762  0.000  0.000     0.933     1.513
 132   7 N     -0.182  1.262  3.920  0.000    24.950     7.419
 133   6 C      0.030  1.053  2.917  0.000    20.052     6.371
 134   6 C      0.205  1.085  2.710  0.000    23.645     7.963
 135   8 O     -0.349  1.755  4.594  0.000    20.680     6.097
 136   6 C     -0.106  1.064  3.042  0.000    22.518     6.755
 137   6 C      0.291  1.034  2.675  0.000    22.068     7.693
 138   8 O     -0.503  1.758  4.745  0.000    23.850     6.548
 139   7 N     -0.286  1.269  4.017  0.000    27.385     7.772
 140   1 H      0.238  0.762  0.000  0.000     0.933     1.513
 141   1 H      0.093  0.907  0.000  0.000     1.848     2.126
 142   1 H      0.094  0.906  0.000  0.000     1.841     2.122
 143   1 H      0.084  0.916  0.000  0.000     1.935     2.175
 144   1 H      0.238  0.762  0.000  0.000     0.930     1.511
 145   1 H      0.241  0.759  0.000  0.000     0.921     1.503
 146   7 N     -0.400  1.313  4.087  0.000    30.382     8.186
 147   6 C      0.036  1.060  2.904  0.000    19.985     6.366
 148   6 C      0.203  1.090  2.707  0.000    23.685     7.971
 149   8 O     -0.389  1.759  4.630  0.000    21.463     6.211
 150   6 C     -0.018  1.060  2.958  0.000    20.863     6.496
 151   6 C     -0.124  1.043  3.081  0.000    22.937     6.828
 152   6 C     -0.121  1.041  3.080  0.000    22.875     6.819
 153   1 H      0.164  0.836  0.000  0.000     1.312     1.795
 154   1 H      0.066  0.934  0.000  0.000     2.131     2.283
 155   1 H      0.031  0.969  0.000  0.000     2.577     2.511
 156   1 H      0.053  0.947  0.000  0.000     2.279     2.361
 157   1 H      0.027  0.973  0.000  0.000     2.628     2.535
 158   1 H      0.065  0.935  0.000  0.000     2.143     2.289
 159   1 H      0.054  0.946  0.000  0.000     2.275     2.359
 160   1 H      0.065  0.935  0.000  0.000     2.143     2.289
 161   1 H      0.045  0.955  0.000  0.000     2.381     2.413
 162   7 N     -0.395  1.314  4.080  0.000    30.225     8.165
 163   6 C      0.023  1.065  2.911  0.000    20.194     6.400
 164   6 C      0.267  1.050  2.684  0.000    22.494     7.766
 165   8 O     -0.490  1.752  4.739  0.000    23.574     6.510
 166   6 C     -0.022  1.069  2.954  0.000    20.938     6.508
 167   6 C     -0.066  1.052  3.015  0.000    21.769     6.643
 168   6 C     -0.109  1.037  3.072  0.000    22.639     6.785
 169   6 C     -0.112  1.037  3.076  0.000    22.713     6.797
 170   1 H      0.164  0.836  0.000  0.000     1.312     1.794
 171   1 H      0.036  0.964  0.000  0.000     2.499     2.472
 172   1 H      0.029  0.971  0.000  0.000     2.605     2.524
 173   1 H      0.045  0.955  0.000  0.000     2.384     2.415
 174   1 H      0.037  0.963  0.000  0.000     2.487     2.466
 175   1 H      0.042  0.958  0.000  0.000     2.419     2.432
 176   1 H      0.036  0.964  0.000  0.000     2.508     2.476
 177   1 H      0.045  0.955  0.000  0.000     2.388     2.416
 178   1 H      0.047  0.953  0.000  0.000     2.352     2.398
 179   1 H      0.033  0.967  0.000  0.000     2.537     2.491
 180   1 H      0.042  0.958  0.000  0.000     2.429     2.437
 181   7 N     -0.175  1.246  3.929  0.000    24.781     7.393
 182   6 C      0.028  1.059  2.913  0.000    20.115     6.388
 183   6 C      0.199  1.089  2.712  0.000    23.755     7.982
 184   8 O     -0.360  1.754  4.606  0.000    20.899     6.129
 185   6 C     -0.081  1.060  3.022  0.000    22.044     6.683
 186   6 C     -0.012  1.059  2.953  0.000    20.753     6.480
 187   6 C     -0.122  1.043  3.079  0.000    22.884     6.820
 188   6 C     -0.117  1.045  3.072  0.000    22.795     6.807
 189   1 H      0.212  0.788  0.000  0.000     1.047     1.603
 190   1 H      0.099  0.901  0.000  0.000     1.798     2.097
 191   1 H      0.054  0.946  0.000  0.000     2.266     2.354
 192   1 H      0.078  0.922  0.000  0.000     2.001     2.212
 193   1 H      0.040  0.960  0.000  0.000     2.450     2.448
 194   1 H      0.041  0.959  0.000  0.000     2.439     2.442
 195   1 H      0.045  0.955  0.000  0.000     2.381     2.413
 196   1 H      0.044  0.956  0.000  0.000     2.402     2.423
 197   1 H      0.045  0.955  0.000  0.000     2.380     2.413
 198   1 H      0.041  0.959  0.000  0.000     2.433     2.439
 199   1 H      0.041  0.959  0.000  0.000     2.429     2.437
 200   7 N     -0.388  1.300  4.088  0.000    30.030     8.139
 201   6 C      0.001  1.064  2.935  0.000    20.575     6.460
 202   6 C      0.271  1.038  2.691  0.000    22.419     7.754
 203   8 O     -0.499  1.748  4.751  0.000    23.771     6.537
 204   6 C      0.115  1.047  2.838  0.000    18.791     6.188
 205   8 O     -0.480  1.740  4.740  0.000    22.461     6.398
 206   6 C     -0.133  1.044  3.089  0.000    23.118     6.857
 207   1 H      0.166  0.834  0.000  0.000     1.300     1.786
 208   1 H      0.061  0.939  0.000  0.000     2.184     2.311
 209   1 H      0.029  0.971  0.000  0.000     2.606     2.525
 210   1 H      0.319  0.681  0.000  0.000     0.666     1.282
 211   1 H      0.048  0.952  0.000  0.000     2.342     2.393
 212   1 H      0.054  0.946  0.000  0.000     2.267     2.355
 213   1 H      0.063  0.937  0.000  0.000     2.159     2.298
 214   7 N     -0.169  1.238  3.931  0.000    24.651     7.374
 215   6 C      0.008  1.061  2.931  0.000    20.440     6.437
 216   6 C      0.267  1.042  2.692  0.000    22.501     7.768
 217   8 O     -0.485  1.747  4.738  0.000    23.459     6.494
 218   6 C     -0.087  1.061  3.025  0.000    22.142     6.698
 219   6 C     -0.012  1.057  2.955  0.000    20.757     6.480
 220   6 C     -0.117  1.039  3.078  0.000    22.803     6.809
 221   6 C     -0.118  1.042  3.077  0.000    22.819     6.811
 222   1 H      0.225  0.775  0.000  0.000     0.988     1.557
 223   1 H      0.086  0.914  0.000  0.000     1.920     2.167
 224   1 H      0.062  0.938  0.000  0.000     2.175     2.307
 225   1 H      0.068  0.932  0.000  0.000     2.109     2.271
 226   1 H      0.041  0.959  0.000  0.000     2.436     2.441
 227   1 H      0.045  0.955  0.000  0.000     2.379     2.412
 228   1 H      0.037  0.963  0.000  0.000     2.493     2.469
 229   1 H      0.037  0.963  0.000  0.000     2.495     2.470
 230   1 H      0.044  0.956  0.000  0.000     2.402     2.424
 231   1 H      0.038  0.962  0.000  0.000     2.475     2.460
 232   1 H      0.049  0.951  0.000  0.000     2.333     2.389
 233   7 N     -0.172  1.246  3.926  0.000    24.716     7.384
 234   6 C     -0.003  1.064  2.939  0.000    20.641     6.468
 235   6 C      0.275  1.038  2.688  0.000    22.353     7.743
 236   8 O     -0.472  1.741  4.730  0.000    23.172     6.454
 237   6 C     -0.098  1.062  3.036  0.000    22.345     6.727
 238   6 C     -0.091  1.052  3.039  0.000    22.226     6.712
 239   6 C     -0.041  1.057  2.983  0.000    21.349     6.587
 240   7 N     -0.121  1.231  3.889  0.000    23.631     7.220
 241   6 C      0.229  1.023  2.748  0.000    23.198     7.887
 242   7 N     -0.266  1.268  3.999  0.000    26.895     7.702
 243   7 N     -0.267  1.268  3.999  0.000    26.921     7.706
 244   1 H      0.228  0.772  0.000  0.000     0.973     1.545
 245   1 H      0.108  0.892  0.000  0.000     1.718     2.050
 246   1 H      0.087  0.913  0.000  0.000     1.904     2.158
 247   1 H      0.085  0.915  0.000  0.000     1.924     2.169
 248   1 H      0.083  0.917  0.000  0.000     1.946     2.182
 249   1 H      0.082  0.918  0.000  0.000     1.961     2.190
 250   1 H      0.106  0.894  0.000  0.000     1.732     2.058
 251   1 H      0.091  0.909  0.000  0.000     1.872     2.140
 252   1 H      0.245  0.755  0.000  0.000     0.905     1.490
 253   1 H      0.251  0.749  0.000  0.000     0.880     1.470
 254   1 H      0.240  0.760  0.000  0.000     0.923     1.505
 255   1 H      0.242  0.758  0.000  0.000     0.914     1.497
 256   1 H      0.248  0.752  0.000  0.000     0.891     1.479
 257   7 N     -0.182  1.245  3.937  0.000    24.948     7.418
 258   6 C      0.019  1.062  2.919  0.000    20.260     6.410
 259   6 C      0.269  1.048  2.683  0.000    22.449     7.759
 260   8 O     -0.502  1.753  4.749  0.000    23.825     6.544
 261   6 C     -0.145  1.044  3.101  0.000    23.351     6.890
 262   1 H      0.209  0.791  0.000  0.000     1.063     1.615
 263   1 H      0.088  0.912  0.000  0.000     1.898     2.154
 264   1 H      0.060  0.940  0.000  0.000     2.193     2.316
 265   1 H      0.085  0.915  0.000  0.000     1.931     2.173
 266   1 H      0.070  0.930  0.000  0.000     2.087     2.259
 267   7 N     -0.194  1.257  3.937  0.000    25.216     7.458
 268   6 C      0.031  1.062  2.907  0.000    20.049     6.375
 269   6 C      0.276  1.042  2.682  0.000    22.333     7.738
 270   8 O     -0.516  1.756  4.759  0.000    24.135     6.587
 271   6 C     -0.069  1.055  3.014  0.000    21.822     6.651
 272   6 C     -0.086  1.051  3.034  0.000    22.132     6.698
 273   6 C      0.289  1.043  2.667  0.000    22.093     7.696
 274   8 O     -0.502  1.735  4.767  0.000    23.825     6.544
 275   7 N     -0.280  1.259  4.020  0.000    27.225     7.749
 276   1 H      0.240  0.760  0.000  0.000     0.924     1.506
 277   1 H      0.053  0.947  0.000  0.000     2.279     2.361
 278   1 H      0.063  0.937  0.000  0.000     2.160     2.298
 279   1 H      0.069  0.931  0.000  0.000     2.094     2.263
 280   1 H      0.077  0.923  0.000  0.000     2.005     2.214
 281   1 H      0.054  0.946  0.000  0.000     2.266     2.354
 282   1 H      0.223  0.777  0.000  0.000     0.994     1.562
 283   1 H      0.229  0.771  0.000  0.000     0.971     1.543
 284   7 N     -0.198  1.255  3.943  0.000    25.306     7.471
 285   6 C      0.031  1.055  2.914  0.000    20.066     6.379
 286   6 C      0.274  1.043  2.683  0.000    22.359     7.743
 287   8 O     -0.503  1.757  4.746  0.000    23.861     6.549
 288   6 C     -0.140  1.046  3.094  0.000    23.251     6.874
 289   1 H      0.248  0.752  0.000  0.000     0.893     1.480
 290   1 H      0.054  0.946  0.000  0.000     2.272     2.357
 291   1 H      0.062  0.938  0.000  0.000     2.180     2.309
 292   1 H      0.081  0.919  0.000  0.000     1.965     2.192
 293   1 H      0.091  0.909  0.000  0.000     1.867     2.137
 294   7 N     -0.181  1.249  3.932  0.000    24.915     7.413
 295   6 C      0.014  1.065  2.921  0.000    20.348     6.423
 296   6 C      0.292  1.035  2.673  0.000    22.056     7.691
 297   8 O     -0.496  1.756  4.739  0.000    23.687     6.525
 298   6 C     -0.078  1.054  3.024  0.000    21.982     6.674
 299   6 C     -0.090  1.056  3.034  0.000    22.208     6.709
 300   6 C     -0.027  1.054  2.972  0.000    21.130     6.559
 301   7 N     -0.139  1.212  3.927  0.000    24.009     7.277
 302   6 C      0.232  1.017  2.751  0.000    23.136     7.875
 303   7 N     -0.246  1.225  4.022  0.000    26.423     7.634
 304   7 N     -0.258  1.230  4.028  0.000    26.703     7.675
 305   1 H      0.236  0.764  0.000  0.000     0.940     1.518
 306   1 H      0.085  0.915  0.000  0.000     1.929     2.172
 307   1 H      0.058  0.942  0.000  0.000     2.228     2.334
 308   1 H      0.058  0.942  0.000  0.000     2.223     2.332
 309   1 H      0.091  0.909  0.000  0.000     1.867     2.137
 310   1 H      0.076  0.924  0.000  0.000     2.021     2.223
 311   1 H      0.083  0.917  0.000  0.000     1.945     2.181
 312   1 H      0.082  0.918  0.000  0.000     1.963     2.191
 313   1 H      0.239  0.761  0.000  0.000     0.925     1.507
 314   1 H      0.237  0.763  0.000  0.000     0.936     1.515
 315   1 H      0.256  0.744  0.000  0.000     0.859     1.452
 316   1 H      0.255  0.745  0.000  0.000     0.865     1.457
 317   1 H      0.259  0.741  0.000  0.000     0.849     1.444
 318   7 N     -0.183  1.239  3.944  0.000    24.974     7.422
 319   6 C      0.031  1.061  2.908  0.000    20.056     6.377
 320   6 C      0.288  1.044  2.668  0.000    22.129     7.704
 321   8 O     -0.481  1.750  4.731  0.000    23.364     6.481
 322   6 C     -0.061  1.053  3.008  0.000    21.670     6.627
 323   6 C     -0.088  1.069  3.019  0.000    22.178     6.706
 324   6 C      0.370  1.027  2.604  0.000    20.732     7.451
 325   8 O     -0.659  1.775  4.883  0.000    27.602     7.044
 326   8 O     -0.625  1.763  4.862  0.000    26.738     6.933
 327   1 H      0.193  0.807  0.000  0.000     1.141     1.673
 328   1 H      0.050  0.950  0.000  0.000     2.314     2.379
 329   1 H      0.061  0.939  0.000  0.000     2.191     2.315
 330   1 H      0.047  0.953  0.000  0.000     2.354     2.399
 331   1 H      0.016  0.984  0.000  0.000     2.793     2.614
 332   1 H      0.015  0.985  0.000  0.000     2.808     2.621
 333   7 N     -0.182  1.253  3.928  0.000    24.936     7.416
 334   6 C      0.020  1.058  2.922  0.000    20.236     6.404
 335   6 C      0.199  1.082  2.719  0.000    23.761     7.983
 336   8 O     -0.364  1.758  4.607  0.000    20.983     6.141
 337   6 C      0.065  1.042  2.894  0.000    19.719     6.363
 338   8 O     -0.476  1.730  4.746  0.000    22.375     6.385
 339   1 H      0.212  0.788  0.000  0.000     1.048     1.604
 340   1 H      0.114  0.886  0.000  0.000     1.659     2.014
 341   1 H      0.068  0.932  0.000  0.000     2.108     2.270
 342   1 H      0.061  0.939  0.000  0.000     2.184     2.311
 343   1 H      0.353  0.647  0.000  0.000     0.581     1.198
 344   7 N     -0.389  1.309  4.080  0.000    30.061     8.143
 345   6 C      0.042  1.054  2.904  0.000    19.894     6.354
 346   6 C      0.195  1.093  2.712  0.000    23.836     7.995
 347   8 O     -0.372  1.762  4.610  0.000    21.138     6.164
 348   6 C     -0.071  1.062  3.009  0.000    21.848     6.654
 349   6 C     -0.009  1.058  2.951  0.000    20.707     6.473
 350   6 C     -0.111  1.040  3.071  0.000    22.682     6.791
 351   6 C     -0.118  1.040  3.078  0.000    22.819     6.811
 352   1 H      0.172  0.828  0.000  0.000     1.263     1.761
 353   1 H      0.048  0.952  0.000  0.000     2.348     2.396
 354   1 H      0.048  0.952  0.000  0.000     2.342     2.393
 355   1 H      0.046  0.954  0.000  0.000     2.374     2.410
 356   1 H      0.027  0.973  0.000  0.000     2.624     2.533
 357   1 H      0.041  0.959  0.000  0.000     2.434     2.440
 358   1 H      0.035  0.965  0.000  0.000     2.522     2.484
 359   1 H      0.042  0.958  0.000  0.000     2.417     2.431
 360   1 H      0.040  0.960  0.000  0.000     2.448     2.447
 361   1 H      0.052  0.948  0.000  0.000     2.297     2.370
 362   1 H      0.040  0.960  0.000  0.000     2.453     2.449
 363   7 N     -0.390  1.308  4.081  0.000    30.091     8.147
 364   6 C      0.042  1.054  2.904  0.000    19.894     6.353
 365   6 C      0.201  1.092  2.708  0.000    23.724     7.977
 366   8 O     -0.388  1.766  4.622  0.000    21.442     6.208
 367   6 C     -0.053  1.051  3.002  0.000    21.489     6.594
 368   6 C     -0.000  1.060  2.940  0.000    20.593     6.461
 369  16 S     -0.212  1.908  4.253  0.051   150.104    20.621
 370   6 C     -0.060  1.053  3.008  0.000    21.732     6.650
 371   1 H      0.163  0.837  0.000  0.000     1.316     1.797
 372   1 H      0.062  0.938  0.000  0.000     2.178     2.308
 373   1 H      0.049  0.951  0.000  0.000     2.335     2.389
 374   1 H      0.045  0.955  0.000  0.000     2.380     2.413
 375   1 H      0.053  0.947  0.000  0.000     2.284     2.363
 376   1 H      0.035  0.965  0.000  0.000     2.512     2.479
 377   1 H      0.081  0.919  0.000  0.000     1.967     2.193
 378   1 H      0.049  0.951  0.000  0.000     2.336     2.390
 379   1 H      0.052  0.948  0.000  0.000     2.300     2.372
 380   1 H      0.070  0.930  0.000  0.000     2.087     2.259
 381   1 H      0.190  0.810  0.000  0.000     1.158     1.686
 382   1 H      0.057  0.943  0.000  0.000     2.231     2.336
 383   1 H      0.180  0.820  0.000  0.000     1.214     1.726
 384   1 H      0.070  0.930  0.000  0.000     2.090     2.261
 385   1 H      0.201  0.799  0.000  0.000     1.099     1.642
 386   1 H      0.083  0.917  0.000  0.000     1.947     2.182
 387   1 H      0.177  0.823  0.000  0.000     1.232     1.738
 388   1 H      0.074  0.926  0.000  0.000     2.037     2.232
 389   1 H      0.184  0.816  0.000  0.000     1.189     1.708
 390   1 H      0.079  0.921  0.000  0.000     1.991     2.207

 Mol. C6AA /au·bohr⁶  :    1316512.792063
 Mol. C8AA /au·bohr⁸  :   29059092.941325
 Mol. α(0) /au        :       1709.092571

 
molecular dipole:
                 x           y           z       tot (Debye)
 q only:       14.858     323.437     -46.997
   full:       13.400     324.458     -49.475     834.936
molecular quadrupole (traceless):
                xx          xy          yy          xz          yz          zz
 q only:   -26952.445    4015.236   52041.632    -109.666  -10219.561  -25089.187
  q+dip:   -27140.940    3654.415   52379.574     -87.747  -10890.338  -25238.634
   full:   -27141.821    3658.692   52381.712     -88.216  -10888.094  -25239.891
speedup  2.00
cpu  time for grad   14.14 s
wall time for grad    7.07 s

SCC energy    :    -587.9554332
rep           :       6.9352484
ES            :       2.0495101
AES           :      -0.0725551
AXC           :       0.2035009
disp          :      -0.4631612
XB            :       0.0000000
fix           :       0.0000000
Gborn         :       0.0000000
Gsasa         :       0.0000000
Ghb           :       0.0000000
Gshift        :       0.0000000
Gsolv         :      -0.7048511     -442.30
Etot ala COSMO:    -587.9554332
grad norm     :       0.5162990
total E       :    -580.9872706
atomizationE  :     105.2717802    66059.04
(atE without considering molecular charge,
 total energy contains solvation terms)
H-L gap (eV)  :          1.7969

------------------------------------------------------------------------
 * finished run on 2019/05/10 at 12:44:04.738     
------------------------------------------------------------------------
 total:
 * wall-time:     0 d,  0 h,  0 min,  7.575 sec
 *  cpu-time:     0 d,  0 h,  0 min, 15.063 sec
 * ratio c/w:     1.988 speedup
 SCF:
 * wall-time:     0 d,  0 h,  0 min,  7.405 sec
 *  cpu-time:     0 d,  0 h,  0 min, 14.807 sec
 * ratio c/w:     2.000 speedup

