      -----------------------------------------------------------      
     |                   =====================                   |     
     |                           x T B                           |     
     |                   =====================                   |     
     |                         S. Grimme                         |     
     |          Mulliken Center for Theoretical Chemistry        |     
     |                    University of Bonn                     |     
     |                 Version 6.0.1 (SAW181210)                 |     
      -----------------------------------------------------------      

   This program is distributed in the hope that it will be useful,
   but WITHOUT ANY WARRANTY; without even the implied warranty of
   MERCHANTABILITY or FITNESS FOR A PARTICULAR PURPOSE.
   
   FOR NON-COMMERCIAL, ACADEMIA USE ONLY.
   
   Cite this work as:
   S. Grimme, C. Bannwarth, P. Shushkov, J. Comput. Theory Chem., 2017,
   13, 1989-2009.
   C. Bannwarth, S. Ehlert and S. Grimme., ChemRxiv, 2018, preprint.
   http://doi.org/10.26434/chemrxiv.7246238.v1
   
   for sTDA-xTB:
   S. Grimme and C. Bannwarth, J. Chem. Phys., 2016, 145, 054103.
   
   in the mass-spec context:
   V. Asgeirsson, C. Bauer and S. Grimme, Chem. Sci., 2017, 8, 4879.
   
   if GBSA is used:
   P. Shushkov, F. März and S. Grimme, unpublished.
   
   for ANC optimizer:
   S. Grimme, unpublished.
   Rational Function algorithm used in ANCopt:
   F. Eckert, P. Pulay, H.-J. Werner, J. Comput. Chem., 1997, 18, 1473.
   
   with help from (in alphabetical order)
   C. Bannwarth, F. Bohle, G. Brandenburg, E. Caldeweyher, M. Checinski,
   S. Dohm, S. Ehlert, S. Ehrlich, F. März, H. Neugebauer, J. Pisarek,
   P. Pracht, P. Shushkov, and S. Spicher.
   
 * started run on 2019/05/06 at 02:45:59.515     
========================================================================
 # omp threads = 2
========================================================================
number of atoms            : 1400
number of electrons        : 3812
charge                     : -8
spin                       : .0
first test random number   : .6034

########################################################################
# WARNING! Please study the warnings concerning your input carefully
#  - Process number higher than OMP_NUM_THREADS, I hope you know what you are doing.
########################################################################

           ------------------------------------------------- 
          |                 G F N 2 - x T B                 |
          | Geometry, Frequencies, Noncovalent interactions |
          |            JCTC 2018 parametrisation            |
           ------------------------------------------------- 
 
      method parameters     
 k(s)        :  1.8500
 k(p)        :  2.2300
 k(d)        :  2.2300
 k(f)        :  2.0000
 kEN (H0ij)  : -2.0000
 D4 a1       :  0.5200
 D4 a2       :  5.0000
 D4 s6       :  1.0000
 D4 s8       :  2.7000
 D4 s9       :  5.0000
 alphaj      :  2.0000

 Solvent             : h2o
 Using internal parameter file: .param_gbsa2_h2o
 Gsolv ref. state (COSMO-RS): gsolv [1 M gas/solution]
 temperature (mdtemp)       :    298.150000000000     
 dielectric constant        :    80.2000000000000     
 rho                        :    1.00000000000000     
 mass                       :    18.0000000000000     
 surface tension            :    15.5689454083859     
 probe radius               :   0.975313790000000     
 vdW radii scaling          :    1.00000000000000     
 Gshift (Eh)                :   1.857443126794793E-003
 c1                         :    1.55243817000000     
 soset                      :   0.130326360000000     
 HB correction              :  T

            Z     q(EN)     CN     RAES       Cart. coordinates
     1  N   5.0   -0.12    4.09    3.12   144.03302   102.75385   395.94861
     2  C   4.0   -0.00    4.30    4.20   142.38896   104.25996   394.22518
     3  C   4.0    0.15    3.42    3.09   139.99657   105.01585   395.60090
     4  O   6.0   -0.29    1.23    1.80   138.85895   103.46816   396.95394
     5  C   4.0    0.02    4.13    3.86   141.70866   102.75385   391.82145
     6  O   6.0   -0.25    2.03    1.83   140.18743   100.61468   392.36002
     7  H   1.0    0.04    1.02    1.43   144.92497   101.33277   394.92627
     8  H   1.0    0.04    1.01    1.43   145.38607   103.92926   396.75552
     9  H   1.0    0.06    1.03    1.43   142.93320   101.95071   397.36590
    10  H   1.0    0.02    1.06    1.44   143.40185   105.94938   393.62236
    11  H   1.0    0.03    1.01    1.43   140.67498   103.99162   390.54021
    12  H   1.0    0.02    1.01    1.43   143.45099   102.11512   390.92950
    13  H   1.0    0.10    1.01    1.43   139.79437    99.70761   390.79533
    14  N   5.0   -0.15    3.42    2.03   139.25768   107.39691   395.22106
    15  C   4.0    0.04    4.35    4.29   136.74057   108.36067   395.92593
    16  C   4.0    0.15    3.36    3.07   134.55983   106.58243   395.11524
    17  O   6.0   -0.31    1.23    1.80   132.77026   106.16858   396.54198
    18  C   4.0   -0.04    4.26    4.11   136.38719   110.98361   394.72407
    19  C   4.0   -0.03    4.14    3.88   134.18755   112.58798   395.71428
    20  C   4.0    0.24    3.10    3.02   134.50691   115.44903   395.18516
    21  O   6.0   -0.31    1.18    1.80   135.16832   116.20681   393.04788
    22  O   6.0   -0.31    1.24    1.80   134.11952   117.00427   396.91804
    23  H   1.0    0.07    1.06    1.44   140.37073   108.74617   394.41226
    24  H   1.0    0.07    1.05    1.44   136.64797   108.50428   397.97817
    25  H   1.0    0.06    1.03    1.43   138.11062   112.06642   395.03965
    26  H   1.0    0.04    1.03    1.43   136.07917   110.72282   392.70395
    27  H   1.0    0.04    1.03    1.43   132.44711   111.96815   394.80344
    28  H   1.0    0.06    1.03    1.43   134.04393   112.33476   397.75330
    29  N   5.0   -0.14    3.40    2.02   134.82439   105.54497   392.82678
    30  C   4.0    0.03    4.32    4.24   133.00458   103.87824   391.50397
    31  C   4.0    0.15    3.39    3.08   131.59674   101.76741   392.97418
    32  O   6.0   -0.32    1.25    1.80   129.25159   101.71639   392.98930
    33  C   4.0   -0.04    4.31    4.22   134.37085   102.68393   389.21741
    34  C   4.0   -0.02    3.51    3.12   132.63608   101.71450   387.16327
    35  C   4.0   -0.03    3.44    3.09   131.29060    99.44305   387.46185
    36  C   4.0   -0.05    3.43    3.09   132.42066   103.03164   384.86159
    37  C   4.0   -0.04    3.35    3.06   129.72969    98.56055   385.55134
    38  C   4.0   -0.05    3.34    3.06   130.85974   102.14536   382.94163
    39  C   4.0   -0.04    3.36    3.07   129.51804    99.90792   383.29689
    40  H   1.0    0.07    1.07    1.44   136.39097   105.83221   391.74208
    41  H   1.0    0.05    1.06    1.44   131.47579   105.16325   391.00509
    42  H   1.0    0.03    1.04    1.43   135.59918   104.10500   388.37270
    43  H   1.0    0.04    1.03    1.43   135.49335   101.09089   389.88448
    44  H   1.0    0.06    1.03    1.43   131.47390    98.37724   389.19284
    45  H   1.0    0.04    1.03    1.43   133.48079   104.75318   384.58380
    46  H   1.0    0.05    1.03    1.43   128.67900    96.82956   385.80834
    47  H   1.0    0.05    1.03    1.43   130.68967   103.18093   381.19174
    48  H   1.0    0.05    1.03    1.43   128.30294    99.21061   381.81346
    49  N   5.0   -0.15    3.45    2.05   132.94411    99.97784   394.11746
    50  C   4.0    0.04    4.42    4.41   131.63453    97.82922   395.29665
    51  C   4.0    0.15    3.38    3.07   130.45345    98.63047   397.81188
    52  O   6.0   -0.31    1.21    1.80   128.69601    97.36813   398.76052
    53  C   4.0   -0.05    4.25    4.11   133.35985    95.51242   395.56877
    54  C   4.0   -0.04    4.18    3.96   133.78693    94.07434   393.09323
    55  C   4.0    0.23    3.13    3.03   131.40398    92.84224   392.06522
    56  O   6.0   -0.31    1.19    1.80   129.87709    91.93517   393.62047
    57  O   6.0   -0.32    1.16    1.80   131.06761    92.80444   389.71062
    58  H   1.0    0.08    1.05    1.44   134.86596    99.95138   394.25919
    59  H   1.0    0.06    1.07    1.44   130.12842    97.15837   394.06077
    60  H   1.0    0.03    1.03    1.43   135.19855    96.13414   396.25852
    61  H   1.0    0.05    1.03    1.43   132.50758    94.20662   396.91426
    62  H   1.0    0.04    1.03    1.43   134.48235    95.39148   391.67027
    63  H   1.0    0.03    1.03    1.43   135.17588    92.58901   393.41638
    64  N   5.0   -0.14    3.48    2.07   131.37186   100.74696   398.85690
    65  C   4.0    0.03    4.35    4.28   130.29471   101.85812   401.16047
    66  C   4.0    0.16    3.43    3.09   127.81350   103.17337   400.58600
    67  O   6.0   -0.32    1.26    1.80   126.04661   103.06943   402.07321
    68  C   4.0   -0.07    4.11    3.82   132.13342   103.71194   402.36423
    69  H   1.0    0.10    1.07    1.44   132.86474   101.74096   398.15203
    70  H   1.0    0.05    1.06    1.44   129.96212   100.35012   402.52297
    71  H   1.0    0.04    1.00    1.43   131.27548   104.49807   404.06309
    72  H   1.0    0.04    1.00    1.43   133.87008   102.71416   402.84989
    73  H   1.0    0.07    1.00    1.43   132.54160   105.21994   401.02063
    74  N   5.0   -0.13    3.51    2.08   127.70579   104.43193   398.42226
    75  C   4.0    0.04    4.51    4.54   125.41355   105.76229   397.62669
    76  C   4.0    0.15    3.50    3.11   123.34619   103.86123   397.05977
    77  O   6.0   -0.32    1.28    1.80   121.13710   104.32232   397.63991
    78  C   4.0   -0.02    4.29    4.17   125.86142   107.44604   395.28909
    79  C   4.0   -0.07    4.15    3.90   123.40288   108.51184   394.28943
    80  C   4.0   -0.07    4.12    3.83   127.64532   109.61922   395.89192
    81  H   1.0    0.11    1.08    1.44   129.16466   104.57365   397.16937
    82  H   1.0    0.06    1.06    1.44   124.86175   106.99250   399.18382
    83  H   1.0    0.05    1.06    1.44   126.71746   106.25740   393.83967
    84  H   1.0    0.05    1.00    1.43   123.79973   109.68536   392.64348
    85  H   1.0    0.05    1.01    1.43   122.16322   106.95471   393.75842
    86  H   1.0    0.06    1.00    1.43   122.51471   109.64568   395.76342
    87  H   1.0    0.04    1.00    1.43   127.91177   110.75873   394.19683
    88  H   1.0    0.05    1.00    1.43   126.81951   110.77007   397.38858
    89  H   1.0    0.06    1.01    1.43   129.45190   108.85010   396.51364
    90  N   5.0   -0.14    3.47    2.06   124.05106   101.71261   395.96751
    91  C   4.0    0.03    4.49    4.52   122.21992    99.65659   395.64247
    92  C   4.0    0.16    3.46    3.10   121.09175    98.88936   398.21061
    93  O   6.0   -0.32    1.28    1.80   118.77872    98.62669   398.41848
    94  C   4.0   -0.02    4.32    4.24   123.35375    97.31900   394.30266
    95  C   4.0   -0.05    4.20    4.00   124.13421    97.95961   391.58712
    96  C   4.0   -0.07    4.15    3.90   121.42056    95.18739   394.25352
    97  C   4.0   -0.06    4.01    3.64   125.67433    95.93950   390.24542
    98  H   1.0    0.10    1.07    1.44   125.81984   101.33655   395.30232
    99  H   1.0    0.05    1.06    1.44   120.73648   100.39736   394.42171
   100  H   1.0    0.06    1.06    1.44   125.02427    96.73318   395.35335
   101  H   1.0    0.04    1.03    1.43   122.42779    98.27142   390.47596
   102  H   1.0    0.05    1.03    1.43   125.27182    99.67548   391.62492
   103  H   1.0    0.04    1.00    1.43   122.24448    93.55655   393.30488
   104  H   1.0    0.05    1.01    1.43   120.91789    94.69417   396.18860
   105  H   1.0    0.04    1.00    1.43   119.74815    95.82233   393.23307
   106  H   1.0    0.04    1.00    1.43   126.12031    96.58956   388.34246
   107  H   1.0    0.06    1.00    1.43   127.41288    95.60879   391.30177
   108  H   1.0    0.05    1.00    1.43   124.56884    94.20473   390.15282
   109  N   5.0   -0.14    3.43    2.04   122.73014    98.53409   400.11923
   110  C   4.0    0.03    4.38    4.35   121.88165    97.89914   402.68926
   111  C   4.0    0.16    3.46    3.10   119.93713    99.81343   403.63790
   112  O   6.0   -0.30    1.23    1.80   117.93213    99.11613   404.59599
   113  C   4.0   -0.05    4.26    4.11   124.07941    97.73852   404.57899
   114  C   4.0   -0.06    4.13    3.87   125.14710    95.10991   405.02307
   115  C   4.0   -0.06    4.11    3.81   127.09730    95.02298   407.22460
   116  C   4.0   -0.06    4.07    3.74   129.08907    92.88570   407.03752
   117  N   5.0   -0.13    3.97    2.78   130.71612    92.93294   404.68670
   118  H   1.0    0.10    1.06    1.44   124.64443    98.67204   399.94727
   119  H   1.0    0.04    1.06    1.44   121.03317    96.02453   402.58722
   120  H   1.0    0.06    1.04    1.43   125.61953    98.91393   403.87979
   121  H   1.0    0.04    1.04    1.43   123.42178    98.44716   406.39690
   122  H   1.0    0.03    1.03    1.43   123.60319    93.82867   405.49173
   123  H   1.0    0.04    1.03    1.43   126.09574    94.47307   403.30909
   124  H   1.0    0.03    1.03    1.43   128.11775    96.81255   407.26429
   125  H   1.0    0.02    1.02    1.43   126.07496    94.75653   408.99339
   126  H   1.0    0.01    1.02    1.43   130.35141    93.02743   408.65891
   127  H   1.0    0.02    1.02    1.43   128.10641    91.07534   407.06587
   128  H   1.0    0.03    1.01    1.43   131.99169    91.43817   404.72072
   129  H   1.0    0.05    1.01    1.43   129.58796    92.77232   403.08610
   130  H   1.0    0.04    1.01    1.43   131.71579    94.62236   404.59599
   131  N   5.0   -0.14    3.54    2.10   120.53239   102.22473   403.33744
   132  C   4.0    0.03    4.56    4.62   119.03951   104.19571   404.51663
   133  C   4.0    0.16    3.54    3.13   116.42035   104.28453   403.34878
   134  O   6.0   -0.31    1.25    1.80   114.44936   104.47161   404.64324
   135  C   4.0   -0.02    4.33    4.25   120.33586   106.74306   404.17081
   136  C   4.0   -0.07    4.14    3.87   118.56141   108.92569   404.84166
   137  C   4.0   -0.07    4.13    3.86   122.70935   106.81676   405.76951
   138  H   1.0    0.11    1.08    1.44   122.02338   102.86723   402.29809
   139  H   1.0    0.05    1.06    1.44   118.87321   103.77052   406.52541
   140  H   1.0    0.06    1.06    1.44   120.85175   106.98306   402.19037
   141  H   1.0    0.05    1.00    1.43   119.55729   110.70771   404.56954
   142  H   1.0    0.05    1.01    1.43   116.90979   108.85010   403.61145
   143  H   1.0    0.04    1.00    1.43   117.98126   108.73861   406.80886
   144  H   1.0    0.06    1.00    1.43   123.63154   108.64034   405.51629
   145  H   1.0    0.03    1.00    1.43   122.19346   106.55787   407.74617
   146  H   1.0    0.06    1.01    1.43   123.96980   105.30309   405.16858
   147  N   5.0   -0.14    3.60    2.16   116.46192   104.17681   400.86001
   148  C   4.0    0.04    4.61    4.68   114.20559   104.25051   399.41626
   149  C   4.0    0.16    3.55    3.14   112.61255   101.96394   399.96617
   150  O   6.0   -0.32    1.31    1.80   110.33921   102.17181   400.23451
   151  C   4.0   -0.02    4.42    4.41   114.86699   104.42626   396.63269
   152  C   4.0   -0.05    4.24    4.08   115.51895   107.17203   396.07711
   153  C   4.0   -0.08    4.17    3.94   112.70515   103.47194   394.98863
   154  C   4.0   -0.08    4.04    3.68   116.36554   107.60289   393.39748
   155  H   1.0    0.11    1.10    1.44   118.06630   104.03697   399.79987
   156  H   1.0    0.05    1.07    1.44   113.11522   105.91725   399.94160
   157  H   1.0    0.06    1.06    1.44   116.48271   103.22439   396.19616
   158  H   1.0    0.03    1.03    1.43   113.85032   108.33421   396.40970
   159  H   1.0    0.05    1.03    1.43   117.04774   107.75973   397.32622
   160  H   1.0    0.03    1.00    1.43   113.24939   103.62690   393.00820
   161  H   1.0    0.04    1.01    1.43   112.32153   101.50285   395.46106
   162  H   1.0    0.04    1.00    1.43   111.03274   104.61901   395.34768
   163  H   1.0    0.03    1.00    1.43   116.79640   109.60033   393.14426
   164  H   1.0    0.04    1.00    1.43   118.04740   106.46905   393.03465
   165  H   1.0    0.03    1.00    1.43   114.85187   107.04353   392.11813
   166  N   5.0   -0.14    3.50    2.08   113.82197    99.78887   400.13813
   167  C   4.0    0.05    4.30    4.20   112.49728    97.47017   400.75607
   168  C   4.0    0.10    3.20    3.04   111.21226    97.64214   403.39035
   169  O   6.0   -0.30    1.10    1.80   109.13545    96.61413   403.81176
   170  C   4.0    0.03    4.16    3.92   114.34543    95.26109   400.57844
   171  O   6.0   -0.26    2.08    1.84   113.00561    92.98586   400.55009
   172  H   1.0    0.11    1.11    1.44   115.71548    99.56399   399.86223
   173  H   1.0    0.05    1.06    1.44   110.98927    97.11869   399.39736
   174  H   1.0    0.05    1.02    1.43   115.44147    95.42738   398.84178
   175  H   1.0    0.05    1.02    1.43   115.60210    95.29132   402.21116
   176  H   1.0    0.10    1.01    1.43   114.18102    91.55911   400.43482
   177  N   5.0   -0.20    3.24    1.97   109.31687   103.20171   405.95093
   178  C   4.0    0.03    4.27    4.14   107.24384   104.97995   405.66558
   179  C   4.0    0.15    3.42    3.08   104.92703   103.71194   404.55253
   180  O   6.0   -0.31    1.24    1.80   102.83133   104.21083   405.37834
   181  C   4.0   -0.07    4.13    3.86   108.02996   107.17581   404.03097
   182  H   1.0    0.12    1.06    1.44   110.89290   103.64202   404.93237
   183  H   1.0    0.03    1.06    1.44   106.76007   105.70749   407.53074
   184  H   1.0    0.04    1.00    1.43   106.44448   108.47783   403.84766
   185  H   1.0    0.04    1.00    1.43   109.62489   108.13201   404.91536
   186  H   1.0    0.05    1.00    1.43   108.57609   106.46905   402.17526
   187  N   5.0   -0.14    3.50    2.08   105.29175   102.03764   402.71950
   188  C   4.0    0.04    4.44    4.44   103.14880   100.74885   401.52708
   189  C   4.0    0.08    3.22    3.04   101.80332    98.94794   403.31287
   190  O   6.0   -0.32    1.12    1.80    99.50541    98.91582   403.45649
   191  C   4.0   -0.04    4.11    3.82   103.97650    99.34100   399.17248
   192  S   6.0   -0.07    2.39    3.10   105.20860   101.51608   396.86324
   193  H   1.0    0.11    1.09    1.44   107.01518   101.53120   402.02030
   194  H   1.0    0.06    1.07    1.44   101.80710   102.21150   400.97528
   195  H   1.0    0.05    1.07    1.44   105.45427    97.98985   399.66003
   196  H   1.0    0.04    1.07    1.44   102.36268    98.35646   398.35423
   197  H   1.0    0.07    1.00    1.43   107.13990   102.69338   397.82322
   198  N   5.0   -0.16    3.45    2.04   102.38724    92.61736   392.26175
   199  C   4.0    0.03    4.51    4.55   104.10311    91.60636   390.37203
   200  C   4.0    0.14    3.42    3.08   106.41047    90.26465   391.43216
   201  O   6.0   -0.29    1.25    1.80   107.02652    90.51976   393.65448
   202  C   4.0   -0.04    4.38    4.35   104.96105    93.95717   388.93962
   203  C   4.0   -0.05    4.30    4.20   104.54153    96.11335   390.68950
   204  C   4.0   -0.01    4.25    4.10   103.22439    95.15337   393.01953
   205  H   1.0    0.04    1.05    1.44   103.05431    90.29866   389.17583
   206  H   1.0    0.05    1.04    1.43   106.95660    93.78521   388.45585
   207  H   1.0    0.04    1.03    1.43   103.83666    94.17638   387.22752
   208  H   1.0    0.04    1.03    1.43   106.36323    96.93160   391.19406
   209  H   1.0    0.03    1.03    1.43   103.37368    97.52309   389.74653
   210  H   1.0    0.05    1.02    1.43   104.52641    95.05322   394.61257
   211  H   1.0    0.03    1.02    1.43   101.61623    96.34579   393.49952
   212  N   5.0   -0.14    3.48    2.07   107.68603    88.86625   389.79377
   213  C   4.0    0.03    4.41    4.40   109.85922    87.38093   390.55155
   214  C   4.0    0.16    3.48    3.11   112.25917    88.93239   390.29077
   215  O   6.0   -0.31    1.30    1.80   112.47460    90.63315   388.72797
   216  C   4.0    0.01    4.15    3.90   110.07276    84.96775   388.96796
   217  O   6.0   -0.26    2.08    1.84   111.57509    85.32869   386.76454
   218  H   1.0    0.11    1.11    1.45   107.25518    88.72641   387.92105
   219  H   1.0    0.04    1.06    1.44   109.64190    86.82346   392.52254
   220  H   1.0    0.02    1.01    1.43   110.93825    83.49565   390.12069
   221  H   1.0    0.03    1.02    1.43   108.18303    84.38949   388.38971
   222  H   1.0    0.09    1.01    1.43   111.67147    83.75076   385.79889
   223  N   5.0   -0.15    3.51    2.09   114.12622    88.21241   391.76476
   224  C   4.0    0.03    4.41    4.40   116.51483    89.50876   391.81578
   225  C   4.0    0.16    3.44    3.09   117.72615    89.32357   389.20229
   226  O   6.0   -0.31    1.27    1.80   118.78628    91.16227   388.32356
   227  C   4.0   -0.06    4.23    4.05   118.21559    88.40894   393.91148
   228  C   4.0   -0.06    4.13    3.86   117.49371    89.10058   396.65915
   229  C   4.0   -0.07    4.11    3.82   116.71514    86.84803   398.36368
   230  C   4.0   -0.04    4.13    3.86   113.86355    86.34914   398.21061
   231  N   5.0   -0.14    3.98    2.81   112.83365    83.89249   399.03075
   232  H   1.0    0.06    1.07    1.44   114.04118    86.71008   392.96851
   233  H   1.0    0.05    1.06    1.44   116.26728    91.49864   392.28443
   234  H   1.0    0.03    1.03    1.43   118.16078    86.35481   393.76975
   235  H   1.0    0.04    1.03    1.43   120.13555    89.08546   393.59968
   236  H   1.0    0.03    1.03    1.43   119.11510    90.00765   397.54732
   237  H   1.0    0.04    1.03    1.43   115.90067    90.40449   396.60434
   238  H   1.0    0.02    1.03    1.43   117.70536    85.14916   397.74763
   239  H   1.0    0.02    1.02    1.43   117.19513    87.27321   400.32143
   240  H   1.0    0.04    1.03    1.43   112.93002    87.77399   399.36901
   241  H   1.0    0.04    1.04    1.43   113.30797    86.57024   396.23963
   242  H   1.0    0.04    1.02    1.43   110.88156    83.87171   398.80210
   243  H   1.0    0.03    1.02    1.43   113.61788    82.44307   397.95928
   244  H   1.0    0.03    1.02    1.43   113.25695    83.58447   400.92615
   245  N   5.0   -0.14    3.44    2.04   117.51828    87.13715   387.95129
   246  C   4.0    0.03    4.30    4.19   118.28551    86.83480   385.27544
   247  C   4.0    0.16    3.38    3.07   117.11010    88.98719   383.68996
   248  O   6.0   -0.31    1.24    1.80   118.48393    90.39504   382.42195
   249  C   4.0   -0.06    4.14    3.89   117.56930    84.10036   384.32301
   250  C   4.0   -0.06    4.08    3.77   117.85654    83.24432   381.49787
   251  C   4.0   -0.06    4.12    3.85   120.47570    83.40494   380.21097
   252  C   4.0   -0.06    4.11    3.82   122.48448    81.58703   381.19552
   253  N   5.0   -0.14    4.00    2.87   122.18779    79.01700   380.11082
   254  H   1.0    0.07    1.06    1.44   116.82286    85.51577   388.72608
   255  H   1.0    0.05    1.05    1.44   120.33019    86.96708   385.05623
   256  H   1.0    0.02    1.03    1.43   118.72203    82.78322   385.40772
   257  H   1.0    0.04    1.03    1.43   115.57753    83.82824   384.77277
   258  H   1.0    0.02    1.03    1.43   117.28206    81.26955   381.39016
   259  H   1.0    0.03    1.03    1.43   116.58853    84.40839   380.36782
   260  H   1.0    0.02    1.03    1.43   120.23381    83.00999   378.20408
   261  H   1.0    0.04    1.03    1.43   121.20513    85.31357   380.47175
   262  H   1.0    0.02    1.02    1.43   124.34964    82.29190   380.68151
   263  H   1.0    0.02    1.02    1.43   122.32574    81.44530   383.24398
   264  H   1.0    0.02    1.01    1.43   123.58052    77.82458   380.81757
   265  H   1.0    0.03    1.02    1.43   120.42468    78.28757   380.58325
   266  H   1.0    0.02    1.02    1.43   122.34464    79.09070   378.15306
   267  N   5.0   -0.14    3.44    2.04   114.60432    89.26498   383.87515
   268  C   4.0    0.03    4.34    4.27   113.12089    91.07912   382.34825
   269  C   4.0    0.15    3.36    3.07   113.89756    93.87025   382.77344
   270  O   6.0   -0.32    1.22    1.80   113.93158    95.43116   381.00088
   271  C   4.0   -0.04    4.27    4.13   110.27685    90.79944   382.92084
   272  C   4.0   -0.04    4.16    3.92   109.02585    88.31067   382.15361
   273  C   4.0    0.24    3.11    3.03   106.29331    88.10469   383.07580
   274  O   6.0   -0.33    1.27    1.80   105.62623    89.25554   385.02410
   275  O   6.0   -0.33    1.17    1.80   104.77019    86.78000   381.86259
   276  H   1.0    0.10    1.09    1.44   113.50450    88.24642   385.08646
   277  H   1.0    0.04    1.05    1.44   113.48749    90.61614   380.37538
   278  H   1.0    0.07    1.04    1.43   110.01418    90.99975   384.95418
   279  H   1.0    0.05    1.03    1.43   109.27718    92.30366   381.92873
   280  H   1.0    0.04    1.03    1.43   109.01829    88.16894   380.09948
   281  H   1.0    0.05    1.03    1.43   110.09165    86.74598   382.96430
   282  N   5.0   -0.14    3.47    2.06   114.48716    94.45039   385.15449
   283  C   4.0    0.03    4.47    4.50   115.26383    96.99018   385.97841
   284  C   4.0    0.15    3.45    3.09   117.84709    97.66293   384.92395
   285  O   6.0   -0.33    1.26    1.80   118.22315    99.74918   383.97720
   286  C   4.0   -0.03    4.32    4.24   115.30352    97.17727   388.89804
   287  C   4.0   -0.05    4.18    3.96   112.58798    96.86168   389.95629
   288  C   4.0   -0.08    4.12    3.84   116.45814    99.67737   389.76165
   289  C   4.0   -0.07    4.00    3.61   112.41224    96.13981   392.72852
   290  H   1.0    0.11    1.09    1.44   114.44936    93.18050   386.60391
   291  H   1.0    0.05    1.06    1.44   113.87300    98.32055   385.24331
   292  H   1.0    0.05    1.06    1.44   116.48271    95.65604   389.62937
   293  H   1.0    0.03    1.03    1.43   111.59210    98.64936   389.72574
   294  H   1.0    0.05    1.04    1.43   111.64123    95.38392   388.87725
   295  H   1.0    0.04    1.00    1.43   116.45436    99.74163   391.81956
   296  H   1.0    0.04    1.01    1.43   118.38944    99.80210   389.05867
   297  H   1.0    0.04    1.00    1.43   115.33564   101.23073   389.00765
   298  H   1.0    0.05    1.00    1.43   110.42803    95.97351   393.25386
   299  H   1.0    0.05    1.00    1.43   113.36655    94.33701   393.01386
   300  H   1.0    0.04    1.00    1.43   113.31931    97.60246   393.86046
   301  N   5.0   -0.14    3.38    2.01   119.61587    95.88092   385.13371
   302  C   4.0    0.01    4.24    4.07   122.11598    96.06611   383.93940
   303  C   4.0    0.16    3.33    3.06   122.00260    96.42894   381.09536
   304  O   6.0   -0.32    1.31    1.80   123.37454    98.01064   380.04279
   305  H   1.0    0.11    1.08    1.44   119.38344    94.25008   386.13526
   306  H   1.0    0.05    1.03    1.43   123.13076    97.66671   384.74820
   307  H   1.0    0.04    1.03    1.43   123.17234    94.34079   384.32113
   308  N   5.0   -0.13    3.46    2.05   120.33397    94.97574   379.87649
   309  C   4.0    0.03    4.34    4.28   119.93902    95.14959   377.13072
   310  C   4.0    0.16    3.44    3.09   119.19068    97.81033   376.39939
   311  O   6.0   -0.31    1.24    1.80   120.32452    98.93093   374.66841
   312  C   4.0   -0.08    4.11    3.81   117.94536    93.26176   376.24633
   313  H   1.0    0.11    1.09    1.44   119.22092    93.65482   380.73065
   314  H   1.0    0.05    1.06    1.44   121.70213    94.66204   376.18586
   315  H   1.0    0.04    1.00    1.43   117.70536    93.44506   374.20920
   316  H   1.0    0.04    1.00    1.43   118.57463    91.35502   376.70931
   317  H   1.0    0.06    1.00    1.43   116.16712    93.66616   377.20253
   318  N   5.0   -0.14    3.46    2.05   117.31041    98.80621   377.77134
   319  C   4.0    0.03    4.41    4.39   116.47893   101.42726   377.48032
   320  C   4.0    0.16    3.47    3.10   118.68802   103.25085   377.78078
   321  O   6.0   -0.32    1.26    1.80   119.22659   104.75318   376.06680
   322  C   4.0   -0.05    4.35    4.30   114.41724   102.08678   379.38894
   323  C   4.0   -0.04    4.08    3.76   113.49883   104.81365   379.18296
   324  S   6.0   -0.06    2.52    3.10   111.23872   105.70371   381.56779
   325  C   4.0   -0.07    3.89    3.45   113.26261   105.96260   384.24932
   326  H   1.0    0.11    1.08    1.44   116.32019    97.83489   379.10926
   327  H   1.0    0.05    1.06    1.44   115.66824   101.60301   375.59437
   328  H   1.0    0.05    1.03    1.43   112.79963   100.84900   379.07714
   329  H   1.0    0.06    1.04    1.43   115.15801   101.81088   381.29000
   330  H   1.0    0.04    1.08    1.44   115.12022   106.07221   379.35870
   331  H   1.0    0.04    1.07    1.44   112.60310   105.07065   377.34615
   332  H   1.0    0.03    1.04    1.43   112.13823   106.50495   385.88771
   333  H   1.0    0.04    1.04    1.43   114.16401   104.14280   384.58758
   334  H   1.0    0.03    1.04    1.43   114.69314   107.39691   383.87326
   335  N   5.0   -0.14    3.49    2.07   119.96169   103.07321   379.94074
   336  C   4.0    0.03    4.46    4.48   122.06874   104.74373   380.51900
   337  C   4.0    0.16    3.47    3.10   124.16066   104.63224   378.59904
   338  O   6.0   -0.32    1.24    1.80   125.18867   106.60889   377.89795
   339  C   4.0   -0.04    4.42    4.42   123.21202   104.09744   383.05879
   340  C   4.0   -0.03    4.20    4.00   121.86465   105.17459   385.35481
   341  C   4.0   -0.08    4.10    3.80   122.98336   104.10122   387.79255
   342  C   4.0   -0.08    4.12    3.84   122.05551   108.04319   385.33402
   343  H   1.0    0.11    1.09    1.44   119.57997   101.79198   381.32969
   344  H   1.0    0.04    1.07    1.44   121.27694   106.64479   380.54167
   345  H   1.0    0.06    1.04    1.43   123.21580   102.04709   383.25910
   346  H   1.0    0.04    1.04    1.44   125.14332   104.81176   383.09469
   347  H   1.0    0.04    1.06    1.44   119.87477   104.64357   385.29244
   348  H   1.0    0.04    1.00    1.43   121.98181   104.90814   389.40260
   349  H   1.0    0.04    1.00    1.43   122.76605   102.05276   387.78499
   350  H   1.0    0.04    1.00    1.43   124.98081   104.59633   387.88893
   351  H   1.0    0.04    1.00    1.43   121.08230   108.79152   386.98753
   352  H   1.0    0.04    1.00    1.43   124.04350   108.58365   385.38315
   353  H   1.0    0.03    1.00    1.43   121.17490   108.76129   383.61626
   354  N   5.0   -0.14    3.52    2.09   124.78427   102.32110   377.79590
   355  C   4.0    0.04    4.39    4.37   126.96313   101.86757   376.18208
   356  C   4.0    0.16    3.43    3.09   126.50203   103.05054   373.60260
   357  O   6.0   -0.32    1.25    1.80   128.15554   104.37712   372.58593
   358  C   4.0    0.03    4.15    3.90   127.51493    99.03109   375.97610
   359  O   6.0   -0.26    2.03    1.83   129.93756    98.60590   374.90462
   360  H   1.0    0.12    1.13    1.45   123.80729   100.72050   378.23810
   361  H   1.0    0.05    1.06    1.44   128.64120   102.72172   377.01544
   362  H   1.0    0.05    1.02    1.43   127.45824    98.19772   377.86015
   363  H   1.0    0.05    1.02    1.43   126.08818    98.15615   374.77612
   364  H   1.0    0.10    1.01    1.43   130.26637    96.78798   374.78368
   365  N   5.0   -0.14    3.47    2.06   124.23058   102.59133   372.60860
   366  C   4.0    0.03    4.38    4.35   123.30084   103.86123   370.35038
   367  C   4.0    0.16    3.46    3.10   123.43501   106.76763   370.52802
   368  O   6.0   -0.32    1.32    1.80   124.39310   108.06398   368.83860
   369  C   4.0   -0.05    4.38    4.34   120.57396   103.06943   369.88929
   370  C   4.0   -0.03    4.19    3.99   119.04140   104.42248   367.81815
   371  C   4.0   -0.07    4.11    3.82   119.99949   103.91981   365.15363
   372  C   4.0   -0.07    4.12    3.84   116.30129   103.55509   367.95610
   373  H   1.0    0.11    1.09    1.44   122.97203   101.32711   373.33993
   374  H   1.0    0.05    1.06    1.44   124.49892   103.28675   368.77624
   375  H   1.0    0.04    1.03    1.43   120.58719   101.07010   369.39040
   376  H   1.0    0.06    1.04    1.43   119.54406   103.34911   371.65051
   377  H   1.0    0.04    1.06    1.44   119.22848   106.44448   368.16019
   378  H   1.0    0.04    1.00    1.43   118.81652   104.94215   363.81193
   379  H   1.0    0.05    1.00    1.43   121.94968   104.56988   365.00813
   380  H   1.0    0.04    1.00    1.43   119.90311   101.89780   364.77758
   381  H   1.0    0.04    1.00    1.43   115.22037   104.51507   366.48967
   382  H   1.0    0.05    1.00    1.43   116.22759   101.51797   367.66508
   383  H   1.0    0.04    1.00    1.43   115.54162   104.02752   369.81181
   384  N   5.0   -0.14    3.50    2.08   122.43534   107.78241   372.57081
   385  C   4.0    0.04    4.42    4.42   122.44101   110.49606   372.91663
   386  C   4.0    0.16    3.41    3.08   125.09797   111.64879   372.90718
   387  O   6.0   -0.31    1.23    1.80   125.40221   113.81064   372.00956
   388  C   4.0   -0.05    4.34    4.27   121.01427   111.18203   375.32792
   389  C   4.0   -0.02    4.18    3.96   118.12110   110.76440   375.35060
   390  C   4.0   -0.08    4.11    3.82   117.04585   110.97983   378.00566
   391  C   4.0   -0.08    4.10    3.81   116.69625   112.61255   373.66685
   392  H   1.0    0.11    1.09    1.44   121.61520   106.79219   374.00700
   393  H   1.0    0.05    1.07    1.44   121.44891   111.34076   371.32170
   394  H   1.0    0.05    1.04    1.43   121.79095   110.05008   376.86238
   395  H   1.0    0.04    1.03    1.43   121.32985   113.18325   375.69831
   396  H   1.0    0.05    1.06    1.44   117.83386   108.86144   374.61927
   397  H   1.0    0.03    1.00    1.43   115.01061   110.67369   377.93196
   398  H   1.0    0.04    1.00    1.43   117.92646   109.55497   379.20375
   399  H   1.0    0.03    1.00    1.43   117.44647   112.86199   378.74076
   400  H   1.0    0.03    1.00    1.43   114.67991   112.20437   373.77834
   401  H   1.0    0.03    1.00    1.43   117.06285   114.53251   374.31881
   402  H   1.0    0.04    1.00    1.43   117.35009   112.39334   371.72610
   403  N   5.0   -0.13    3.46    2.05   126.95179   110.24283   373.89551
   404  C   4.0    0.04    4.40    4.39   129.60685   111.03085   373.79346
   405  C   4.0    0.16    3.42    3.08   130.48936   110.96471   371.07604
   406  O   6.0   -0.29    1.25    1.80   131.47768   112.86199   370.15574
   407  C   4.0   -0.05    4.27    4.15   131.34918   109.36411   375.41863
   408  C   4.0   -0.04    4.20    4.00   131.00714   109.56820   378.29290
   409  C   4.0    0.16    3.22    3.04   131.55705   112.16846   379.39461
   410  O   6.0   -0.30    1.22    1.80   130.23424   113.03018   381.07269
   411  N   5.0   -0.16    3.25    1.97   133.49591   113.41757   378.44975
   412  H   1.0    0.11    1.08    1.44   126.67967   108.55153   374.77801
   413  H   1.0    0.08    1.06    1.44   129.73347   112.93002   374.58148
   414  H   1.0    0.06    1.03    1.43   131.01470   107.39691   374.90651
   415  H   1.0    0.04    1.04    1.43   133.29938   109.87812   375.00289
   416  H   1.0    0.06    1.03    1.43   129.05505   109.10144   378.75399
   417  H   1.0    0.04    1.03    1.43   132.28460   108.23027   379.19997
   418  H   1.0    0.08    1.03    1.43   134.55227   112.63334   377.04190
   419  H   1.0    0.12    1.05    1.44   133.93811   115.16746   379.12816
   420  N   5.0   -0.14    3.44    2.04   130.05283   108.81609   369.80236
   421  C   4.0    0.03    4.42    4.41   130.77282   108.43247   367.09627
   422  C   4.0    0.16    3.44    3.09   129.75047   110.43936   365.36717
   423  O   6.0   -0.30    1.23    1.80   131.13564   111.51462   363.85350
   424  C   4.0   -0.05    4.27    4.14   129.96968   105.82654   366.10984
   425  C   4.0   -0.05    4.24    4.09   131.69878   103.82721   367.17753
   426  C   4.0   -0.06    4.16    3.93   130.96935   101.11924   366.60872
   427  C   4.0   -0.05    4.14    3.89   132.54349    99.36935   368.29247
   428  N   5.0   -0.14    4.00    2.85   133.24458    96.97507   367.00935
   429  H   1.0    0.11    1.09    1.44   129.19678   107.27029   370.57337
   430  H   1.0    0.05    1.06    1.44   132.83073   108.53263   367.06415
   431  H   1.0    0.06    1.03    1.43   128.03838   105.42214   366.70132
   432  H   1.0    0.04    1.03    1.43   130.09818   105.79064   364.05381
   433  H   1.0    0.03    1.04    1.43   133.58473   104.12390   366.40652
   434  H   1.0    0.05    1.04    1.43   131.73469   104.02941   369.22788
   435  H   1.0    0.04    1.03    1.43   128.97191   100.82633   367.01501
   436  H   1.0    0.03    1.03    1.43   131.35863   100.68271   364.63396
   437  H   1.0    0.03    1.03    1.43   134.28015   100.33689   368.82915
   438  H   1.0    0.04    1.02    1.43   131.45312    98.89503   369.97433
   439  H   1.0    0.03    1.01    1.43   134.30849    95.85068   368.22066
   440  H   1.0    0.03    1.02    1.43   131.62508    95.99430   366.48589
   441  H   1.0    0.03    1.02    1.43   134.30471    97.36057   365.39930
   442  N   5.0   -0.14    3.52    2.09   127.34674   111.04030   365.72055
   443  C   4.0    0.04    4.42    4.42   126.10330   112.98482   364.20499
   444  C   4.0    0.16    3.39    3.08   126.90077   115.67202   364.83049
   445  O   6.0   -0.30    1.25    1.80   126.08441   117.39356   363.55682
   446  C   4.0   -0.04    4.27    4.15   123.21580   112.72026   364.40341
   447  C   4.0   -0.03    4.19    3.98   122.18212   110.20315   363.42643
   448  C   4.0    0.24    3.13    3.03   122.67156   109.83087   360.62018
   449  O   6.0   -0.31    1.18    1.80   121.76260   111.41257   359.11407
   450  O   6.0   -0.31    1.17    1.80   123.99815   107.98839   359.93043
   451  H   1.0    0.12    1.12    1.45   126.20157   110.22205   367.03769
   452  H   1.0    0.07    1.07    1.44   126.63809   112.66924   362.24157
   453  H   1.0    0.05    1.03    1.43   122.67345   112.89034   366.38385
   454  H   1.0    0.06    1.03    1.43   122.34086   114.22449   363.30170
   455  H   1.0    0.06    1.03    1.43   123.09108   108.66113   364.44499
   456  H   1.0    0.04    1.03    1.43   120.14689   110.14646   363.73445
   457  N   5.0   -0.13    3.41    2.03   128.45601   116.03673   366.77502
   458  C   4.0    0.02    4.25    4.10   129.57284   118.49338   367.34005
   459  C   4.0    0.16    3.30    3.05   127.89287   120.23381   368.87828
   460  O   6.0   -0.28    1.21    1.80   128.39554   122.51471   369.05025
   461  H   1.0    0.12    1.09    1.44   128.98513   114.65345   368.00712
   462  H   1.0    0.06    1.03    1.43   131.31706   118.20236   368.39640
   463  H   1.0    0.06    1.03    1.43   130.01315   119.44580   365.56748
   464  N   5.0   -0.13    3.48    2.06   125.93134   119.16045   370.04236
   465  C   4.0    0.04    4.44    4.44   124.12854   120.63821   371.54469
   466  C   4.0    0.15    3.44    3.09   125.10364   120.96325   374.18841
   467  O   6.0   -0.29    1.22    1.80   125.37198   123.10998   375.08226
   468  C   4.0   -0.05    4.42    4.41   121.56418   119.34942   371.69020
   469  C   4.0   -0.03    4.20    4.01   119.63099   120.25460   369.76457
   470  C   4.0   -0.07    4.11    3.82   119.90689   118.80518   367.29280
   471  C   4.0   -0.08    4.11    3.82   116.97971   119.93902   370.83604
   472  H   1.0    0.10    1.08    1.44   125.53638   117.27450   369.98377
   473  H   1.0    0.06    1.06    1.44   123.88098   122.45802   370.61305
   474  H   1.0    0.05    1.04    1.43   121.83441   117.32930   371.39162
   475  H   1.0    0.04    1.05    1.44   120.77428   119.68390   373.56292
   476  H   1.0    0.04    1.06    1.44   119.94469   122.24826   369.35639
   477  H   1.0    0.04    1.00    1.43   118.50282   119.49115   365.95299
   478  H   1.0    0.06    1.00    1.43   121.80040   119.11132   366.54447
   479  H   1.0    0.04    1.00    1.43   119.61020   116.80018   367.65563
   480  H   1.0    0.04    1.00    1.43   115.61154   120.59286   369.44142
   481  H   1.0    0.03    1.00    1.43   116.65845   117.94725   371.25556
   482  H   1.0    0.04    1.00    1.43   116.81530   121.05584   372.55947
   483  N   5.0   -0.14    3.46    2.05   125.61575   118.82408   375.43185
   484  C   4.0    0.03    4.44    4.45   126.82518   118.83164   377.92629
   485  C   4.0    0.16    3.45    3.10   129.68622   118.81463   377.81291
   486  O   6.0   -0.28    1.31    1.80   130.81250   117.01939   376.83592
   487  C   4.0   -0.03    4.48    4.51   126.09952   116.51672   379.39461
   488  C   4.0   -0.03    4.22    4.05   123.41800   116.30507   380.31113
   489  C   4.0   -0.08    4.14    3.88   123.25926   113.89756   381.85503
   490  C   4.0   -0.07    4.13    3.86   122.66211   118.57463   381.88527
   491  H   1.0    0.09    1.07    1.44   125.21702   117.06096   374.76289
   492  H   1.0    0.05    1.07    1.44   126.20157   120.58341   378.81446
   493  H   1.0    0.06    1.04    1.43   126.44534   114.88022   378.19274
   494  H   1.0    0.07    1.05    1.44   127.30328   116.43168   381.06324
   495  H   1.0    0.03    1.06    1.44   122.10275   116.24838   378.72754
   496  H   1.0    0.03    1.00    1.43   121.33552   113.67646   382.55612
   497  H   1.0    0.05    1.00    1.43   123.75815   112.29885   380.65695
   498  H   1.0    0.05    1.00    1.43   124.57262   114.02795   383.43673
   499  H   1.0    0.04    1.00    1.43   120.71191   118.34031   382.50699
   500  H   1.0    0.05    1.00    1.43   123.90933   118.70314   383.51988
   501  H   1.0    0.05    1.00    1.43   122.83408   120.27539   380.73632
   502  N   5.0   -0.14    3.49    2.07   130.86163   120.77616   378.85415
   503  C   4.0    0.04    4.49    4.53   133.60362   120.84986   378.93919
   504  C   4.0    0.15    3.44    3.09   134.55605   119.33997   381.15583
   505  O   6.0   -0.30    1.23    1.80   136.47223   118.03795   380.94418
   506  C   4.0   -0.04    4.42    4.42   134.55983   123.52572   379.06013
   507  C   4.0   -0.04    4.11    3.82   134.86596   124.63310   376.46553
   508  S   6.0   -0.03    2.55    3.10   135.21367   127.99870   376.68852
   509  C   4.0   -0.06    3.90    3.46   134.30282   128.79049   373.51378
   510  H   1.0    0.09    1.06    1.44   129.98480   122.30495   379.63460
   511  H   1.0    0.06    1.08    1.44   134.34062   120.05618   377.18741
   512  H   1.0    0.06    1.06    1.44   133.21623   124.68412   380.10704
   513  H   1.0    0.05    1.04    1.43   136.39286   123.55217   379.99932
   514  H   1.0    0.04    1.07    1.44   136.54782   123.85075   375.56980
   515  H   1.0    0.06    1.07    1.44   133.20111   124.21169   375.32792
   516  H   1.0    0.04    1.04    1.43   134.39920   130.83518   373.27757
   517  H   1.0    0.04    1.04    1.43   135.59162   127.87020   372.19664
   518  H   1.0    0.07    1.04    1.43   132.37719   128.13665   373.18497
   519  N   5.0   -0.11    3.54    2.11   133.21245   119.53839   383.26855
   520  C   4.0    0.04    4.38    4.34   133.71701   118.04551   385.51732
   521  C   4.0    0.15    3.51    3.12   131.18289   116.96459   386.37715
   522  O   6.0   -0.30    1.33    1.80   129.26670   118.20992   386.20518
   523  C   4.0    0.04    4.10    3.81   135.05115   119.67823   387.55445
   524  O   6.0   -0.22    2.04    1.83   135.44233   122.24070   386.76454
   525  H   1.0    0.12    1.08    1.44   131.72713   120.74782   383.48020
   526  H   1.0    0.05    1.07    1.44   134.99635   116.46759   385.18095
   527  H   1.0    0.07    1.02    1.43   133.88141   119.68957   389.24953
   528  H   1.0    0.04    1.01    1.43   136.88419   118.83542   387.96830
   529  H   1.0    0.11    1.03    1.43   136.28704   123.19501   388.10814
   530  N   5.0   -0.10    3.63    2.19   131.12997   114.63267   387.25965
   531  C   4.0    0.04    4.55    4.61   128.60341   113.55552   387.80011
   532  C   4.0    0.15    3.37    3.07   127.05006   114.78951   389.94306
   533  O   6.0   -0.32    1.23    1.80   124.77671   114.40023   390.03944
   534  C   4.0   -0.05    4.31    4.22   129.12686   110.74550   388.39915
   535  C   4.0   -0.05    4.27    4.14   131.91043   110.36944   388.20073
   536  C   4.0   -0.02    4.31    4.21   133.20867   112.88089   387.79255
   537  H   1.0    0.06    1.06    1.44   127.51304   113.72749   386.06156
   538  H   1.0    0.04    1.03    1.43   128.47491   110.31842   390.30589
   539  H   1.0    0.04    1.02    1.43   128.13854   109.55875   387.03477
   540  H   1.0    0.04    1.03    1.43   132.58506   109.51151   389.94873
   541  H   1.0    0.04    1.03    1.43   132.29404   109.12034   386.60958
   542  H   1.0    0.05    1.02    1.43   134.22723   113.45726   389.48764
   543  H   1.0    0.04    1.02    1.43   134.50124   112.77884   386.19195
   544  N   5.0   -0.14    3.44    2.04   128.24814   116.21248   391.64381
   545  C   4.0    0.04    4.38    4.34   126.86864   117.71859   393.51653
   546  C   4.0    0.18    3.45    3.09   125.38899   119.93524   392.37514
   547  O   6.0   -0.29    1.28    1.80   123.56351   120.78750   393.50519
   548  C   4.0    0.04    4.17    3.94   128.68656   118.81085   395.44972
   549  O   6.0   -0.19    2.06    1.83   130.31361   120.66467   394.34801
   550  H   1.0    0.09    1.06    1.44   130.16432   116.36743   391.77987
   551  H   1.0    0.05    1.06    1.44   125.53638   116.42980   394.41415
   552  H   1.0    0.06    1.02    1.43   127.59808   119.69524   396.95961
   553  H   1.0    0.05    1.02    1.43   129.83929   117.28395   396.21317
   554  H   1.0    0.14    1.01    1.43   131.46634   121.33930   395.63114
   555  N   5.0   -0.11    3.48    2.06   126.16944   120.88955   390.17361
   556  C   4.0    0.06    4.41    4.40   124.84286   123.00982   388.93773
   557  C   4.0    0.15    3.39    3.08   122.02338   122.47314   388.45018
   558  O   6.0   -0.27    1.19    1.80   120.53617   124.23436   387.87192
   559  C   4.0   -0.02    4.31    4.21   126.04283   123.65044   386.37148
   560  C   4.0    0.25    3.15    3.03   128.76593   124.39877   386.54344
   561  O   6.0   -0.23    1.21    1.80   129.63142   125.03750   388.64482
   562  O   6.0   -0.29    1.19    1.80   130.02070   124.30995   384.52711
   563  H   1.0    0.11    1.08    1.44   127.70201   120.25082   389.19284
   564  H   1.0    0.12    1.05    1.44   125.02994   124.61987   390.20762
   565  H   1.0    0.06    1.03    1.43   125.92189   121.99504   385.15071
   566  H   1.0    0.07    1.03    1.43   125.01104   125.22269   385.53055
   567  N   5.0   -0.14    3.50    2.08   121.35253   120.04295   388.57301
   568  C   4.0    0.03    4.42    4.41   118.76928   119.14155   388.21018
   569  C   4.0    0.16    3.46    3.10   117.01372   119.77272   390.37392
   570  O   6.0   -0.31    1.29    1.80   114.75928   119.94280   390.02432
   571  C   4.0   -0.05    4.42    4.41   118.81652   116.29940   387.81145
   572  C   4.0   -0.02    4.24    4.08   116.30696   114.97849   387.41839
   573  C   4.0   -0.09    4.15    3.89   116.50349   112.90735   385.47764
   574  C   4.0   -0.08    4.16    3.92   115.42635   113.78229   389.84479
   575  H   1.0    0.09    1.08    1.44   122.59219   118.61054   388.93206
   576  H   1.0    0.06    1.06    1.44   118.00961   120.07697   386.53966
   577  H   1.0    0.04    1.04    1.43   119.95980   115.91768   386.14093
   578  H   1.0    0.05    1.05    1.44   119.68579   115.44525   389.47063
   579  H   1.0    0.05    1.06    1.44   114.96337   116.39956   386.77399
   580  H   1.0    0.03    1.00    1.43   114.65912   112.01540   385.26032
   581  H   1.0    0.03    1.00    1.43   117.10443   113.72371   383.68429
   582  H   1.0    0.03    1.00    1.43   117.88488   111.51840   386.11636
   583  H   1.0    0.03    1.00    1.43   113.62166   112.84499   389.51409
   584  H   1.0    0.03    1.00    1.43   116.82853   112.40657   390.46273
   585  H   1.0    0.05    1.00    1.43   115.20525   115.24872   391.27343
   586  N   5.0   -0.14    3.51    2.09   118.02283   120.05996   392.62647
   587  C   4.0    0.04    4.42    4.41   116.51105   120.95002   394.75241
   588  C   4.0    0.16    3.42    3.08   115.61343   123.70335   394.42171
   589  O   6.0   -0.30    1.23    1.80   113.64623   124.40822   395.41760
   590  C   4.0   -0.03    4.34    4.28   118.04362   120.85931   397.19961
   591  C   4.0   -0.01    3.54    3.13   119.27383   118.37621   397.86668
   592  C   4.0   -0.05    3.48    3.11   117.99638   116.10098   397.60023
   593  C   4.0   -0.03    3.48    3.10   121.71536   118.31952   398.82477
   594  C   4.0   -0.05    3.42    3.09   119.13588   113.81441   398.26919
   595  C   4.0   -0.04    3.44    3.09   122.87565   116.06886   399.47862
   596  C   4.0    0.07    3.45    3.09   121.58308   113.82575   399.21595
   597  O   6.0   -0.25    2.14    1.85   122.72636   111.60910   399.88491
   598  H   1.0    0.11    1.09    1.44   119.86721   119.70091   393.05922
   599  H   1.0    0.05    1.06    1.44   114.88211   119.69524   394.87524
   600  H   1.0    0.06    1.04    1.43   119.55162   122.25582   397.05599
   601  H   1.0    0.05    1.03    1.43   116.78317   121.34119   398.75674
   602  H   1.0    0.04    1.03    1.43   116.09342   116.09720   396.86513
   603  H   1.0    0.07    1.03    1.43   122.73203   120.07319   399.06477
   604  H   1.0    0.05    1.03    1.43   118.12299   112.05508   398.05187
   605  H   1.0    0.05    1.03    1.43   124.78805   116.07264   400.19293
   606  H   1.0    0.14    1.11    1.45   124.43656   111.94359   400.51230
   607  N   5.0   -0.11    3.47    2.06   117.10065   125.26426   393.11591
   608  C   4.0    0.05    4.40    4.37   116.49594   127.92689   392.85135
   609  C   4.0    0.15    3.49    3.11   114.22637   128.14043   391.08634
   610  O   6.0   -0.30    1.36    1.80   114.21693   126.93856   389.11536
   611  C   4.0    0.04    4.15    3.90   118.76361   129.44623   391.84601
   612  O   6.0   -0.20    2.02    1.83   120.80262   129.53127   393.61480
   613  H   1.0    0.11    1.06    1.44   118.72770   124.73514   392.22774
   614  H   1.0    0.07    1.07    1.44   116.03295   128.74703   394.68438
   615  H   1.0    0.08    1.02    1.43   119.43257   128.55995   390.11125
   616  H   1.0    0.04    1.02    1.43   118.14567   131.37375   391.46051
   617  H   1.0    0.17    1.02    1.43   122.20858   130.51014   392.91371
   618  N   5.0   -0.10    3.67    2.24   112.28374   129.64654   391.77798
   619  C   4.0    0.04    4.60    4.66   110.03685   129.75425   390.16605
   620  C   4.0    0.15    3.43    3.09   110.43747   131.04683   387.62437
   621  O   6.0   -0.32    1.30    1.80   109.03152   130.49314   385.86503
   622  C   4.0   -0.05    4.39    4.37   108.13390   131.23013   391.76476
   623  C   4.0   -0.04    4.32    4.23   109.21671   131.26981   394.37258
   624  C   4.0   -0.01    4.37    4.33   111.99650   131.38131   393.92660
   625  H   1.0    0.06    1.07    1.44   109.35466   127.83807   389.84290
   626  H   1.0    0.03    1.03    1.43   107.93359   133.14253   391.02398
   627  H   1.0    0.04    1.03    1.43   106.31031   130.27204   391.74208
   628  H   1.0    0.03    1.03    1.43   108.55531   132.93088   395.39681
   629  H   1.0    0.05    1.03    1.43   108.69137   129.55961   395.39114
   630  H   1.0    0.03    1.02    1.43   112.59743   133.28804   393.43338
   631  H   1.0    0.06    1.02    1.43   113.04341   130.71612   395.57066
   632  N   5.0   -0.15    3.36    2.00   112.35177   132.68144   387.40138
   633  C   4.0    0.01    4.23    4.07   113.10577   133.70756   384.93151
   634  C   4.0    0.16    3.34    3.06   113.11333   131.76492   382.78856
   635  O   6.0   -0.31    1.21    1.80   112.45759   132.31672   380.59648
   636  H   1.0    0.07    1.05    1.44   113.41001   133.32772   388.87725
   637  H   1.0    0.05    1.03    1.43   111.80375   135.21745   384.41183
   638  H   1.0    0.05    1.03    1.43   115.00683   134.48613   385.08646
   639  N   5.0   -0.13    3.53    2.10   113.83898   129.46135   383.44807
   640  C   4.0    0.03    4.41    4.40   114.18669   127.47146   381.61504
   641  C   4.0    0.15    3.41    3.08   111.79619   126.02582   380.90261
   642  O   6.0   -0.32    1.28    1.80   111.80375   124.65010   379.04879
   643  C   4.0    0.03    4.18    3.96   116.18602   125.64599   382.61848
   644  O   6.0   -0.23    2.08    1.84   115.43769   124.68223   384.98442
   645  H   1.0    0.10    1.09    1.44   114.20181   128.91899   385.26221
   646  H   1.0    0.05    1.07    1.44   114.84620   128.31995   379.85759
   647  H   1.0    0.05    1.02    1.43   116.40523   124.08696   381.29189
   648  H   1.0    0.05    1.01    1.43   117.97370   126.64943   382.83013
   649  H   1.0    0.16    1.10    1.44   115.22793   126.06740   386.19573
   650  N   5.0   -0.14    3.46    2.06   109.72883   126.35275   382.27644
   651  C   4.0    0.04    4.39    4.35   107.61044   124.57451   382.02511
   652  C   4.0    0.08    3.23    3.04   106.19504   124.86931   379.56657
   653  O   6.0   -0.31    1.12    1.80   105.76418   122.98903   378.27022
   654  C   4.0   -0.04    4.29    4.17   105.83410   124.79183   384.26443
   655  C   4.0   -0.02    3.68    3.22   107.07943   124.11531   386.73808
   656  C   4.0    0.00    3.62    3.18   109.37356   122.94179   387.09146
   657  C   4.0   -0.00    3.89    3.45   106.06087   124.50081   389.20040
   658  N   5.0   -0.11    3.48    2.06   109.83843   122.60731   389.61992
   659  C   4.0    0.03    3.90    3.46   107.83910   123.54083   390.95784
   660  C   4.0   -0.06    3.40    3.08   103.81587   125.57040   390.10558
   661  C   4.0   -0.05    3.40    3.08   107.42903   123.61075   393.54488
   662  C   4.0   -0.06    3.36    3.07   103.40013   125.62709   392.67749
   663  C   4.0   -0.05    3.38    3.07   105.19159   124.64443   394.37258
   664  H   1.0    0.11    1.09    1.44   109.45104   127.77760   383.54445
   665  H   1.0    0.05    1.07    1.44   108.40980   122.67534   382.02511
   666  H   1.0    0.04    1.03    1.43   105.16325   126.73447   384.40049
   667  H   1.0    0.04    1.03    1.43   104.24295   123.51438   383.98286
   668  H   1.0    0.06    1.01    1.43   110.63023   122.36542   385.59102
   669  H   1.0    0.11    1.06    1.44   111.41635   121.79662   390.37581
   670  H   1.0    0.04    1.03    1.43   102.43448   126.33763   388.81300
   671  H   1.0    0.06    1.03    1.43   108.81042   122.88321   394.85824
   672  H   1.0    0.03    1.03    1.43   101.67293   126.43778   393.39937
   673  H   1.0    0.04    1.03    1.43   104.80231   124.70113   396.37569
   674  N   5.0   -0.15    3.41    2.02   108.14146   127.60563   373.95409
   675  C   4.0    0.02    4.49    4.52   109.88189   126.65888   371.99633
   676  C   4.0    0.14    3.40    3.08   109.98394   123.79217   371.63728
   677  O   6.0   -0.32    1.25    1.80   109.93103   122.84541   369.51134
   678  C   4.0   -0.04    4.41    4.39   112.45381   127.55839   372.96387
   679  C   4.0   -0.04    4.30    4.21   111.88878   130.00181   374.19786
   680  C   4.0   -0.01    4.34    4.27   109.34143   129.65977   375.42052
   681  H   1.0    0.03    1.05    1.44   109.31876   127.55272   370.22755
   682  H   1.0    0.05    1.03    1.43   113.22104   126.20157   374.31125
   683  H   1.0    0.03    1.03    1.43   113.75961   127.80217   371.38973
   684  H   1.0    0.05    1.03    1.43   113.32875   130.42133   375.60949
   685  H   1.0    0.03    1.03    1.43   111.82831   131.50036   372.78624
   686  H   1.0    0.06    1.02    1.43   109.55308   129.11364   377.39528
   687  H   1.0    0.03    1.02    1.43   108.23405   131.39076   375.28446
   688  N   5.0   -0.14    3.51    2.08   110.17858   122.46369   373.73677
   689  C   4.0    0.04    4.45    4.46   110.34110   119.75004   373.75567
   690  C   4.0    0.09    3.35    3.06   107.97516   118.68613   372.65207
   691  O   6.0   -0.32    1.19    1.80   108.06587   117.12332   370.95698
   692  C   4.0   -0.02    4.38    4.34   110.60566   118.75227   376.47876
   693  C   4.0   -0.05    4.22    4.04   113.29852   119.18124   377.40662
   694  C   4.0   -0.07    4.15    3.90   109.94992   115.94414   376.67151
   695  C   4.0   -0.07    4.02    3.66   113.53285   119.20013   380.25255
   696  H   1.0    0.10    1.08    1.44   110.22960   123.23848   375.49988
   697  H   1.0    0.05    1.06    1.44   111.99272   119.19635   372.65585
   698  H   1.0    0.06    1.06    1.44   109.27151   119.79351   377.65417
   699  H   1.0    0.03    1.03    1.43   114.49850   117.67135   376.68474
   700  H   1.0    0.05    1.04    1.43   113.95992   121.00293   376.70742
   701  H   1.0    0.04    1.00    1.43   110.16724   115.33753   378.62738
   702  H   1.0    0.05    1.01    1.43   108.00162   115.66635   376.06113
   703  H   1.0    0.04    1.00    1.43   111.22549   114.87266   375.45831
   704  H   1.0    0.04    1.00    1.43   115.50383   119.51383   380.76088
   705  H   1.0    0.06    1.01    1.43   112.36122   120.71380   381.01222
   706  H   1.0    0.04    1.00    1.43   112.89790   117.38411   380.98954
   707  N   5.0   -0.21    3.24    1.97   107.52352   119.37966   365.67142
   708  C   4.0    0.03    4.26    4.13   109.40379   117.93024   364.32216
   709  C   4.0    0.14    3.42    3.08   108.77263   115.11455   364.30893
   710  O   6.0   -0.32    1.25    1.80   108.95404   113.85788   362.34739
   711  C   4.0   -0.07    4.13    3.86   111.96437   118.40078   365.47489
   712  H   1.0    0.12    1.05    1.44   108.15469   120.06941   367.35706
   713  H   1.0    0.03    1.06    1.44   109.45293   118.55007   362.35873
   714  H   1.0    0.04    1.00    1.43   113.37411   117.30285   364.44877
   715  H   1.0    0.04    1.00    1.43   112.40279   120.40956   365.33883
   716  H   1.0    0.05    1.00    1.43   111.92658   117.82252   367.45154
   717  N   5.0   -0.15    3.47    2.06   107.99028   114.12244   366.46699
   718  C   4.0    0.04    4.35    4.29   107.18715   111.49950   366.57471
   719  C   4.0    0.07    3.22    3.04   104.73806   111.06108   365.13285
   720  O   6.0   -0.32    1.12    1.80   104.25618   108.94837   364.30704
   721  C   4.0   -0.05    4.36    4.32   106.89991   110.63779   369.30536
   722  C   4.0   -0.03    4.19    3.98   109.34332   110.24094   370.81525
   723  C   4.0   -0.08    4.11    3.82   108.72916   109.70237   373.56669
   724  C   4.0   -0.08    4.10    3.81   110.93636   108.09043   369.73622
   725  H   1.0    0.11    1.10    1.44   107.89012   115.06541   368.14507
   726  H   1.0    0.05    1.07    1.44   108.65357   110.34677   365.70166
   727  H   1.0    0.04    1.04    1.43   105.79631   112.05886   370.30692
   728  H   1.0    0.04    1.04    1.43   105.89457   108.83877   369.30158
   729  H   1.0    0.04    1.06    1.44   110.45826   111.96815   370.68864
   730  H   1.0    0.03    1.00    1.43   110.48661   109.42647   374.60415
   731  H   1.0    0.04    1.00    1.43   107.69548   111.30297   374.34904
   732  H   1.0    0.04    1.00    1.43   107.57454   107.99973   373.67441
   733  H   1.0    0.03    1.00    1.43   112.64467   107.88634   370.87006
   734  H   1.0    0.04    1.00    1.43   109.84032   106.34811   369.79669
   735  H   1.0    0.04    1.00    1.43   111.43525   108.53830   367.78791
   736  N   5.0   -0.22    3.23    1.96   106.59755   110.39590   358.27881
   737  C   4.0    0.03    4.27    4.13   107.64824   107.92603   357.96134
   738  C   4.0    0.07    3.23    3.04   105.59789   105.93993   357.58528
   739  O   6.0   -0.34    1.12    1.80   105.83977   104.33366   355.94122
   740  C   4.0   -0.05    4.34    4.28   109.25073   107.29297   360.23090
   741  C   4.0   -0.05    4.25    4.09   110.77007   104.91569   359.91909
   742  C   4.0   -0.01    4.25    4.10   111.58832   103.94438   362.47022
   743  N   5.0   -0.14    3.42    2.03   112.71837   101.46128   362.25291
   744  C   4.0    0.08    3.35    3.06   114.97849   101.00774   361.23623
   745  N   5.0   -0.20    3.24    1.97   116.42980   102.86156   360.28192
   746  N   5.0   -0.19    3.24    1.96   115.79107    98.64369   361.14553
   747  H   1.0    0.11    1.05    1.44   106.96227   111.19714   359.99468
   748  H   1.0    0.03    1.06    1.44   108.83877   107.90902   356.28137
   749  H   1.0    0.04    1.04    1.43   110.56598   108.84255   360.56727
   750  H   1.0    0.05    1.04    1.43   108.02051   107.04542   361.86362
   751  H   1.0    0.05    1.04    1.43   109.62300   103.47383   358.99880
   752  H   1.0    0.04    1.03    1.43   112.44814   105.30687   358.79093
   753  H   1.0    0.04    1.03    1.43   112.98105   105.22750   363.27903
   754  H   1.0    0.05    1.03    1.43   109.94992   103.81021   363.71177
   755  H   1.0    0.10    1.08    1.44   111.71682    99.95705   362.92376
   756  H   1.0    0.07    1.03    1.43   115.81185   104.68704   360.32161
   757  H   1.0    0.07    1.02    1.43   118.14945   102.44393   359.51847
   758  H   1.0    0.08    1.03    1.43   114.69503    97.22073   361.84472
   759  H   1.0    0.07    1.03    1.43   117.51261    98.24496   360.37641
   760  N   5.0   -0.22    3.21    1.96   107.01140    97.95205   371.26690
   761  C   4.0    0.03    4.21    4.03   108.28319    99.69627   372.94497
   762  C   4.0    0.07    3.20    3.04   106.50118   101.85245   373.67441
   763  O   6.0   -0.33    1.17    1.80   106.38401   102.62535   375.83815
   764  C   4.0   -0.05    4.27    4.15   110.67936   100.74885   371.69776
   765  C   4.0   -0.04    4.18    3.97   112.58042    98.79298   370.74533
   766  C   4.0    0.24    3.13    3.03   112.15712    98.00119   368.01279
   767  O   6.0   -0.32    1.24    1.80   110.74550    99.21439   366.56337
   768  O   6.0   -0.32    1.20    1.80   113.22104    96.07745   367.27580
   769  H   1.0    0.09    1.04    1.43   107.53297    98.14103   369.42064
   770  H   1.0    0.05    1.06    1.44   108.87278    98.69661   374.64762
   771  H   1.0    0.05    1.04    1.43   110.11433   101.88646   370.07637
   772  H   1.0    0.04    1.03    1.43   111.65824   101.92615   373.07726
   773  H   1.0    0.04    1.03    1.43   114.47582    99.58856   370.88139
   774  H   1.0    0.04    1.03    1.43   112.43869    97.10546   371.91696
   775  N   5.0   -0.20    3.20    1.96   102.44015    99.59423   379.02233
   776  C   4.0    0.03    4.36    4.30   103.94627    99.84178   381.32024
   777  C   4.0    0.14    3.44    3.09   103.85934   102.56110   382.28589
   778  O   6.0   -0.33    1.28    1.80   103.23951   103.04676   384.48553
   779  C   4.0    0.05    4.23    4.06   106.76574    99.09534   380.94796
   780  O   6.0   -0.26    2.09    1.84   107.00384    96.71806   379.67429
   781  C   4.0   -0.07    4.11    3.81   108.04130    98.83078   383.47075
   782  H   1.0    0.09    1.03    1.43   103.43982    98.86290   377.54457
   783  H   1.0    0.04    1.06    1.44   103.13746    98.52653   382.68462
   784  H   1.0    0.05    1.05    1.44   107.66525   100.56744   379.82358
   785  H   1.0    0.12    1.01    1.43   108.79341    96.28910   379.46264
   786  H   1.0    0.05    1.00    1.43   110.01607    98.30921   383.20997
   787  H   1.0    0.04    1.00    1.43   107.95059   100.61468   384.49687
   788  H   1.0    0.04    1.00    1.43   107.10589    97.37191   384.58380
   789  N   5.0   -0.15    3.47    2.06   104.44515   104.33366   380.63049
   790  C   4.0    0.04    4.37    4.33   104.55098   106.98683   381.38638
   791  C   4.0    0.08    3.28    3.05   102.06599   107.94871   382.43707
   792  O   6.0   -0.30    1.12    1.80   102.04709   109.44159   384.22475
   793  C   4.0   -0.04    4.35    4.29   105.36734   108.61389   379.17351
   794  C   4.0   -0.02    3.77    3.31   105.11223   111.34643   379.57980
   795  C   4.0   -0.02    3.65    3.20   103.72328   112.95270   378.18519
   796  C   4.0    0.01    3.95    3.54   106.28953   112.81475   381.47709
   797  N   5.0   -0.12    3.51    2.09   103.96516   115.35643   379.06202
   798  C   4.0    0.03    3.94    3.53   105.52986   115.32431   381.10670
   799  C   4.0   -0.05    3.42    3.08   107.94682   112.26106   383.44618
   800  C   4.0   -0.05    3.41    3.08   106.33299   117.28773   382.63738
   801  C   4.0   -0.05    3.37    3.07   108.75562   114.20181   384.98631
   802  C   4.0   -0.05    3.39    3.07   107.92225   116.69247   384.58947
   803  H   1.0    0.10    1.09    1.44   104.85333   104.01619   378.77289
   804  H   1.0    0.05    1.07    1.44   105.95315   107.13990   382.88682
   805  H   1.0    0.04    1.05    1.44   107.35155   108.23027   378.77667
   806  H   1.0    0.04    1.04    1.43   104.21461   108.12067   377.53890
   807  H   1.0    0.04    1.02    1.43   102.57432   112.40846   376.58837
   808  H   1.0    0.07    1.04    1.43   103.11857   116.91923   378.31558
   809  H   1.0    0.05    1.03    1.43   108.58554   110.34866   383.75988
   810  H   1.0    0.05    1.03    1.43   105.73017   119.20958   382.30479
   811  H   1.0    0.04    1.03    1.43   110.04630   113.80308   386.51699
   812  H   1.0    0.05    1.03    1.43   108.54964   118.16834   385.85180
   813  N   5.0   -0.21    3.21    1.96   101.44616   105.50907   389.01143
   814  C   4.0    0.03    4.35    4.29   103.37557   106.76763   390.51754
   815  C   4.0    0.08    3.30    3.05   102.69527   109.45671   391.07501
   816  O   6.0   -0.32    1.15    1.80   102.84078   110.23716   393.24063
   817  C   4.0   -0.02    4.31    4.21   105.95126   106.74117   389.20607
   818  C   4.0   -0.08    4.15    3.90   107.78052   108.62712   390.40604
   819  C   4.0   -0.08    4.13    3.85   107.04731   104.09933   389.33268
   820  H   1.0    0.12    1.06    1.44   102.07733   104.94971   387.27855
   821  H   1.0    0.04    1.06    1.44   103.47194   105.69804   392.27498
   822  H   1.0    0.05    1.06    1.44   105.69615   107.30053   387.24075
   823  H   1.0    0.03    1.00    1.43   109.58143   108.54019   389.41205
   824  H   1.0    0.05    1.01    1.43   106.98494   110.52062   390.25486
   825  H   1.0    0.04    1.00    1.43   108.04697   108.13390   392.38837
   826  H   1.0    0.03    1.00    1.43   108.88223   104.08988   388.39726
   827  H   1.0    0.04    1.00    1.43   107.26273   103.55698   391.30744
   828  H   1.0    0.05    1.00    1.43   105.76607   102.79542   388.38215
   829  N   5.0   -0.22    3.21    1.96   101.93560   113.86733   397.73062
   830  C   4.0    0.03    4.22    4.03   103.23762   116.20303   398.29376
   831  C   4.0    0.06    3.18    3.03   101.37624   118.33086   399.02130
   832  O   6.0   -0.32    1.10    1.80   101.75796   119.70658   400.87512
   833  C   4.0   -0.05    4.39    4.35   104.79664   117.01561   396.02042
   834  C   4.0   -0.03    4.21    4.02   106.78085   115.15423   395.05855
   835  C   4.0   -0.08    4.10    3.81   107.97516   116.14067   392.63403
   836  C   4.0   -0.08    4.13    3.86   108.75562   114.71392   397.06922
   837  H   1.0    0.10    1.05    1.44   102.23795   113.17947   395.95617
   838  H   1.0    0.04    1.06    1.44   104.49240   115.87044   399.89247
   839  H   1.0    0.04    1.04    1.43   103.50218   117.37277   394.45950
   840  H   1.0    0.04    1.04    1.43   105.79064   118.74849   396.52120
   841  H   1.0    0.05    1.06    1.44   105.89268   113.34576   394.62958
   842  H   1.0    0.04    1.00    1.43   109.38301   114.78573   391.98018
   843  H   1.0    0.04    1.00    1.43   106.50684   116.36932   391.20729
   844  H   1.0    0.04    1.00    1.43   108.87089   117.95480   393.01764
   845  H   1.0    0.03    1.00    1.43   110.15591   113.38167   396.35490
   846  H   1.0    0.04    1.00    1.43   109.66080   116.50727   397.52464
   847  H   1.0    0.04    1.00    1.43   107.84477   113.94103   398.74729
   848  O   6.0   -0.38    2.12    1.84   125.99370   112.38578   403.21838
   849  H   1.0    0.17    1.03    1.43   127.50359   112.86955   403.13713
   850  H   1.0    0.18    1.04    1.43   125.36064   113.07364   404.50151
   851  O   6.0   -0.34    2.02    1.83   108.62712    92.33579   398.05943
   852  H   1.0    0.16    1.04    1.43   109.90079    93.28254   398.05943
   853  H   1.0    0.15    1.02    1.43   107.35155    93.28254   398.05943
   854  O   6.0   -0.36    0.08    1.80   128.53916   125.46080   393.84912
   855  O   6.0   -0.36    0.08    1.80   126.16566   129.24403   393.84912
   856  N   5.0   -0.24    3.19    1.95   132.26948   146.92241   372.57081
   857  C   4.0    0.02    4.21    4.02   132.26381   144.20877   372.91663
   858  C   4.0    0.06    3.18    3.03   129.60685   143.05603   372.90718
   859  O   6.0   -0.32    1.14    1.80   129.30261   140.89419   372.00956
   860  C   4.0   -0.05    4.33    4.26   133.69055   143.52280   375.32792
   861  C   4.0   -0.03    4.18    3.96   136.58372   143.94043   375.35060
   862  C   4.0   -0.09    4.11    3.81   137.65898   143.72500   378.00566
   863  C   4.0   -0.09    4.10    3.81   138.00858   142.09227   373.66685
   864  H   1.0    0.06    1.03    1.43   133.08962   147.91263   374.00700
   865  H   1.0    0.04    1.06    1.44   133.25592   143.36406   371.32170
   866  H   1.0    0.03    1.03    1.43   132.91387   144.65474   376.86238
   867  H   1.0    0.04    1.03    1.43   133.37497   141.52158   375.69831
   868  H   1.0    0.03    1.06    1.44   136.87096   145.84338   374.61927
   869  H   1.0    0.02    1.00    1.43   139.69421   144.03113   377.93196
   870  H   1.0    0.02    1.00    1.43   136.77836   145.14985   379.20375
   871  H   1.0    0.03    1.00    1.43   137.25835   141.84283   378.74076
   872  H   1.0    0.03    1.00    1.43   140.02491   142.50045   373.77834
   873  H   1.0    0.03    1.00    1.43   137.64197   140.17231   374.31881
   874  H   1.0    0.03    1.00    1.43   137.35473   142.31148   371.72610
   875  N   5.0   -0.22    3.22    1.96   127.35808   143.66453   365.72055
   876  C   4.0    0.03    4.32    4.23   128.60152   141.72000   364.20499
   877  C   4.0    0.14    3.38    3.07   127.80406   139.03281   364.83049
   878  O   6.0   -0.31    1.25    1.80   128.62042   137.31127   363.55682
   879  C   4.0   -0.04    4.27    4.15   131.48902   141.98456   364.40341
   880  C   4.0   -0.04    4.19    3.97   132.52270   144.50167   363.42643
   881  C   4.0    0.23    3.13    3.03   132.03326   144.87395   360.62018
   882  O   6.0   -0.32    1.18    1.80   132.94222   143.29225   359.11407
   883  O   6.0   -0.33    1.17    1.80   130.70667   146.71643   359.93043
   884  H   1.0    0.08    1.03    1.43   128.50325   144.48278   367.03769
   885  H   1.0    0.05    1.06    1.44   128.06673   142.03558   362.24157
   886  H   1.0    0.04    1.03    1.43   132.03137   141.81448   366.38385
   887  H   1.0    0.06    1.03    1.43   132.36396   140.48034   363.30170
   888  H   1.0    0.04    1.03    1.43   131.61374   146.04369   364.44499
   889  H   1.0    0.03    1.03    1.43   134.55794   144.55837   363.73445
   890  N   5.0   -0.14    3.39    2.02   126.24881   138.66809   366.77502
   891  C   4.0    0.01    4.25    4.10   125.13198   136.21145   367.34005
   892  C   4.0    0.16    3.30    3.05   126.81195   134.47101   368.87828
   893  O   6.0   -0.28    1.21    1.80   126.30928   132.19011   369.05025
   894  H   1.0    0.08    1.06    1.44   125.71969   140.05137   368.00712
   895  H   1.0    0.04    1.03    1.43   123.38777   136.50246   368.39640
   896  H   1.0    0.05    1.03    1.43   124.69168   135.25902   365.56748
   897  N   5.0   -0.13    3.48    2.06   128.77349   135.54437   370.04236
   898  C   4.0    0.04    4.44    4.44   130.57628   134.06661   371.54469
   899  C   4.0    0.15    3.44    3.09   129.60119   133.74157   374.18841
   900  O   6.0   -0.29    1.22    1.80   129.33284   131.59485   375.08226
   901  C   4.0   -0.05    4.42    4.41   133.14064   135.35540   371.69020
   902  C   4.0   -0.03    4.20    4.01   135.07383   134.45022   369.76457
   903  C   4.0   -0.07    4.11    3.82   134.79793   135.89964   367.29280
   904  C   4.0   -0.08    4.11    3.82   137.72512   134.76581   370.83604
   905  H   1.0    0.10    1.08    1.44   129.16844   137.43032   369.98377
   906  H   1.0    0.06    1.06    1.44   130.82384   132.24680   370.61305
   907  H   1.0    0.05    1.04    1.43   132.87041   137.37552   371.39162
   908  H   1.0    0.04    1.05    1.44   133.93055   135.02092   373.56292
   909  H   1.0    0.04    1.06    1.44   134.76014   132.45656   369.35639
   910  H   1.0    0.04    1.00    1.43   136.20200   135.21367   365.95299
   911  H   1.0    0.06    1.00    1.43   132.90443   135.59351   366.54447
   912  H   1.0    0.04    1.00    1.43   135.09462   137.90464   367.65563
   913  H   1.0    0.04    1.00    1.43   139.09328   134.11196   369.44142
   914  H   1.0    0.03    1.00    1.43   138.04637   136.75758   371.25556
   915  H   1.0    0.04    1.00    1.43   137.88952   133.64898   372.55947
   916  N   5.0   -0.14    3.46    2.05   129.08907   135.88074   375.43185
   917  C   4.0    0.03    4.44    4.45   127.87964   135.87319   377.92629
   918  C   4.0    0.15    3.45    3.10   125.01860   135.89019   377.81291
   919  O   6.0   -0.29    1.24    1.80   123.89232   137.68543   376.83592
   920  C   4.0   -0.04    4.47    4.50   128.60530   138.18810   379.39461
   921  C   4.0   -0.03    4.22    4.05   131.28682   138.39975   380.31113
   922  C   4.0   -0.08    4.14    3.88   131.44556   140.80726   381.85503
   923  C   4.0   -0.07    4.13    3.86   132.04271   136.13019   381.88527
   924  H   1.0    0.09    1.07    1.44   129.48780   137.64386   374.76289
   925  H   1.0    0.05    1.07    1.44   128.50325   134.12141   378.81446
   926  H   1.0    0.05    1.04    1.43   128.25948   139.82460   378.19274
   927  H   1.0    0.05    1.05    1.44   127.40154   138.27314   381.06324
   928  H   1.0    0.03    1.06    1.44   132.60207   138.45644   378.72754
   929  H   1.0    0.03    1.00    1.43   133.36930   141.02836   382.55612
   930  H   1.0    0.03    1.00    1.43   130.94667   142.40597   380.65695
   931  H   1.0    0.04    1.00    1.43   130.13220   140.67687   383.43673
   932  H   1.0    0.04    1.00    1.43   133.99291   136.36451   382.50699
   933  H   1.0    0.05    1.00    1.43   130.79549   136.00169   383.51988
   934  H   1.0    0.05    1.00    1.43   131.87075   134.42943   380.73632
   935  N   5.0   -0.14    3.49    2.07   123.84319   133.92866   378.85415
   936  C   4.0    0.04    4.49    4.53   121.10120   133.85496   378.93919
   937  C   4.0    0.15    3.43    3.09   120.14878   135.36485   381.15583
   938  O   6.0   -0.30    1.22    1.80   118.23259   136.66687   380.94418
   939  C   4.0   -0.04    4.42    4.42   120.14500   131.17911   379.06013
   940  C   4.0   -0.04    4.11    3.82   119.83886   130.07173   376.46553
   941  S   6.0   -0.03    2.55    3.10   119.49115   126.70612   376.68852
   942  C   4.0   -0.06    3.90    3.46   120.40200   125.91433   373.51378
   943  H   1.0    0.09    1.06    1.44   124.72002   132.39987   379.63460
   944  H   1.0    0.06    1.08    1.44   120.36420   134.64864   377.18741
   945  H   1.0    0.06    1.06    1.44   121.48859   130.02070   380.10704
   946  H   1.0    0.05    1.04    1.43   118.31196   131.15265   379.99932
   947  H   1.0    0.04    1.07    1.44   118.15700   130.85407   375.56980
   948  H   1.0    0.05    1.07    1.44   121.50371   130.49314   375.32792
   949  H   1.0    0.04    1.04    1.43   120.30562   123.86965   373.27757
   950  H   1.0    0.04    1.04    1.43   119.11321   126.83463   372.19664
   951  H   1.0    0.06    1.04    1.43   122.32763   126.56817   373.18497
   952  N   5.0   -0.12    3.54    2.11   121.49237   135.16643   383.26855
   953  C   4.0    0.04    4.38    4.34   120.98781   136.65931   385.51732
   954  C   4.0    0.14    3.51    3.12   123.52194   137.74023   386.37715
   955  O   6.0   -0.31    1.33    1.80   125.43812   136.49491   386.20518
   956  C   4.0    0.03    4.10    3.81   119.65367   135.02659   387.55445
   957  O   6.0   -0.22    2.04    1.83   119.26249   132.46412   386.76454
   958  H   1.0    0.11    1.08    1.44   122.97770   133.95700   383.48020
   959  H   1.0    0.04    1.07    1.44   119.70847   138.23723   385.18095
   960  H   1.0    0.05    1.02    1.43   120.82341   135.01525   389.24953
   961  H   1.0    0.03    1.01    1.43   117.82063   135.86941   387.96830
   962  H   1.0    0.11    1.03    1.43   118.41779   131.50981   388.10814
   963  N   5.0   -0.11    3.63    2.19   123.57485   140.07216   387.25965
   964  C   4.0    0.03    4.55    4.60   126.10141   141.14930   387.80011
   965  C   4.0    0.15    3.37    3.07   127.65477   139.91531   389.94306
   966  O   6.0   -0.32    1.23    1.80   129.92811   140.30459   390.03944
   967  C   4.0   -0.06    4.31    4.22   125.57796   143.95932   388.39915
   968  C   4.0   -0.06    4.27    4.14   122.79439   144.33538   388.20073
   969  C   4.0   -0.03    4.31    4.21   121.49615   141.82393   387.79255
   970  H   1.0    0.05    1.06    1.44   127.19178   140.97734   386.06156
   971  H   1.0    0.03    1.03    1.43   126.22991   144.38640   390.30589
   972  H   1.0    0.03    1.02    1.43   126.56629   145.14607   387.03477
   973  H   1.0    0.02    1.03    1.43   122.11976   145.19331   389.94873
   974  H   1.0    0.02    1.03    1.43   122.41078   145.58449   386.60958
   975  H   1.0    0.03    1.02    1.43   120.47759   141.24757   389.48764
   976  H   1.0    0.03    1.02    1.43   120.20358   141.92598   386.19195
   977  N   5.0   -0.14    3.44    2.04   126.45668   138.49235   391.64381
   978  C   4.0    0.04    4.38    4.34   127.83618   136.98623   393.51653
   979  C   4.0    0.18    3.45    3.09   129.31584   134.76959   392.37514
   980  O   6.0   -0.29    1.28    1.80   131.14131   133.91732   393.50519
   981  C   4.0    0.03    4.17    3.93   126.01826   135.89397   395.44972
   982  O   6.0   -0.21    2.06    1.83   124.39121   134.04015   394.34801
   983  H   1.0    0.08    1.06    1.44   124.54050   138.33739   391.77987
   984  H   1.0    0.05    1.06    1.44   129.16844   138.27503   394.41415
   985  H   1.0    0.06    1.02    1.43   127.10675   135.00958   396.95961
   986  H   1.0    0.03    1.02    1.43   124.86553   137.42087   396.21317
   987  H   1.0    0.13    1.01    1.43   123.23848   133.36552   395.63114
   988  N   5.0   -0.11    3.48    2.06   128.53538   133.81527   390.17361
   989  C   4.0    0.06    4.41    4.40   129.86197   131.69500   388.93773
   990  C   4.0    0.15    3.39    3.08   132.68144   132.23168   388.45018
   991  O   6.0   -0.27    1.19    1.80   134.16865   130.47046   387.87192
   992  C   4.0   -0.02    4.31    4.21   128.66199   131.05438   386.37148
   993  C   4.0    0.25    3.15    3.03   125.93890   130.30605   386.54344
   994  O   6.0   -0.23    1.21    1.80   125.07340   129.66733   388.64482
   995  O   6.0   -0.29    1.19    1.80   124.68412   130.39487   384.52711
   996  H   1.0    0.11    1.08    1.44   127.00281   134.45400   389.19284
   997  H   1.0    0.12    1.05    1.44   129.67488   130.08495   390.20762
   998  H   1.0    0.05    1.03    1.43   128.78293   132.70978   385.15071
   999  H   1.0    0.07    1.03    1.43   129.69378   129.48213   385.53055
  1000  N   5.0   -0.14    3.50    2.08   133.35229   134.66187   388.57301
  1001  C   4.0    0.03    4.42    4.41   135.93555   135.56327   388.21018
  1002  C   4.0    0.16    3.46    3.10   137.69110   134.93210   390.37392
[...]
1114   8 O     -0.632  1.763  4.868  0.000    26.910     6.955
1115   1 H      0.194  0.806  0.000  0.000     1.138     1.671
1116   1 H      0.096  0.904  0.000  0.000     1.823     2.111
1117   1 H      0.034  0.966  0.000  0.000     2.533     2.489
1118   1 H      0.054  0.946  0.000  0.000     2.268     2.355
1119   7 N     -0.103  1.248  3.855  0.000    23.249     7.161
1120   6 C      0.015  1.072  2.913  0.000    20.305     6.412
1121   6 C      0.277  1.036  2.687  0.000    22.315     7.736
1122   8 O     -0.479  1.732  4.747  0.000    23.323     6.475
1123   6 C     -0.067  1.049  3.018  0.000    21.757     6.635
1124   6 C     -0.063  1.041  3.023  0.000    21.688     6.625
1125   6 C     -0.001  1.051  2.950  0.000    20.638     6.474
1126   1 H      0.088  0.912  0.000  0.000     1.895     2.153
1127   1 H      0.045  0.955  0.000  0.000     2.383     2.414
1128   1 H      0.067  0.933  0.000  0.000     2.124     2.279
1129   1 H      0.036  0.964  0.000  0.000     2.499     2.472
1130   1 H      0.076  0.924  0.000  0.000     2.016     2.220
1131   1 H      0.037  0.963  0.000  0.000     2.496     2.470
1132   1 H      0.077  0.923  0.000  0.000     2.014     2.219
1133   7 N     -0.173  1.242  3.931  0.000    24.744     7.388
1134   6 C      0.019  1.056  2.925  0.000    20.253     6.406
1135   6 C      0.289  1.030  2.681  0.000    22.103     7.700
1136   8 O     -0.475  1.721  4.753  0.000    23.229     6.462
1137   6 C     -0.028  1.067  2.961  0.000    21.027     6.521
1138   6 C     -0.058  1.047  3.011  0.000    21.619     6.619
1139   6 C     -0.121  1.045  3.077  0.000    22.886     6.821
1140   6 C     -0.091  1.034  3.057  0.000    22.292     6.733
1141   1 H      0.205  0.795  0.000  0.000     1.083     1.630
1142   1 H      0.074  0.926  0.000  0.000     2.043     2.235
1143   1 H      0.047  0.953  0.000  0.000     2.356     2.400
1144   1 H      0.050  0.950  0.000  0.000     2.319     2.381
1145   1 H      0.022  0.978  0.000  0.000     2.709     2.574
1146   1 H      0.069  0.931  0.000  0.000     2.093     2.262
1147   1 H      0.052  0.948  0.000  0.000     2.296     2.370
1148   1 H      0.063  0.937  0.000  0.000     2.162     2.299
1149   1 H     -0.003  1.003  0.000  0.000     3.111     2.758
1150   1 H      0.018  0.982  0.000  0.000     2.759     2.597
1151   1 H      0.061  0.939  0.000  0.000     2.186     2.312
1152   7 N     -0.182  1.244  3.938  0.000    24.942     7.417
1153   6 C      0.009  1.069  2.922  0.000    20.424     6.434
1154   6 C      0.273  1.045  2.682  0.000    22.385     7.747
1155   8 O     -0.486  1.752  4.734  0.000    23.477     6.496
1156   6 C      0.116  1.039  2.845  0.000    18.764     6.183
1157   8 O     -0.469  1.716  4.753  0.000    22.228     6.364
1158   6 C     -0.129  1.038  3.091  0.000    23.024     6.840
1159   1 H      0.212  0.788  0.000  0.000     1.046     1.602
1160   1 H      0.081  0.919  0.000  0.000     1.971     2.196
1161   1 H      0.025  0.975  0.000  0.000     2.658     2.550
1162   1 H      0.309  0.691  0.000  0.000     0.694     1.309
1163   1 H      0.080  0.920  0.000  0.000     1.975     2.198
1164   1 H      0.055  0.945  0.000  0.000     2.262     2.352
1165   1 H      0.077  0.923  0.000  0.000     2.009     2.217
1166   7 N     -0.185  1.251  3.934  0.000    25.009     7.427
1167   6 C      0.024  1.057  2.919  0.000    20.172     6.395
1168   6 C      0.284  1.035  2.681  0.000    22.191     7.714
1169   8 O     -0.500  1.750  4.750  0.000    23.792     6.540
1170   6 C     -0.135  1.046  3.089  0.000    23.140     6.858
1171   1 H      0.216  0.784  0.000  0.000     1.030     1.589
1172   1 H      0.081  0.919  0.000  0.000     1.972     2.196
1173   1 H      0.080  0.920  0.000  0.000     1.979     2.200
1174   1 H      0.073  0.927  0.000  0.000     2.052     2.240
1175   1 H      0.059  0.941  0.000  0.000     2.209     2.324
1176   7 N     -0.175  1.244  3.931  0.000    24.782     7.394
1177   6 C      0.027  1.053  2.919  0.000    20.115     6.386
1178   6 C      0.277  1.041  2.682  0.000    22.311     7.735
1179   8 O     -0.519  1.753  4.767  0.000    24.217     6.598
1180   6 C     -0.125  1.043  3.082  0.000    22.946     6.829
1181   1 H      0.213  0.787  0.000  0.000     1.041     1.598
1182   1 H      0.071  0.929  0.000  0.000     2.079     2.255
1183   1 H      0.061  0.939  0.000  0.000     2.191     2.315
1184   1 H      0.065  0.935  0.000  0.000     2.147     2.291
1185   1 H      0.058  0.942  0.000  0.000     2.223     2.331
1186   7 N     -0.178  1.248  3.930  0.000    24.854     7.404
1187   6 C      0.032  1.055  2.913  0.000    20.043     6.374
1188   6 C      0.209  1.082  2.708  0.000    23.560     7.949
1189   8 O     -0.369  1.741  4.627  0.000    21.065     6.153
1190   6 C     -0.074  1.058  3.016  0.000    21.912     6.663
1191   6 C     -0.013  1.055  2.959  0.000    20.779     6.484
1192   6 C     -0.119  1.045  3.074  0.000    22.840     6.814
1193   6 C     -0.120  1.045  3.075  0.000    22.846     6.815
1194   1 H      0.231  0.769  0.000  0.000     0.962     1.537
1195   1 H      0.089  0.911  0.000  0.000     1.890     2.150
1196   1 H      0.056  0.944  0.000  0.000     2.246     2.344
1197   1 H      0.074  0.926  0.000  0.000     2.040     2.234
1198   1 H      0.023  0.977  0.000  0.000     2.686     2.563
1199   1 H      0.047  0.953  0.000  0.000     2.356     2.401
1200   1 H      0.036  0.964  0.000  0.000     2.500     2.473
1201   1 H      0.061  0.939  0.000  0.000     2.184     2.311
1202   1 H      0.047  0.953  0.000  0.000     2.364     2.404
1203   1 H      0.059  0.941  0.000  0.000     2.210     2.325
1204   1 H      0.030  0.970  0.000  0.000     2.580     2.512
1205   7 N     -0.398  1.326  4.073  0.000    30.327     8.179
1206   6 C      0.024  1.054  2.921  0.000    20.176     6.397
1207   6 C      0.277  1.036  2.686  0.000    22.306     7.734
1208   8 O     -0.521  1.743  4.778  0.000    24.251     6.603
1209   6 C      0.077  1.037  2.886  0.000    19.506     6.327
1210   8 O     -0.475  1.716  4.760  0.000    22.371     6.385
1211   1 H      0.193  0.807  0.000  0.000     1.144     1.675
1212   1 H      0.055  0.945  0.000  0.000     2.264     2.353
1213   1 H     -0.002  1.002  0.000  0.000     3.096     2.752
1214   1 H      0.048  0.952  0.000  0.000     2.340     2.392
1215   1 H      0.345  0.655  0.000  0.000     0.599     1.216
1216   7 N     -0.178  1.252  3.926  0.000    24.849     7.403
1217   6 C      0.036  1.055  2.909  0.000    19.981     6.366
1218   6 C      0.170  1.066  2.764  0.000    24.324     8.077
1219   8 O     -0.471  1.759  4.712  0.000    23.146     6.450
1220   6 C     -0.066  1.057  3.009  0.000    21.757     6.640
1221   6 C     -0.096  1.064  3.031  0.000    22.326     6.727
1222   6 C      0.369  1.020  2.610  0.000    20.740     7.453
1223   8 O     -0.678  1.778  4.900  0.000    28.115     7.109
1224   8 O     -0.662  1.788  4.874  0.000    27.692     7.055
1225   1 H      0.234  0.766  0.000  0.000     0.946     1.524
1226   1 H      0.028  0.972  0.000  0.000     2.618     2.530
1227   1 H      0.078  0.922  0.000  0.000     2.005     2.214
1228   1 H      0.060  0.940  0.000  0.000     2.205     2.322
1229   1 H      0.043  0.957  0.000  0.000     2.412     2.429
1230   1 H      0.058  0.942  0.000  0.000     2.222     2.331
1231   7 N     -0.408  1.339  4.069  0.000    30.592     8.214
1232   6 C      0.029  1.056  2.914  0.000    20.094     6.385
1233   6 C      0.276  1.045  2.679  0.000    22.326     7.738
1234   8 O     -0.515  1.750  4.765  0.000    24.120     6.585
1235   6 C     -0.127  1.046  3.081  0.000    22.982     6.834
1236   1 H      0.163  0.837  0.000  0.000     1.315     1.797
1237   1 H      0.059  0.941  0.000  0.000     2.213     2.326
1238   1 H      0.051  0.949  0.000  0.000     2.306     2.375
1239   1 H      0.085  0.915  0.000  0.000     1.932     2.174
1240   1 H      0.055  0.945  0.000  0.000     2.260     2.351
1241   7 N     -0.184  1.250  3.934  0.000    24.979     7.423
1242   6 C      0.036  1.056  2.909  0.000    19.982     6.365
1243   6 C      0.287  1.038  2.675  0.000    22.140     7.705
1244   8 O     -0.556  1.778  4.778  0.000    25.065     6.712
1245   6 C     -0.070  1.055  3.015  0.000    21.831     6.651
1246   6 C     -0.042  1.039  3.004  0.000    21.331     6.576
1247   6 C     -0.053  1.043  3.009  0.000    21.521     6.605
1248   6 C     -0.012  1.045  2.967  0.000    20.885     6.523
1249   7 N     -0.132  1.231  3.901  0.000    23.859     7.255
1250   1 H      0.239  0.761  0.000  0.000     0.928     1.509
1251   1 H      0.046  0.954  0.000  0.000     2.368     2.406
1252   1 H      0.073  0.927  0.000  0.000     2.055     2.242
1253   1 H      0.064  0.936  0.000  0.000     2.152     2.294
1254   1 H      0.005  0.995  0.000  0.000     2.976     2.698
1255   1 H      0.026  0.974  0.000  0.000     2.640     2.541
1256   1 H      0.050  0.950  0.000  0.000     2.321     2.383
1257   1 H      0.002  0.998  0.000  0.000     3.027     2.721
1258   1 H      0.098  0.902  0.000  0.000     1.800     2.098
1259   1 H      0.116  0.884  0.000  0.000     1.648     2.007
1260   1 H      0.292  0.708  0.000  0.000     0.738     1.346
1261   1 H      0.271  0.729  0.000  0.000     0.806     1.407
1262   1 H      0.258  0.742  0.000  0.000     0.855     1.449
1263   7 N     -0.176  1.251  3.925  0.000    24.806     7.397
1264   6 C      0.046  1.045  2.910  0.000    19.804     6.336
1265   6 C      0.182  1.060  2.758  0.000    24.096     8.039
1266   8 O     -0.448  1.756  4.692  0.000    22.672     6.384
1267   6 C     -0.078  1.053  3.025  0.000    21.973     6.670
1268   6 C      0.012  1.065  2.923  0.000    27.741     8.640
1269   6 C     -0.038  1.071  2.967  0.000    28.954     8.826
1270   6 C     -0.045  1.078  2.967  0.000    29.110     8.849
1271   6 C     -0.033  1.076  2.957  0.000    28.820     8.804
1272   6 C     -0.035  1.080  2.954  0.000    28.865     8.811
1273   6 C     -0.032  1.076  2.955  0.000    28.792     8.800
1274   1 H      0.238  0.762  0.000  0.000     0.932     1.512
1275   1 H      0.022  0.978  0.000  0.000     2.709     2.574
1276   1 H      0.049  0.951  0.000  0.000     2.333     2.388
1277   1 H      0.078  0.922  0.000  0.000     2.002     2.213
1278   1 H     -0.002  1.002  0.000  0.000     3.085     2.747
1279   1 H      0.053  0.947  0.000  0.000     2.284     2.363
1280   1 H      0.035  0.965  0.000  0.000     2.523     2.484
1281   1 H      0.073  0.927  0.000  0.000     2.050     2.239
1282   1 H      0.056  0.944  0.000  0.000     2.241     2.341
1283   7 N     -0.416  1.333  4.083  0.000    30.813     8.244
1284   6 C      0.037  1.057  2.906  0.000    19.974     6.366
1285   6 C      0.270  1.052  2.678  0.000    22.439     7.757
1286   8 O     -0.526  1.756  4.770  0.000    24.361     6.617
1287   6 C     -0.051  1.048  3.004  0.000    21.482     6.596
1288   6 C     -0.008  1.053  2.955  0.000    20.685     6.469
1289   6 C     -0.115  1.046  3.068  0.000    22.747     6.800
1290   6 C     -0.122  1.045  3.077  0.000    22.901     6.823
1291   1 H      0.172  0.828  0.000  0.000     1.260     1.759
1292   1 H      0.066  0.934  0.000  0.000     2.128     2.281
1293   1 H     -0.005  1.005  0.000  0.000     3.144     2.773
1294   1 H      0.025  0.975  0.000  0.000     2.665     2.553
1295   1 H      0.035  0.965  0.000  0.000     2.515     2.480
1296   1 H      0.074  0.926  0.000  0.000     2.037     2.232
1297   1 H      0.016  0.984  0.000  0.000     2.802     2.618
1298   1 H      0.042  0.958  0.000  0.000     2.424     2.435
1299   1 H      0.072  0.928  0.000  0.000     2.061     2.245
1300   1 H      0.046  0.954  0.000  0.000     2.366     2.406
1301   1 H      0.042  0.958  0.000  0.000     2.423     2.434
1302   7 N     -0.177  1.247  3.930  0.000    24.844     7.403
1303   6 C      0.014  1.035  2.951  0.000    20.403     6.443
1304   6 C      0.287  1.036  2.677  0.000    22.141     7.705
1305   8 O     -0.529  1.753  4.775  0.000    24.433     6.627
1306   1 H      0.219  0.781  0.000  0.000     1.012     1.576
1307   1 H      0.016  0.984  0.000  0.000     2.791     2.613
1308   1 H      0.017  0.983  0.000  0.000     2.779     2.607
1309   7 N     -0.180  1.254  3.926  0.000    24.909     7.413
1310   6 C      0.034  1.056  2.910  0.000    20.008     6.370
1311   6 C      0.175  1.069  2.755  0.000    24.221     8.061
1312   8 O     -0.402  1.745  4.657  0.000    21.719     6.248
1313   6 C     -0.077  1.055  3.022  0.000    21.941     6.664
1314   6 C     -0.008  1.045  2.963  0.000    20.690     6.469
1315   6 C     -0.122  1.045  3.077  0.000    22.874     6.817
1316   6 C     -0.109  1.041  3.068  0.000    22.635     6.782
1317   1 H      0.224  0.776  0.000  0.000     0.992     1.561
1318   1 H      0.072  0.928  0.000  0.000     2.062     2.245
1319   1 H      0.063  0.937  0.000  0.000     2.169     2.303
1320   1 H      0.092  0.908  0.000  0.000     1.857     2.131
1321   1 H      0.005  0.995  0.000  0.000     2.973     2.696
1322   1 H      0.053  0.947  0.000  0.000     2.281     2.362
1323   1 H      0.044  0.956  0.000  0.000     2.399     2.422
1324   1 H      0.072  0.928  0.000  0.000     2.059     2.244
1325   1 H      0.038  0.962  0.000  0.000     2.481     2.463
1326   1 H      0.063  0.937  0.000  0.000     2.166     2.302
1327   1 H      0.022  0.978  0.000  0.000     2.709     2.574
1328   7 N     -0.406  1.330  4.077  0.000    30.551     8.209
1329   6 C      0.030  1.058  2.912  0.000    20.079     6.383
1330   6 C      0.268  1.051  2.682  0.000    22.479     7.764
1331   8 O     -0.529  1.765  4.764  0.000    24.445     6.629
1332   6 C     -0.056  1.048  3.008  0.000    21.564     6.609
1333   6 C     -0.011  1.055  2.956  0.000    20.740     6.477
1334   6 C     -0.110  1.045  3.066  0.000    22.666     6.788
1335   6 C     -0.124  1.045  3.079  0.000    22.926     6.827
1336   1 H      0.171  0.829  0.000  0.000     1.266     1.763
1337   1 H      0.065  0.935  0.000  0.000     2.136     2.286
1338   1 H      0.005  0.995  0.000  0.000     2.965     2.693
1339   1 H      0.018  0.982  0.000  0.000     2.765     2.600
1340   1 H      0.044  0.956  0.000  0.000     2.400     2.423
1341   1 H      0.074  0.926  0.000  0.000     2.039     2.233
1342   1 H      0.012  0.988  0.000  0.000     2.856     2.643
1343   1 H      0.036  0.964  0.000  0.000     2.501     2.473
1344   1 H      0.077  0.923  0.000  0.000     2.008     2.216
1345   1 H      0.037  0.963  0.000  0.000     2.489     2.467
1346   1 H      0.049  0.951  0.000  0.000     2.336     2.390
1347   7 N     -0.184  1.253  3.930  0.000    24.978     7.423
1348   6 C      0.012  1.040  2.948  0.000    20.449     6.451
1349   6 C      0.152  1.048  2.800  0.000    24.694     8.138
1350   8 O     -0.518  1.773  4.745  0.000    24.192     6.594
1351   1 H      0.228  0.772  0.000  0.000     0.972     1.545
1352   1 H      0.004  0.996  0.000  0.000     2.997     2.707
1353   1 H      0.027  0.973  0.000  0.000     2.633     2.537
1354   7 N     -0.399  1.329  4.070  0.000    30.341     8.181
1355   6 C     -0.004  1.041  2.963  0.000    20.723     6.496
1356   6 C      0.283  1.039  2.678  0.000    22.200     7.715
1357   8 O     -0.488  1.732  4.756  0.000    23.513     6.501
1358   1 H      0.134  0.866  0.000  0.000     1.518     1.930
1359   1 H      0.074  0.926  0.000  0.000     2.043     2.235
1360   1 H      0.048  0.952  0.000  0.000     2.349     2.397
1361   7 N     -0.176  1.240  3.936  0.000    24.803     7.397
1362   6 C     -0.020  1.055  2.965  0.000    21.010     6.541
1363   6 C      0.365  1.025  2.610  0.000    20.811     7.466
1364   8 O     -0.616  1.760  4.857  0.000    26.521     6.905
1365   8 O     -0.615  1.745  4.870  0.000    26.488     6.900
1366   1 H      0.165  0.835  0.000  0.000     1.302     1.788
1367   1 H     -0.001  1.001  0.000  0.000     3.069     2.739
1368   1 H      0.069  0.931  0.000  0.000     2.102     2.267
1369   1 H      0.065  0.935  0.000  0.000     2.139     2.287
1370   1 H      0.179  0.821  0.000  0.000     1.218     1.729
1371   1 H      0.081  0.919  0.000  0.000     1.963     2.191
1372   1 H      0.168  0.832  0.000  0.000     1.286     1.776
1373   1 H      0.071  0.929  0.000  0.000     2.074     2.252
1374   1 H      0.211  0.789  0.000  0.000     1.052     1.607
1375   1 H      0.079  0.921  0.000  0.000     1.991     2.206
1376   1 H      0.179  0.821  0.000  0.000     1.219     1.730
1377   1 H      0.074  0.926  0.000  0.000     2.038     2.232
1378   1 H      0.181  0.819  0.000  0.000     1.208     1.722
1379   1 H      0.078  0.922  0.000  0.000     2.001     2.212
1380   1 H      0.181  0.819  0.000  0.000     1.209     1.722
1381   1 H      0.075  0.925  0.000  0.000     2.030     2.228
1382   1 H      0.191  0.809  0.000  0.000     1.154     1.682
1383   1 H      0.083  0.917  0.000  0.000     1.950     2.183
1384   1 H      0.186  0.814  0.000  0.000     1.178     1.700
1385   1 H      0.062  0.938  0.000  0.000     2.170     2.303
1386   1 H      0.180  0.820  0.000  0.000     1.211     1.724
1387   1 H      0.085  0.915  0.000  0.000     1.930     2.173
1388   1 H      0.181  0.819  0.000  0.000     1.210     1.723
1389   1 H      0.051  0.949  0.000  0.000     2.303     2.373
1390   1 H      0.191  0.809  0.000  0.000     1.152     1.681
1391   1 H      0.064  0.936  0.000  0.000     2.152     2.294
1392   1 H      0.203  0.797  0.000  0.000     1.088     1.634
1393   1 H      0.072  0.928  0.000  0.000     2.062     2.245
1394   1 H      0.199  0.801  0.000  0.000     1.112     1.651
1395   1 H      0.061  0.939  0.000  0.000     2.184     2.311
1396   1 H      0.198  0.802  0.000  0.000     1.116     1.655
1397   1 H      0.043  0.957  0.000  0.000     2.404     2.424
1398   1 H      0.206  0.794  0.000  0.000     1.073     1.623
1399   1 H      0.054  0.946  0.000  0.000     2.265     2.353
1400   1 H      0.204  0.796  0.000  0.000     1.087     1.633

 Mol. C6AA /au·bohr⁶  :   18371112.710396
 Mol. C8AA /au·bohr⁸  :  411051405.126762
 Mol. α(0) /au        :       6411.334657

 
molecular dipole:
                 x           y           z       tot (Debye)
 q only:    -1021.556   -1119.201   -3039.590
   full:    -1014.373   -1114.140   -3033.380    8609.034
molecular quadrupole (traceless):
                xx          xy          yy          xz          yz          zz
 q only:   521427.434 -215657.580  493534.940 -581571.739 -638517.894-1014962.374
  q+dip:   520083.313 -213681.577  491402.156 -576069.400 -634338.671-1011485.469
   full:   520079.456 -213675.996  491406.790 -576072.181 -634336.341-1011486.247
speedup  1.96
cpu  time for grad   12 m  2.8 s
wall time for grad    6 m  8.8 s

SCC energy    :   -2186.9019234
rep           :      25.8426517
ES            :      10.6735124
AES           :      -0.9018508
AXC           :       0.6332129
disp          :      -2.0495315
XB            :       0.0000000
fix           :       0.0000000
Gborn         :       0.0000000
Gsasa         :       0.0000000
Ghb           :       0.0000000
Gshift        :       0.0000000
Gsolv         :      -4.6906191    -2943.41
Etot ala COSMO:   -2186.9019234
grad norm     :       1.1046989
total E       :   -2160.8056065
atomizationE  :     395.1677508   247971.51
(atE without considering molecular charge,
 total energy contains solvation terms)
H-L gap (eV)  :          0.0115

------------------------------------------------------------------------
 * finished run on 2019/05/06 at 02:52:14.510     
------------------------------------------------------------------------
 total:
 * wall-time:     0 d,  0 h,  6 min, 14.993 sec
 *  cpu-time:     0 d,  0 h, 12 min, 10.720 sec
 * ratio c/w:     1.949 speedup
 SCF:
 * wall-time:     0 d,  0 h,  6 min, 11.485 sec
 *  cpu-time:     0 d,  0 h, 12 min,  6.931 sec
 * ratio c/w:     1.957 speedup

