      -----------------------------------------------------------      
     |                   =====================                   |     
     |                           x T B                           |     
     |                   =====================                   |     
     |                         S. Grimme                         |     
     |          Mulliken Center for Theoretical Chemistry        |     
     |                    University of Bonn                     |     
     |                 Version 6.0.1 (SAW181210)                 |     
      -----------------------------------------------------------      

   This program is distributed in the hope that it will be useful,
   but WITHOUT ANY WARRANTY; without even the implied warranty of
   MERCHANTABILITY or FITNESS FOR A PARTICULAR PURPOSE.
   
   FOR NON-COMMERCIAL, ACADEMIA USE ONLY.
   
   Cite this work as:
   S. Grimme, C. Bannwarth, P. Shushkov, J. Comput. Theory Chem., 2017,
   13, 1989-2009.
   C. Bannwarth, S. Ehlert and S. Grimme., ChemRxiv, 2018, preprint.
   http://doi.org/10.26434/chemrxiv.7246238.v1
   
   for sTDA-xTB:
   S. Grimme and C. Bannwarth, J. Chem. Phys., 2016, 145, 054103.
   
   in the mass-spec context:
   V. Asgeirsson, C. Bauer and S. Grimme, Chem. Sci., 2017, 8, 4879.
   
   if GBSA is used:
   P. Shushkov, F. März and S. Grimme, unpublished.
   
   for ANC optimizer:
   S. Grimme, unpublished.
   Rational Function algorithm used in ANCopt:
   F. Eckert, P. Pulay, H.-J. Werner, J. Comput. Chem., 1997, 18, 1473.
   
   with help from (in alphabetical order)
   C. Bannwarth, F. Bohle, G. Brandenburg, E. Caldeweyher, M. Checinski,
   S. Dohm, S. Ehlert, S. Ehrlich, F. März, H. Neugebauer, J. Pisarek,
   P. Pracht, P. Shushkov, and S. Spicher.
   
 * started run on 2019/05/12 at 13:12:31.543     
========================================================================
 # omp threads = 2
========================================================================
number of atoms            : 358
number of electrons        : 980
charge                     : -2
spin                       : .0
first test random number   : .1265

########################################################################
# WARNING! Please study the warnings concerning your input carefully
#  - Process number higher than OMP_NUM_THREADS, I hope you know what you are doing.
########################################################################

           ------------------------------------------------- 
          |                 G F N 2 - x T B                 |
          | Geometry, Frequencies, Noncovalent interactions |
          |            JCTC 2018 parametrisation            |
           ------------------------------------------------- 
 
      method parameters     
 k(s)        :  1.8500
 k(p)        :  2.2300
 k(d)        :  2.2300
 k(f)        :  2.0000
 kEN (H0ij)  : -2.0000
 D4 a1       :  0.5200
 D4 a2       :  5.0000
 D4 s6       :  1.0000
 D4 s8       :  2.7000
 D4 s9       :  5.0000
 alphaj      :  2.0000

 Solvent             : h2o
 Using internal parameter file: .param_gbsa2_h2o
 Gsolv ref. state (COSMO-RS): gsolv [1 M gas/solution]
 temperature (mdtemp)       :    298.150000000000     
 dielectric constant        :    80.2000000000000     
 rho                        :    1.00000000000000     
 mass                       :    18.0000000000000     
 surface tension            :    15.5689454083859     
 probe radius               :   0.975313790000000     
 vdW radii scaling          :    1.00000000000000     
 Gshift (Eh)                :   1.857443126794793E-003
 c1                         :    1.55243817000000     
 soset                      :   0.130326360000000     
 HB correction              :  T

            Z     q(EN)     CN     RAES       Cart. coordinates
     1  N   5.0   -0.21    3.21    1.96    30.80512    64.03963   168.68837
     2  C   4.0    0.03    4.30    4.20    31.15583    66.46710   169.91293
     3  C   4.0    0.15    3.47    3.10    30.19058    68.62867   168.24723
     4  O   6.0   -0.32    1.28    1.80    31.05170    68.97903   166.10880
     5  C   4.0   -0.04    4.40    4.38    33.99626    66.97778   170.23942
     6  C   4.0   -0.03    4.18    3.96    35.29436    65.26703   172.16177
     7  C   4.0   -0.08    4.11    3.81    38.05429    64.86798   171.44379
     8  C   4.0   -0.08    4.12    3.84    35.10511    66.44038   174.78058
     9  H   1.0    0.08    1.03    1.43    31.84622    63.76063   167.10438
    10  H   1.0    0.04    1.05    1.44    30.15222    66.42994   171.71782
    11  H   1.0    0.05    1.04    1.43    34.86678    66.71523   168.38267
    12  H   1.0    0.05    1.03    1.43    34.28230    68.95300   170.77722
    13  H   1.0    0.03    1.06    1.44    34.34682    63.42476   172.16335
    14  H   1.0    0.03    1.00    1.43    39.01291    63.69219   172.83063
    15  H   1.0    0.04    1.00    1.43    38.23526    63.95804   169.60837
    16  H   1.0    0.05    1.00    1.43    39.08358    66.64452   171.33746
    17  H   1.0    0.03    1.00    1.43    35.87388    65.16587   176.18963
    18  H   1.0    0.04    1.00    1.43    36.19062    68.18838   174.84857
    19  H   1.0    0.04    1.00    1.43    33.15043    66.86458   175.24438
    20  N   5.0   -0.14    3.48    2.07    28.41040    70.13552   169.21402
    21  C   4.0    0.04    4.55    4.61    27.56079    72.25299   167.69785
    22  C   4.0    0.16    3.49    3.11    29.75231    74.12220   167.51262
    23  O   6.0   -0.32    1.33    1.80    31.11487    74.61227   169.33086
    24  C   4.0   -0.02    4.25    4.11    25.07825    73.33080   168.70767
    25  C   4.0   -0.07    4.13    3.87    24.35320    75.71650   167.27833
    26  C   4.0   -0.08    4.12    3.85    22.98288    71.35982   168.44952
    27  H   1.0    0.10    1.08    1.44    28.00691    70.13148   171.08991
    28  H   1.0    0.05    1.07    1.44    27.22262    71.52775   165.78542
    29  H   1.0    0.05    1.06    1.44    25.31279    73.78045   170.71117
    30  H   1.0    0.04    1.01    1.43    22.50094    76.33690   167.89898
    31  H   1.0    0.07    1.01    1.43    25.67466    77.24933   167.61622
    32  H   1.0    0.05    1.00    1.43    24.28087    75.36296   165.25366
    33  H   1.0    0.03    1.00    1.43    21.25769    72.09485   169.27956
    34  H   1.0    0.04    1.00    1.43    22.62903    70.97245   166.46372
    35  H   1.0    0.04    1.00    1.43    23.49562    69.60951   169.38965
    36  N   5.0   -0.14    3.48    2.07    30.23024    74.95114   165.18119
    37  C   4.0    0.04    4.39    4.37    32.22462    76.72509   164.59119
    38  C   4.0    0.15    3.46    3.10    34.86378    75.82128   165.41373
    39  O   6.0   -0.32    1.28    1.80    36.58563    77.33601   165.62737
    40  C   4.0   -0.02    4.34    4.26    31.78201    79.32304   165.83029
    41  C   4.0    0.15    3.21    3.04    29.31161    80.55918   165.02211
    42  O   6.0   -0.30    1.21    1.80    27.56058    80.80611   166.50395
    43  N   5.0   -0.18    3.18    1.95    29.19975    81.30056   162.59069
    44  H   1.0    0.11    1.10    1.44    28.95261    74.62117   163.77767
    45  H   1.0    0.05    1.05    1.44    32.25602    76.93059   162.53285
    46  H   1.0    0.06    1.03    1.43    31.71492    79.06356   167.87309
    47  H   1.0    0.05    1.03    1.43    33.37610    80.54130   165.36367
    48  H   1.0    0.11    1.03    1.43    27.66110    82.26048   162.00957
    49  H   1.0    0.08    1.03    1.43    30.74839    81.36059   161.49096
    50  N   5.0   -0.14    3.48    2.07    35.15673    73.34693   165.89565
    51  C   4.0    0.04    4.45    4.46    37.52360    72.37776   166.87393
    52  C   4.0    0.15    3.47    3.10    38.21193    73.44177   169.47871
    53  O   6.0   -0.31    1.31    1.80    40.36295    73.25536   170.29108
    54  C   4.0   -0.02    4.35    4.29    39.81115    72.82595   165.15988
    55  C   4.0    0.16    3.31    3.05    41.90695    71.04610   166.05219
    56  O   6.0   -0.31    1.21    1.80    41.54582    68.76025   166.03206
    57  N   5.0   -0.18    3.16    1.95    44.15554    72.09046   166.57229
    58  H   1.0    0.10    1.08    1.44    33.78058    72.08636   165.49035
    59  H   1.0    0.05    1.06    1.44    37.32918    70.33083   167.11397
    60  H   1.0    0.05    1.03    1.43    39.30494    72.30453   163.23145
    61  H   1.0    0.06    1.03    1.43    40.39385    74.79442   165.23223
    62  H   1.0    0.09    1.02    1.43    45.32587    70.93842   167.65804
    63  H   1.0    0.09    1.04    1.43    44.16540    73.93507   167.03213
    64  N   5.0   -0.14    3.51    2.09    36.33667    74.50938   170.80890
    65  C   4.0    0.04    4.41    4.40    36.89087    75.70652   173.20352
    66  C   4.0    0.14    3.41    3.08    34.69273    75.67345   175.06481
    67  O   6.0   -0.33    1.29    1.80    34.79534    76.91405   177.00969
    68  C   4.0   -0.03    4.28    4.15    37.91198    78.41432   172.88808
    69  C   4.0   -0.04    4.18    3.96    36.28079    80.09133   171.18824
    70  C   4.0   -0.05    4.16    3.91    36.98865    82.87973   171.52909
    71  C   4.0   -0.03    4.11    3.83    35.67936    84.03255   173.84374
    72  N   5.0   -0.12    4.01    2.90    37.33566    85.82941   175.25199
    73  H   1.0    0.11    1.11    1.45    34.62847    74.83951   169.99894
    74  H   1.0    0.05    1.06    1.44    38.40116    74.58600   174.09550
    75  H   1.0    0.06    1.03    1.43    38.04648    79.21952   174.78387
    76  H   1.0    0.05    1.03    1.43    39.81436    78.29631   172.10532
    77  H   1.0    0.06    1.03    1.43    36.57335    79.53968   169.22586
    78  H   1.0    0.05    1.03    1.43    34.28478    79.82593   171.64028
    79  H   1.0    0.04    1.03    1.43    39.03401    82.98280   171.75407
    80  H   1.0    0.04    1.02    1.43    36.47118    83.92359   169.83327
    81  H   1.0    0.04    1.02    1.43    33.96917    85.01114   173.24805
    82  H   1.0    0.05    1.03    1.43    35.14855    82.54556   175.16691
    83  H   1.0    0.05    1.02    1.43    36.32894    87.35778   175.87641
    84  H   1.0    0.10    1.11    1.45    38.04644    84.89154   176.92005
    85  H   1.0    0.05    1.02    1.43    38.81134    86.43717   174.15909
    86  N   5.0   -0.14    3.48    2.06    32.73479    74.12855   174.56947
    87  C   4.0    0.04    4.40    4.38    30.44068    74.34903   176.05360
    88  C   4.0    0.15    3.39    3.07    29.28644    71.70475   176.40211
    89  O   6.0   -0.33    1.27    1.80    28.08032    70.65696   174.72398
    90  C   4.0    0.04    4.15    3.90    28.64148    76.20265   174.72343
    91  O   6.0   -0.26    2.07    1.83    27.10529    77.42018   176.51195
    92  H   1.0    0.10    1.09    1.44    32.47446    73.46419   172.79336
    93  H   1.0    0.06    1.07    1.44    30.96149    75.13703   177.89226
    94  H   1.0    0.05    1.01    1.43    29.78240    77.59575   173.68855
    95  H   1.0    0.05    1.01    1.43    27.49683    75.16047   173.35038
    96  H   1.0    0.12    1.03    1.43    25.86182    78.41666   175.62054
    97  N   5.0   -0.14    3.45    2.05    29.79849    70.57797   178.60291
    98  C   4.0    0.03    4.41    4.39    28.67188    68.16155   179.30363
    99  C   4.0    0.15    3.46    3.10    25.95095    68.67494   180.13852
   100  O   6.0   -0.30    1.25    1.80    25.48913    70.33982   181.68171
   101  C   4.0   -0.05    4.38    4.34    30.02807    66.96368   181.55129
   102  C   4.0   -0.03    4.17    3.95    32.48186    65.58489   180.90086
   103  C   4.0   -0.09    4.11    3.83    33.89264    65.02348   183.35456
   104  C   4.0   -0.09    4.11    3.82    31.94568    63.12251   179.49983
   105  H   1.0    0.08    1.06    1.44    30.61006    71.55231   180.04447
   106  H   1.0    0.04    1.05    1.44    28.69802    66.93197   177.64269
   107  H   1.0    0.05    1.03    1.43    30.43814    68.46192   182.91067
   108  H   1.0    0.04    1.03    1.43    28.74116    65.62885   182.46257
   109  H   1.0    0.04    1.05    1.44    33.65532    66.83930   179.74892
   110  H   1.0    0.03    1.00    1.43    35.74304    64.23618   182.94837
   111  H   1.0    0.03    1.00    1.43    34.16643    66.74289   184.45123
   112  H   1.0    0.03    1.00    1.43    32.83124    63.68675   184.50183
   113  H   1.0    0.03    1.00    1.43    33.68654    62.09655   179.13633
   114  H   1.0    0.03    1.00    1.43    30.73226    61.93741   180.65346
   115  H   1.0    0.03    1.00    1.43    31.02570    63.45839   177.69483
   116  N   5.0   -0.13    3.48    2.07    24.14604    67.21878   179.12359
   117  C   4.0    0.03    4.41    4.40    21.53318    67.98201   179.26819
   118  C   4.0    0.07    3.22    3.04    19.95868    65.99872   180.59672
   119  O   6.0   -0.30    1.13    1.80    20.68248    63.85257   181.04661
   120  C   4.0   -0.03    4.25    4.10    20.48883    68.58700   176.60472
   121  C   4.0   -0.07    4.11    3.82    21.92384    70.80701   175.44178
   122  C   4.0   -0.08    4.12    3.84    20.59994    66.28269   174.87489
   123  H   1.0    0.07    1.07    1.44    24.58145    65.88531   177.83265
   124  H   1.0    0.06    1.07    1.44    21.48328    69.70878   180.41490
   125  H   1.0    0.03    1.05    1.44    18.50920    69.15265   176.82172
   126  H   1.0    0.04    1.00    1.43    21.06665    71.32682   173.65105
   127  H   1.0    0.05    1.00    1.43    21.83632    72.44883   176.67779
   128  H   1.0    0.06    1.01    1.43    23.89609    70.34576   175.10455
   129  H   1.0    0.03    1.00    1.43    19.64319    66.72988   173.11210
   130  H   1.0    0.04    1.00    1.43    22.53869    65.77905   174.41218
   131  H   1.0    0.04    1.00    1.43    19.67121    64.66674   175.74734
   132  N   5.0   -0.22    3.25    1.97     9.41627    74.21629   169.48880
   133  C   4.0    0.02    4.41    4.39    12.03239    74.58181   168.76939
   134  C   4.0    0.14    3.44    3.09    12.24592    76.80195   166.91836
   135  O   6.0   -0.33    1.28    1.80    14.05501    78.25074   166.93694
   136  C   4.0   -0.03    4.33    4.25    13.21086    72.20778   167.59905
   137  C   4.0   -0.06    4.19    3.98    12.88765    69.84228   169.24392
   138  C   4.0   -0.08    4.14    3.89    16.01293    72.67816   167.09651
   139  C   4.0   -0.08    4.02    3.66    13.85938    70.13436   171.93870
   140  H   1.0    0.07    1.02    1.43     8.62922    72.47199   169.47066
   141  H   1.0    0.04    1.05    1.44    13.10434    75.14729   170.45901
   142  H   1.0    0.03    1.05    1.44    12.24840    71.86511   165.79560
   143  H   1.0    0.03    1.03    1.43    10.90328    69.30314   169.31353
   144  H   1.0    0.03    1.03    1.43    13.91515    68.31281   168.31275
   145  H   1.0    0.03    1.00    1.43    16.85485    70.99595   166.27622
   146  H   1.0    0.05    1.00    1.43    16.27525    74.25346   165.80697
   147  H   1.0    0.04    1.00    1.43    16.98810    73.13883   168.84214
   148  H   1.0    0.03    1.00    1.43    13.73183    68.33233   172.91227
   149  H   1.0    0.03    1.00    1.43    15.81894    70.74256   171.96084
   150  H   1.0    0.04    1.00    1.43    12.73983    71.50675   172.98519
   151  N   5.0   -0.15    3.48    2.07    10.44544    76.91570   165.16831
   152  C   4.0    0.03    4.33    4.25    10.51925    78.73525   163.11548
   153  C   4.0    0.09    3.25    3.04    10.10406    81.38849   164.16783
   154  O   6.0   -0.32    1.17    1.80    11.50060    83.17078   163.67551
   155  C   4.0   -0.05    4.33    4.25     8.48210    78.04904   161.16962
   156  C   4.0   -0.02    3.55    3.14     8.76218    79.50104   158.74536
   157  C   4.0   -0.05    3.47    3.10    10.82559    79.03590   157.18463
   158  C   4.0   -0.05    3.45    3.10     6.99376    81.28859   158.00071
   159  C   4.0   -0.06    3.43    3.09    11.10076    80.27639   154.90590
   160  C   4.0   -0.05    3.43    3.09     7.25832    82.56050   155.73269
   161  C   4.0    0.06    3.44    3.09     9.30713    82.05313   154.15267
   162  O   6.0   -0.26    2.11    1.84     9.45670    83.28534   151.91717
   163  H   1.0    0.07    1.07    1.44     9.08685    75.56683   165.09600
   164  H   1.0    0.05    1.05    1.44    12.41086    78.70107   162.26163
   165  H   1.0    0.03    1.03    1.43     8.67585    76.03032   160.79234
   166  H   1.0    0.03    1.03    1.43     6.63124    78.36770   162.01619
   167  H   1.0    0.04    1.03    1.43    12.22440    77.67065   157.76702
   168  H   1.0    0.04    1.03    1.43     5.41456    81.69318   159.22309
   169  H   1.0    0.04    1.03    1.43    12.70746    79.87878   153.71412
   170  H   1.0    0.05    1.03    1.43     5.94890    84.02761   155.19471
   171  H   1.0    0.11    1.03    1.43    11.07132    82.88106   151.10751
   172  N   5.0   -0.19    3.26    1.97    11.22456    83.48142   169.37568
   173  C   4.0    0.04    4.33    4.26    13.16370    84.32163   171.09797
   174  C   4.0    0.15    3.42    3.08    15.79988    84.58453   169.95173
   175  O   6.0   -0.30    1.23    1.80    17.35568    85.98192   170.94222
   176  C   4.0   -0.03    4.28    4.16    13.32117    82.50873   173.33401
   177  C   4.0    0.24    3.10    3.02    10.87460    82.45249   174.97810
   178  O   6.0   -0.30    1.20    1.80     9.12578    83.91156   174.35003
   179  O   6.0   -0.30    1.16    1.80    10.84230    80.96941   176.79402
   180  H   1.0    0.09    1.03    1.43    10.59640    81.69500   169.65383
   181  H   1.0    0.06    1.05    1.44    12.64435    86.21144   171.78783
   182  H   1.0    0.05    1.03    1.43    13.66059    80.58320   172.67044
   183  H   1.0    0.06    1.03    1.43    14.89506    83.02511   174.56536
   184  N   5.0   -0.14    3.50    2.07    16.24032    83.29050   167.80996
   185  C   4.0    0.04    4.42    4.42    18.77978    83.14608   166.82447
   186  C   4.0    0.15    3.46    3.10    18.94907    83.50758   163.96262
   187  O   6.0   -0.29    1.30    1.80    20.94378    83.09382   162.84616
   188  C   4.0   -0.03    4.35    4.29    20.06993    80.60924   167.44967
   189  C   4.0   -0.01    3.56    3.15    19.93287    79.92632   170.19434
   190  C   4.0   -0.05    3.49    3.11    18.10709    78.22782   171.01605
   191  C   4.0   -0.03    3.46    3.10    21.59216    80.92174   171.96087
   192  C   4.0   -0.04    3.44    3.09    17.89650    77.56188   173.52383
   193  C   4.0   -0.04    3.43    3.09    21.39417    80.27769   174.49091
   194  C   4.0    0.07    3.44    3.09    19.51355    78.62810   175.29899
   195  O   6.0   -0.24    2.11    1.84    19.17190    77.99654   177.77384
   196  H   1.0    0.11    1.09    1.44    15.05069    81.84599   167.38676
   197  H   1.0    0.07    1.07    1.44    19.84128    84.68394   167.72613
   198  H   1.0    0.05    1.04    1.43    19.11956    79.15348   166.33916
   199  H   1.0    0.06    1.03    1.43    22.03047    80.75554   166.82778
   200  H   1.0    0.07    1.05    1.44    16.80663    77.46737   169.65127
   201  H   1.0    0.06    1.03    1.43    23.04461    82.22090   171.35298
   202  H   1.0    0.05    1.03    1.43    16.45377    76.27687   174.18031
   203  H   1.0    0.05    1.03    1.43    22.64066    81.13026   175.87075
   204  H   1.0    0.12    1.03    1.43    20.33064    78.92600   178.83683
   205  N   5.0   -0.13    3.47    2.06    16.85678    84.20292   162.72019
   206  C   4.0    0.03    4.42    4.42    17.03634    84.60558   160.00488
   207  C   4.0    0.17    3.52    3.12    19.21955    86.46130   159.53320
   208  O   6.0   -0.27    1.25    1.80    19.75552    88.16893   160.98567
   209  C   4.0   -0.05    4.23    4.06    14.54196    85.50354   158.81737
   210  C   4.0   -0.04    4.20    4.01    14.21072    88.38483   158.69701
   211  C   4.0   -0.05    4.16    3.91    11.62255    89.27117   159.62339
   212  C   4.0   -0.03    4.15    3.90    11.50885    89.03116   162.49232
   213  N   5.0   -0.12    4.00    2.85     9.14922    90.11075   163.58028
   214  H   1.0    0.10    1.08    1.44    15.18005    84.43109   163.61143
   215  H   1.0    0.04    1.06    1.44    17.59594    82.79860   159.14304
   216  H   1.0    0.04    1.03    1.43    14.43908    84.72095   156.91354
   217  H   1.0    0.06    1.04    1.43    13.02060    84.63679   159.90199
   218  H   1.0    0.07    1.05    1.44    15.65825    89.30096   159.83905
   219  H   1.0    0.05    1.02    1.43    14.51850    89.03863   156.76853
   220  H   1.0    0.03    1.03    1.43    11.39604    91.23928   159.05742
   221  H   1.0    0.04    1.02    1.43    10.14747    88.14528   158.72691
   222  H   1.0    0.06    1.04    1.43    11.60571    87.04596   163.02844
   223  H   1.0    0.05    1.02    1.43    13.12574    89.99753   163.32435
   224  H   1.0    0.05    1.01    1.43     9.10498    89.53992   165.47921
   225  H   1.0    0.04    1.02    1.43     9.15668    92.04905   163.44782
   226  H   1.0    0.05    1.02    1.43     7.60192    89.43036   162.62102
   227  N   5.0   -0.13    3.47    2.06    20.49895    86.02056   157.39101
   228  C   4.0    0.04    4.29    4.18    22.56059    87.60344   156.55150
   229  C   4.0    0.09    3.19    3.03    21.59809    90.15872   155.52547
   230  O   6.0   -0.29    1.13    1.80    19.41591    90.86564   155.78579
   231  C   4.0   -0.04    4.26    4.12    24.11657    86.13434   154.61452
   232  C   4.0    0.24    3.10    3.02    26.85171    87.03824   154.26429
   233  O   6.0   -0.29    1.17    1.80    28.51138    86.01034   155.60818
   234  O   6.0   -0.29    1.16    1.80    27.33811    88.64486   152.60150
   235  H   1.0    0.07    1.07    1.44    19.85174    84.77568   156.09478
   236  H   1.0    0.07    1.05    1.44    23.71395    88.08228   158.22112
   237  H   1.0    0.05    1.04    1.43    24.21461    84.17522   155.25184
   238  H   1.0    0.05    1.03    1.43    23.13814    86.18989   152.79784
   239  N   5.0   -0.21    3.24    1.96    19.17072    77.87917   153.71341
   240  C   4.0    0.03    4.42    4.41    20.18065    77.45678   156.22356
   241  C   4.0    0.15    3.46    3.10    22.31214    75.52871   155.93521
   242  O   6.0   -0.31    1.24    1.80    21.96286    73.45313   154.96961
   243  C   4.0   -0.02    4.25    4.11    18.18057    76.60802   158.13955
   244  C   4.0   -0.08    4.12    3.84    16.70269    74.31614   157.23334
   245  C   4.0   -0.07    4.14    3.88    19.51681    76.07828   160.63498
   246  H   1.0    0.08    1.02    1.43    18.46677    76.37099   152.76546
   247  H   1.0    0.04    1.06    1.44    20.96109    79.26906   156.85583
   248  H   1.0    0.04    1.05    1.44    16.88601    78.20530   158.40156
   249  H   1.0    0.03    1.00    1.43    15.35390    73.74252   158.67392
   250  H   1.0    0.04    1.00    1.43    15.67820    74.73250   155.50092
   251  H   1.0    0.05    1.01    1.43    17.99816    72.76073   156.89429
   252  H   1.0    0.04    1.00    1.43    18.15441    75.54747   162.07868
   253  H   1.0    0.05    1.00    1.43    20.87059    74.54329   160.43220
   254  H   1.0    0.05    1.00    1.43    20.51692    77.75056   161.30013
   255  N   5.0   -0.14    3.46    2.05    24.60088    76.32891   156.63589
   256  C   4.0    0.03    4.41    4.40    26.85602    74.82062   156.28425
   257  C   4.0    0.14    3.40    3.08    27.41626    73.28865   158.69299
   258  O   6.0   -0.32    1.28    1.80    27.25052    74.24259   160.80283
   259  C   4.0   -0.03    4.32    4.23    29.15246    76.50671   155.72984
   260  C   4.0   -0.01    3.52    3.12    29.23390    77.62300   153.10748
   261  C   4.0   -0.03    3.46    3.10    27.57105    79.51351   152.33302
   262  C   4.0   -0.05    3.47    3.10    31.13035    76.89537   151.44362
   263  C   4.0   -0.03    3.43    3.09    27.85211    80.71312   150.03140
   264  C   4.0   -0.05    3.43    3.09    31.41070    78.06171   149.12303
   265  C   4.0    0.07    3.44    3.09    29.80470    80.01466   148.40636
   266  O   6.0   -0.25    2.11    1.84    30.12191    81.30178   146.20422
   267  H   1.0    0.08    1.07    1.44    24.80088    77.96257   157.59624
   268  H   1.0    0.05    1.06    1.44    26.50031    73.51171   154.72395
   269  H   1.0    0.05    1.03    1.43    29.16298    78.02709   157.12945
   270  H   1.0    0.04    1.04    1.43    30.84869    75.36604   156.00821
   271  H   1.0    0.05    1.03    1.43    26.06160    80.14091   153.55647
   272  H   1.0    0.05    1.03    1.43    32.46744    75.43988   151.95198
   273  H   1.0    0.06    1.03    1.43    26.61814    82.25308   149.51210
   274  H   1.0    0.04    1.03    1.43    32.93737    77.46699   147.90013
   275  H   1.0    0.11    1.03    1.43    31.49838    80.57188   145.24088
   276  N   5.0   -0.14    3.49    2.07    28.13488    70.92055   158.26777
   277  C   4.0    0.04    4.33    4.25    28.71380    69.08224   160.19070
   278  C   4.0    0.08    3.25    3.04    31.12513    67.70734   159.46464
   279  O   6.0   -0.30    1.14    1.80    31.51732    67.09324   157.26250
   280  C   4.0   -0.04    4.40    4.38    26.66661    67.03705   160.31640
   281  C   4.0   -0.04    4.07    3.75    24.11191    68.15466   160.96634
   282  S   6.0   -0.06    2.50    3.10    21.99303    65.56266   161.78209
   283  C   4.0   -0.08    3.88    3.43    19.08039    67.30715   162.29022
   284  H   1.0    0.08    1.07    1.44    28.05240    70.20806   156.48516
   285  H   1.0    0.06    1.05    1.44    28.92492    70.04452   162.00635
   286  H   1.0    0.05    1.03    1.43    26.55287    66.09110   158.48749
   287  H   1.0    0.04    1.05    1.44    27.19549    65.65061   161.74953
   288  H   1.0    0.04    1.06    1.44    24.23734    69.40955   162.60081
   289  H   1.0    0.05    1.06    1.44    23.31434    69.18898   159.37244
   290  H   1.0    0.03    1.04    1.43    17.76507    66.04411   163.22175
   291  H   1.0    0.03    1.04    1.43    19.47866    68.91649   163.49943
   292  H   1.0    0.04    1.03    1.43    18.31526    67.93021   160.49129
   293  N   5.0   -0.20    3.25    1.97    50.32252    71.18686   180.53852
   294  C   4.0    0.03    4.28    4.17    49.65471    73.78121   180.03050
   295  C   4.0    0.25    3.16    3.03    51.35150    75.63974   181.60691
   296  O   6.0   -0.30    1.17    1.80    50.98065    77.92943   181.36990
   297  C   4.0   -0.04    4.32    4.24    46.86063    74.28098   180.66202
   298  C   4.0   -0.02    3.58    3.16    45.19906    72.42188   179.32083
   299  C   4.0   -0.04    3.47    3.10    44.48339    72.79390   176.82532
   300  C   4.0   -0.05    3.48    3.11    44.45336    70.20775   180.51453
   301  C   4.0   -0.04    3.38    3.07    43.07108    70.99979   175.55438
   302  C   4.0   -0.05    3.38    3.07    43.04446    68.40582   179.24816
   303  C   4.0   -0.05    3.37    3.07    42.35328    68.79318   176.75972
   304  O   6.0   -0.30    1.19    1.80    52.95268    74.61129   183.01347
   305  H   1.0    0.08    1.03    1.43    49.97280    70.55424   182.30817
   306  H   1.0    0.04    1.05    1.44    49.98052    74.12579   178.01522
   307  H   1.0    0.04    1.03    1.43    46.58271    74.11598   182.70318
   308  H   1.0    0.05    1.03    1.43    46.43845    76.22023   180.10598
   309  H   1.0    0.05    1.03    1.43    45.04457    74.50306   175.85503
   310  H   1.0    0.04    1.03    1.43    44.97113    69.89089   182.46523
   311  H   1.0    0.07    1.03    1.43    42.54899    71.30428   173.60415
   312  H   1.0    0.04    1.03    1.43    42.49307    66.69464   180.21267
   313  H   1.0    0.04    1.03    1.43    41.28492    67.39204   175.73000
   314  N   5.0   -0.19    3.25    1.97    30.66167    77.06797   184.54896
   315  C   4.0    0.03    4.37    4.34    32.06247    78.33498   182.57773
   316  C   4.0    0.15    3.40    3.08    34.65878    79.15495   183.56224
   317  O   6.0   -0.30    1.23    1.80    34.93206    79.81141   185.77595
   318  C   4.0    0.05    4.24    4.09    30.51147    80.66652   181.73360
   319  O   6.0   -0.26    2.12    1.84    27.95937    80.02010   181.37215
   320  C   4.0   -0.07    4.07    3.75    31.66873    81.88270   179.39642
   321  H   1.0    0.09    1.03    1.43    30.21866    78.14684   186.05666
   322  H   1.0    0.05    1.05    1.44    32.30775    76.99126   181.03078
   323  H   1.0    0.05    1.04    1.43    30.50379    82.00490   183.32007
   324  H   1.0    0.13    1.04    1.44    27.80317    78.96196   179.87238
   325  H   1.0    0.05    1.00    1.43    30.45883    83.42867   178.79806
   326  H   1.0    0.06    1.00    1.43    33.55037    82.58815   179.81616
   327  H   1.0    0.06    1.00    1.43    31.80232    80.47780   177.90356
   328  N   5.0   -0.14    3.50    2.08    36.48837    79.17401   181.83797
   329  C   4.0    0.04    4.37    4.33    39.06904    79.89285   182.34599
   330  C   4.0    0.25    3.17    3.03    39.83018    82.29157   180.76958
   331  O   6.0   -0.30    1.17    1.80    41.99854    83.11526   181.00659
   332  C   4.0   -0.03    4.32    4.24    40.89890    77.72299   181.71447
   333  C   4.0   -0.01    3.58    3.15    40.11966    75.35448   183.05566
   334  C   4.0   -0.04    3.47    3.10    40.79967    74.92070   185.55117
   335  C   4.0   -0.03    3.48    3.11    38.57502    73.60161   181.86196
   336  C   4.0   -0.04    3.38    3.07    39.95208    72.80054   186.82211
   337  C   4.0   -0.04    3.38    3.07    37.71895    71.48050   183.12833
   338  C   4.0   -0.05    3.37    3.07    38.40000    71.07561   185.61677
   339  O   6.0   -0.33    1.35    1.80    38.13893    83.16401   179.36302
   340  H   1.0    0.10    1.10    1.44    36.11537    78.55483   180.06832
   341  H   1.0    0.06    1.06    1.44    39.20456    80.34730   184.36127
   342  H   1.0    0.05    1.03    1.43    40.89497    77.39980   179.67331
   343  H   1.0    0.05    1.03    1.43    42.78943    78.32699   182.27051
   344  H   1.0    0.05    1.03    1.43    41.99926    76.26128   186.52146
   345  H   1.0    0.06    1.03    1.43    38.04172    73.89158   179.91126
   346  H   1.0    0.04    1.03    1.43    40.47683    72.50064   188.77234
   347  H   1.0    0.04    1.03    1.43    36.51271    70.14740   182.16382
   348  H   1.0    0.04    1.03    1.43    37.72076    69.44981   186.64649
   349  H   1.0    0.10    1.08    1.44    29.19032    76.49216   183.91956
   350  H   1.0    0.08    1.07    1.44    31.22679    62.79369   169.76652
   351  H   1.0    0.04    1.05    1.44    18.20494    66.41084   181.16733
   352  H   1.0    0.09    1.07    1.44     9.19004    74.73802   171.09167
   353  H   1.0    0.05    1.05    1.44     8.64078    81.73243   165.31308
   354  H   1.0    0.10    1.07    1.44     9.86574    84.49506   169.51242
   355  H   1.0    0.06    1.05    1.44    22.77807    91.31177   154.60395
   356  H   1.0    0.08    1.07    1.44    17.88456    78.98875   153.79823
   357  H   1.0    0.06    1.04    1.44    32.41151    67.29399   160.78578
   358  H   1.0    0.09    1.08    1.44    49.45369    70.16229   179.49547

  Z AO/shell   Hii/eV     exponent
  1     Wed Apr 25 08:07:45 CEST 2018   EN: 2.200 GM2: 0.406  GM3: 0.0800  RAES: 1.40
     1s    -10.707211    1.230000
  6     Wed Apr 25 08:07:45 CEST 2018   EN: 2.550 GM2: 0.538  GM3: 0.1500  RAES: 3.00
     2s    -13.970922    2.096432
     2p    -10.063292    1.800000
  7     Wed Apr 25 08:07:45 CEST 2018   EN: 3.040 GM2: 0.461  GM3:-0.0640  RAES: 1.90
     2s    -16.686243    2.339881
     2p    -12.523956    2.014332
  8     Wed Apr 25 08:07:45 CEST 2018   EN: 3.440 GM2: 0.452  GM3:-0.0517  RAES: 1.80
     2s    -20.229985    2.439742
     2p    -15.503117    2.137023
 16     Tue Apr 24 11:44:34 CEST 2018   EN: 2.580 GM2: 0.340  GM3:-0.0502  RAES: 3.10
     3s    -20.029654    1.981333
     3p    -11.377694    2.025643
     3d     -0.420282    1.702555
 no old-style atom pair restraining (fixing) potential

molecular fragmentation (1/2 indicates fragments):
111111111111111111111111111111111111111111111111111111111111111111111111
111111111111111111111111111111111111111111111111111111111112222222222222
222222222222222222222222222222222222222222222222222222222222222222222222
222222222222222222222222222222222222222222222222222222222222222222222222
2222222222222222222222222222222222222222222222222222222222222112222222
# atoms in fragment 1/2:   133   225
 fragment masses (1/2) :      871.06     1625.87
CMA distance (Bohr)    :  10.600
constraining FC (au)   :  0.0500
           ------------------------------------------------- 
          |        Self-Consistent Charge Iterations        |
           ------------------------------------------------- 

 Ncao       : 892
 Nao        : 891
 Nshell     : 535
 Nel        : 980
 T(el)      :   500.0
 intcut     :    35.0
 scfconv/Eh :  0.100E-06
   qconv/e  :  0.100E-04
 intneglect :  0.100E-08
 broydamp   :      0.400
 iter      E             dE          RMSdq      gap      omega  full diag
   1   -559.5630526 -0.559563E+03  0.460E+00    3.11       0.0  T
   2   -560.8396113 -0.127656E+01  0.220E+00    1.59       1.0  T
   3   -560.9108575 -0.712462E-01  0.120E+00    1.66       1.0  T
   4   -560.9918714 -0.810139E-01  0.254E-01    0.84       1.0  T
   5   -560.9966040 -0.473259E-02  0.125E-01    0.99       1.0  T
   6   -560.9974871 -0.883073E-03  0.539E-02    1.00       1.0  T
   7   -560.9977546 -0.267499E-03  0.211E-02    1.02       1.0  T
   8   -560.9977844 -0.298197E-04  0.101E-02    1.03       1.0  T
   9   -560.9977919 -0.752005E-05  0.429E-03    1.04       1.2  T
  10   -560.9977933 -0.135691E-05  0.190E-03    1.04       2.8  T
  11   -560.9977935 -0.261073E-06  0.809E-04    1.04       6.5  T
  12   -560.9977936 -0.423645E-07  0.374E-04    1.04      14.1  T
  13   -560.9977936 -0.144529E-07  0.197E-04    1.04      26.8  T
  14   -560.9977936 -0.307114E-08  0.892E-05    1.04      59.2  T
  15   -560.9977936 -0.754085E-09  0.399E-05    1.04     132.3  T
speedup  1.90
cpu  time for SCC   15.88 s
wall time for SCC    8.38 s

   *** convergence criteria satisfied after 15 iterations ***

          eigenvalues
 #    :         478        479        480        481        482        483        484        485
 occ. :        2.000      2.000      2.000      2.000      2.000      2.000      2.000      2.000
 eps  :       -10.220    -10.179    -10.150    -10.127    -10.119    -10.091    -10.028     -9.924
 #    :         486        487        488        489        490        491        492        493
 occ. :        2.000      2.000      2.000      2.000      2.000      0.000      0.000      0.000
 eps  :        -9.866     -9.832     -9.700     -9.682     -9.260     -8.220     -8.073     -7.883
 #    :         494        495        496        497        498        499        500        501
 occ. :        0.000      0.000      0.000      0.000      0.000      0.000      0.000      0.000
 eps  :        -7.815     -6.833     -6.701     -6.669     -6.662     -6.633     -6.436     -6.255


   #   Z            q   n(s)   n(p)   n(d)      C6AA      α(0)
   1   7 N     -0.382  1.318  4.065  0.000    29.886     8.119
   2   6 C      0.031  1.059  2.911  0.000    20.073     6.382
   3   6 C      0.266  1.053  2.680  0.000    22.505     7.770
   4   8 O     -0.510  1.743  4.767  0.000    24.002     6.569
   5   6 C     -0.062  1.058  3.004  0.000    21.681     6.627
   6   6 C     -0.011  1.056  2.955  0.000    20.736     6.477
   7   6 C     -0.107  1.038  3.068  0.000    22.588     6.776
   8   6 C     -0.111  1.040  3.071  0.000    22.671     6.788
   9   1 H      0.161  0.839  0.000  0.000     1.330     1.807
  10   1 H      0.043  0.957  0.000  0.000     2.406     2.426
  11   1 H      0.040  0.960  0.000  0.000     2.450     2.448
  12   1 H      0.008  0.992  0.000  0.000     2.927     2.675
  13   1 H      0.043  0.957  0.000  0.000     2.408     2.427
  14   1 H      0.043  0.957  0.000  0.000     2.407     2.426
  15   1 H      0.039  0.961  0.000  0.000     2.462     2.454
  16   1 H      0.024  0.976  0.000  0.000     2.677     2.559
  17   1 H      0.053  0.947  0.000  0.000     2.278     2.360
  18   1 H      0.023  0.977  0.000  0.000     2.688     2.564
  19   1 H      0.037  0.963  0.000  0.000     2.486     2.466
  20   7 N     -0.176  1.255  3.921  0.000    24.813     7.398
  21   6 C      0.022  1.064  2.914  0.000    20.194     6.396
  22   6 C      0.279  1.046  2.675  0.000    22.280     7.729
  23   8 O     -0.505  1.736  4.769  0.000    23.904     6.555
  24   6 C     -0.015  1.059  2.956  0.000    20.806     6.488
  25   6 C     -0.123  1.038  3.085  0.000    22.919     6.825
  26   6 C     -0.119  1.043  3.077  0.000    22.835     6.813
  27   1 H      0.225  0.775  0.000  0.000     0.989     1.558
  28   1 H      0.069  0.931  0.000  0.000     2.095     2.263
  29   1 H      0.040  0.960  0.000  0.000     2.444     2.445
  30   1 H      0.056  0.944  0.000  0.000     2.246     2.344
  31   1 H      0.043  0.957  0.000  0.000     2.406     2.426
  32   1 H      0.046  0.954  0.000  0.000     2.373     2.409
  33   1 H      0.054  0.946  0.000  0.000     2.274     2.358
  34   1 H      0.047  0.953  0.000  0.000     2.358     2.402
  35   1 H      0.062  0.938  0.000  0.000     2.170     2.304
  36   7 N     -0.186  1.255  3.930  0.000    25.027     7.430
  37   6 C      0.021  1.062  2.917  0.000    20.228     6.405
  38   6 C      0.275  1.041  2.684  0.000    22.352     7.742
  39   8 O     -0.462  1.739  4.722  0.000    22.954     6.424
  40   6 C     -0.102  1.059  3.043  0.000    22.438     6.743
  41   6 C      0.290  1.035  2.675  0.000    22.086     7.695
  42   8 O     -0.479  1.749  4.730  0.000    23.328     6.476
  43   7 N     -0.276  1.261  4.015  0.000    27.131     7.736
  44   1 H      0.237  0.763  0.000  0.000     0.937     1.516
  45   1 H      0.083  0.917  0.000  0.000     1.949     2.183
  46   1 H      0.077  0.923  0.000  0.000     2.013     2.219
  47   1 H      0.093  0.907  0.000  0.000     1.851     2.128
  48   1 H      0.216  0.784  0.000  0.000     1.028     1.589
  49   1 H      0.222  0.778  0.000  0.000     1.002     1.568
  50   7 N     -0.182  1.241  3.941  0.000    24.939     7.417
  51   6 C      0.032  1.056  2.912  0.000    20.042     6.374
  52   6 C      0.279  1.041  2.681  0.000    22.287     7.731
  53   8 O     -0.479  1.743  4.735  0.000    23.317     6.474
  54   6 C     -0.098  1.060  3.038  0.000    22.356     6.730
  55   6 C      0.298  1.038  2.664  0.000    21.935     7.669
  56   8 O     -0.493  1.747  4.746  0.000    23.640     6.519
  57   7 N     -0.284  1.302  3.981  0.000    27.325     7.764
  58   1 H      0.212  0.788  0.000  0.000     1.047     1.603
  59   1 H      0.084  0.916  0.000  0.000     1.937     2.176
  60   1 H      0.084  0.916  0.000  0.000     1.937     2.177
  61   1 H      0.076  0.924  0.000  0.000     2.022     2.224
  62   1 H      0.229  0.771  0.000  0.000     0.971     1.543
  63   1 H      0.225  0.775  0.000  0.000     0.988     1.557
  64   7 N     -0.194  1.249  3.945  0.000    25.207     7.457
  65   6 C      0.026  1.057  2.917  0.000    20.139     6.390
  66   6 C      0.273  1.045  2.682  0.000    22.385     7.748
  67   8 O     -0.472  1.737  4.735  0.000    23.171     6.454
  68   6 C     -0.070  1.054  3.016  0.000    21.844     6.654
  69   6 C     -0.070  1.050  3.020  0.000    21.839     6.653
  70   6 C     -0.088  1.056  3.032  0.000    22.184     6.706
  71   6 C     -0.038  1.055  2.983  0.000    21.347     6.595
  72   7 N     -0.180  1.249  3.931  0.000    24.884     7.409
  73   1 H      0.216  0.784  0.000  0.000     1.028     1.589
  74   1 H      0.078  0.922  0.000  0.000     2.001     2.212
  75   1 H      0.063  0.937  0.000  0.000     2.167     2.302
  76   1 H      0.055  0.945  0.000  0.000     2.261     2.352
  77   1 H      0.068  0.932  0.000  0.000     2.107     2.270
  78   1 H      0.035  0.965  0.000  0.000     2.523     2.484
  79   1 H      0.073  0.927  0.000  0.000     2.053     2.241
  80   1 H      0.082  0.918  0.000  0.000     1.963     2.191
  81   1 H      0.107  0.893  0.000  0.000     1.726     2.054
  82   1 H      0.096  0.904  0.000  0.000     1.818     2.108
  83   1 H      0.282  0.718  0.000  0.000     0.770     1.374
  84   1 H      0.299  0.701  0.000  0.000     0.715     1.325
  85   1 H      0.276  0.724  0.000  0.000     0.788     1.391
  86   7 N     -0.190  1.261  3.929  0.000    25.114     7.443
  87   6 C      0.020  1.062  2.918  0.000    20.241     6.406
  88   6 C      0.268  1.044  2.689  0.000    22.484     7.765
  89   8 O     -0.465  1.725  4.740  0.000    23.018     6.432
  90   6 C      0.086  1.035  2.879  0.000    19.366     6.304
  91   8 O     -0.465  1.709  4.756  0.000    22.159     6.355
  92   1 H      0.217  0.783  0.000  0.000     1.024     1.586
  93   1 H      0.075  0.925  0.000  0.000     2.036     2.231
  94   1 H      0.034  0.966  0.000  0.000     2.535     2.490
  95   1 H      0.049  0.951  0.000  0.000     2.335     2.390
  96   1 H      0.328  0.672  0.000  0.000     0.643     1.260
  97   7 N     -0.152  1.248  3.904  0.000    24.295     7.321
  98   6 C      0.019  1.063  2.918  0.000    20.254     6.409
  99   6 C      0.274  1.042  2.684  0.000    22.375     7.747
 100   8 O     -0.491  1.755  4.736  0.000    23.582     6.511
 101   6 C     -0.075  1.059  3.016  0.000    21.912     6.662
 102   6 C     -0.015  1.057  2.959  0.000    20.810     6.489
 103   6 C     -0.117  1.042  3.075  0.000    22.783     6.805
 104   6 C     -0.120  1.042  3.078  0.000    22.857     6.816
 105   1 H      0.201  0.799  0.000  0.000     1.100     1.643
 106   1 H      0.076  0.924  0.000  0.000     2.022     2.224
 107   1 H      0.056  0.944  0.000  0.000     2.244     2.342
 108   1 H      0.063  0.937  0.000  0.000     2.161     2.299
 109   1 H      0.036  0.964  0.000  0.000     2.508     2.477
 110   1 H      0.046  0.954  0.000  0.000     2.372     2.409
 111   1 H      0.033  0.967  0.000  0.000     2.540     2.492
 112   1 H      0.048  0.952  0.000  0.000     2.341     2.393
 113   1 H      0.050  0.950  0.000  0.000     2.322     2.383
 114   1 H      0.051  0.949  0.000  0.000     2.301     2.372
 115   1 H      0.041  0.959  0.000  0.000     2.442     2.444
 116   7 N     -0.157  1.237  3.920  0.000    24.402     7.337
 117   6 C      0.019  1.061  2.921  0.000    20.258     6.408
 118   6 C      0.201  1.081  2.719  0.000    23.731     7.978
 119   8 O     -0.365  1.752  4.613  0.000    20.992     6.143
 120   6 C     -0.018  1.064  2.953  0.000    20.855     6.495
 121   6 C     -0.116  1.038  3.078  0.000    22.770     6.804
 122   6 C     -0.123  1.040  3.083  0.000    22.917     6.826
 123   1 H      0.216  0.784  0.000  0.000     1.028     1.589
 124   1 H      0.098  0.902  0.000  0.000     1.806     2.102
 125   1 H      0.056  0.944  0.000  0.000     2.242     2.342
 126   1 H      0.055  0.945  0.000  0.000     2.255     2.348
 127   1 H      0.031  0.969  0.000  0.000     2.578     2.511
 128   1 H      0.055  0.945  0.000  0.000     2.264     2.353
 129   1 H      0.068  0.932  0.000  0.000     2.109     2.271
 130   1 H      0.053  0.947  0.000  0.000     2.279     2.361
 131   1 H      0.049  0.951  0.000  0.000     2.339     2.391
 132   7 N     -0.394  1.301  4.093  0.000    30.211     8.163
 133   6 C      0.037  1.057  2.906  0.000    19.963     6.363
 134   6 C      0.265  1.050  2.685  0.000    22.530     7.773
 135   8 O     -0.496  1.747  4.749  0.000    23.693     6.526
 136   6 C     -0.023  1.066  2.957  0.000    20.951     6.510
 137   6 C     -0.062  1.051  3.011  0.000    21.686     6.630
 138   6 C     -0.109  1.038  3.071  0.000    22.632     6.783
 139   6 C     -0.104  1.033  3.071  0.000    22.550     6.772
 140   1 H      0.174  0.826  0.000  0.000     1.251     1.752
 141   1 H      0.020  0.980  0.000  0.000     2.729     2.583
 142   1 H      0.044  0.956  0.000  0.000     2.396     2.421
 143   1 H      0.040  0.960  0.000  0.000     2.452     2.449
 144   1 H      0.053  0.947  0.000  0.000     2.281     2.362
 145   1 H      0.051  0.949  0.000  0.000     2.303     2.373
 146   1 H      0.032  0.968  0.000  0.000     2.563     2.504
 147   1 H      0.039  0.961  0.000  0.000     2.464     2.455
 148   1 H      0.044  0.956  0.000  0.000     2.395     2.420
 149   1 H      0.037  0.963  0.000  0.000     2.488     2.467
 150   1 H      0.022  0.978  0.000  0.000     2.698     2.569
 151   7 N     -0.168  1.244  3.925  0.000    24.646     7.373
 152   6 C      0.027  1.060  2.913  0.000    20.135     6.390
 153   6 C      0.198  1.092  2.711  0.000    23.783     7.987
 154   8 O     -0.347  1.736  4.611  0.000    20.651     6.093
 155   6 C     -0.083  1.058  3.025  0.000    22.082     6.689
 156   6 C     -0.002  1.073  2.930  0.000    28.078     8.692
 157   6 C     -0.043  1.082  2.961  0.000    29.071     8.842
 158   6 C     -0.044  1.084  2.960  0.000    29.095     8.846
 159   6 C     -0.075  1.076  2.998  0.000    29.864     8.961
 160   6 C     -0.060  1.075  2.985  0.000    29.502     8.907
 161   6 C      0.146  1.045  2.809  0.000    24.814     8.164
 162   8 O     -0.428  1.722  4.706  0.000    21.398     6.245
 163   1 H      0.226  0.774  0.000  0.000     0.984     1.554
 164   1 H      0.085  0.915  0.000  0.000     1.931     2.173
 165   1 H      0.082  0.918  0.000  0.000     1.960     2.189
 166   1 H      0.076  0.924  0.000  0.000     2.019     2.222
 167   1 H      0.044  0.956  0.000  0.000     2.398     2.421
 168   1 H      0.059  0.941  0.000  0.000     2.212     2.326
 169   1 H      0.031  0.969  0.000  0.000     2.574     2.509
 170   1 H      0.062  0.938  0.000  0.000     2.174     2.306
 171   1 H      0.344  0.656  0.000  0.000     0.602     1.219
 172   7 N     -0.368  1.292  4.076  0.000    29.495     8.066
 173   6 C      0.044  1.052  2.904  0.000    19.845     6.345
 174   6 C      0.271  1.050  2.679  0.000    22.423     7.755
 175   8 O     -0.519  1.756  4.763  0.000    24.210     6.597
 176   6 C     -0.078  1.067  3.011  0.000    21.994     6.676
 177   6 C      0.373  1.023  2.604  0.000    20.680     7.442
 178   8 O     -0.635  1.763  4.872  0.000    26.983     6.964
 179   8 O     -0.652  1.776  4.876  0.000    27.437     7.023
 180   1 H      0.137  0.863  0.000  0.000     1.495     1.915
 181   1 H      0.035  0.965  0.000  0.000     2.513     2.479
 182   1 H      0.014  0.986  0.000  0.000     2.819     2.626
 183   1 H     -0.003  1.003  0.000  0.000     3.113     2.759
 184   7 N     -0.186  1.257  3.929  0.000    25.025     7.430
 185   6 C      0.027  1.058  2.915  0.000    20.117     6.386
 186   6 C      0.273  1.044  2.682  0.000    22.378     7.747
 187   8 O     -0.511  1.753  4.758  0.000    24.037     6.573
 188   6 C     -0.069  1.052  3.016  0.000    21.805     6.646
 189   6 C      0.006  1.078  2.917  0.000    27.895     8.663
 190   6 C     -0.052  1.087  2.965  0.000    29.279     8.874
 191   6 C     -0.039  1.083  2.956  0.000    28.970     8.827
 192   6 C     -0.056  1.071  2.986  0.000    29.398     8.891
 193   6 C     -0.083  1.077  3.006  0.000    30.074     8.993
 194   6 C      0.141  1.047  2.812  0.000    24.927     8.182
 195   8 O     -0.440  1.721  4.719  0.000    21.637     6.279
 196   1 H      0.229  0.771  0.000  0.000     0.970     1.543
 197   1 H      0.071  0.929  0.000  0.000     2.078     2.255
 198   1 H      0.057  0.943  0.000  0.000     2.232     2.336
 199   1 H      0.070  0.930  0.000  0.000     2.090     2.261
 200   1 H      0.070  0.930  0.000  0.000     2.082     2.257
 201   1 H      0.037  0.963  0.000  0.000     2.490     2.468
 202   1 H      0.034  0.966  0.000  0.000     2.530     2.487
 203   1 H      0.033  0.967  0.000  0.000     2.550     2.497
 204   1 H      0.341  0.659  0.000  0.000     0.610     1.227
 205   7 N     -0.168  1.241  3.927  0.000    24.634     7.371
 206   6 C      0.021  1.065  2.914  0.000    20.225     6.403
 207   6 C      0.298  1.037  2.665  0.000    21.943     7.671
 208   8 O     -0.489  1.751  4.738  0.000    23.541     6.505
 209   6 C     -0.091  1.060  3.030  0.000    22.227     6.712
 210   6 C     -0.077  1.048  3.029  0.000    21.974     6.674
 211   6 C     -0.092  1.055  3.038  0.000    22.258     6.717
 212   6 C     -0.060  1.060  2.999  0.000    21.737     6.654
 213   7 N     -0.146  1.233  3.913  0.000    24.151     7.299
 214   1 H      0.233  0.767  0.000  0.000     0.952     1.529
 215   1 H      0.053  0.947  0.000  0.000     2.289     2.366
 216   1 H      0.062  0.938  0.000  0.000     2.171     2.304
 217   1 H      0.098  0.902  0.000  0.000     1.801     2.099
 218   1 H      0.053  0.947  0.000  0.000     2.285     2.364
 219   1 H      0.060  0.940  0.000  0.000     2.198     2.318
 220   1 H      0.084  0.916  0.000  0.000     1.935     2.175
 221   1 H      0.086  0.914  0.000  0.000     1.923     2.169
 222   1 H      0.121  0.879  0.000  0.000     1.604     1.981
 223   1 H      0.102  0.898  0.000  0.000     1.762     2.076
 224   1 H      0.293  0.707  0.000  0.000     0.735     1.343
 225   1 H      0.301  0.699  0.000  0.000     0.712     1.321
 226   1 H      0.307  0.693  0.000  0.000     0.694     1.305
 227   7 N     -0.176  1.245  3.932  0.000    24.819     7.399
 228   6 C      0.044  1.055  2.901  0.000    19.843     6.344
 229   6 C      0.202  1.088  2.711  0.000    23.711     7.974
 230   8 O     -0.342  1.738  4.604  0.000    20.550     6.078
 231   6 C     -0.097  1.071  3.026  0.000    22.347     6.730
 232   6 C      0.369  1.021  2.611  0.000    20.752     7.455
 233   8 O     -0.642  1.773  4.868  0.000    27.164     6.988
 234   8 O     -0.642  1.775  4.868  0.000    27.186     6.991
 235   1 H      0.204  0.796  0.000  0.000     1.087     1.633
 236   1 H      0.074  0.926  0.000  0.000     2.045     2.237
 237   1 H      0.049  0.951  0.000  0.000     2.335     2.390
 238   1 H      0.040  0.960  0.000  0.000     2.444     2.445
 239   7 N     -0.390  1.321  4.070  0.000    30.103     8.149
 240   6 C      0.034  1.060  2.906  0.000    20.003     6.369
 241   6 C      0.277  1.045  2.678  0.000    22.317     7.736
 242   8 O     -0.483  1.742  4.742  0.000    23.416     6.488
 243   6 C     -0.017  1.061  2.956  0.000    20.838     6.493
 244   6 C     -0.109  1.035  3.074  0.000    22.648     6.786
 245   6 C     -0.105  1.037  3.068  0.000    22.563     6.772
 246   1 H      0.169  0.831  0.000  0.000     1.279     1.771
 247   1 H      0.018  0.982  0.000  0.000     2.758     2.597
 248   1 H      0.032  0.968  0.000  0.000     2.565     2.504
 249   1 H      0.047  0.953  0.000  0.000     2.354     2.400
 250   1 H      0.047  0.953  0.000  0.000     2.358     2.402
 251   1 H      0.047  0.953  0.000  0.000     2.357     2.401
 252   1 H      0.045  0.955  0.000  0.000     2.385     2.415
 253   1 H      0.026  0.974  0.000  0.000     2.646     2.544
 254   1 H      0.029  0.971  0.000  0.000     2.604     2.524
 255   7 N     -0.166  1.240  3.926  0.000    24.591     7.365
 256   6 C      0.021  1.063  2.916  0.000    20.225     6.404
 257   6 C      0.266  1.046  2.689  0.000    22.518     7.771
 258   8 O     -0.484  1.736  4.748  0.000    23.427     6.489
 259   6 C     -0.074  1.055  3.018  0.000    21.897     6.661
 260   6 C     -0.001  1.076  2.925  0.000    28.046     8.687
 261   6 C     -0.033  1.082  2.952  0.000    28.830     8.805
 262   6 C     -0.045  1.085  2.960  0.000    29.113     8.848
 263   6 C     -0.053  1.074  2.979  0.000    29.313     8.878
 264   6 C     -0.076  1.079  2.997  0.000    29.907     8.968
 265   6 C      0.146  1.046  2.808  0.000    24.820     8.165
 266   8 O     -0.440  1.725  4.715  0.000    21.646     6.281
 267   1 H      0.191  0.809  0.000  0.000     1.154     1.683
 268   1 H      0.080  0.920  0.000  0.000     1.980     2.200
 269   1 H      0.057  0.943  0.000  0.000     2.230     2.335
 270   1 H      0.062  0.938  0.000  0.000     2.171     2.304
 271   1 H      0.029  0.971  0.000  0.000     2.599     2.521
 272   1 H      0.053  0.947  0.000  0.000     2.283     2.363
 273   1 H      0.032  0.968  0.000  0.000     2.562     2.503
 274   1 H      0.053  0.947  0.000  0.000     2.285     2.364
 275   1 H      0.356  0.644  0.000  0.000     0.573     1.189
 276   7 N     -0.158  1.239  3.919  0.000    24.409     7.338
 277   6 C      0.025  1.055  2.920  0.000    20.163     6.394
 278   6 C      0.199  1.085  2.716  0.000    23.758     7.983
 279   8 O     -0.349  1.752  4.596  0.000    20.681     6.097
 280   6 C     -0.064  1.051  3.012  0.000    21.672     6.619
 281   6 C     -0.001  1.061  2.941  0.000    20.605     6.464
 282  16 S     -0.214  1.919  4.246  0.049   150.196    20.627
 283   6 C     -0.062  1.054  3.008  0.000    21.760     6.654
 284   1 H      0.223  0.777  0.000  0.000     0.997     1.564
 285   1 H      0.090  0.910  0.000  0.000     1.883     2.146
 286   1 H      0.073  0.927  0.000  0.000     2.048     2.238
 287   1 H      0.076  0.924  0.000  0.000     2.019     2.222
 288   1 H      0.041  0.959  0.000  0.000     2.441     2.444
 289   1 H      0.045  0.955  0.000  0.000     2.387     2.416
 290   1 H      0.079  0.921  0.000  0.000     1.987     2.204
 291   1 H      0.055  0.945  0.000  0.000     2.256     2.349
 292   1 H      0.062  0.938  0.000  0.000     2.180     2.309
 293   7 N     -0.392  1.323  4.070  0.000    30.161     8.156
 294   6 C      0.034  1.071  2.895  0.000    20.018     6.374
 295   6 C      0.366  1.028  2.606  0.000    20.796     7.463
 296   8 O     -0.649  1.770  4.879  0.000    27.347     7.011
 297   6 C     -0.046  1.048  2.998  0.000    21.390     6.583
 298   6 C      0.013  1.087  2.900  0.000    27.729     8.638
 299   6 C     -0.039  1.078  2.961  0.000    28.970     8.827
 300   6 C     -0.038  1.078  2.960  0.000    28.946     8.823
 301   6 C     -0.038  1.081  2.956  0.000    28.934     8.821
 302   6 C     -0.035  1.081  2.954  0.000    28.883     8.813
 303   6 C     -0.039  1.078  2.961  0.000    28.982     8.828
 304   8 O     -0.641  1.771  4.870  0.000    27.142     6.985
 305   1 H      0.144  0.856  0.000  0.000     1.440     1.880
 306   1 H     -0.001  1.001  0.000  0.000     3.081     2.745
 307   1 H      0.000  1.000  0.000  0.000     3.051     2.731
 308   1 H      0.012  0.988  0.000  0.000     2.859     2.644
 309   1 H      0.013  0.987  0.000  0.000     2.834     2.633
 310   1 H      0.016  0.984  0.000  0.000     2.789     2.612
 311   1 H      0.044  0.956  0.000  0.000     2.390     2.417
 312   1 H      0.047  0.953  0.000  0.000     2.362     2.403
 313   1 H      0.047  0.953  0.000  0.000     2.353     2.399
 314   7 N     -0.390  1.315  4.075  0.000    30.101     8.148
 315   6 C      0.022  1.066  2.912  0.000    20.212     6.403
 316   6 C      0.272  1.045  2.683  0.000    22.410     7.752
 317   8 O     -0.523  1.754  4.769  0.000    24.302     6.609
 318   6 C      0.116  1.046  2.837  0.000    18.768     6.185
 319   8 O     -0.480  1.720  4.760  0.000    22.464     6.398
 320   6 C     -0.144  1.047  3.097  0.000    23.338     6.889
 321   1 H      0.157  0.843  0.000  0.000     1.355     1.823
 322   1 H      0.035  0.965  0.000  0.000     2.512     2.479
 323   1 H      0.020  0.980  0.000  0.000     2.727     2.582
 324   1 H      0.324  0.676  0.000  0.000     0.654     1.270
 325   1 H      0.066  0.934  0.000  0.000     2.135     2.285
 326   1 H      0.054  0.946  0.000  0.000     2.274     2.358
 327   1 H      0.054  0.946  0.000  0.000     2.266     2.354
 328   7 N     -0.181  1.250  3.931  0.000    24.916     7.414
 329   6 C      0.024  1.069  2.908  0.000    20.186     6.399
 330   6 C      0.364  1.026  2.610  0.000    20.832     7.469
 331   8 O     -0.606  1.774  4.832  0.000    26.275     6.872
 332   6 C     -0.050  1.048  3.002  0.000    21.464     6.595
 333   6 C      0.014  1.085  2.901  0.000    27.698     8.633
 334   6 C     -0.035  1.078  2.957  0.000    28.861     8.810
 335   6 C     -0.039  1.079  2.959  0.000    28.960     8.825
 336   6 C     -0.034  1.080  2.954  0.000    28.845     8.807
 337   6 C     -0.035  1.080  2.955  0.000    28.862     8.810
 338   6 C     -0.037  1.079  2.958  0.000    28.918     8.818
 339   8 O     -0.575  1.729  4.846  0.000    25.520     6.773
 340   1 H      0.222  0.778  0.000  0.000     1.002     1.568
 341   1 H      0.031  0.969  0.000  0.000     2.571     2.507
 342   1 H      0.026  0.974  0.000  0.000     2.648     2.545
 343   1 H      0.029  0.971  0.000  0.000     2.599     2.521
 344   1 H      0.009  0.991  0.000  0.000     2.908     2.667
 345   1 H      0.021  0.979  0.000  0.000     2.712     2.575
 346   1 H      0.037  0.963  0.000  0.000     2.487     2.466
 347   1 H      0.050  0.950  0.000  0.000     2.320     2.382
 348   1 H      0.051  0.949  0.000  0.000     2.303     2.373
 349   1 H      0.190  0.810  0.000  0.000     1.158     1.686
 350   1 H      0.190  0.810  0.000  0.000     1.160     1.687
 351   1 H      0.076  0.924  0.000  0.000     2.022     2.224
 352   1 H      0.162  0.838  0.000  0.000     1.324     1.802
 353   1 H      0.087  0.913  0.000  0.000     1.904     2.158
 354   1 H      0.193  0.807  0.000  0.000     1.141     1.673
 355   1 H      0.065  0.935  0.000  0.000     2.138     2.286
 356   1 H      0.180  0.820  0.000  0.000     1.212     1.724
 357   1 H      0.086  0.914  0.000  0.000     1.913     2.163
 358   1 H      0.178  0.822  0.000  0.000     1.223     1.732

 Mol. C6AA /au·bohr⁶  :    1247517.551152
 Mol. C8AA /au·bohr⁸  :   28282167.567245
 Mol. α(0) /au        :       1686.714065

 
molecular dipole:
                 x           y           z       tot (Debye)
 q only:      -89.463    -159.941    -362.584
   full:      -89.486    -159.252    -361.562    1029.651
molecular quadrupole (traceless):
                xx          xy          yy          xz          yz          zz
 q only:    35418.046  -10666.625   22182.186  -23954.831  -43383.521  -57600.232
  q+dip:    35179.579  -10620.445   22102.710  -23945.214  -43074.610  -57282.288
   full:    35181.429  -10623.053   22104.841  -23946.303  -43072.255  -57286.270
speedup  1.92
cpu  time for grad   21.18 s
wall time for grad   11.03 s

SCC energy    :    -561.0085535
rep           :       6.9351961
ES            :       1.9474373
AES           :      -0.0538162
AXC           :       0.1824269
disp          :      -0.4700082
XB            :       0.0000000
fix           :       0.0000000
Gborn         :       0.0000000
Gsasa         :       0.0000000
Ghb           :       0.0000000
Gshift        :       0.0000000
Gsolv         :      -0.5803309     -364.16
Etot ala COSMO:    -561.0085535
grad norm     :       0.5269861
total E       :    -554.0296929
atomizationE  :     102.7640137    64485.39
(atE without considering molecular charge,
 total energy contains solvation terms)
H-L gap (eV)  :          1.0400

------------------------------------------------------------------------
 * finished run on 2019/05/12 at 13:12:44.013     
------------------------------------------------------------------------
 total:
 * wall-time:     0 d,  0 h,  0 min, 12.468 sec
 *  cpu-time:     0 d,  0 h,  0 min, 23.251 sec
 * ratio c/w:     1.865 speedup
 SCF:
 * wall-time:     0 d,  0 h,  0 min, 11.865 sec
 *  cpu-time:     0 d,  0 h,  0 min, 22.643 sec
 * ratio c/w:     1.908 speedup

