      -----------------------------------------------------------      
     |                   =====================                   |     
     |                           x T B                           |     
     |                   =====================                   |     
     |                         S. Grimme                         |     
     |          Mulliken Center for Theoretical Chemistry        |     
     |                    University of Bonn                     |     
     |                 Version 6.0.1 (SAW181210)                 |     
      -----------------------------------------------------------      

   This program is distributed in the hope that it will be useful,
   but WITHOUT ANY WARRANTY; without even the implied warranty of
   MERCHANTABILITY or FITNESS FOR A PARTICULAR PURPOSE.
   
   FOR NON-COMMERCIAL, ACADEMIA USE ONLY.
   
   Cite this work as:
   S. Grimme, C. Bannwarth, P. Shushkov, J. Comput. Theory Chem., 2017,
   13, 1989-2009.
   C. Bannwarth, S. Ehlert and S. Grimme., ChemRxiv, 2018, preprint.
   http://doi.org/10.26434/chemrxiv.7246238.v1
   
   for sTDA-xTB:
   S. Grimme and C. Bannwarth, J. Chem. Phys., 2016, 145, 054103.
   
   in the mass-spec context:
   V. Asgeirsson, C. Bauer and S. Grimme, Chem. Sci., 2017, 8, 4879.
   
   if GBSA is used:
   P. Shushkov, F. März and S. Grimme, unpublished.
   
   for ANC optimizer:
   S. Grimme, unpublished.
   Rational Function algorithm used in ANCopt:
   F. Eckert, P. Pulay, H.-J. Werner, J. Comput. Chem., 1997, 18, 1473.
   
   with help from (in alphabetical order)
   C. Bannwarth, F. Bohle, G. Brandenburg, E. Caldeweyher, M. Checinski,
   S. Dohm, S. Ehlert, S. Ehrlich, F. März, H. Neugebauer, J. Pisarek,
   P. Pracht, P. Shushkov, and S. Spicher.
   
 * started run on 2019/05/11 at 23:19:14.161     
========================================================================
 # omp threads = 2
========================================================================
number of atoms            : 168
number of electrons        : 452
charge                     : 0
spin                       : .0
first test random number   : .0800

########################################################################
# WARNING! Please study the warnings concerning your input carefully
#  - Process number higher than OMP_NUM_THREADS, I hope you know what you are doing.
########################################################################

           ------------------------------------------------- 
          |                 G F N 2 - x T B                 |
          | Geometry, Frequencies, Noncovalent interactions |
          |            JCTC 2018 parametrisation            |
           ------------------------------------------------- 
 
      method parameters     
 k(s)        :  1.8500
 k(p)        :  2.2300
 k(d)        :  2.2300
 k(f)        :  2.0000
 kEN (H0ij)  : -2.0000
 D4 a1       :  0.5200
 D4 a2       :  5.0000
 D4 s6       :  1.0000
 D4 s8       :  2.7000
 D4 s9       :  5.0000
 alphaj      :  2.0000

 Solvent             : h2o
 Using internal parameter file: .param_gbsa2_h2o
 Gsolv ref. state (COSMO-RS): gsolv [1 M gas/solution]
 temperature (mdtemp)       :    298.150000000000     
 dielectric constant        :    80.2000000000000     
 rho                        :    1.00000000000000     
 mass                       :    18.0000000000000     
 surface tension            :    15.5689454083859     
 probe radius               :   0.975313790000000     
 vdW radii scaling          :    1.00000000000000     
 Gshift (Eh)                :   1.857443126794793E-003
 c1                         :    1.55243817000000     
 soset                      :   0.130326360000000     
 HB correction              :  T

            Z     q(EN)     CN     RAES       Cart. coordinates
     1  N   5.0   -0.21    3.22    1.96   -10.21094   172.68460    16.10015
     2  C   4.0    0.04    4.25    4.11   -10.91843   172.86850    13.50046
     3  C   4.0    0.07    3.20    3.04   -11.93954   170.37755    12.45849
     4  O   6.0   -0.31    1.19    1.80   -12.39352   170.13409    10.20954
     5  C   4.0   -0.04    4.26    4.13    -8.69012   173.89136    11.95975
     6  C   4.0   -0.03    4.21    4.02    -9.65505   175.67607     9.89630
     7  C   4.0    0.15    3.21    3.04   -10.90552   178.07596    10.91788
     8  O   6.0   -0.28    1.19    1.80   -13.18490   178.44699    10.79520
     9  N   5.0   -0.18    3.17    1.95    -9.31114   179.80733    11.90231
    10  H   1.0    0.08    1.03    1.43    -8.34622   172.51417    16.50780
    11  H   1.0    0.05    1.06    1.44   -12.51374   174.20136    13.37129
    12  H   1.0    0.04    1.03    1.43    -7.41445   174.87261    13.24612
    13  H   1.0    0.05    1.03    1.43    -7.68375   172.32046    11.09084
    14  H   1.0    0.04    1.03    1.43    -8.09584   176.22280     8.66345
    15  H   1.0    0.07    1.03    1.43   -11.06929   174.67360     8.78116
    16  H   1.0    0.08    1.03    1.43    -7.45212   179.46401    12.08043
    17  H   1.0    0.10    1.03    1.43   -10.02789   181.41740    12.61969
    18  N   5.0   -0.21    3.16    1.95   -18.57536   169.45552    14.38994
    19  C   4.0    0.04    4.17    3.93   -19.76192   170.24479    12.04304
    20  C   4.0    0.09    3.17    3.03   -21.42571   168.22570    10.70366
    21  O   6.0   -0.27    1.12    1.80   -23.60647   168.87153    10.21128
    22  C   4.0   -0.03    4.19    3.99   -17.86083   171.62147    10.27262
    23  C   4.0   -0.02    4.17    3.95   -17.09933   170.32339     7.79822
    24  C   4.0    0.25    3.09    3.02   -17.87307   171.74835     5.35028
    25  O   6.0   -0.30    1.22    1.80   -17.04275   173.95648     5.10912
    26  O   6.0   -0.29    1.15    1.80   -19.12166   170.59678     3.69996
    27  H   1.0    0.09    1.02    1.43   -16.95199   170.31723    14.92065
    28  H   1.0    0.06    1.06    1.44   -21.21672   171.65190    12.55708
    29  H   1.0    0.06    1.03    1.43   -18.66804   173.46317     9.79622
    30  H   1.0    0.06    1.05    1.44   -16.17692   172.00521    11.38642
    31  H   1.0    0.07    1.07    1.44   -15.05118   170.25411     7.69516
    32  H   1.0    0.05    1.03    1.43   -17.81169   168.40249     7.67661
    33  N   5.0   -0.12    4.13    3.24   -20.19058   177.45731    -3.24548
    34  C   4.0    0.00    4.25    4.10   -18.04659   177.95112    -1.49425
    35  C   4.0    0.15    3.45    3.09   -16.29258   179.86143    -2.89124
    36  O   6.0   -0.29    1.30    1.80   -16.36850   179.82084    -5.20808
    37  C   4.0    0.04    4.13    3.86   -16.65288   175.38635    -1.05268
    38  O   6.0   -0.25    2.04    1.83   -14.71268   175.62784     0.71218
    39  H   1.0    0.05    1.02    1.43   -20.82172   175.61932    -3.12509
    40  H   1.0    0.06    1.02    1.43   -21.69175   178.65500    -2.88844
    41  H   1.0    0.08    1.06    1.44   -19.46380   177.87534    -5.05327
    42  H   1.0    0.05    1.04    1.43   -18.67281   178.67386     0.33274
    43  H   1.0    0.05    1.01    1.43   -18.02507   173.96675    -0.41953
    44  H   1.0    0.05    1.02    1.43   -15.77944   174.79770    -2.82661
    45  H   1.0    0.15    1.06    1.44   -15.41671   175.26793     2.39984
    46  N   5.0   -0.14    3.39    2.02   -14.83717   181.40983    -1.50398
    47  C   4.0    0.03    4.36    4.31   -12.71006   182.62514    -2.80617
    48  C   4.0    0.16    3.42    3.08   -11.12161   180.41205    -4.00837
    49  O   6.0   -0.28    1.18    1.80   -10.80621   180.01558    -6.25335
    50  C   4.0   -0.04    4.26    4.12   -10.85173   184.25174    -1.21213
    51  C   4.0   -0.03    4.12    3.84   -11.73342   185.90158     0.98513
    52  C   4.0    0.25    3.13    3.03    -9.19280   186.69536     2.32291
    53  O   6.0   -0.28    1.16    1.80    -8.27970   185.11596     3.82993
    54  O   6.0   -0.27    1.16    1.80    -8.24729   188.75014     1.68821
    55  H   1.0    0.08    1.06    1.44   -14.72724   181.18481     0.38973
    56  H   1.0    0.06    1.05    1.44   -13.50333   183.77138    -4.33393
    57  H   1.0    0.06    1.05    1.44    -9.39278   183.02584    -0.41139
    58  H   1.0    0.06    1.03    1.43    -9.87600   185.48013    -2.56008
    59  H   1.0    0.06    1.02    1.43   -12.74861   187.57915     0.36670
    60  H   1.0    0.06    1.02    1.43   -12.85406   184.82907     2.33776
    61  N   5.0   -0.14    3.52    2.09   -10.22504   178.91356    -2.14948
    62  C   4.0    0.03    4.29    4.17    -8.21050   177.06383    -2.36990
    63  C   4.0    0.15    3.45    3.09    -9.20753   174.48890    -3.25148
    64  O   6.0   -0.33    1.45    1.80    -9.19240   173.93525    -5.49996
    65  C   4.0   -0.08    4.13    3.86    -6.86978   177.01778     0.17530
    66  H   1.0    0.08    1.09    1.44   -10.67753   179.35734    -0.34879
    67  H   1.0    0.05    1.06    1.44    -6.93846   177.69222    -3.88351
    68  H   1.0    0.04    1.00    1.43    -5.38889   175.59501     0.19279
    69  H   1.0    0.05    1.00    1.43    -6.01673   178.84979     0.55279
    70  H   1.0    0.05    1.00    1.43    -8.20468   176.61240     1.68693
    71  N   5.0   -0.15    3.43    2.04   -10.08959   172.84263    -1.56929
    72  C   4.0    0.03    4.41    4.40   -10.47623   170.26362    -2.36645
    73  C   4.0    0.16    3.58    3.15   -11.75492   170.01629    -4.93296
    74  O   6.0   -0.32    1.34    1.80   -11.30348   168.13911    -6.21406
    75  C   4.0   -0.05    4.32    4.23   -11.98995   168.57050    -0.53602
    76  C   4.0   -0.02    4.14    3.88   -10.99354   168.12842     2.18882
    77  C   4.0   -0.07    4.13    3.87   -12.55053   165.97487     3.30609
    78  C   4.0   -0.08    4.09    3.78    -8.21072   167.45971     2.50847
    79  H   1.0    0.08    1.06    1.44   -10.43413   173.30622     0.24770
    80  H   1.0    0.04    1.06    1.44    -8.62088   169.36468    -2.59263
    81  H   1.0    0.05    1.03    1.43   -13.89939   169.32645    -0.33570
    82  H   1.0    0.05    1.04    1.43   -12.12545   166.73742    -1.47323
    83  H   1.0    0.05    1.05    1.44   -11.37639   169.83776     3.29332
    84  H   1.0    0.05    1.00    1.43   -12.08911   165.71592     5.28942
    85  H   1.0    0.05    1.00    1.43   -14.55966   166.38833     3.17374
    86  H   1.0    0.04    1.00    1.43   -12.15719   164.22466     2.30624
    87  H   1.0    0.04    1.00    1.43    -7.81505   167.18582     4.50340
    88  H   1.0    0.04    1.00    1.43    -7.75820   165.71581     1.51813
    89  H   1.0    0.04    1.00    1.43    -6.98034   168.95305     1.81480
    90  N   5.0   -0.14    3.53    2.10   -13.61902   171.60007    -5.64993
    91  C   4.0    0.04    4.42    4.42   -15.20586   170.81707    -7.76289
    92  C   4.0    0.16    3.35    3.07   -13.79390   170.69013   -10.32467
    93  O   6.0   -0.29    1.20    1.80   -14.69062   169.66005   -12.18431
    94  C   4.0   -0.05    4.20    4.01   -17.65019   172.40777    -7.76076
    95  C   4.0   -0.05    4.13    3.86   -20.06619   170.94131    -8.51821
    96  C   4.0   -0.05    4.12    3.85   -21.43815   169.63417    -6.29999
    97  C   4.0   -0.04    4.10    3.81   -23.33106   167.61667    -7.16150
    98  N   5.0   -0.12    4.00    2.87   -25.55840   168.68517    -8.52779
    99  H   1.0    0.09    1.07    1.44   -13.52187   173.45381    -5.22508
   100  H   1.0    0.06    1.07    1.44   -15.68691   168.83552    -7.37639
   101  H   1.0    0.04    1.04    1.43   -17.87943   173.12979    -5.84939
   102  H   1.0    0.05    1.02    1.43   -17.39178   173.99752    -9.04553
   103  H   1.0    0.04    1.03    1.43   -21.32690   172.31152    -9.39834
   104  H   1.0    0.05    1.03    1.43   -19.53105   169.55783    -9.94767
   105  H   1.0    0.04    1.03    1.43   -20.03936   168.67565    -5.12924
   106  H   1.0    0.04    1.02    1.43   -22.37836   171.02698    -5.11431
   107  H   1.0    0.05    1.02    1.43   -22.36199   166.30392    -8.42342
   108  H   1.0    0.05    1.02    1.43   -24.00641   166.57768    -5.51620
   109  H   1.0    0.06    1.02    1.43   -26.74050   167.26062    -9.11413
   110  H   1.0    0.06    1.02    1.43   -26.54799   169.89709    -7.36760
   111  H   1.0    0.06    1.02    1.43   -24.96023   169.66917   -10.10011
   112  N   5.0   -0.14    3.61    2.17   -11.49714   171.70437   -10.22089
   113  C   4.0    0.03    4.39    4.37    -9.61415   171.77574   -12.20134
   114  C   4.0    0.15    3.39    3.08    -8.20476   169.19465   -12.49630
   115  O   6.0   -0.29    1.20    1.80    -7.53410   168.23133   -14.49904
   116  C   4.0   -0.02    4.26    4.12    -7.79837   174.05919   -11.53324
   117  C   4.0   -0.04    4.19    3.98    -5.70021   173.31718    -9.61924
   118  C   4.0   -0.05    4.13    3.86    -9.39444   176.34838   -10.65291
   119  C   4.0   -0.07    3.99    3.60    -3.75999   175.33478    -8.91683
   120  H   1.0    0.10    1.15    1.45   -10.90972   172.53467    -8.60326
   121  H   1.0    0.06    1.05    1.44   -10.53230   172.15559   -14.01876
   122  H   1.0    0.05    1.05    1.44    -6.85396   174.57415   -13.30490
   123  H   1.0    0.06    1.07    1.44    -6.64363   172.76393    -7.89890
   124  H   1.0    0.05    1.04    1.43    -4.67815   171.69856   -10.38409
   125  H   1.0    0.05    1.00    1.43    -8.31029   178.06965   -10.92698
   126  H   1.0    0.05    1.00    1.43   -11.09958   176.47605   -11.78823
   127  H   1.0    0.08    1.02    1.43    -9.86642   176.21071    -8.67082
   128  H   1.0    0.04    1.00    1.43    -2.36310   174.50854    -7.66278
   129  H   1.0    0.05    1.00    1.43    -2.79061   176.04477   -10.58496
   130  H   1.0    0.05    1.00    1.43    -4.66003   176.91111    -7.96090
   131  N   5.0   -0.15    3.57    2.13    -7.76861   168.09159   -10.26799
   132  C   4.0    0.04    4.36    4.32    -6.54902   165.69813    -9.90516
   133  C   4.0    0.16    3.46    3.10    -8.38698   163.49685   -10.40860
   134  O   6.0   -0.29    1.28    1.80    -8.13817   161.39192    -9.50683
   135  C   4.0   -0.04    4.38    4.34    -5.74384   165.44939    -7.12853
   136  C   4.0   -0.03    4.13    3.87    -3.47275   166.97021    -6.12891
   137  C   4.0   -0.08    4.10    3.80    -4.20911   169.50171    -4.93115
   138  C   4.0   -0.08    4.11    3.82    -2.09380   165.40085    -4.09004
   139  H   1.0    0.11    1.13    1.45    -8.78806   168.66317    -8.74522
   140  H   1.0    0.06    1.05    1.44    -4.94733   165.52830   -11.20789
   141  H   1.0    0.06    1.04    1.43    -7.41181   165.91774    -6.01548
   142  H   1.0    0.06    1.05    1.44    -5.33976   163.44631    -6.85628
   143  H   1.0    0.04    1.05    1.44    -2.16332   167.29662    -7.69401
   144  H   1.0    0.04    1.00    1.43    -2.67882   170.85241    -5.11923
   145  H   1.0    0.05    1.01    1.43    -5.88744   170.25872    -5.80281
   146  H   1.0    0.04    1.01    1.43    -4.57017   169.23074    -2.92517
   147  H   1.0    0.04    1.00    1.43    -0.48103   166.46366    -3.39694
   148  H   1.0    0.04    1.00    1.43    -3.34736   164.98784    -2.51928
   149  H   1.0    0.05    1.00    1.43    -1.42042   163.61702    -4.85520
   150  N   5.0   -0.13    3.50    2.07   -10.43991   164.03494   -11.80226
   151  C   4.0    0.05    4.39    4.36   -12.02249   161.95407   -12.54526
   152  C   4.0    0.10    3.22    3.04   -11.17921   161.01384   -15.12773
   153  O   6.0   -0.25    1.12    1.80   -12.09468   159.11208   -16.07418
   154  C   4.0   -0.02    4.27    4.13   -14.89259   162.50040   -12.38819
   155  C   4.0    0.16    3.23    3.04   -16.21827   160.08428   -11.52047
   156  O   6.0   -0.26    1.18    1.80   -17.36299   158.67007   -12.93369
   157  N   5.0   -0.18    3.20    1.95   -15.92769   159.66876    -9.02724
   158  H   1.0    0.10    1.09    1.44   -10.72320   165.72385   -12.63391
   159  H   1.0    0.08    1.10    1.44   -11.56079   160.41395   -11.22925
   160  H   1.0    0.05    1.03    1.43   -15.21471   164.01228   -11.02982
   161  H   1.0    0.07    1.03    1.43   -15.62086   163.05686   -14.22900
   162  H   1.0    0.10    1.03    1.43   -16.73853   158.14104    -8.22726
   163  H   1.0    0.09    1.03    1.43   -14.86980   160.83414    -7.96185
   164  H   1.0    0.10    1.08    1.44   -10.72152   174.08005    16.92755
   165  H   1.0    0.06    1.05    1.44   -12.24426   168.92051    13.62263
   166  H   1.0    0.10    1.07    1.44   -19.64909   169.71289    15.68355
   167  H   1.0    0.06    1.04    1.43   -20.70531   166.52682    10.29636
   168  H   1.0    0.07    1.05    1.44    -9.85103   161.95429   -16.08823

  Z AO/shell   Hii/eV     exponent
  1     Wed Apr 25 08:07:45 CEST 2018   EN: 2.200 GM2: 0.406  GM3: 0.0800  RAES: 1.40
     1s    -10.707211    1.230000
  6     Wed Apr 25 08:07:45 CEST 2018   EN: 2.550 GM2: 0.538  GM3: 0.1500  RAES: 3.00
     2s    -13.970922    2.096432
     2p    -10.063292    1.800000
  7     Wed Apr 25 08:07:45 CEST 2018   EN: 3.040 GM2: 0.461  GM3:-0.0640  RAES: 1.90
     2s    -16.686243    2.339881
     2p    -12.523956    2.014332
  8     Wed Apr 25 08:07:45 CEST 2018   EN: 3.440 GM2: 0.452  GM3:-0.0517  RAES: 1.80
     2s    -20.229985    2.439742
     2p    -15.503117    2.137023
 no old-style atom pair restraining (fixing) potential

molecular fragmentation (1/2 indicates fragments):
111111111111111112222222222222222222222222222222222222222222222222222222
222222222222222222222222222222222222222222222222222222222222222222222222
222222222222222222211222
# atoms in fragment 1/2:    19   149
 fragment masses (1/2) :      130.15     1002.17
CMA distance (Bohr)    :  16.493
constraining FC (au)   :  0.0500
           ------------------------------------------------- 
          |        Self-Consistent Charge Iterations        |
           ------------------------------------------------- 

 Ncao       : 405
 Nao        : 405
 Nshell     : 247
 Nel        : 452
 T(el)      :   500.0
 intcut     :    35.0
 scfconv/Eh :  0.100E-06
   qconv/e  :  0.100E-04
 intneglect :  0.100E-08
 broydamp   :      0.400
 iter      E             dE          RMSdq      gap      omega  full diag
   1   -259.6646645 -0.259665E+03  0.464E+00    3.31       0.0  T
   2   -260.3547258 -0.690061E+00  0.214E+00    2.06       1.0  T
   3   -260.4018300 -0.471042E-01  0.125E+00    2.28       1.0  T
   4   -260.4424109 -0.405809E-01  0.261E-01    1.66       1.0  T
   5   -260.4449732 -0.256233E-02  0.129E-01    1.77       1.0  T
   6   -260.4452997 -0.326492E-03  0.512E-02    1.74       1.0  T
   7   -260.4453905 -0.908290E-04  0.205E-02    1.77       1.0  T
   8   -260.4454001 -0.952563E-05  0.908E-03    1.77       1.0  T
   9   -260.4454031 -0.306701E-05  0.385E-03    1.78       2.0  T
  10   -260.4454035 -0.319116E-06  0.153E-03    1.78       5.1  T
  11   -260.4454036 -0.104101E-06  0.666E-04    1.78      11.6  T
  12   -260.4454036 -0.128202E-07  0.248E-04    1.78      31.1  T
  13   -260.4454036 -0.145400E-08  0.126E-04    1.78      61.1  T
  14   -260.4454036 -0.448892E-09  0.447E-05    1.78     172.6  T
  15   -260.4454036 -0.580371E-10  0.161E-05    1.78     479.7  T
speedup  2.00
cpu  time for SCC    2.14 s
wall time for SCC    1.07 s

   *** convergence criteria satisfied after 15 iterations ***

          eigenvalues
 #    :         214        215        216        217        218        219        220        221
 occ. :        2.000      2.000      2.000      2.000      2.000      2.000      2.000      2.000
 eps  :       -11.040    -11.024    -10.817    -10.792    -10.752    -10.746    -10.736    -10.296
 #    :         222        223        224        225        226        227        228        229
 occ. :        2.000      2.000      2.000      2.000      2.000      0.000      0.000      0.000
 eps  :       -10.288    -10.258    -10.150     -9.791     -9.758     -7.982     -7.900     -7.724
 #    :         230        231        232        233        234        235        236        237
 occ. :        0.000      0.000      0.000      0.000      0.000      0.000      0.000      0.000
 eps  :        -7.063     -6.756     -6.699     -6.446     -6.307     -6.198     -6.068     -5.957


   #   Z            q   n(s)   n(p)   n(d)      C6AA      α(0)
   1   7 N     -0.397  1.310  4.087  0.000    30.278     8.172
   2   6 C      0.043  1.049  2.908  0.000    19.868     6.349
   3   6 C      0.192  1.090  2.718  0.000    23.888     8.004
   4   8 O     -0.370  1.753  4.617  0.000    21.084     6.156
   5   6 C     -0.065  1.058  3.007  0.000    21.743     6.638
   6   6 C     -0.099  1.059  3.040  0.000    22.383     6.735
   7   6 C      0.290  1.042  2.668  0.000    22.076     7.693
   8   8 O     -0.510  1.760  4.749  0.000    23.996     6.568
   9   7 N     -0.292  1.267  4.025  0.000    27.527     7.792
  10   1 H      0.173  0.827  0.000  0.000     1.256     1.756
  11   1 H      0.058  0.942  0.000  0.000     2.221     2.331
  12   1 H      0.058  0.942  0.000  0.000     2.218     2.329
  13   1 H      0.061  0.939  0.000  0.000     2.182     2.310
  14   1 H      0.066  0.934  0.000  0.000     2.129     2.282
  15   1 H      0.069  0.931  0.000  0.000     2.096     2.264
  16   1 H      0.228  0.772  0.000  0.000     0.972     1.544
  17   1 H      0.223  0.777  0.000  0.000     0.994     1.562
  18   7 N     -0.388  1.307  4.081  0.000    30.040     8.140
  19   6 C      0.040  1.064  2.896  0.000    19.930     6.361
  20   6 C      0.207  1.092  2.701  0.000    23.606     7.956
  21   8 O     -0.368  1.759  4.609  0.000    21.043     6.150
  22   6 C     -0.044  1.054  2.990  0.000    21.367     6.582
  23   6 C     -0.103  1.064  3.039  0.000    22.469     6.749
  24   6 C      0.363  1.032  2.606  0.000    20.847     7.472
  25   8 O     -0.638  1.766  4.873  0.000    27.073     6.976
  26   8 O     -0.626  1.765  4.861  0.000    26.775     6.938
  27   1 H      0.159  0.841  0.000  0.000     1.339     1.813
  28   1 H      0.026  0.974  0.000  0.000     2.643     2.543
  29   1 H      0.027  0.973  0.000  0.000     2.630     2.536
  30   1 H      0.037  0.963  0.000  0.000     2.487     2.466
  31   1 H      0.067  0.933  0.000  0.000     2.115     2.274
  32   1 H      0.017  0.983  0.000  0.000     2.784     2.609
  33   7 N     -0.157  1.235  3.923  0.000    24.393     7.335
  34   6 C     -0.037  1.086  2.951  0.000    21.257     6.570
  35   6 C      0.264  1.039  2.698  0.000    22.554     7.777
  36   8 O     -0.437  1.743  4.694  0.000    22.432     6.350
  37   6 C      0.066  1.041  2.893  0.000    19.691     6.359
  38   8 O     -0.475  1.712  4.764  0.000    22.370     6.385
  39   1 H      0.300  0.700  0.000  0.000     0.712     1.322
  40   1 H      0.319  0.681  0.000  0.000     0.660     1.273
  41   1 H      0.315  0.685  0.000  0.000     0.672     1.284
  42   1 H      0.124  0.876  0.000  0.000     1.579     1.965
  43   1 H      0.081  0.919  0.000  0.000     1.970     2.195
  44   1 H      0.067  0.933  0.000  0.000     2.115     2.274
  45   1 H      0.333  0.667  0.000  0.000     0.629     1.246
  46   7 N     -0.160  1.254  3.907  0.000    24.470     7.347
  47   6 C      0.004  1.080  2.915  0.000    20.509     6.449
  48   6 C      0.272  1.047  2.681  0.000    22.398     7.749
  49   8 O     -0.437  1.744  4.693  0.000    22.425     6.349
  50   6 C     -0.054  1.052  3.002  0.000    21.540     6.607
  51   6 C     -0.096  1.068  3.028  0.000    22.335     6.730
  52   6 C      0.371  1.027  2.602  0.000    20.703     7.447
  53   8 O     -0.650  1.774  4.876  0.000    27.385     7.016
  54   8 O     -0.645  1.778  4.868  0.000    27.259     7.000
  55   1 H      0.210  0.790  0.000  0.000     1.055     1.609
  56   1 H      0.092  0.908  0.000  0.000     1.864     2.135
  57   1 H      0.036  0.964  0.000  0.000     2.500     2.472
  58   1 H      0.041  0.959  0.000  0.000     2.441     2.443
  59   1 H      0.027  0.973  0.000  0.000     2.635     2.538
  60   1 H      0.027  0.973  0.000  0.000     2.632     2.537
  61   7 N     -0.187  1.247  3.940  0.000    25.059     7.435
  62   6 C      0.025  1.059  2.915  0.000    20.164     6.396
  63   6 C      0.266  1.045  2.689  0.000    22.508     7.770
  64   8 O     -0.471  1.733  4.738  0.000    23.160     6.452
  65   6 C     -0.134  1.043  3.091  0.000    23.126     6.856
  66   1 H      0.202  0.798  0.000  0.000     1.094     1.638
  67   1 H      0.079  0.921  0.000  0.000     1.986     2.204
  68   1 H      0.077  0.923  0.000  0.000     2.012     2.218
  69   1 H      0.060  0.940  0.000  0.000     2.203     2.321
  70   1 H      0.062  0.938  0.000  0.000     2.172     2.305
  71   7 N     -0.156  1.235  3.922  0.000    24.376     7.333
  72   6 C      0.018  1.059  2.923  0.000    20.279     6.411
  73   6 C      0.279  1.047  2.674  0.000    22.278     7.730
  74   8 O     -0.487  1.743  4.744  0.000    23.490     6.498
  75   6 C     -0.077  1.062  3.014  0.000    21.957     6.670
  76   6 C     -0.008  1.057  2.951  0.000    20.681     6.469
  77   6 C     -0.114  1.041  3.072  0.000    22.716     6.794
  78   6 C     -0.116  1.039  3.077  0.000    22.775     6.804
  79   1 H      0.216  0.784  0.000  0.000     1.027     1.588
  80   1 H      0.086  0.914  0.000  0.000     1.921     2.167
  81   1 H      0.058  0.942  0.000  0.000     2.227     2.334
  82   1 H      0.072  0.928  0.000  0.000     2.059     2.244
  83   1 H      0.025  0.975  0.000  0.000     2.663     2.552
  84   1 H      0.040  0.960  0.000  0.000     2.454     2.450
  85   1 H      0.035  0.965  0.000  0.000     2.519     2.482
  86   1 H      0.050  0.950  0.000  0.000     2.321     2.382
  87   1 H      0.045  0.955  0.000  0.000     2.387     2.416
  88   1 H      0.048  0.952  0.000  0.000     2.346     2.395
  89   1 H      0.037  0.963  0.000  0.000     2.488     2.467
  90   7 N     -0.189  1.251  3.938  0.000    25.102     7.441
  91   6 C      0.003  1.074  2.923  0.000    20.524     6.450
  92   6 C      0.272  1.041  2.687  0.000    22.396     7.749
  93   8 O     -0.489  1.746  4.742  0.000    23.533     6.504
  94   6 C     -0.088  1.059  3.029  0.000    22.181     6.706
  95   6 C     -0.094  1.058  3.036  0.000    22.289     6.722
  96   6 C     -0.100  1.056  3.044  0.000    22.411     6.741
  97   6 C     -0.054  1.060  2.995  0.000    21.651     6.643
  98   7 N     -0.146  1.228  3.918  0.000    24.145     7.298
  99   1 H      0.194  0.806  0.000  0.000     1.139     1.672
 100   1 H      0.097  0.903  0.000  0.000     1.808     2.103
 101   1 H      0.068  0.932  0.000  0.000     2.111     2.272
 102   1 H      0.066  0.934  0.000  0.000     2.127     2.281
 103   1 H      0.083  0.917  0.000  0.000     1.947     2.182
 104   1 H      0.072  0.928  0.000  0.000     2.062     2.246
 105   1 H      0.081  0.919  0.000  0.000     1.973     2.197
 106   1 H      0.085  0.915  0.000  0.000     1.930     2.172
 107   1 H      0.116  0.884  0.000  0.000     1.649     2.008
 108   1 H      0.120  0.880  0.000  0.000     1.613     1.986
 109   1 H      0.300  0.700  0.000  0.000     0.714     1.324
 110   1 H      0.303  0.697  0.000  0.000     0.705     1.315
 111   1 H      0.295  0.705  0.000  0.000     0.728     1.336
 112   7 N     -0.186  1.243  3.943  0.000    25.040     7.432
 113   6 C      0.008  1.077  2.914  0.000    20.459     6.443
 114   6 C      0.268  1.049  2.683  0.000    22.474     7.762
 115   8 O     -0.504  1.758  4.746  0.000    23.876     6.551
 116   6 C     -0.024  1.079  2.945  0.000    20.973     6.515
 117   6 C     -0.076  1.054  3.022  0.000    21.946     6.670
 118   6 C     -0.125  1.044  3.081  0.000    22.965     6.834
 119   6 C     -0.103  1.036  3.067  0.000    22.530     6.769
 120   1 H      0.224  0.776  0.000  0.000     0.994     1.561
 121   1 H      0.066  0.934  0.000  0.000     2.129     2.282
 122   1 H      0.036  0.964  0.000  0.000     2.506     2.476
 123   1 H      0.072  0.928  0.000  0.000     2.062     2.246
 124   1 H      0.026  0.974  0.000  0.000     2.645     2.543
 125   1 H      0.048  0.952  0.000  0.000     2.351     2.398
 126   1 H      0.043  0.957  0.000  0.000     2.406     2.426
 127   1 H      0.078  0.922  0.000  0.000     1.997     2.210
 128   1 H      0.040  0.960  0.000  0.000     2.449     2.447
 129   1 H      0.032  0.968  0.000  0.000     2.553     2.499
 130   1 H      0.038  0.962  0.000  0.000     2.481     2.463
 131   7 N     -0.184  1.254  3.931  0.000    24.992     7.425
 132   6 C      0.023  1.060  2.918  0.000    20.204     6.402
 133   6 C      0.272  1.049  2.679  0.000    22.401     7.752
 134   8 O     -0.474  1.744  4.730  0.000    23.218     6.460
 135   6 C     -0.086  1.060  3.026  0.000    22.135     6.696
 136   6 C     -0.013  1.061  2.952  0.000    20.770     6.483
 137   6 C     -0.120  1.043  3.076  0.000    22.844     6.815
 138   6 C     -0.119  1.047  3.072  0.000    22.826     6.812
 139   1 H      0.224  0.776  0.000  0.000     0.991     1.559
 140   1 H      0.072  0.928  0.000  0.000     2.068     2.249
 141   1 H      0.068  0.932  0.000  0.000     2.108     2.271
 142   1 H      0.074  0.926  0.000  0.000     2.045     2.236
 143   1 H      0.032  0.968  0.000  0.000     2.564     2.504
 144   1 H      0.039  0.961  0.000  0.000     2.459     2.452
 145   1 H      0.047  0.953  0.000  0.000     2.355     2.400
 146   1 H      0.042  0.958  0.000  0.000     2.422     2.434
 147   1 H      0.046  0.954  0.000  0.000     2.364     2.404
 148   1 H      0.045  0.955  0.000  0.000     2.381     2.413
 149   1 H      0.037  0.963  0.000  0.000     2.489     2.467
 150   7 N     -0.172  1.235  3.937  0.000    24.732     7.386
 151   6 C      0.025  1.057  2.917  0.000    20.146     6.390
 152   6 C      0.201  1.084  2.715  0.000    23.718     7.976
 153   8 O     -0.363  1.758  4.605  0.000    20.947     6.136
 154   6 C     -0.104  1.064  3.040  0.000    22.482     6.750
 155   6 C      0.295  1.032  2.673  0.000    21.990     7.678
 156   8 O     -0.480  1.755  4.725  0.000    23.350     6.479
 157   7 N     -0.289  1.264  4.025  0.000    27.451     7.781
 158   1 H      0.196  0.804  0.000  0.000     1.127     1.663
 159   1 H      0.119  0.881  0.000  0.000     1.618     1.989
 160   1 H      0.098  0.902  0.000  0.000     1.804     2.101
 161   1 H      0.083  0.917  0.000  0.000     1.945     2.181
 162   1 H      0.237  0.763  0.000  0.000     0.935     1.515
 163   1 H      0.232  0.768  0.000  0.000     0.958     1.534
 164   1 H      0.184  0.816  0.000  0.000     1.189     1.708
 165   1 H      0.079  0.921  0.000  0.000     1.988     2.205
 166   1 H      0.186  0.814  0.000  0.000     1.178     1.700
 167   1 H      0.078  0.922  0.000  0.000     1.999     2.211
 168   1 H      0.073  0.927  0.000  0.000     2.057     2.243

 Mol. C6AA /au·bohr⁶  :     247329.964894
 Mol. C8AA /au·bohr⁸  :    5418041.862194
 Mol. α(0) /au        :        738.329275

 
molecular dipole:
                 x           y           z       tot (Debye)
 q only:      -15.166      -7.599      -5.501
   full:      -14.497      -5.938      -3.917      41.046
molecular quadrupole (traceless):
                xx          xy          yy          xz          yz          zz
 q only:     1990.157   -3841.849   -3087.986     372.007   -1537.525    1097.829
  q+dip:     1690.374   -3706.567   -2513.487     330.415   -1127.746     823.113
   full:     1693.466   -3707.471   -2515.856     331.092   -1128.391     822.391
speedup  2.00
cpu  time for grad    3.25 s
wall time for grad    1.63 s

SCC energy    :    -260.4498758
rep           :       2.9601810
ES            :       1.0410466
AES           :      -0.0361733
AXC           :       0.0793426
disp          :      -0.1908397
XB            :       0.0000000
fix           :       0.0000000
Gborn         :       0.0000000
Gsasa         :       0.0000000
Ghb           :       0.0000000
Gshift        :       0.0000000
Gsolv         :      -0.3223255     -202.26
Etot ala COSMO:    -260.4498758
grad norm     :       0.3486494
total E       :    -257.4767979
atomizationE  :      46.0184670    28877.02
(atE without considering molecular charge,
 total energy contains solvation terms)
H-L gap (eV)  :          1.7764

------------------------------------------------------------------------
 * finished run on 2019/05/11 at 23:19:16.077     
------------------------------------------------------------------------
 total:
 * wall-time:     0 d,  0 h,  0 min,  1.914 sec
 *  cpu-time:     0 d,  0 h,  0 min,  3.599 sec
 * ratio c/w:     1.880 speedup
 SCF:
 * wall-time:     0 d,  0 h,  0 min,  1.721 sec
 *  cpu-time:     0 d,  0 h,  0 min,  3.437 sec
 * ratio c/w:     1.997 speedup

