      -----------------------------------------------------------      
     |                   =====================                   |     
     |                           x T B                           |     
     |                   =====================                   |     
     |                         S. Grimme                         |     
     |          Mulliken Center for Theoretical Chemistry        |     
     |                    University of Bonn                     |     
     |                 Version 6.0.1 (SAW181210)                 |     
      -----------------------------------------------------------      

   This program is distributed in the hope that it will be useful,
   but WITHOUT ANY WARRANTY; without even the implied warranty of
   MERCHANTABILITY or FITNESS FOR A PARTICULAR PURPOSE.
   
   FOR NON-COMMERCIAL, ACADEMIA USE ONLY.
   
   Cite this work as:
   S. Grimme, C. Bannwarth, P. Shushkov, J. Comput. Theory Chem., 2017,
   13, 1989-2009.
   C. Bannwarth, S. Ehlert and S. Grimme., ChemRxiv, 2018, preprint.
   http://doi.org/10.26434/chemrxiv.7246238.v1
   
   for sTDA-xTB:
   S. Grimme and C. Bannwarth, J. Chem. Phys., 2016, 145, 054103.
   
   in the mass-spec context:
   V. Asgeirsson, C. Bauer and S. Grimme, Chem. Sci., 2017, 8, 4879.
   
   if GBSA is used:
   P. Shushkov, F. März and S. Grimme, unpublished.
   
   for ANC optimizer:
   S. Grimme, unpublished.
   Rational Function algorithm used in ANCopt:
   F. Eckert, P. Pulay, H.-J. Werner, J. Comput. Chem., 1997, 18, 1473.
   
   with help from (in alphabetical order)
   C. Bannwarth, F. Bohle, G. Brandenburg, E. Caldeweyher, M. Checinski,
   S. Dohm, S. Ehlert, S. Ehrlich, F. März, H. Neugebauer, J. Pisarek,
   P. Pracht, P. Shushkov, and S. Spicher.
   
 * started run on 2019/05/05 at 21:59:10.709     
========================================================================
 # omp threads = 2
========================================================================
number of atoms            : 671
number of electrons        : 1818
charge                     : 0
spin                       : .0
first test random number   : .5572

########################################################################
# WARNING! Please study the warnings concerning your input carefully
#  - Process number higher than OMP_NUM_THREADS, I hope you know what you are doing.
########################################################################

           ------------------------------------------------- 
          |                 G F N 2 - x T B                 |
          | Geometry, Frequencies, Noncovalent interactions |
          |            JCTC 2018 parametrisation            |
           ------------------------------------------------- 
 
      method parameters     
 k(s)        :  1.8500
 k(p)        :  2.2300
 k(d)        :  2.2300
 k(f)        :  2.0000
 kEN (H0ij)  : -2.0000
 D4 a1       :  0.5200
 D4 a2       :  5.0000
 D4 s6       :  1.0000
 D4 s8       :  2.7000
 D4 s9       :  5.0000
 alphaj      :  2.0000

 Solvent             : h2o
 Using internal parameter file: .param_gbsa2_h2o
 Gsolv ref. state (COSMO-RS): gsolv [1 M gas/solution]
 temperature (mdtemp)       :    298.150000000000     
 dielectric constant        :    80.2000000000000     
 rho                        :    1.00000000000000     
 mass                       :    18.0000000000000     
 surface tension            :    15.5689454083859     
 probe radius               :   0.975313790000000     
 vdW radii scaling          :    1.00000000000000     
 Gshift (Eh)                :   1.857443126794793E-003
 c1                         :    1.55243817000000     
 soset                      :   0.130326360000000     
 HB correction              :  T

            Z     q(EN)     CN     RAES       Cart. coordinates
     1  N   5.0   -0.19    3.26    1.97    84.31390    83.72431   171.74207
     2  C   4.0    0.03    4.26    4.12    82.86259    81.81191   173.02520
     3  C   4.0    0.08    3.22    3.04    80.27178    81.59837   171.81199
     4  O   6.0   -0.28    1.13    1.80    79.13983    83.48620   171.01075
     5  C   4.0   -0.05    4.41    4.40    82.59803    82.54134   175.78798
     6  C   4.0   -0.03    4.24    4.08    85.03578    83.22920   177.13535
     7  C   4.0   -0.08    4.12    3.84    84.64083    83.79234   179.90947
     8  C   4.0   -0.08    4.17    3.94    86.84991    81.05035   176.88213
     9  H   1.0    0.09    1.03    1.43    83.92651    85.50632   172.36568
    10  H   1.0    0.04    1.06    1.44    83.77911    79.97131   172.89859
    11  H   1.0    0.05    1.04    1.43    81.35081    84.17595   175.90514
    12  H   1.0    0.04    1.04    1.43    81.76844    80.94830   176.79709
    13  H   1.0    0.04    1.06    1.44    85.79356    84.94129   176.27553
    14  H   1.0    0.04    1.00    1.43    86.45496    84.27044   180.76174
    15  H   1.0    0.04    1.00    1.43    83.33880    85.37782   180.09277
    16  H   1.0    0.03    1.00    1.43    83.85092    82.12560   180.82599
    17  H   1.0    0.04    1.00    1.43    88.60736    81.52656   177.84400
    18  H   1.0    0.04    1.00    1.43    86.01088    79.37605   177.74006
    19  H   1.0    0.04    1.01    1.43    87.21274    80.70831   174.88280
    20  N   5.0   -0.20    3.23    1.96    73.97710    75.29424   170.09612
    21  C   4.0    0.03    4.34    4.28    72.92641    72.81492   170.55155
    22  C   4.0    0.15    3.44    3.09    73.04736    71.35605   168.07790
    23  O   6.0   -0.30    1.25    1.80    71.72266    71.94376   166.26565
    24  C   4.0   -0.03    4.35    4.29    70.18631    72.97933   171.44917
    25  C   4.0   -0.02    3.55    3.14    69.89718    73.72955   174.16848
    26  C   4.0   -0.03    3.47    3.10    69.97655    71.92486   176.06955
    27  C   4.0   -0.04    3.47    3.10    69.48522    76.22966   174.82800
    28  C   4.0   -0.04    3.37    3.07    69.68553    72.60894   178.58477
    29  C   4.0   -0.04    3.38    3.07    69.19421    76.92318   177.33377
    30  C   4.0   -0.04    3.37    3.07    69.31137    75.11283   179.22161
    31  H   1.0    0.09    1.03    1.43    73.04169    76.28635   168.73363
    32  H   1.0    0.06    1.07    1.44    74.04324    71.85872   171.99530
    33  H   1.0    0.05    1.04    1.43    69.20176    74.38150   170.30588
    34  H   1.0    0.05    1.04    1.43    69.30381    71.13306   171.21295
    35  H   1.0    0.07    1.03    1.43    70.26757    69.96332   175.58578
    36  H   1.0    0.05    1.03    1.43    69.39074    77.65451   173.36913
    37  H   1.0    0.05    1.03    1.43    69.75167    71.18409   180.04364
    38  H   1.0    0.05    1.03    1.43    68.87484    78.87905   177.81754
    39  H   1.0    0.05    1.03    1.43    69.11106    75.65518   181.17937
    40  N   5.0   -0.12    3.49    2.07    74.63284    69.43798   168.00986
    41  C   4.0    0.04    4.27    4.14    74.88039    67.90730   165.75353
    42  C   4.0    0.08    3.21    3.04    73.03980    65.68120   165.89148
    43  O   6.0   -0.30    1.21    1.80    72.73744    64.50769   167.88703
    44  C   4.0   -0.08    4.10    3.80    77.60349    67.01157   165.44551
    45  H   1.0    0.10    1.09    1.44    75.76478    68.89941   169.47440
    46  H   1.0    0.05    1.06    1.44    74.40985    69.00523   164.07546
    47  H   1.0    0.03    1.01    1.43    77.74333    65.86640   163.73908
    48  H   1.0    0.04    1.00    1.43    78.83748    68.65374   165.29244
    49  H   1.0    0.05    1.01    1.43    78.13072    65.88718   167.08957
    50  N   5.0   -0.19    3.23    1.96    70.77591    58.70623   162.64304
    51  C   4.0    0.03    4.25    4.11    71.32771    56.53493   161.03678
    52  C   4.0    0.07    3.23    3.04    69.32460    54.53182   161.28244
    53  O   6.0   -0.27    1.16    1.80    67.91297    54.49592   163.11925
    54  C   4.0   -0.05    4.39    4.37    73.86183    55.40488   161.75109
    55  C   4.0   -0.05    4.09    3.78    76.03690    57.17177   161.18229
    56  S   6.0   -0.05    2.50    3.10    79.02267    55.55605   161.11237
    57  C   4.0   -0.06    3.89    3.45    79.16818    54.30505   164.27199
    58  H   1.0    0.11    1.03    1.43    70.24489    58.22435   164.43261
    59  H   1.0    0.04    1.06    1.44    71.35416    57.16421   159.07524
    60  H   1.0    0.04    1.04    1.43    73.87506    55.00047   163.77121
    61  H   1.0    0.04    1.05    1.44    74.15096    53.66822   160.68340
    62  H   1.0    0.04    1.07    1.44    75.73455    58.04293   159.33980
    63  H   1.0    0.04    1.07    1.44    76.12761    58.62308   162.64115
    64  H   1.0    0.05    1.04    1.43    80.92562    53.25626   164.49686
    65  H   1.0    0.04    1.04    1.43    79.10393    55.86597   165.61558
    66  H   1.0    0.05    1.04    1.43    77.56002    53.05406   164.57245
    67  N   5.0   -0.19    3.25    1.97    67.05504    50.64843   167.88136
    68  C   4.0    0.03    4.33    4.25    67.38763    52.01093   170.26620
    69  C   4.0    0.15    3.50    3.12    66.06482    54.55261   170.15470
    70  O   6.0   -0.26    1.29    1.80    65.60373    55.52015   168.14215
    71  C   4.0   -0.04    4.30    4.20    70.23544    52.32840   170.79532
    72  C   4.0   -0.02    3.54    3.13    71.81903    49.98892   170.23029
    73  C   4.0   -0.04    3.45    3.10    72.75445    49.53350   167.79066
    74  C   4.0   -0.04    3.49    3.11    72.35950    48.23148   172.12002
    75  C   4.0   -0.03    3.39    3.08    74.18686    47.39811   167.25775
    76  C   4.0   -0.04    3.41    3.08    73.78057    46.07530   171.61357
    77  C   4.0    0.08    3.42    3.08    74.69898    45.65578   169.18338
    78  O   6.0   -0.23    2.09    1.84    76.11438    43.51850   168.68450
    79  H   1.0    0.12    1.03    1.43    67.51613    51.66700   166.31100
    80  H   1.0    0.03    1.06    1.44    66.52213    50.98103   171.82522
    81  H   1.0    0.06    1.03    1.43    70.95354    53.86475   169.62558
    82  H   1.0    0.04    1.03    1.43    70.48678    52.78383   172.78898
    83  H   1.0    0.05    1.03    1.43    72.35383    50.86764   166.29966
    84  H   1.0    0.05    1.06    1.44    71.66219    48.54895   174.01163
    85  H   1.0    0.06    1.03    1.43    74.90118    47.08441   165.37181
    86  H   1.0    0.05    1.03    1.43    74.16985    44.73359   173.10079
    87  H   1.0    0.12    1.02    1.43    76.29769    42.50561   170.22462
    88  N   5.0   -0.10    3.70    2.27    65.45444    55.64865   172.32222
    89  C   4.0    0.04    4.66    4.72    64.35840    58.14498   172.27309
    90  C   4.0    0.15    3.44    3.09    66.24623    60.25580   171.59279
    91  O   6.0   -0.28    1.23    1.80    68.52902    59.80227   171.15248
    92  C   4.0   -0.05    4.44    4.45    63.49668    58.49269   175.00563
    93  C   4.0   -0.04    4.35    4.29    65.51491    57.24736   176.43993
    94  C   4.0   -0.02    4.39    4.36    66.10450    54.91166   174.92059
    95  H   1.0    0.05    1.05    1.44    62.78237    58.16765   170.94650
    96  H   1.0    0.05    1.03    1.43    63.36440    60.49391   175.47050
    97  H   1.0    0.04    1.03    1.43    61.67688    57.57617   175.30988
    98  H   1.0    0.05    1.03    1.43    67.15897    58.48324   176.57221
    99  H   1.0    0.03    1.03    1.43    64.84784    56.75792   178.32588
   100  H   1.0    0.04    1.02    1.43    68.10194    54.42978   175.06610
   101  H   1.0    0.04    1.02    1.43    64.94799    53.32429   175.54231
   102  N   5.0   -0.14    3.52    2.09    65.21822    62.54426   171.55121
   103  C   4.0    0.04    4.48    4.51    66.64119    64.81004   171.07689
   104  C   4.0    0.15    3.51    3.12    68.41942    64.98957   173.25196
   105  O   6.0   -0.31    1.24    1.80    67.67676    65.55081   175.38169
   106  C   4.0   -0.03    4.32    4.23    64.92531    67.12307   170.96540
   107  C   4.0    0.04    3.70    3.24    63.20944    67.15708   168.71095
   108  N   5.0   -0.16    2.59    1.90    60.95689    65.84372   168.62403
   109  C   4.0   -0.01    3.61    3.17    63.43432    68.33060   166.45273
   110  C   4.0    0.06    3.56    3.14    59.86463    66.21978   166.41683
   111  N   5.0   -0.11    3.48    2.06    61.33672    67.71455   165.06000
   112  H   1.0    0.08    1.07    1.44    63.34361    62.88063   171.85168
   113  H   1.0    0.06    1.06    1.44    67.61817    64.77036   169.26464
   114  H   1.0    0.06    1.03    1.43    63.74613    67.15708   172.65481
   115  H   1.0    0.04    1.03    1.43    66.09694    68.81437   170.88981
   116  H   1.0    0.05    1.01    1.43    64.97634    69.52869   165.85747
   117  H   1.0    0.05    1.01    1.43    58.07506    65.44121   165.81967
   118  H   1.0    0.07    1.04    1.43    60.97201    68.31359   163.26476
   119  N   5.0   -0.12    3.51    2.09    70.78346    64.37540   172.67938
   120  C   4.0    0.04    4.48    4.50    72.77713    64.11273   174.55588
   121  C   4.0    0.14    3.51    3.12    74.31536    66.54103   174.72406
   122  O   6.0   -0.31    1.32    1.80    74.76134    67.75612   172.80221
   123  C   4.0   -0.03    4.37    4.33    74.49300    61.93010   173.80376
   124  C   4.0   -0.03    3.77    3.31    75.73644    60.85107   175.95805
   125  C   4.0   -0.00    3.67    3.21    77.80380    61.75246   177.18259
   126  C   4.0    0.00    3.92    3.49    74.98622    58.64576   177.23740
   127  N   5.0   -0.11    3.49    2.07    78.42174    60.21801   179.15925
   128  C   4.0    0.04    3.90    3.47    76.71531    58.27537   179.24240
   129  C   4.0   -0.05    3.40    3.08    73.02090    56.89776   176.87646
   130  C   4.0   -0.04    3.38    3.07    76.54713    56.22502   180.89213
   131  C   4.0   -0.05    3.36    3.07    72.83949    54.86441   178.51107
   132  C   4.0   -0.04    3.37    3.07    74.60827    54.54127   180.51229
   133  H   1.0    0.12    1.12    1.45    71.39763    64.03714   170.88414
   134  H   1.0    0.05    1.08    1.44    71.98722    63.73290   176.42104
   135  H   1.0    0.06    1.04    1.44    73.36672    60.45989   172.90048
   136  H   1.0    0.05    1.04    1.44    75.93297    62.61418   172.49985
   137  H   1.0    0.07    1.03    1.43    78.81669    63.44755   176.66481
   138  H   1.0    0.11    1.06    1.44    79.90139    60.47312   180.36867
   139  H   1.0    0.05    1.02    1.43    71.68108    57.13586   175.35523
   140  H   1.0    0.07    1.03    1.43    77.88883    55.97179   182.40958
   141  H   1.0    0.05    1.03    1.43    71.33715    53.50570   178.26541
   142  H   1.0    0.06    1.03    1.43    74.42119    52.93689   181.75951
   143  N   5.0   -0.10    3.67    2.23    75.14684    67.22322   177.00874
   144  C   4.0    0.03    4.63    4.70    76.66429    69.50790   177.30354
   145  C   4.0    0.15    3.47    3.10    79.31180    69.13562   176.41726
   146  O   6.0   -0.32    1.28    1.80    80.47965    67.22322   176.99740
   147  C   4.0   -0.04    4.38    4.35    76.65106    70.00679   180.17214
   148  C   4.0   -0.04    4.30    4.20    76.13895    67.49912   181.31543
   149  C   4.0   -0.01    4.38    4.34    74.37205    66.20277   179.47105
   150  H   1.0    0.04    1.06    1.44    75.77234    71.06881   176.29820
   151  H   1.0    0.04    1.03    1.43    78.48221    70.73433   180.77118
   152  H   1.0    0.04    1.03    1.43    75.16763    71.35416   180.64646
   153  H   1.0    0.05    1.03    1.43    77.89639    66.44465   181.51763
   154  H   1.0    0.04    1.03    1.43    75.24322    67.73345   183.15413
   155  H   1.0    0.05    1.03    1.43    74.62528    64.15998   179.52774
   156  H   1.0    0.04    1.02    1.43    72.41052    66.68087   179.87734
   157  N   5.0   -0.14    3.49    2.07    80.25855    71.00456   175.06610
   158  C   4.0    0.04    4.38    4.35    82.65283    70.74378   173.78298
   159  C   4.0    0.14    3.41    3.08    83.67707    73.33459   173.08189
   160  O   6.0   -0.31    1.24    1.80    82.33347    75.25645   173.25574
   161  C   4.0   -0.06    4.12    3.84    82.38071    69.06192   171.46239
   162  H   1.0    0.09    1.07    1.44    79.41006    72.71854   174.82611
   163  H   1.0    0.06    1.07    1.44    84.01344    69.89529   175.07555
   164  H   1.0    0.05    1.00    1.43    84.21186    68.89941   170.53265
   165  H   1.0    0.05    1.00    1.43    81.72687    67.20054   172.05577
   166  H   1.0    0.05    1.00    1.43    81.01255    69.91041   170.17549
   167  N   5.0   -0.14    3.48    2.07    86.10536    73.35916   172.41482
   168  C   4.0    0.03    4.34    4.27    87.31101    75.56447   171.28287
   169  C   4.0    0.07    3.29    3.05    88.39382    74.82181   168.72418
   170  O   6.0   -0.31    1.20    1.80    88.78310    72.57681   168.20640
   171  C   4.0   -0.05    4.31    4.21    89.47663    76.47721   172.92693
   172  C   4.0   -0.04    4.32    4.24    91.69706    74.68764   172.78142
   173  C   4.0   -0.01    4.27    4.15    93.85702    75.44731   174.42548
   174  N   5.0   -0.14    3.48    2.06    95.05888    73.18531   175.32310
   175  C   4.0    0.10    3.37    3.07    96.92782    73.13806   176.94638
   176  N   5.0   -0.17    3.29    1.98    97.95205    75.24511   177.74006
   177  N   5.0   -0.17    3.34    2.00    97.86135    70.94409   177.69282
   178  H   1.0    0.10    1.07    1.44    87.29589    71.86061   172.63969
   179  H   1.0    0.05    1.06    1.44    85.92962    77.07625   171.05043
   180  H   1.0    0.03    1.03    1.43    90.09079    78.33481   172.28065
   181  H   1.0    0.04    1.03    1.43    88.85113    76.58492   174.88658
   182  H   1.0    0.05    1.05    1.44    91.08290    72.81303   173.37480
   183  H   1.0    0.05    1.05    1.44    92.37547    74.62528   170.83878
   184  H   1.0    0.04    1.03    1.43    95.21573    76.55658   173.34645
   185  H   1.0    0.05    1.03    1.43    93.17672    76.53957   176.03364
   186  H   1.0    0.07    1.08    1.44    94.41260    71.49778   174.65036
   187  H   1.0    0.09    1.04    1.43    97.29632    76.93830   177.09378
   188  H   1.0    0.10    1.03    1.43    99.40714    75.19409   179.00429
   189  H   1.0    0.09    1.04    1.43    97.12624    69.30003   177.00496
   190  H   1.0    0.14    1.25    1.48    99.31644    70.89496   178.95705
   191  N   5.0   -0.19    3.28    1.98    90.92794    67.70510   161.40149
   192  C   4.0    0.03    4.44    4.45    89.49553    68.16430   163.65027
   193  C   4.0    0.15    3.49    3.11    90.44795    66.47867   165.77810
   194  O   6.0   -0.32    1.28    1.80    91.17172    64.30548   165.35669
   195  C   4.0   -0.02    4.33    4.26    86.73464    67.58605   163.04555
   196  C   4.0   -0.07    4.15    3.90    85.19263    66.90575   165.36614
   197  C   4.0   -0.07    4.13    3.86    85.59325    69.81026   161.67172
   198  H   1.0    0.12    1.06    1.44    91.04322    65.83616   160.94040
   199  H   1.0    0.05    1.06    1.44    89.73364    70.10127   164.30789
   200  H   1.0    0.06    1.07    1.44    86.67606    65.91742   161.83802
   201  H   1.0    0.04    1.00    1.43    83.25188    66.51835   164.79166
   202  H   1.0    0.05    1.01    1.43    86.01088    65.23334   166.24864
   203  H   1.0    0.05    1.00    1.43    85.23231    68.48745   166.68517
   204  H   1.0    0.04    1.00    1.43    83.62226    69.39263   161.24276
   205  H   1.0    0.05    1.00    1.43    85.71230    71.47699   162.87737
   206  H   1.0    0.05    1.00    1.43    86.64016    70.12962   159.92751
   207  N   5.0   -0.15    3.53    2.10    90.42150    67.49534   168.06656
   208  C   4.0    0.04    4.53    4.58    91.20762    66.09128   170.22651
   209  C   4.0    0.15    3.53    3.13    89.06467    65.99868   172.05199
   210  O   6.0   -0.32    1.26    1.80    88.26721    67.96021   173.07811
   211  C   4.0   -0.03    4.41    4.40    93.39026    67.39141   171.45484
   212  C   4.0   -0.01    3.60    3.17    94.22363    66.18954   173.89825
   213  C   4.0   -0.03    3.48    3.10    96.01887    64.29037   173.86991
   214  C   4.0   -0.03    3.49    3.11    93.22963    66.99078   176.21317
   215  C   4.0   -0.03    3.38    3.07    96.84090    63.22267   176.07522
   216  C   4.0   -0.04    3.38    3.07    94.07245    65.96277   178.42981
   217  C   4.0   -0.04    3.40    3.08    95.89414    64.07305   178.36367
   218  H   1.0    0.11    1.10    1.44    89.85647    69.29814   168.45017
   219  H   1.0    0.06    1.08    1.44    91.72730    64.17509   169.67660
   220  H   1.0    0.04    1.04    1.43    94.99274    67.35739   170.16037
   221  H   1.0    0.05    1.04    1.43    92.85546    69.33782   171.86302
   222  H   1.0    0.05    1.03    1.43    96.77854    63.64408   172.08978
   223  H   1.0    0.06    1.03    1.43    91.78588    68.43265   176.25096
   224  H   1.0    0.07    1.03    1.43    98.22418    61.72223   176.03364
   225  H   1.0    0.05    1.03    1.43    93.32790    66.61473   180.21560
   226  H   1.0    0.05    1.04    1.43    96.57633    63.26236   180.10789
   227  N   5.0   -0.14    3.51    2.08    88.21997    63.69132   172.51875
   228  C   4.0    0.04    4.48    4.50    86.07702    63.24724   174.14203
   229  C   4.0    0.16    3.45    3.09    86.82724    63.13574   176.89914
   230  O   6.0   -0.30    1.29    1.80    88.39382    61.57861   177.63424
   231  C   4.0   -0.02    4.41    4.40    84.86192    60.76225   173.43338
   232  C   4.0   -0.01    3.61    3.17    83.63927    60.80004   170.91815
   233  C   4.0   -0.04    3.50    3.11    81.19397    61.70711   170.65737
   234  C   4.0   -0.03    3.49    3.11    84.91295    59.94967   168.82623
   235  C   4.0   -0.04    3.39    3.07    80.01478    61.73924   168.33679
   236  C   4.0   -0.04    3.39    3.08    83.75643    59.99691   166.49619
   237  C   4.0   -0.05    3.39    3.07    81.30168    60.88886   166.24486
   238  H   1.0    0.11    1.10    1.44    88.99286    62.08317   171.78932
   239  H   1.0    0.05    1.07    1.44    84.75421    64.80815   173.90770
   240  H   1.0    0.06    1.04    1.43    86.30945    59.29771   173.41070
   241  H   1.0    0.06    1.04    1.43    83.41817    60.30493   174.82989
   242  H   1.0    0.05    1.03    1.43    80.19808    62.39875   172.29954
   243  H   1.0    0.06    1.03    1.43    86.81968    59.24480   169.00764
   244  H   1.0    0.05    1.03    1.43    78.10048    62.42521   168.16104
   245  H   1.0    0.05    1.03    1.43    84.76744    59.33551   164.85024
   246  H   1.0    0.04    1.03    1.43    80.40595    60.91532   164.41183
   247  N   5.0   -0.13    3.49    2.07    85.60648    64.69477   178.43737
   248  C   4.0    0.04    4.51    4.55    86.18095    64.77981   181.10000
   249  C   4.0    0.15    3.46    3.10    85.22097    62.49513   182.49839
   250  O   6.0   -0.30    1.29    1.80    83.40683    61.25358   181.69904
   251  C   4.0   -0.03    4.43    4.44    85.02444    67.06259   182.26596
   252  C   4.0   -0.01    3.58    3.16    86.21497    69.46822   181.47227
   253  C   4.0   -0.03    3.46    3.10    88.46941    70.26757   182.56642
   254  C   4.0   -0.04    3.48    3.10    85.03389    71.01212   179.69404
   255  C   4.0   -0.03    3.36    3.07    89.54088    72.54658   181.86156
   256  C   4.0   -0.04    3.36    3.07    86.09591    73.29113   178.97028
   257  C   4.0   -0.03    3.36    3.07    88.34658    74.07537   180.07010
   258  H   1.0    0.10    1.08    1.44    84.21753    65.91175   177.88557
   259  H   1.0    0.05    1.07    1.44    88.23130    64.83650   181.29464
   260  H   1.0    0.05    1.05    1.44    83.03645    67.14196   181.73494
   261  H   1.0    0.06    1.05    1.44    85.20018    66.92087   184.31253
   262  H   1.0    0.07    1.04    1.43    89.38593    69.10539   183.97049
   263  H   1.0    0.06    1.04    1.43    83.26322    70.42064   178.86823
   264  H   1.0    0.07    1.03    1.43    91.30400    73.14562   182.69870
   265  H   1.0    0.05    1.03    1.43    85.18129    74.44953   177.56054
   266  H   1.0    0.06    1.03    1.43    89.17239    75.86494   179.54097
   267  N   5.0   -0.14    3.38    2.01    86.48331    61.93577   184.59977
   268  C   4.0    0.02    4.25    4.10    85.83324    59.81172   186.23249
   269  C   4.0    0.16    3.34    3.06    86.83480    57.33051   185.19314
   270  O   6.0   -0.29    1.25    1.80    88.21241    55.99069   186.44603
   271  H   1.0    0.11    1.09    1.44    87.99887    62.94110   185.23661
   272  H   1.0    0.06    1.03    1.43    86.63827    60.11218   188.10332
   273  H   1.0    0.07    1.03    1.43    83.78478    59.67377   186.39879
   274  N   5.0   -0.13    3.59    2.15    86.14694    56.70501   182.89146
   275  C   4.0    0.04    4.52    4.56    87.11826    54.44867   181.70282
   276  C   4.0    0.15    3.42    3.08    89.69773    54.86630   180.38757
   277  O   6.0   -0.29    1.20    1.80    91.12636    53.02571   179.84333
   278  C   4.0    0.05    4.30    4.19    85.21341    53.63420   179.74506
   279  O   6.0   -0.24    2.15    1.85    84.78255    55.72235   178.09155
   280  C   4.0   -0.06    4.12    3.84    82.74354    52.94634   181.00173
   281  H   1.0    0.11    1.10    1.44    84.92239    57.71790   181.80108
   282  H   1.0    0.06    1.06    1.44    87.38282    52.96146   183.10311
   283  H   1.0    0.05    1.04    1.43    85.90127    51.99581   178.70382
   284  H   1.0    0.14    1.03    1.43    83.55045    55.25559   176.79142
   285  H   1.0    0.06    1.00    1.43    81.37160    52.35864   179.58255
   286  H   1.0    0.05    1.00    1.43    83.03645    51.40055   182.33021
   287  H   1.0    0.06    1.00    1.43    81.99521    54.57151   182.02218
   288  N   5.0   -0.13    3.50    2.08    90.27032    57.28137   179.86790
   289  C   4.0    0.04    4.44    4.45    92.58523    57.99191   178.57532
   290  C   4.0    0.17    3.46    3.10    92.93861    56.56706   176.09600
   291  O   6.0   -0.29    1.26    1.80    95.03810    55.83006   175.45350
   292  C   4.0   -0.02    4.34    4.27    94.89637    57.56105   180.24584
   293  C   4.0    0.05    3.71    3.25    94.87936    59.00669   182.66091
   294  N   5.0   -0.17    2.60    1.91    96.09823    58.13931   184.79252
   295  C   4.0   -0.01    3.63    3.19    93.80411    61.23468   183.29586
   296  C   4.0    0.06    3.56    3.15    95.76942    59.77581   186.64634
   297  N   5.0   -0.10    3.48    2.06    94.39748    61.68065   185.78274
   298  H   1.0    0.11    1.08    1.44    89.14971    58.77993   180.32899
   299  H   1.0    0.06    1.07    1.44    92.41894    59.99880   178.14069
   300  H   1.0    0.07    1.04    1.43    94.99841    55.55983   180.72016
   301  H   1.0    0.05    1.04    1.43    96.57822    58.12230   179.19704
   302  H   1.0    0.05    1.01    1.43    92.68917    62.43655   182.07887
   303  H   1.0    0.05    1.01    1.43    96.49697    59.59251   188.54552
   304  H   1.0    0.09    1.05    1.44    93.86647    63.23023   186.79941
   305  N   5.0   -0.12    3.56    2.12    90.88637    56.17588   174.71839
   306  C   4.0    0.04    4.42    4.41    91.06400    55.08929   172.22017
   307  C   4.0    0.15    3.43    3.09    91.58746    57.33618   170.47974
   308  O   6.0   -0.31    1.31    1.80    91.37392    59.52259   171.31122
   309  C   4.0   -0.04    4.27    4.13    88.59602    53.77404   171.50964
   310  C   4.0   -0.03    4.15    3.90    87.51321    51.88998   173.42771
   311  C   4.0    0.24    3.10    3.02    84.62760    51.50826   173.10457
   312  O   6.0   -0.30    1.20    1.80    83.10826    53.30350   173.53164
   313  O   6.0   -0.27    1.16    1.80    83.82257    49.39177   172.40726
   314  H   1.0    0.09    1.06    1.44    89.09113    56.59162   175.28531
   315  H   1.0    0.06    1.05    1.44    92.53043    53.64932   172.06900
   316  H   1.0    0.05    1.04    1.43    87.16361    55.22535   171.21862
   317  H   1.0    0.06    1.03    1.43    88.90972    52.73469   169.75975
   318  H   1.0    0.05    1.03    1.43    88.43351    50.06451   173.17449
   319  H   1.0    0.06    1.03    1.43    87.85714    52.59296   175.33255
   320  N   5.0   -0.13    3.40    2.02    92.34335    56.81650   168.12892
   321  C   4.0    0.04    4.42    4.42    92.32823    58.74024   166.10313
   322  C   4.0    0.15    3.41    3.08    91.02054    57.78593   163.74286
   323  O   6.0   -0.29    1.24    1.80    90.64259    55.50881   163.40271
   324  C   4.0    0.06    4.19    3.97    94.98896    59.72290   165.27354
   325  O   6.0   -0.23    2.14    1.85    96.48752    57.69900   164.25498
   326  C   4.0   -0.06    4.02    3.66    96.41004    61.08161   167.45240
   327  H   1.0    0.11    1.06    1.44    92.97830    55.08929   167.55633
   328  H   1.0    0.06    1.08    1.44    91.27376    60.31249   166.91382
   329  H   1.0    0.05    1.05    1.44    94.71306    61.13074   163.79578
   330  H   1.0    0.11    1.01    1.43    98.14859    58.33773   163.74286
   331  H   1.0    0.05    0.99    1.43    98.25063    61.73357   166.79477
   332  H   1.0    0.05    1.00    1.43    95.31778    62.70300   168.10246
   333  H   1.0    0.06    1.00    1.43    96.68594    59.78526   169.03032
   334  N   5.0   -0.14    3.45    2.05    90.34213    59.56794   162.10447
   335  C   4.0    0.04    4.24    4.08    89.01365    58.99346   159.73476
   336  C   4.0    0.07    3.21    3.04    88.91916    61.27058   157.97920
   337  O   6.0   -0.31    1.19    1.80    89.34624    63.41731   158.79178
   338  C   4.0   -0.07    4.11    3.83    86.32646    58.12230   160.27333
   339  H   1.0    0.11    1.08    1.44    90.68417    61.44822   162.35769
   340  H   1.0    0.05    1.06    1.44    90.09646    57.53649   158.76155
   341  H   1.0    0.04    1.00    1.43    85.38538    57.71034   158.48754
   342  H   1.0    0.06    1.00    1.43    86.39260    56.42722   161.44118
   343  H   1.0    0.04    1.00    1.43    85.32302    59.62085   161.26732
   344  N   5.0   -0.20    3.23    1.96    84.12682    65.30137   152.83726
   345  C   4.0    0.03    4.21    4.02    81.46798    65.69065   152.42530
   346  C   4.0    0.07    3.24    3.04    80.93318    68.09250   150.97021
   347  O   6.0   -0.28    1.13    1.80    82.32213    69.97277   151.16107
   348  C   4.0   -0.05    4.40    4.39    80.12249    65.92876   154.96131
   349  C   4.0   -0.03    4.17    3.93    79.91462    63.79337   156.89450
   350  C   4.0   -0.08    4.12    3.84    78.69575    64.91776   159.25099
   351  C   4.0   -0.08    4.08    3.76    78.42741    61.49168   155.93263
   352  H   1.0    0.10    1.03    1.43    85.19829    66.90008   152.73332
   353  H   1.0    0.04    1.06    1.44    80.78578    64.10895   151.29524
   354  H   1.0    0.05    1.05    1.44    81.05790    67.46700   155.96286
   355  H   1.0    0.04    1.05    1.44    78.17607    66.44843   154.53045
   356  H   1.0    0.04    1.06    1.44    81.78923    63.04504   157.30646
   357  H   1.0    0.03    1.00    1.43    78.51433    63.44566   160.67962
   358  H   1.0    0.04    1.00    1.43    79.88627    66.44276   159.95963
   359  H   1.0    0.04    1.00    1.43    76.83437    65.65097   158.75777
   360  H   1.0    0.04    1.00    1.43    78.36694    60.06494   157.41606
   361  H   1.0    0.04    1.00    1.43    76.51500    62.08317   155.44886
   362  H   1.0    0.04    1.00    1.43    79.37038    60.73390   154.26589
   363  N   5.0   -0.19    3.22    1.96    67.65786    50.71269   188.04663
   364  C   4.0    0.03    4.33    4.25    69.35294    49.51460   186.23627
   365  C   4.0    0.15    3.42    3.09    72.05336    49.52216   187.24161
   366  O   6.0   -0.29    1.29    1.80    72.77524    51.20023   188.68347
   367  C   4.0   -0.05    4.30    4.19    69.23578    50.86764   183.68514
   368  C   4.0   -0.05    4.19    3.99    66.64874    50.79583   182.43603
   369  C   4.0   -0.01    4.24    4.09    65.88530    48.10675   181.77463
   370  N   5.0   -0.14    3.41    2.03    67.64274    46.94079   179.99640
   371  C   4.0    0.09    3.35    3.06    67.57660    47.29228   177.51141
   372  N   5.0   -0.19    3.27    1.97    65.83427    48.78139   176.49851
   373  N   5.0   -0.19    3.29    1.98    69.25090    46.15278   176.03553
   374  H   1.0    0.09    1.02    1.43    67.76557    52.63643   188.07120
   375  H   1.0    0.04    1.06    1.44    68.78791    47.55495   185.94903
   376  H   1.0    0.04    1.03    1.43    69.74223    52.84430   183.96293
   377  H   1.0    0.04    1.03    1.43    70.57560    49.97191   182.40202
   378  H   1.0    0.04    1.03    1.43    65.24279    51.57062   183.72672
   379  H   1.0    0.04    1.03    1.43    66.69599    51.90321   180.69937
   380  H   1.0    0.04    1.03    1.43    65.85695    46.96914   183.49050
   381  H   1.0    0.04    1.03    1.43    64.01447    48.12565   180.91102
   382  H   1.0    0.08    1.06    1.44    69.00901    45.78239   180.70693
   383  H   1.0    0.08    1.04    1.43    64.54170    49.65822   177.62668
   384  H   1.0    0.08    1.03    1.43    65.78703    49.04973   174.58989
   385  H   1.0    0.09    1.02    1.43    70.59260    45.00382   176.80843
   386  H   1.0    0.08    1.06    1.44    69.19798    46.42490   174.12880
   387  N   5.0   -0.14    3.43    2.03    73.54058    47.64566   186.48383
   388  C   4.0    0.03    4.41    4.40    76.14651    47.44157   187.37956
   389  C   4.0    0.16    3.45    3.09    77.53924    49.91144   186.80886
   390  O   6.0   -0.30    1.25    1.80    77.90395    50.58040   184.64323
   391  C   4.0   -0.05    4.27    4.13    77.49199    45.15122   186.23438
   392  C   4.0   -0.05    4.19    3.97    79.80691    44.27250   187.71593
   393  C   4.0   -0.05    4.16    3.93    80.98232    41.92546   186.49705
   394  C   4.0   -0.04    4.11    3.83    83.71864    41.50783   187.30775
   395  N   5.0   -0.12    4.00    2.87    84.05123    41.45303   190.11210
   396  H   1.0    0.07    1.06    1.44    73.00767    46.25104   185.26495
   397  H   1.0    0.05    1.06    1.44    76.16729    47.13165   189.41668
   398  H   1.0    0.04    1.03    1.43    76.16540    43.57708   186.15879
   399  H   1.0    0.05    1.03    1.43    78.11560    45.63688   184.33332
   400  H   1.0    0.04    1.03    1.43    81.21853    45.77294   187.73860
   401  H   1.0    0.04    1.03    1.43    79.25133    43.79818   189.64156
   402  H   1.0    0.04    1.03    1.43    79.89383    40.26439   187.04696
   403  H   1.0    0.04    1.03    1.43    80.95019    42.14278   184.44859
   404  H   1.0    0.04    1.02    1.43    84.37059    39.70314   186.55753
   405  H   1.0    0.04    1.02    1.43    84.87704    43.03851   186.56319
   406  H   1.0    0.05    1.01    1.43    85.94285    41.16390   190.55996
   407  H   1.0    0.05    1.02    1.43    83.46542    43.15945   190.89256
   408  H   1.0    0.05    1.01    1.43    82.98354    39.99605   190.88689
   409  N   5.0   -0.13    3.37    2.01    78.12694    51.34574   188.78173
   410  C   4.0    0.03    4.27    4.13    79.72565    53.55672   188.53607
   411  C   4.0    0.16    3.33    3.06    78.44252    55.92077   187.53829
   412  O   6.0   -0.31    1.24    1.80    79.72754    57.60074   186.53674
   413  H   1.0    0.10    1.05    1.44    77.51845    51.01882   190.58075
   414  H   1.0    0.06    1.03    1.43    80.50233    54.00837   190.38989
   415  H   1.0    0.06    1.03    1.43    81.27144    53.10319   187.25294
   416  N   5.0   -0.13    3.46    2.05    75.94998    56.10974   187.79152
   417  C   4.0    0.04    4.36    4.32    74.65173    58.31127   186.78807
   418  C   4.0    0.08    3.28    3.05    74.67063    60.34273   188.81575
   419  O   6.0   -0.29    1.17    1.80    75.78179    62.33828   188.44536
   420  C   4.0   -0.04    4.34    4.27    71.99667    57.61208   185.93958
   421  C   4.0   -0.02    3.56    3.14    70.57748    59.70967   184.64512
   422  C   4.0   -0.03    3.48    3.11    69.39263    61.60318   186.02651
   423  C   4.0   -0.04    3.49    3.11    70.32993    59.72668   182.07321
   424  C   4.0   -0.04    3.38    3.07    68.04147    63.49101   184.82843
   425  C   4.0   -0.04    3.38    3.07    68.98823    61.61262   180.84299
   426  C   4.0   -0.04    3.37    3.07    67.82604    63.49479   182.22060
   427  H   1.0    0.11    1.07    1.44    74.81992    54.80772   188.65512
   428  H   1.0    0.06    1.07    1.44    75.57959    59.03315   185.09677
   429  H   1.0    0.04    1.04    1.43    72.12517    56.03982   184.61489
   430  H   1.0    0.05    1.04    1.43    70.90630    57.05272   187.59498
   431  H   1.0    0.05    1.03    1.43    69.52869    61.59940   188.06364
   432  H   1.0    0.05    1.06    1.44    71.19731    58.23946   180.97716
   433  H   1.0    0.05    1.03    1.43    67.15330    64.96311   185.92636
   434  H   1.0    0.06    1.03    1.43    68.85405    61.60696   178.80587
   435  H   1.0    0.06    1.03    1.43    66.76024    64.95555   181.27574
   436  N   5.0   -0.18    3.31    1.98    77.95875    61.31783   193.06007
   437  C   4.0    0.03    4.30    4.20    80.61382    61.90175   193.50983
   438  C   4.0    0.16    3.41    3.08    81.50388    63.74046   191.46703
   439  O   6.0   -0.31    1.28    1.80    82.74732    65.59428   192.00561
   440  C   4.0   -0.04    4.23    4.06    82.17662    59.44700   193.52306
   441  C   4.0   -0.03    4.13    3.86    81.47364    57.57239   195.65089
   442  C   4.0    0.24    3.08    3.02    79.16629    55.81495   195.15011
   443  O   6.0   -0.30    1.22    1.80    77.80758    56.07195   193.21692
   444  O   6.0   -0.28    1.16    1.80    78.65039    54.14443   196.76016
   445  H   1.0    0.11    1.07    1.44    77.75655    59.81361   191.87332
   446  H   1.0    0.05    1.05    1.44    80.92184    62.75213   195.35987
   447  H   1.0    0.06    1.03    1.43    81.89505    58.48135   191.72593
   448  H   1.0    0.05    1.03    1.43    84.16461    59.93644   193.75738
   449  H   1.0    0.05    1.03    1.43    83.09692    56.35163   195.98915
   450  H   1.0    0.05    1.03    1.43    81.04468    58.66087   197.34597
   451  N   5.0   -0.13    3.40    2.02    80.79523    63.24913   189.11810
   452  C   4.0    0.03    4.17    3.93    81.13538    65.07460   187.08665
   453  C   4.0    0.09    3.15    3.03    79.87872    67.58416   187.66868
   454  O   6.0   -0.29    1.12    1.80    81.06357    69.62128   187.48160
   455  H   1.0    0.11    1.07    1.44    79.97509    61.59940   188.54930
   456  H   1.0    0.06    1.03    1.43    83.14794    65.40530   186.79374
   457  H   1.0    0.05    1.03    1.43    80.32091    64.32438   185.34999
   458  N   5.0   -0.19    3.20    1.96    83.60337    71.01590   192.16812
   459  C   4.0    0.03    4.26    4.12    85.85781    72.24044   191.12499
   460  C   4.0    0.15    3.35    3.07    85.33058    74.78024   189.74927
   461  O   6.0   -0.32    1.34    1.80    86.47764    75.32448   187.90301
   462  C   4.0   -0.03    4.26    4.12    87.29211    70.34316   189.43747
   463  C   4.0   -0.03    4.14    3.88    88.75476    68.26824   190.84153
   464  C   4.0    0.24    3.09    3.02    89.60891    66.04403   189.15023
   465  O   6.0   -0.32    1.25    1.80    88.97964    66.04214   186.88445
   466  O   6.0   -0.29    1.16    1.80    90.88448    64.22423   190.03651
   467  H   1.0    0.12    1.06    1.44    83.27077    69.24523   191.48215
   468  H   1.0    0.04    1.06    1.44    87.07290    72.78657   192.69724
   469  H   1.0    0.07    1.03    1.43    85.92584    69.40585   188.21293
   470  H   1.0    0.06    1.03    1.43    88.65460    71.39007   188.30174
   471  H   1.0    0.05    1.03    1.43    90.44417    69.10161   191.67490
   472  H   1.0    0.06    1.03    1.43    87.54722    67.49723   192.32119
   473  N   5.0   -0.14    3.39    2.02    83.58825    76.34682   190.62799
   474  C   4.0    0.03    4.29    4.19    83.55612    79.03212   189.90234
   475  C   4.0    0.07    3.15    3.03    82.55646    80.98421   191.99427
   476  O   6.0   -0.29    1.15    1.80    80.31524    81.73065   191.89789
   477  C   4.0   -0.01    4.28    4.15    82.04434    79.46676   187.37200
   478  C   4.0   -0.04    4.20    4.00    83.15361    78.25733   184.96071
   479  C   4.0   -0.07    4.15    3.91    81.77600    82.31079   186.87311
   480  C   4.0   -0.06    4.01    3.63    81.98765    75.81203   184.09143
   481  H   1.0    0.09    1.05    1.44    82.17662    75.83659   191.83742
   482  H   1.0    0.05    1.06    1.44    85.55923    79.46676   189.69825
   483  H   1.0    0.05    1.06    1.44    80.25099    78.51433   187.71404
   484  H   1.0    0.03    1.04    1.43    82.94007    79.60471   183.41680
   485  H   1.0    0.06    1.05    1.44    85.15105    77.88317   185.29897
   486  H   1.0    0.04    1.00    1.43    80.72909    82.58858   185.12133
   487  H   1.0    0.07    1.03    1.43    80.75933    83.17440   188.44347
   488  H   1.0    0.04    1.00    1.43    83.65250    83.14227   186.70870
   489  H   1.0    0.05    1.00    1.43    82.94952    75.18086   182.38312
   490  H   1.0    0.07    1.00    1.43    82.19930    74.40229   185.57865
   491  H   1.0    0.04    1.00    1.43    79.99021    76.12383   183.69837
   492  N   5.0   -0.20    3.33    1.99    92.60224    79.38928   188.15812
   493  C   4.0    0.04    4.33    4.26    91.74242    78.82236   185.68069
   494  C   4.0    0.08    3.26    3.05    93.76820    78.45575   183.74183
   495  O   6.0   -0.31    1.14    1.80    93.13703    77.59971   181.67258
   496  C   4.0   -0.03    4.43    4.42    89.96796    80.84815   184.83032
   497  C   4.0    0.15    3.33    3.06    91.01487    83.38794   185.30842
   498  O   6.0   -0.30    1.33    1.80    91.69706    83.94919   187.45326
   499  N   5.0   -0.19    3.19    1.95    91.31156    84.89216   183.32798
   500  H   1.0    0.12    1.08    1.44    93.40159    81.12405   188.42268
   501  H   1.0    0.06    1.07    1.44    90.81267    76.98744   185.79975
   502  H   1.0    0.04    1.05    1.44    89.63159    80.65539   182.80642
   503  H   1.0    0.04    1.04    1.43    88.19162    80.67429   185.85833
   504  H   1.0    0.10    1.02    1.43    92.02776    86.66661   183.56420
   505  H   1.0    0.08    1.03    1.43    90.82212    84.27611   181.56865
   506  N   5.0   -0.18    3.26    1.97    98.01253    74.18875   184.65835
   507  C   4.0    0.03    4.28    4.16    99.10857    71.95321   185.82998
   508  C   4.0    0.07    3.31    3.05   100.60712    70.66252   183.82498
   509  O   6.0   -0.31    1.47    1.80    99.99674    70.81181   181.60266
   510  C   4.0    0.05    4.24    4.08    97.11113    69.98600   186.65579
   511  O   6.0   -0.25    2.09    1.84    95.15526    71.20676   188.03907
   512  C   4.0   -0.08    4.06    3.72    98.27520    67.85250   188.26017
   513  H   1.0    0.10    1.03    1.43    96.12658    74.02246   184.29741
   514  H   1.0    0.04    1.05    1.44   100.17626    72.53146   187.49483
   515  H   1.0    0.05    1.05    1.44    96.31933    69.10728   184.97016
   516  H   1.0    0.12    1.01    1.43    93.88347    69.96710   188.56630
   517  H   1.0    0.05    1.00    1.43    96.81633    66.50513   188.80630
   518  H   1.0    0.04    1.00    1.43    99.72273    66.86606   187.17736
   519  H   1.0    0.05    1.00    1.43    99.13124    68.63674   189.96092
   520  N   5.0   -0.20    3.22    1.96   103.21494    63.14708   182.20549
   521  C   4.0    0.03    4.35    4.29   103.93682    60.50902   182.80642
   522  C   4.0    0.25    3.31    3.05   104.31287    59.16165   180.41403
   523  O   6.0   -0.30    1.28    1.80   103.11668    59.89486   178.59989
   524  C   4.0   -0.05    4.34    4.27   101.96772    59.08228   184.34466
   525  C   4.0   -0.05    4.23    4.07   103.18849    57.33429   186.24572
   526  C   4.0   -0.05    4.22    4.04   101.42915    55.28393   187.10177
   527  C   4.0   -0.03    4.18    3.95   100.82255    53.48680   184.94370
   528  N   5.0   -0.12    4.02    2.92    99.61690    51.19835   185.99628
   529  O   6.0   -0.30    1.24    1.80   105.79253    57.37019   180.30820
   530  H   1.0    0.11    1.04    1.43   102.60645    63.43810   180.40080
   531  H   1.0    0.05    1.07    1.44   105.63757    60.55627   183.96671
   532  H   1.0    0.04    1.03    1.43   100.79231    60.43155   185.36511
   533  H   1.0    0.05    1.05    1.44   100.80365    57.95034   183.07665
   534  H   1.0    0.05    1.04    1.43   104.83633    56.44611   185.38778
   535  H   1.0    0.04    1.03    1.43   103.75540    58.42277   187.89923
   536  H   1.0    0.04    1.03    1.43   102.31543    54.20679   188.61922
   537  H   1.0    0.05    1.03    1.43    99.66982    56.12297   187.76695
   538  H   1.0    0.05    1.03    1.43    99.52242    54.38442   183.62278
   539  H   1.0    0.05    1.03    1.43   102.55543    52.94634   183.96860
   540  H   1.0    0.06    1.02    1.43    99.18605    49.93979   184.54875
   541  H   1.0    0.05    1.02    1.43   100.83389    50.31962   187.26428
   542  H   1.0    0.06    1.02    1.43    97.95961    51.68211   186.93547
   543  O   6.0   -0.33    2.00    1.83    79.32125    52.44934   169.88447
   544  H   1.0    0.17    1.02    1.43    80.59492    53.39610   169.88258
   545  H   1.0    0.15    1.02    1.43    78.04568    53.39421   169.88447
   546  O   6.0   -0.37    1.99    1.83    72.31792    42.92324   182.39068
   547  H   1.0    0.15    1.02    1.43    73.55191    43.92101   182.36989
   548  H   1.0    0.14    1.02    1.43    71.20676    43.58653   183.31098
   549  N   5.0   -0.19    3.16    1.95   107.32154    44.54242   175.51019
   550  C   4.0    0.03    4.29    4.19   106.00041    46.10163   173.61101
   551  C   4.0    0.15    3.42    3.09   106.20438    44.90156   170.94839
   552  O   6.0   -0.29    1.23    1.80   108.21096    44.09873   170.11880
   553  C   4.0   -0.04    4.28    4.16   106.98899    48.81924   173.49196
   554  C   4.0   -0.03    4.29    4.19   106.00003    50.22814   171.19594
   555  C   4.0    0.15    3.23    3.04   105.77246    53.02383   171.55121
   556  O   6.0   -0.28    1.20    1.80   106.61735    54.47589   169.95439
   557  N   5.0   -0.18    3.21    1.96   104.53204    53.81199   173.60912
   558  H   1.0    0.09    1.02    1.43   109.04455    45.22128   176.04876
   559  H   1.0    0.05    1.06    1.44   104.02230    46.19411   174.18171
   560  H   1.0    0.04    1.04    1.44   106.38267    49.83265   175.17949
   561  H   1.0    0.06    1.03    1.43   109.04518    48.78641   173.38991
   562  H   1.0    0.06    1.04    1.43   107.28611    49.90457   169.61991
   563  H   1.0    0.05    1.04    1.43   104.12705    49.50493   170.73674
   564  H   1.0    0.08    1.06    1.44   103.79617    52.52610   174.84311
   565  H   1.0    0.11    1.02    1.43   104.32105    55.69910   173.94360
   566  N   5.0   -0.14    3.53    2.10   104.09831    44.89336   169.61235
   567  C   4.0    0.04    4.44    4.45   103.77979    43.42325   167.36358
   568  C   4.0    0.07    3.27    3.05   102.79619    45.09089   165.23575
   569  O   6.0   -0.31    1.16    1.80   101.27604    46.80428   165.65716
   570  C   4.0   -0.02    4.33    4.25   101.89856    41.32138   167.96829
   571  C   4.0   -0.08    4.14    3.89   100.53839    40.32610   165.64771
   572  C   4.0   -0.07    4.13    3.86   103.25408    39.22080   169.34212
   573  H   1.0    0.11    1.10    1.44   102.53740    45.92766   170.07345
   574  H   1.0    0.05    1.06    1.44   105.57630    42.66097   166.70595
   575  H   1.0    0.06    1.07    1.44   100.42419    42.10496   169.17583
   576  H   1.0    0.04    1.00    1.43    99.23252    38.83906   166.22218
   577  H   1.0    0.05    1.01    1.43    99.49917    41.87093   164.76521
   578  H   1.0    0.04    1.00    1.43   101.92802    39.56962   164.32868
   579  H   1.0    0.04    1.00    1.43   101.90691    37.72269   169.77109
   580  H   1.0    0.05    1.00    1.43   104.75704    38.49053   168.13648
   581  H   1.0    0.06    1.00    1.43   104.05411    39.96777   171.08634
   582  N   5.0   -0.18    3.17    1.95    95.37621    51.56344   162.88493
   583  C   4.0    0.04    4.33    4.26    97.03466    50.58847   164.91071
   584  C   4.0    0.16    3.41    3.08    95.55435    49.93314   167.27098
   585  O   6.0   -0.29    1.24    1.80    93.39334    50.74438   167.61113
   586  C   4.0    0.06    4.19    3.97    99.21603    52.40141   165.74030
   587  O   6.0   -0.22    2.14    1.85    98.21256    54.71114   166.75887
   588  C   4.0   -0.06    4.02    3.66   101.10325    52.95274   163.56145
   589  H   1.0    0.12    1.03    1.43    94.19787    52.97692   163.45752
   590  H   1.0    0.06    1.06    1.44    97.86903    48.88915   164.10002
   591  H   1.0    0.05    1.05    1.44   100.29731    51.45855   167.21807
   592  H   1.0    0.12    1.01    1.43    99.59625    55.83030   167.27098
   593  H   1.0    0.05    0.99    1.43   102.58815    54.22076   164.21907
   594  H   1.0    0.05    0.99    1.43   101.96128    51.19612   162.91138
   595  H   1.0    0.05    1.00    1.43   100.11852    53.83985   161.98353
   596  N   5.0   -0.14    3.45    2.05    96.75841    48.45461   168.90937
   597  C   4.0    0.04    4.34    4.27    95.59666    47.59135   171.27909
   598  C   4.0    0.14    3.41    3.08    97.52147    46.37096   173.03465
   599  O   6.0   -0.32    1.29    1.80    99.59413    45.66746   172.22206
   600  C   4.0   -0.06    4.12    3.84    93.49862    45.69976   170.74052
   601  H   1.0    0.11    1.08    1.44    98.55780    47.81068   168.65615
   602  H   1.0    0.05    1.06    1.44    94.87629    49.25758   172.25230
   603  H   1.0    0.05    1.00    1.43    92.67131    45.09074   172.52631
   604  H   1.0    0.06    1.00    1.43    92.06370    46.60458   169.57267
   605  H   1.0    0.05    1.00    1.43    94.29468    44.08147   169.74652
   606  N   5.0   -0.13    3.48    2.06    96.81186    46.08676   175.43082
   607  C   4.0    0.04    4.48    4.51    98.32302    44.61858   177.21661
   608  C   4.0    0.14    3.47    3.10    97.08930    42.11887   177.70794
   609  O   6.0   -0.31    1.28    1.80    94.78996    41.92331   177.67959
   610  C   4.0   -0.04    4.39    4.36    98.61968    46.02058   179.67136
   611  C   4.0   -0.02    3.60    3.17   100.07026    48.42345   179.40491
   612  C   4.0   -0.05    3.50    3.11   102.67241    48.40273   179.44082
   613  C   4.0   -0.03    3.49    3.11    98.83460    50.70141   179.07043
   614  C   4.0   -0.04    3.41    3.08   104.02441    50.61595   179.19137
   615  C   4.0   -0.03    3.40    3.08   100.18282    52.90808   178.81532
   616  C   4.0   -0.04    3.45    3.09   102.78043    52.86815   178.88902
   617  H   1.0    0.08    1.05    1.44    95.20988    46.84583   176.18671
   618  H   1.0    0.05    1.07    1.44   100.19220    44.27695   176.42104
   619  H   1.0    0.05    1.04    1.43    96.75199    46.48573   180.40458
   620  H   1.0    0.04    1.04    1.43    99.62363    44.81906   181.00929
   621  H   1.0    0.05    1.03    1.43   103.66516    46.63379   179.66758
   622  H   1.0    0.06    1.03    1.43    96.79535    50.74846   179.00996
   623  H   1.0    0.05    1.03    1.43   106.06486    50.57475   179.23484
   624  H   1.0    0.06    1.03    1.43    99.19945    54.67815   178.55643
   625  H   1.0    0.08    1.06    1.44   103.83638    54.60640   178.70949
   626  N   5.0   -0.14    3.48    2.07    98.61606    40.20528   178.17659
   627  C   4.0    0.04    4.33    4.26    97.62376    37.70801   178.58855
   628  C   4.0    0.07    3.24    3.04    99.43642    36.04394   180.04364
   629  O   6.0   -0.28    1.13    1.80   101.75926    36.30667   179.85278
   630  C   4.0   -0.04    4.40    4.38    97.15723    36.42373   176.05254
   631  C   4.0   -0.02    4.17    3.94    95.20399    37.31141   174.11935
   632  C   4.0   -0.08    4.11    3.82    95.56830    35.69364   171.76286
   633  C   4.0   -0.07    4.08    3.76    92.46706    37.17429   175.08122
   634  H   1.0    0.09    1.06    1.44   100.53631    40.33385   178.28053
   635  H   1.0    0.05    1.06    1.44    95.91287    37.90807   179.71861
   636  H   1.0    0.05    1.05    1.44    98.95708    36.46471   175.05098
   637  H   1.0    0.04    1.05    1.44    96.63407    34.47825   176.48340
   638  H   1.0    0.05    1.06    1.44    95.49322    39.30903   173.70739
   639  H   1.0    0.04    1.00    1.43    94.20272    36.27258   170.33423
   640  H   1.0    0.04    1.00    1.43    97.48426    35.96216   171.05421
   641  H   1.0    0.04    1.00    1.43    95.27259    33.71503   172.25608
   642  H   1.0    0.04    1.00    1.43    91.20123    37.83529   173.59778
   643  H   1.0    0.04    1.00    1.43    92.02310    35.22235   175.56499
   644  H   1.0    0.06    1.00    1.43    92.28229    38.36981   176.74796
   645  H   1.0    0.08    1.08    1.44    85.97236    83.43949   171.98899
   646  H   1.0    0.06    1.04    1.44    79.44269    79.90838   171.64574
   647  H   1.0    0.09    1.08    1.44    73.91216    76.21009   171.52775
   648  H   1.0    0.05    1.04    1.43    72.06698    65.16302   164.35649
   649  H   1.0    0.09    1.08    1.44    72.16091    59.68511   162.76993
   650  H   1.0    0.05    1.05    1.44    69.13602    53.21459   159.94065
   651  H   1.0    0.09    1.09    1.44    68.03859    49.26093   167.87828
   652  H   1.0    0.05    1.04    1.43    88.79643    76.15406   167.44587
   653  H   1.0    0.10    1.09    1.44    90.20274    68.51208   160.09175
   654  H   1.0    0.05    1.04    1.43    88.50844    61.03667   156.14954
   655  H   1.0    0.09    1.09    1.44    84.37108    64.64521   154.38721
   656  H   1.0    0.05    1.04    1.44    79.43365    68.18896   149.82427
   657  H   1.0    0.09    1.07    1.44    66.04914    50.30673   187.67274
   658  H   1.0    0.06    1.05    1.44    73.77533    60.05076   190.45412
   659  H   1.0    0.10    1.07    1.44    77.20194    60.94296   194.53631
   660  H   1.0    0.07    1.04    1.43    78.06987    67.63118   188.21361
   661  H   1.0    0.10    1.07    1.44    83.76461    70.87210   193.85510
   662  H   1.0    0.06    1.03    1.43    83.72041    81.58996   193.35417
   663  H   1.0    0.10    1.08    1.44    91.29529    79.31379   189.24382
   664  H   1.0    0.06    1.04    1.44    95.55859    78.90181   184.15000
   665  H   1.0    0.09    1.07    1.44    98.21682    75.52716   185.68767
   666  H   1.0    0.05    1.05    1.44   102.13733    69.65572   184.28959
   667  H   1.0    0.09    1.07    1.44   101.94767    63.63608   183.22894
   668  H   1.0    0.09    1.07    1.44   106.37232    44.43637   176.91742
   669  H   1.0    0.05    1.04    1.44   103.38312    44.80442   163.46247
   670  H   1.0    0.10    1.07    1.44    96.32931    52.18275   161.61978
   671  H   1.0    0.05    1.04    1.44    98.77020    34.69708   181.18958

  Z AO/shell   Hii/eV     exponent
  1     Wed Apr 25 08:07:45 CEST 2018   EN: 2.200 GM2: 0.406  GM3: 0.0800  RAES: 1.40
     1s    -10.707211    1.230000
  6     Wed Apr 25 08:07:45 CEST 2018   EN: 2.550 GM2: 0.538  GM3: 0.1500  RAES: 3.00
     2s    -13.970922    2.096432
     2p    -10.063292    1.800000
  7     Wed Apr 25 08:07:45 CEST 2018   EN: 3.040 GM2: 0.461  GM3:-0.0640  RAES: 1.90
     2s    -16.686243    2.339881
     2p    -12.523956    2.014332
  8     Wed Apr 25 08:07:45 CEST 2018   EN: 3.440 GM2: 0.452  GM3:-0.0517  RAES: 1.80
     2s    -20.229985    2.439742
     2p    -15.503117    2.137023
 16     Tue Apr 24 11:44:34 CEST 2018   EN: 2.580 GM2: 0.340  GM3:-0.0502  RAES: 3.10
     3s    -20.029654    1.981333
     3p    -11.377694    2.025643
     3d     -0.420282    1.702555
 no old-style atom pair restraining (fixing) potential

molecular fragmentation (1/2 indicates fragments):
111111111111111111122222222222222222222222222222222222222222222222222222
222222222222222222222222222222222222222222222222222222222222222222222222
222222222222222222222222222222222222222222222222222222222222222222222222
222222222222222222222222222222222222222222222222222222222222222222222222
222222222222222222222222222222222222222222222222222222222222222222222222
222222222222222222222222222222222222222222222222222222222222222222222222
222222222222222222222222222222222222222222222222222222222222222222222222
222222222222222222222222222222222222222222222222222222222222222222222222
222222222222222222222222222222222222222222222222222222222222222222221122
22222222222222222222222
# atoms in fragment 1/2:    21   650
 fragment masses (1/2) :      115.17     4506.32
CMA distance (Bohr)    :  22.763
constraining FC (au)   :  0.0500
           ------------------------------------------------- 
          |        Self-Consistent Charge Iterations        |
           ------------------------------------------------- 

 Ncao       : 1658
 Nao        : 1657
 Nshell     : 999
 Nel        : 1818
 T(el)      :   500.0
 intcut     :    35.0
 scfconv/Eh :  0.100E-06
   qconv/e  :  0.100E-04
 intneglect :  0.100E-08
 broydamp   :      0.400
 iter      E             dE          RMSdq      gap      omega  full diag
   1  -1035.5793480 -0.103558E+04  0.464E+00    2.74       0.0  T
   2  -1038.0136541 -0.243431E+01  0.222E+00    1.25       1.0  T
   3  -1038.1612887 -0.147635E+00  0.126E+00    1.70       1.0  T
   4  -1038.3391185 -0.177830E+00  0.274E-01    0.68       1.0  T
   5  -1038.3513292 -0.122107E-01  0.138E-01    0.93       1.0  T
   6  -1038.3541208 -0.279160E-02  0.610E-02    0.89       1.0  T
   7  -1038.3547208 -0.599968E-03  0.284E-02    0.92       1.0  T
   8  -1038.3548308 -0.110009E-03  0.150E-02    0.93       1.0  T
   9  -1038.3548727 -0.419498E-04  0.741E-03    0.93       1.0  T
  10  -1038.3548823 -0.951588E-05  0.395E-03    0.94       1.0  T
  11  -1038.3548851 -0.288763E-05  0.186E-03    0.94       2.1  T
  12  -1038.3548858 -0.682638E-06  0.902E-04    0.94       4.3  T
  13  -1038.3548860 -0.144874E-06  0.396E-04    0.94       9.7  T
  14  -1038.3548860 -0.222587E-07  0.212E-04    0.94      18.2  T
  15  -1038.3548860 -0.859063E-08  0.828E-05    0.94      46.7  T
  16  -1038.3548860 -0.109344E-08  0.420E-05    0.94      91.9  T
speedup  1.73
cpu  time for SCC   34.02 s
wall time for SCC   19.66 s

   *** convergence criteria satisfied after 16 iterations ***

          eigenvalues
 #    :         897        898        899        900        901        902        903        904
 occ. :        2.000      2.000      2.000      2.000      2.000      2.000      2.000      2.000
 eps  :        -9.954     -9.887     -9.879     -9.859     -9.857     -9.853     -9.843     -9.791
 #    :         905        906        907        908        909        910        911        912
 occ. :        2.000      2.000      2.000      2.000      2.000      0.000      0.000      0.000
 eps  :        -9.786     -9.781     -9.688     -9.588     -9.355     -8.418     -8.348     -8.298
 #    :         913        914        915        916        917        918        919        920
 occ. :        0.000      0.000      0.000      0.000      0.000      0.000      0.000      0.000
 eps  :        -8.290     -8.227     -8.173     -8.117     -8.109     -8.075     -7.772     -7.722


   #   Z            q   n(s)   n(p)   n(d)      C6AA      α(0)
   1   7 N     -0.384  1.323  4.061  0.000    29.921     8.124
   2   6 C      0.040  1.049  2.911  0.000    19.919     6.357
   3   6 C      0.198  1.090  2.712  0.000    23.779     7.986
   4   8 O     -0.386  1.766  4.620  0.000    21.400     6.202
   5   6 C     -0.067  1.054  3.014  0.000    21.769     6.640
   6   6 C     -0.013  1.049  2.964  0.000    20.771     6.482
   7   6 C     -0.119  1.044  3.074  0.000    22.823     6.811
   8   6 C     -0.128  1.044  3.083  0.000    22.989     6.834
   9   1 H      0.161  0.839  0.000  0.000     1.328     1.805
  10   1 H      0.063  0.937  0.000  0.000     2.159     2.298
  11   1 H      0.034  0.966  0.000  0.000     2.535     2.490
  12   1 H      0.040  0.960  0.000  0.000     2.447     2.446
  13   1 H      0.038  0.962  0.000  0.000     2.469     2.457
  14   1 H      0.046  0.954  0.000  0.000     2.367     2.406
  15   1 H      0.036  0.964  0.000  0.000     2.503     2.474
  16   1 H      0.042  0.958  0.000  0.000     2.419     2.432
  17   1 H      0.047  0.953  0.000  0.000     2.358     2.401
  18   1 H      0.046  0.954  0.000  0.000     2.366     2.406
  19   1 H      0.050  0.950  0.000  0.000     2.320     2.382
  20   7 N     -0.385  1.323  4.062  0.000    29.965     8.130
  21   6 C      0.036  1.054  2.910  0.000    19.981     6.366
  22   6 C      0.275  1.042  2.683  0.000    22.357     7.744
  23   8 O     -0.511  1.746  4.764  0.000    24.023     6.571
  24   6 C     -0.061  1.050  3.011  0.000    21.662     6.624
  25   6 C      0.006  1.083  2.911  0.000    27.881     8.661
  26   6 C     -0.036  1.078  2.958  0.000    28.906     8.817
  27   6 C     -0.042  1.080  2.962  0.000    29.048     8.839
  28   6 C     -0.033  1.080  2.953  0.000    28.814     8.802
  29   6 C     -0.035  1.082  2.953  0.000    28.868     8.811
  30   6 C     -0.037  1.080  2.957  0.000    28.916     8.818
  31   1 H      0.162  0.838  0.000  0.000     1.325     1.803
  32   1 H      0.044  0.956  0.000  0.000     2.401     2.423
  33   1 H      0.047  0.953  0.000  0.000     2.357     2.401
  34   1 H      0.019  0.981  0.000  0.000     2.756     2.596
  35   1 H      0.015  0.985  0.000  0.000     2.810     2.621
  36   1 H      0.035  0.965  0.000  0.000     2.510     2.477
  37   1 H      0.033  0.967  0.000  0.000     2.544     2.494
  38   1 H      0.043  0.957  0.000  0.000     2.414     2.430
  39   1 H      0.041  0.959  0.000  0.000     2.438     2.442
  40   7 N     -0.160  1.242  3.918  0.000    24.456     7.345
  41   6 C      0.028  1.051  2.920  0.000    20.105     6.385
  42   6 C      0.197  1.092  2.711  0.000    23.802     7.990
  43   8 O     -0.361  1.750  4.612  0.000    20.926     6.133
  44   6 C     -0.136  1.047  3.088  0.000    23.169     6.864
  45   1 H      0.227  0.773  0.000  0.000     0.980     1.551
  46   1 H      0.093  0.907  0.000  0.000     1.853     2.129
  47   1 H      0.081  0.919  0.000  0.000     1.965     2.192
  48   1 H      0.079  0.921  0.000  0.000     1.985     2.203
  49   1 H      0.067  0.933  0.000  0.000     2.123     2.279
  50   7 N     -0.375  1.318  4.057  0.000    29.697     8.093
  51   6 C      0.035  1.052  2.913  0.000    20.000     6.370
  52   6 C      0.194  1.080  2.726  0.000    23.856     7.999
  53   8 O     -0.364  1.761  4.603  0.000    20.967     6.139
  54   6 C     -0.057  1.048  3.009  0.000    21.567     6.606
  55   6 C     -0.013  1.059  2.953  0.000    20.805     6.494
  56  16 S     -0.202  1.908  4.242  0.052   149.645    20.589
  57   6 C     -0.046  1.049  2.997  0.000    21.466     6.609
  58   1 H      0.154  0.846  0.000  0.000     1.372     1.835
  59   1 H      0.076  0.924  0.000  0.000     2.020     2.222
  60   1 H      0.037  0.963  0.000  0.000     2.489     2.467
  61   1 H      0.054  0.946  0.000  0.000     2.272     2.357
  62   1 H      0.080  0.920  0.000  0.000     1.975     2.198
  63   1 H      0.043  0.957  0.000  0.000     2.403     2.424
  64   1 H      0.046  0.954  0.000  0.000     2.367     2.406
  65   1 H      0.039  0.961  0.000  0.000     2.458     2.452
  66   1 H      0.051  0.949  0.000  0.000     2.312     2.378
  67   7 N     -0.382  1.316  4.066  0.000    29.865     8.116
  68   6 C      0.031  1.061  2.908  0.000    20.067     6.381
  69   6 C      0.273  1.034  2.694  0.000    22.391     7.750
  70   8 O     -0.494  1.753  4.741  0.000    23.656     6.521
  71   6 C     -0.071  1.055  3.016  0.000    21.857     6.655
  72   6 C     -0.004  1.085  2.919  0.000    28.131     8.700
  73   6 C     -0.037  1.083  2.955  0.000    28.926     8.820
  74   6 C     -0.070  1.091  2.979  0.000    29.745     8.944
  75   6 C     -0.054  1.078  2.976  0.000    29.350     8.884
  76   6 C     -0.078  1.084  2.995  0.000    29.956     8.975
  77   6 C      0.146  1.053  2.801  0.000    24.824     8.165
  78   8 O     -0.455  1.740  4.715  0.000    21.944     6.324
  79   1 H      0.153  0.847  0.000  0.000     1.382     1.842
  80   1 H      0.047  0.953  0.000  0.000     2.363     2.404
  81   1 H      0.026  0.974  0.000  0.000     2.647     2.544
  82   1 H      0.052  0.948  0.000  0.000     2.299     2.371
  83   1 H      0.020  0.980  0.000  0.000     2.741     2.589
  84   1 H      0.084  0.916  0.000  0.000     1.942     2.179
  85   1 H      0.035  0.965  0.000  0.000     2.519     2.482
  86   1 H      0.067  0.933  0.000  0.000     2.123     2.279
  87   1 H      0.354  0.646  0.000  0.000     0.579     1.196
  88   7 N     -0.090  1.225  3.864  0.000    22.992     7.122
  89   6 C      0.020  1.061  2.919  0.000    20.200     6.392
  90   6 C      0.273  1.046  2.681  0.000    22.388     7.748
  91   8 O     -0.507  1.764  4.744  0.000    23.948     6.561
  92   6 C     -0.077  1.050  3.027  0.000    21.933     6.660
  93   6 C     -0.067  1.040  3.028  0.000    21.753     6.633
  94   6 C     -0.025  1.058  2.968  0.000    21.043     6.534
  95   1 H      0.067  0.933  0.000  0.000     2.119     2.276
  96   1 H      0.052  0.948  0.000  0.000     2.289     2.366
  97   1 H      0.080  0.920  0.000  0.000     1.983     2.202
  98   1 H      0.048  0.952  0.000  0.000     2.347     2.396
  99   1 H      0.082  0.918  0.000  0.000     1.960     2.189
 100   1 H      0.069  0.931  0.000  0.000     2.093     2.263
 101   1 H      0.084  0.916  0.000  0.000     1.942     2.179
 102   7 N     -0.168  1.241  3.927  0.000    24.631     7.371
 103   6 C      0.038  1.046  2.917  0.000    19.934     6.355
 104   6 C      0.279  1.032  2.689  0.000    22.283     7.732
 105   8 O     -0.499  1.743  4.756  0.000    23.762     6.536
 106   6 C     -0.069  1.048  3.022  0.000    21.818     6.649
 107   6 C      0.049  1.065  2.887  0.000    26.808     8.487
 108   7 N     -0.319  1.476  3.843  0.000    29.064     7.996
 109   6 C     -0.025  1.060  2.965  0.000    28.577     8.767
 110   6 C      0.087  1.061  2.852  0.000    26.032     8.369
 111   7 N     -0.084  1.240  3.844  0.000    22.863     7.102
 112   1 H      0.224  0.776  0.000  0.000     0.992     1.560
 113   1 H      0.042  0.958  0.000  0.000     2.419     2.432
 114   1 H      0.077  0.923  0.000  0.000     2.014     2.219
 115   1 H      0.040  0.960  0.000  0.000     2.444     2.445
 116   1 H      0.036  0.964  0.000  0.000     2.509     2.477
 117   1 H      0.059  0.941  0.000  0.000     2.212     2.326
 118   1 H      0.206  0.794  0.000  0.000     1.075     1.624
 119   7 N     -0.179  1.254  3.924  0.000    24.871     7.407
 120   6 C      0.035  1.053  2.912  0.000    19.980     6.364
 121   6 C      0.261  1.046  2.693  0.000    22.600     7.785
 122   8 O     -0.494  1.735  4.760  0.000    23.658     6.521
 123   6 C     -0.060  1.039  3.021  0.000    21.638     6.620
 124   6 C     -0.040  1.050  2.990  0.000    28.912     8.816
 125   6 C     -0.011  1.067  2.943  0.000    28.220     8.711
 126   6 C     -0.024  1.072  2.953  0.000    28.379     8.720
 127   7 N     -0.115  1.232  3.883  0.000    23.498     7.200
 128   6 C      0.044  1.064  2.892  0.000    26.872     8.494
 129   6 C     -0.045  1.080  2.965  0.000    29.128     8.850
 130   6 C     -0.049  1.073  2.977  0.000    29.220     8.863
 131   6 C     -0.056  1.081  2.975  0.000    29.392     8.890
 132   6 C     -0.046  1.080  2.966  0.000    29.133     8.851
 133   1 H      0.237  0.763  0.000  0.000     0.934     1.514
 134   1 H      0.060  0.940  0.000  0.000     2.199     2.319
 135   1 H      0.074  0.926  0.000  0.000     2.045     2.236
 136   1 H      0.039  0.961  0.000  0.000     2.459     2.452
 137   1 H      0.037  0.963  0.000  0.000     2.483     2.464
 138   1 H      0.179  0.821  0.000  0.000     1.219     1.730
 139   1 H      0.036  0.964  0.000  0.000     2.505     2.475
 140   1 H      0.013  0.987  0.000  0.000     2.845     2.638
 141   1 H      0.056  0.944  0.000  0.000     2.249     2.345
 142   1 H      0.044  0.956  0.000  0.000     2.395     2.420
 143   7 N     -0.085  1.237  3.848  0.000    22.895     7.107
 144   6 C      0.025  1.058  2.918  0.000    20.134     6.384
 145   6 C      0.284  1.029  2.688  0.000    22.199     7.716
 146   8 O     -0.497  1.740  4.757  0.000    23.708     6.528
 147   6 C     -0.063  1.049  3.014  0.000    21.681     6.624
 148   6 C     -0.060  1.041  3.019  0.000    21.618     6.615
 149   6 C     -0.004  1.051  2.953  0.000    20.676     6.480
 150   1 H      0.053  0.947  0.000  0.000     2.284     2.364
 151   1 H      0.054  0.946  0.000  0.000     2.271     2.357
 152   1 H      0.069  0.931  0.000  0.000     2.096     2.264
 153   1 H      0.045  0.955  0.000  0.000     2.388     2.417
 154   1 H      0.063  0.937  0.000  0.000     2.165     2.301
 155   1 H      0.063  0.937  0.000  0.000     2.168     2.303
 156   1 H      0.065  0.935  0.000  0.000     2.144     2.290
 157   7 N     -0.170  1.239  3.931  0.000    24.678     7.378
 158   6 C      0.021  1.051  2.928  0.000    20.220     6.402
 159   6 C      0.262  1.043  2.694  0.000    22.579     7.781
 160   8 O     -0.482  1.751  4.731  0.000    23.394     6.485
 161   6 C     -0.117  1.042  3.076  0.000    22.805     6.809
 162   1 H      0.221  0.779  0.000  0.000     1.005     1.570
 163   1 H      0.076  0.924  0.000  0.000     2.018     2.221
 164   1 H      0.066  0.934  0.000  0.000     2.133     2.284
 165   1 H      0.048  0.952  0.000  0.000     2.348     2.396
 166   1 H      0.064  0.936  0.000  0.000     2.154     2.295
 167   7 N     -0.156  1.232  3.924  0.000    24.373     7.332
 168   6 C      0.017  1.057  2.926  0.000    20.297     6.415
 169   6 C      0.194  1.093  2.713  0.000    23.867     8.001
 170   8 O     -0.366  1.751  4.615  0.000    21.007     6.145
 171   6 C     -0.092  1.057  3.035  0.000    22.251     6.714
 172   6 C     -0.086  1.048  3.038  0.000    22.123     6.694
 173   6 C     -0.033  1.048  2.985  0.000    21.234     6.572
 174   7 N     -0.149  1.204  3.946  0.000    24.232     7.311
 175   6 C      0.233  1.010  2.757  0.000    23.114     7.872
 176   7 N     -0.238  1.224  4.014  0.000    26.225     7.606
 177   7 N     -0.300  1.255  4.045  0.000    27.725     7.820
 178   1 H      0.225  0.775  0.000  0.000     0.985     1.555
 179   1 H      0.109  0.891  0.000  0.000     1.706     2.042
 180   1 H      0.095  0.905  0.000  0.000     1.829     2.115
 181   1 H      0.096  0.904  0.000  0.000     1.819     2.109
 182   1 H      0.059  0.941  0.000  0.000     2.212     2.326
 183   1 H      0.071  0.929  0.000  0.000     2.080     2.255
 184   1 H      0.097  0.903  0.000  0.000     1.814     2.106
 185   1 H      0.099  0.901  0.000  0.000     1.790     2.092
 186   1 H      0.195  0.805  0.000  0.000     1.131     1.666
 187   1 H      0.254  0.746  0.000  0.000     0.869     1.460
 188   1 H      0.247  0.753  0.000  0.000     0.896     1.483
 189   1 H      0.189  0.811  0.000  0.000     1.166     1.691
 190   1 H      0.298  0.702  0.000  0.000     0.716     1.324
 191   7 N     -0.397  1.319  4.078  0.000    30.277     8.172
 192   6 C      0.024  1.057  2.919  0.000    20.174     6.396
 193   6 C      0.274  1.046  2.681  0.000    22.375     7.747
 194   8 O     -0.517  1.751  4.766  0.000    24.166     6.591
 195   6 C     -0.021  1.059  2.961  0.000    20.899     6.501
 196   6 C     -0.117  1.043  3.075  0.000    22.804     6.809
 197   6 C     -0.115  1.043  3.072  0.000    22.759     6.801
 198   1 H      0.171  0.829  0.000  0.000     1.268     1.764
 199   1 H      0.055  0.945  0.000  0.000     2.256     2.349
 200   1 H      0.040  0.960  0.000  0.000     2.455     2.450
 201   1 H      0.052  0.948  0.000  0.000     2.294     2.368
 202   1 H      0.014  0.986  0.000  0.000     2.831     2.631
 203   1 H      0.040  0.960  0.000  0.000     2.453     2.449
 204   1 H      0.045  0.955  0.000  0.000     2.377     2.411
 205   1 H      0.048  0.952  0.000  0.000     2.350     2.398
 206   1 H      0.045  0.955  0.000  0.000     2.383     2.414
 207   7 N     -0.186  1.247  3.938  0.000    25.022     7.429
 208   6 C      0.033  1.040  2.927  0.000    20.010     6.366
 209   6 C      0.265  1.041  2.694  0.000    22.530     7.774
 210   8 O     -0.493  1.733  4.760  0.000    23.633     6.518
 211   6 C     -0.084  1.052  3.031  0.000    22.072     6.685
 212   6 C     -0.000  1.082  2.918  0.000    28.033     8.685
 213   6 C     -0.037  1.079  2.957  0.000    28.915     8.818
 214   6 C     -0.052  1.079  2.973  0.000    29.299     8.877
 215   6 C     -0.024  1.078  2.945  0.000    28.592     8.769
 216   6 C     -0.033  1.076  2.957  0.000    28.825     8.804
 217   6 C     -0.035  1.079  2.956  0.000    28.879     8.813
 218   1 H      0.242  0.758  0.000  0.000     0.917     1.500
 219   1 H      0.061  0.939  0.000  0.000     2.189     2.314
 220   1 H      0.075  0.925  0.000  0.000     2.032     2.229
 221   1 H      0.077  0.923  0.000  0.000     2.012     2.218
 222   1 H      0.043  0.957  0.000  0.000     2.406     2.426
 223   1 H      0.057  0.943  0.000  0.000     2.238     2.340
 224   1 H      0.026  0.974  0.000  0.000     2.647     2.544
 225   1 H      0.028  0.972  0.000  0.000     2.619     2.531
 226   1 H      0.023  0.977  0.000  0.000     2.683     2.562
 227   7 N     -0.177  1.255  3.923  0.000    24.837     7.402
 228   6 C      0.037  1.049  2.913  0.000    19.940     6.357
 229   6 C      0.279  1.038  2.683  0.000    22.274     7.729
 230   8 O     -0.513  1.750  4.763  0.000    24.074     6.578
 231   6 C     -0.056  1.041  3.014  0.000    21.550     6.605
 232   6 C      0.013  1.075  2.912  0.000    27.717     8.636
 233   6 C     -0.041  1.078  2.963  0.000    29.008     8.833
 234   6 C     -0.034  1.073  2.961  0.000    28.836     8.807
 235   6 C     -0.035  1.077  2.958  0.000    28.883     8.813
 236   6 C     -0.034  1.081  2.953  0.000    28.851     8.809
 237   6 C     -0.034  1.078  2.957  0.000    28.857     8.810
 238   1 H      0.223  0.777  0.000  0.000     0.996     1.564
 239   1 H      0.068  0.932  0.000  0.000     2.105     2.269
 240   1 H      0.039  0.961  0.000  0.000     2.463     2.454
 241   1 H      0.051  0.949  0.000  0.000     2.313     2.378
 242   1 H      0.032  0.968  0.000  0.000     2.562     2.503
 243   1 H      0.001  0.999  0.000  0.000     3.032     2.723
 244   1 H      0.052  0.948  0.000  0.000     2.295     2.369
 245   1 H      0.047  0.953  0.000  0.000     2.364     2.404
 246   1 H      0.057  0.943  0.000  0.000     2.233     2.337
 247   7 N     -0.169  1.246  3.923  0.000    24.664     7.376
 248   6 C      0.053  1.040  2.907  0.000    19.685     6.315
 249   6 C      0.273  1.042  2.685  0.000    22.385     7.748
 250   8 O     -0.495  1.738  4.757  0.000    23.683     6.525
 251   6 C     -0.064  1.042  3.022  0.000    21.711     6.630
 252   6 C      0.011  1.077  2.912  0.000    27.766     8.643
 253   6 C     -0.035  1.082  2.953  0.000    28.870     8.811
 254   6 C     -0.048  1.081  2.967  0.000    29.193     8.861
 255   6 C     -0.026  1.082  2.944  0.000    28.650     8.777
 256   6 C     -0.039  1.079  2.959  0.000    28.967     8.826
 257   6 C     -0.038  1.086  2.952  0.000    28.934     8.821
 258   1 H      0.231  0.769  0.000  0.000     0.960     1.535
 259   1 H      0.049  0.951  0.000  0.000     2.335     2.389
 260   1 H      0.047  0.953  0.000  0.000     2.352     2.398
 261   1 H      0.055  0.945  0.000  0.000     2.257     2.349
 262   1 H      0.025  0.975  0.000  0.000     2.662     2.552
 263   1 H      0.025  0.975  0.000  0.000     2.665     2.553
 264   1 H      0.040  0.960  0.000  0.000     2.443     2.444
 265   1 H      0.050  0.950  0.000  0.000     2.319     2.382
 266   1 H      0.081  0.919  0.000  0.000     1.966     2.193
 267   7 N     -0.185  1.252  3.933  0.000    25.005     7.427
 268   6 C     -0.019  1.045  2.974  0.000    20.981     6.534
 269   6 C      0.282  1.031  2.687  0.000    22.233     7.722
 270   8 O     -0.486  1.732  4.754  0.000    23.484     6.497
 271   1 H      0.218  0.782  0.000  0.000     1.021     1.583
 272   1 H      0.061  0.939  0.000  0.000     2.190     2.314
 273   1 H      0.086  0.914  0.000  0.000     1.921     2.167
 274   7 N     -0.172  1.239  3.933  0.000    24.722     7.385
 275   6 C      0.025  1.058  2.917  0.000    20.154     6.391
 276   6 C      0.266  1.054  2.680  0.000    22.504     7.768
 277   8 O     -0.502  1.757  4.746  0.000    23.837     6.546
 278   6 C      0.132  1.034  2.834  0.000    18.521     6.141
 279   8 O     -0.492  1.721  4.771  0.000    22.730     6.436
 280   6 C     -0.125  1.045  3.081  0.000    22.959     6.832
 281   1 H      0.225  0.775  0.000  0.000     0.989     1.558
 282   1 H      0.091  0.909  0.000  0.000     1.866     2.136
 283   1 H      0.021  0.979  0.000  0.000     2.719     2.579
 284   1 H      0.321  0.679  0.000  0.000     0.662     1.278
 285   1 H      0.067  0.933  0.000  0.000     2.118     2.276
 286   1 H      0.062  0.938  0.000  0.000     2.175     2.306
 287   1 H      0.053  0.947  0.000  0.000     2.278     2.360
 288   7 N     -0.162  1.243  3.919  0.000    24.516     7.354
 289   6 C      0.037  1.053  2.910  0.000    19.960     6.362
 290   6 C      0.292  1.035  2.674  0.000    22.055     7.691
 291   8 O     -0.492  1.740  4.753  0.000    23.617     6.516
 292   6 C     -0.060  1.041  3.019  0.000    21.644     6.622
 293   6 C      0.053  1.065  2.882  0.000    26.697     8.468
 294   7 N     -0.296  1.459  3.837  0.000    28.477     7.914
 295   6 C     -0.023  1.053  2.970  0.000    28.529     8.760
 296   6 C      0.086  1.059  2.855  0.000    26.048     8.371
 297   7 N     -0.077  1.234  3.843  0.000    22.734     7.082
 298   1 H      0.201  0.799  0.000  0.000     1.099     1.642
 299   1 H      0.067  0.933  0.000  0.000     2.121     2.278
 300   1 H      0.078  0.922  0.000  0.000     1.996     2.209
 301   1 H      0.063  0.937  0.000  0.000     2.170     2.303
 302   1 H      0.012  0.988  0.000  0.000     2.857     2.643
 303   1 H      0.060  0.940  0.000  0.000     2.197     2.318
 304   1 H      0.170  0.830  0.000  0.000     1.274     1.768
 305   7 N     -0.158  1.230  3.928  0.000    24.424     7.340
 306   6 C      0.042  1.051  2.907  0.000    19.873     6.347
 307   6 C      0.274  1.048  2.678  0.000    22.369     7.745
 308   8 O     -0.500  1.740  4.761  0.000    23.791     6.540
 309   6 C     -0.047  1.045  3.001  0.000    21.409     6.587
 310   6 C     -0.088  1.063  3.025  0.000    22.179     6.706
 311   6 C      0.362  1.031  2.607  0.000    20.864     7.475
 312   8 O     -0.638  1.768  4.870  0.000    27.068     6.975
 313   8 O     -0.620  1.771  4.849  0.000    26.622     6.918
 314   1 H      0.193  0.807  0.000  0.000     1.144     1.676
 315   1 H      0.060  0.940  0.000  0.000     2.201     2.320
 316   1 H      0.024  0.976  0.000  0.000     2.674     2.557
 317   1 H      0.050  0.950  0.000  0.000     2.325     2.384
 318   1 H      0.026  0.974  0.000  0.000     2.638     2.540
 319   1 H      0.022  0.978  0.000  0.000     2.705     2.572
 320   7 N     -0.160  1.244  3.916  0.000    24.469     7.347
 321   6 C      0.023  1.063  2.914  0.000    20.199     6.400
 322   6 C      0.279  1.036  2.684  0.000    22.271     7.728
 323   8 O     -0.491  1.754  4.736  0.000    23.577     6.510
 324   6 C      0.112  1.055  2.832  0.000    18.845     6.200
 325   8 O     -0.471  1.739  4.732  0.000    22.285     6.373
 326   6 C     -0.122  1.046  3.076  0.000    22.918     6.829
 327   1 H      0.215  0.785  0.000  0.000     1.031     1.590
 328   1 H      0.086  0.914  0.000  0.000     1.923     2.168
 329   1 H      0.046  0.954  0.000  0.000     2.367     2.406
[...]
 385   1 H      0.250  0.750  0.000  0.000     0.883     1.472
 386   1 H      0.245  0.755  0.000  0.000     0.904     1.490
 387   7 N     -0.180  1.249  3.931  0.000    24.897     7.411
 388   6 C      0.012  1.060  2.928  0.000    20.381     6.428
 389   6 C      0.282  1.034  2.683  0.000    22.218     7.719
 390   8 O     -0.469  1.744  4.725  0.000    23.106     6.445
 391   6 C     -0.090  1.056  3.033  0.000    22.207     6.709
 392   6 C     -0.086  1.052  3.034  0.000    22.140     6.699
 393   6 C     -0.098  1.055  3.043  0.000    22.369     6.734
 394   6 C     -0.054  1.061  2.993  0.000    21.644     6.641
 395   7 N     -0.147  1.234  3.913  0.000    24.169     7.302
 396   1 H      0.220  0.780  0.000  0.000     1.010     1.575
 397   1 H      0.063  0.937  0.000  0.000     2.170     2.303
 398   1 H      0.090  0.910  0.000  0.000     1.878     2.143
 399   1 H      0.069  0.931  0.000  0.000     2.096     2.264
 400   1 H      0.043  0.957  0.000  0.000     2.407     2.426
 401   1 H      0.066  0.934  0.000  0.000     2.134     2.284
 402   1 H      0.093  0.907  0.000  0.000     1.847     2.125
 403   1 H      0.088  0.912  0.000  0.000     1.896     2.154
 404   1 H      0.129  0.871  0.000  0.000     1.545     1.944
 405   1 H      0.108  0.892  0.000  0.000     1.715     2.048
 406   1 H      0.304  0.696  0.000  0.000     0.701     1.312
 407   1 H      0.283  0.717  0.000  0.000     0.766     1.371
 408   1 H      0.304  0.696  0.000  0.000     0.701     1.312
 409   7 N     -0.169  1.238  3.931  0.000    24.660     7.375
 410   6 C     -0.011  1.042  2.970  0.000    20.842     6.512
 411   6 C      0.288  1.039  2.673  0.000    22.120     7.702
 412   8 O     -0.532  1.755  4.776  0.000    24.494     6.636
 413   1 H      0.207  0.793  0.000  0.000     1.073     1.623
 414   1 H      0.068  0.932  0.000  0.000     2.111     2.272
 415   1 H      0.075  0.925  0.000  0.000     2.031     2.229
 416   7 N     -0.154  1.242  3.912  0.000    24.336     7.327
 417   6 C      0.034  1.051  2.915  0.000    20.001     6.367
 418   6 C      0.201  1.083  2.716  0.000    23.722     7.977
 419   8 O     -0.357  1.755  4.603  0.000    20.846     6.121
 420   6 C     -0.081  1.053  3.027  0.000    22.032     6.681
 421   6 C      0.006  1.075  2.918  0.000    27.876     8.660
 422   6 C     -0.041  1.080  2.961  0.000    29.027     8.836
 423   6 C     -0.048  1.080  2.967  0.000    29.187     8.860
 424   6 C     -0.033  1.080  2.953  0.000    28.817     8.803
 425   6 C     -0.030  1.080  2.950  0.000    28.747     8.792
 426   6 C     -0.032  1.080  2.952  0.000    28.805     8.801
 427   1 H      0.231  0.769  0.000  0.000     0.960     1.535
 428   1 H      0.082  0.918  0.000  0.000     1.961     2.190
 429   1 H      0.078  0.922  0.000  0.000     1.997     2.210
 430   1 H      0.065  0.935  0.000  0.000     2.146     2.291
 431   1 H      0.026  0.974  0.000  0.000     2.649     2.545
 432   1 H      0.054  0.946  0.000  0.000     2.271     2.356
 433   1 H      0.040  0.960  0.000  0.000     2.447     2.446
 434   1 H      0.036  0.964  0.000  0.000     2.505     2.475
 435   1 H      0.043  0.957  0.000  0.000     2.405     2.425
 436   7 N     -0.388  1.324  4.064  0.000    30.043     8.141
 437   6 C      0.037  1.057  2.906  0.000    19.975     6.366
 438   6 C      0.277  1.044  2.679  0.000    22.314     7.736
 439   8 O     -0.495  1.738  4.757  0.000    23.667     6.523
 440   6 C     -0.050  1.053  2.996  0.000    21.463     6.596
 441   6 C     -0.090  1.066  3.024  0.000    22.230     6.714
 442   6 C      0.361  1.032  2.607  0.000    20.883     7.478
 443   8 O     -0.628  1.766  4.862  0.000    26.811     6.942
 444   8 O     -0.645  1.775  4.870  0.000    27.262     7.000
 445   1 H      0.162  0.838  0.000  0.000     1.319     1.799
 446   1 H      0.039  0.961  0.000  0.000     2.456     2.451
 447   1 H      0.017  0.983  0.000  0.000     2.779     2.607
 448   1 H      0.013  0.987  0.000  0.000     2.844     2.637
 449   1 H      0.030  0.970  0.000  0.000     2.579     2.512
 450   1 H      0.024  0.976  0.000  0.000     2.669     2.555
 451   7 N     -0.153  1.234  3.919  0.000    24.319     7.324
 452   6 C     -0.007  1.043  2.964  0.000    20.776     6.503
 453   6 C      0.199  1.085  2.715  0.000    23.751     7.981
 454   8 O     -0.345  1.763  4.582  0.000    20.617     6.088
 455   1 H      0.208  0.792  0.000  0.000     1.067     1.618
 456   1 H      0.073  0.927  0.000  0.000     2.056     2.243
 457   1 H      0.099  0.901  0.000  0.000     1.796     2.096
 458   7 N     -0.399  1.319  4.079  0.000    30.340     8.181
 459   6 C      0.032  1.064  2.903  0.000    20.050     6.379
 460   6 C      0.282  1.042  2.675  0.000    22.217     7.718
 461   8 O     -0.442  1.714  4.728  0.000    22.527     6.364
 462   6 C     -0.043  1.047  2.996  0.000    21.344     6.578
 463   6 C     -0.084  1.061  3.024  0.000    22.114     6.696
 464   6 C      0.360  1.034  2.606  0.000    20.892     7.480
 465   8 O     -0.614  1.755  4.859  0.000    26.473     6.898
 466   8 O     -0.666  1.781  4.885  0.000    27.806     7.070
 467   1 H      0.163  0.837  0.000  0.000     1.316     1.797
 468   1 H      0.025  0.975  0.000  0.000     2.660     2.550
 469   1 H      0.035  0.965  0.000  0.000     2.510     2.478
 470   1 H      0.041  0.959  0.000  0.000     2.438     2.442
 471   1 H      0.018  0.982  0.000  0.000     2.771     2.603
 472   1 H      0.019  0.981  0.000  0.000     2.741     2.589
 473   7 N     -0.175  1.237  3.938  0.000    24.785     7.394
 474   6 C      0.020  1.080  2.900  0.000    20.265     6.414
 475   6 C      0.187  1.106  2.707  0.000    23.998     8.022
 476   8 O     -0.343  1.770  4.573  0.000    20.573     6.081
 477   6 C     -0.020  1.068  2.952  0.000    20.907     6.504
 478   6 C     -0.073  1.054  3.019  0.000    21.891     6.661
 479   6 C     -0.124  1.048  3.076  0.000    22.941     6.830
 480   6 C     -0.104  1.036  3.068  0.000    22.553     6.773
 481   1 H      0.194  0.806  0.000  0.000     1.137     1.671
 482   1 H      0.069  0.931  0.000  0.000     2.095     2.263
 483   1 H      0.049  0.951  0.000  0.000     2.333     2.388
 484   1 H      0.049  0.951  0.000  0.000     2.330     2.387
 485   1 H      0.064  0.936  0.000  0.000     2.149     2.293
 486   1 H      0.058  0.942  0.000  0.000     2.220     2.330
 487   1 H      0.055  0.945  0.000  0.000     2.262     2.352
 488   1 H      0.043  0.957  0.000  0.000     2.413     2.429
 489   1 H      0.037  0.963  0.000  0.000     2.490     2.468
 490   1 H      0.025  0.975  0.000  0.000     2.666     2.553
 491   1 H      0.032  0.968  0.000  0.000     2.556     2.500
 492   7 N     -0.403  1.308  4.096  0.000    30.469     8.198
 493   6 C      0.052  1.035  2.913  0.000    19.707     6.321
 494   6 C      0.182  1.088  2.729  0.000    24.083     8.037
 495   8 O     -0.357  1.742  4.615  0.000    20.834     6.120
 496   6 C     -0.094  1.050  3.044  0.000    22.263     6.713
 497   6 C      0.289  1.027  2.684  0.000    22.098     7.698
 498   8 O     -0.514  1.754  4.760  0.000    24.095     6.581
 499   7 N     -0.282  1.270  4.012  0.000    27.281     7.757
 500   1 H      0.187  0.813  0.000  0.000     1.177     1.699
 501   1 H      0.081  0.919  0.000  0.000     1.964     2.191
 502   1 H      0.069  0.931  0.000  0.000     2.094     2.263
 503   1 H      0.075  0.925  0.000  0.000     2.029     2.228
 504   1 H      0.238  0.762  0.000  0.000     0.932     1.512
 505   1 H      0.224  0.776  0.000  0.000     0.991     1.560
 506   7 N     -0.349  1.304  4.046  0.000    29.002     7.998
 507   6 C      0.027  1.053  2.920  0.000    20.143     6.393
 508   6 C      0.199  1.088  2.713  0.000    23.765     7.985
 509   8 O     -0.325  1.717  4.608  0.000    20.217     6.030
 510   6 C      0.124  1.045  2.831  0.000    18.644     6.162
 511   8 O     -0.449  1.709  4.741  0.000    21.833     6.308
 512   6 C     -0.130  1.047  3.083  0.000    23.067     6.850
 513   1 H      0.156  0.844  0.000  0.000     1.358     1.826
 514   1 H      0.078  0.922  0.000  0.000     2.004     2.214
 515   1 H      0.017  0.983  0.000  0.000     2.786     2.610
 516   1 H      0.288  0.712  0.000  0.000     0.760     1.370
 517   1 H      0.035  0.965  0.000  0.000     2.516     2.481
 518   1 H      0.048  0.952  0.000  0.000     2.345     2.395
 519   1 H      0.069  0.931  0.000  0.000     2.094     2.263
 520   7 N     -0.410  1.332  4.078  0.000    30.644     8.221
 521   6 C      0.026  1.060  2.914  0.000    20.140     6.391
 522   6 C      0.384  1.005  2.611  0.000    20.503     7.412
 523   8 O     -0.649  1.756  4.893  0.000    27.351     7.012
 524   6 C     -0.057  1.052  3.005  0.000    21.583     6.612
 525   6 C     -0.065  1.046  3.019  0.000    21.746     6.638
 526   6 C     -0.095  1.053  3.041  0.000    22.296     6.721
 527   6 C     -0.044  1.058  2.986  0.000    21.454     6.610
 528   7 N     -0.143  1.235  3.908  0.000    24.085     7.289
 529   8 O     -0.656  1.756  4.900  0.000    27.526     7.034
 530   1 H      0.144  0.856  0.000  0.000     1.443     1.882
 531   1 H      0.007  0.993  0.000  0.000     2.937     2.680
 532   1 H      0.019  0.981  0.000  0.000     2.747     2.592
 533   1 H      0.026  0.974  0.000  0.000     2.638     2.540
 534   1 H      0.049  0.951  0.000  0.000     2.336     2.390
 535   1 H      0.049  0.951  0.000  0.000     2.327     2.385
 536   1 H      0.088  0.912  0.000  0.000     1.901     2.156
 537   1 H      0.076  0.924  0.000  0.000     2.025     2.225
 538   1 H      0.096  0.904  0.000  0.000     1.823     2.111
 539   1 H      0.105  0.895  0.000  0.000     1.738     2.061
 540   1 H      0.282  0.718  0.000  0.000     0.769     1.374
 541   1 H      0.312  0.688  0.000  0.000     0.678     1.290
 542   1 H      0.303  0.697  0.000  0.000     0.705     1.316
 543   8 O     -0.623  1.669  4.954  0.000    25.749     6.849
 544   1 H      0.295  0.705  0.000  0.000     0.737     1.348
 545   1 H      0.326  0.674  0.000  0.000     0.647     1.264
 546   8 O     -0.640  1.683  4.957  0.000    26.147     6.902
 547   1 H      0.326  0.674  0.000  0.000     0.646     1.262
 548   1 H      0.326  0.674  0.000  0.000     0.647     1.263
 549   7 N     -0.381  1.327  4.053  0.000    29.846     8.114
 550   6 C      0.024  1.065  2.912  0.000    20.194     6.401
 551   6 C      0.275  1.044  2.681  0.000    22.350     7.742
 552   8 O     -0.491  1.748  4.743  0.000    23.590     6.512
 553   6 C     -0.073  1.055  3.018  0.000    21.886     6.660
 554   6 C     -0.093  1.052  3.041  0.000    22.269     6.717
 555   6 C      0.292  1.034  2.674  0.000    22.054     7.689
 556   8 O     -0.519  1.753  4.766  0.000    24.200     6.596
 557   7 N     -0.278  1.264  4.013  0.000    27.175     7.742
 558   1 H      0.162  0.838  0.000  0.000     1.319     1.799
 559   1 H      0.041  0.959  0.000  0.000     2.431     2.438
 560   1 H      0.052  0.948  0.000  0.000     2.292     2.367
 561   1 H      0.054  0.946  0.000  0.000     2.271     2.356
 562   1 H      0.062  0.938  0.000  0.000     2.180     2.309
 563   1 H      0.055  0.945  0.000  0.000     2.264     2.353
 564   1 H      0.213  0.787  0.000  0.000     1.044     1.601
 565   1 H      0.210  0.790  0.000  0.000     1.056     1.610
 566   7 N     -0.167  1.234  3.933  0.000    24.621     7.369
 567   6 C      0.023  1.055  2.922  0.000    20.180     6.395
 568   6 C      0.197  1.091  2.713  0.000    23.804     7.990
 569   8 O     -0.383  1.760  4.623  0.000    21.346     6.194
 570   6 C     -0.015  1.058  2.957  0.000    20.806     6.487
 571   6 C     -0.124  1.044  3.081  0.000    22.935     6.828
 572   6 C     -0.118  1.043  3.076  0.000    22.818     6.810
 573   1 H      0.214  0.786  0.000  0.000     1.039     1.597
 574   1 H      0.089  0.911  0.000  0.000     1.884     2.147
 575   1 H      0.059  0.941  0.000  0.000     2.212     2.326
 576   1 H      0.067  0.933  0.000  0.000     2.124     2.279
 577   1 H      0.035  0.965  0.000  0.000     2.517     2.481
 578   1 H      0.055  0.945  0.000  0.000     2.262     2.352
 579   1 H      0.060  0.940  0.000  0.000     2.201     2.320
 580   1 H      0.054  0.946  0.000  0.000     2.277     2.360
 581   1 H      0.049  0.951  0.000  0.000     2.335     2.389
 582   7 N     -0.381  1.329  4.052  0.000    29.862     8.116
 583   6 C      0.021  1.065  2.913  0.000    20.230     6.407
 584   6 C      0.285  1.041  2.674  0.000    22.174     7.711
 585   8 O     -0.508  1.755  4.753  0.000    23.964     6.563
 586   6 C      0.113  1.055  2.831  0.000    18.829     6.198
 587   8 O     -0.476  1.740  4.737  0.000    22.392     6.388
 588   6 C     -0.128  1.049  3.079  0.000    23.019     6.844
 589   1 H      0.159  0.841  0.000  0.000     1.340     1.813
 590   1 H      0.071  0.929  0.000  0.000     2.072     2.251
 591   1 H      0.005  0.995  0.000  0.000     2.965     2.693
 592   1 H      0.311  0.689  0.000  0.000     0.689     1.304
 593   1 H      0.049  0.951  0.000  0.000     2.336     2.390
 594   1 H      0.055  0.945  0.000  0.000     2.254     2.348
 595   1 H      0.057  0.943  0.000  0.000     2.237     2.339
 596   7 N     -0.188  1.245  3.942  0.000    25.065     7.436
 597   6 C      0.035  1.051  2.914  0.000    20.000     6.368
 598   6 C      0.266  1.044  2.690  0.000    22.509     7.769
 599   8 O     -0.483  1.735  4.749  0.000    23.414     6.488
 600   6 C     -0.118  1.041  3.077  0.000    22.804     6.808
 601   1 H      0.211  0.789  0.000  0.000     1.050     1.605
 602   1 H      0.042  0.958  0.000  0.000     2.426     2.436
 603   1 H      0.066  0.934  0.000  0.000     2.133     2.284
 604   1 H      0.062  0.938  0.000  0.000     2.178     2.308
 605   1 H      0.069  0.931  0.000  0.000     2.096     2.264
 606   7 N     -0.152  1.235  3.916  0.000    24.278     7.318
 607   6 C      0.019  1.053  2.928  0.000    20.257     6.407
 608   6 C      0.274  1.029  2.697  0.000    22.373     7.747
 609   8 O     -0.475  1.742  4.733  0.000    23.231     6.462
 610   6 C     -0.091  1.052  3.039  0.000    22.208     6.706
 611   6 C     -0.001  1.073  2.928  0.000    28.050     8.688
 612   6 C     -0.049  1.077  2.972  0.000    29.216     8.865
 613   6 C     -0.045  1.079  2.966  0.000    29.119     8.850
 614   6 C     -0.037  1.077  2.960  0.000    28.916     8.819
 615   6 C     -0.027  1.078  2.949  0.000    28.667     8.780
 616   6 C     -0.041  1.086  2.955  0.000    29.029     8.836
 617   1 H      0.207  0.793  0.000  0.000     1.069     1.619
 618   1 H      0.081  0.919  0.000  0.000     1.972     2.196
 619   1 H      0.075  0.925  0.000  0.000     2.035     2.231
 620   1 H      0.090  0.910  0.000  0.000     1.878     2.143
 621   1 H      0.057  0.943  0.000  0.000     2.234     2.337
 622   1 H      0.034  0.966  0.000  0.000     2.529     2.487
 623   1 H      0.042  0.958  0.000  0.000     2.420     2.432
 624   1 H      0.018  0.982  0.000  0.000     2.768     2.602
 625   1 H      0.055  0.945  0.000  0.000     2.255     2.348
 626   7 N     -0.158  1.230  3.928  0.000    24.423     7.340
 627   6 C      0.027  1.052  2.922  0.000    20.127     6.387
 628   6 C      0.192  1.088  2.720  0.000    23.906     8.008
 629   8 O     -0.369  1.766  4.602  0.000    21.067     6.154
 630   6 C     -0.073  1.057  3.016  0.000    21.875     6.656
 631   6 C     -0.007  1.055  2.952  0.000    20.667     6.466
 632   6 C     -0.118  1.047  3.071  0.000    22.803     6.808
 633   6 C     -0.123  1.045  3.078  0.000    22.921     6.827
 634   1 H      0.215  0.785  0.000  0.000     1.033     1.592
 635   1 H      0.099  0.901  0.000  0.000     1.793     2.094
 636   1 H      0.060  0.940  0.000  0.000     2.197     2.318
 637   1 H      0.065  0.935  0.000  0.000     2.138     2.287
 638   1 H      0.026  0.974  0.000  0.000     2.647     2.544
 639   1 H      0.045  0.955  0.000  0.000     2.378     2.412
 640   1 H      0.037  0.963  0.000  0.000     2.492     2.469
 641   1 H      0.051  0.949  0.000  0.000     2.304     2.374
 642   1 H      0.036  0.964  0.000  0.000     2.509     2.477
 643   1 H      0.046  0.954  0.000  0.000     2.376     2.410
 644   1 H      0.059  0.941  0.000  0.000     2.212     2.326
 645   1 H      0.190  0.810  0.000  0.000     1.158     1.686
 646   1 H      0.065  0.935  0.000  0.000     2.146     2.291
 647   1 H      0.182  0.818  0.000  0.000     1.204     1.719
 648   1 H      0.086  0.914  0.000  0.000     1.920     2.166
 649   1 H      0.176  0.824  0.000  0.000     1.237     1.742
 650   1 H      0.070  0.930  0.000  0.000     2.085     2.258
 651   1 H      0.183  0.817  0.000  0.000     1.196     1.713
 652   1 H      0.107  0.893  0.000  0.000     1.723     2.053
 653   1 H      0.184  0.816  0.000  0.000     1.190     1.709
 654   1 H      0.102  0.898  0.000  0.000     1.762     2.076
 655   1 H      0.181  0.819  0.000  0.000     1.210     1.723
 656   1 H      0.067  0.933  0.000  0.000     2.120     2.277
 657   1 H      0.194  0.806  0.000  0.000     1.137     1.670
 658   1 H      0.075  0.925  0.000  0.000     2.030     2.228
 659   1 H      0.177  0.823  0.000  0.000     1.228     1.736
 660   1 H      0.095  0.905  0.000  0.000     1.832     2.117
 661   1 H      0.171  0.829  0.000  0.000     1.268     1.764
 662   1 H      0.092  0.908  0.000  0.000     1.862     2.134
 663   1 H      0.169  0.831  0.000  0.000     1.278     1.771
 664   1 H      0.079  0.921  0.000  0.000     1.988     2.205
 665   1 H      0.190  0.810  0.000  0.000     1.159     1.686
 666   1 H      0.082  0.918  0.000  0.000     1.960     2.189
 667   1 H      0.157  0.843  0.000  0.000     1.352     1.821
 668   1 H      0.187  0.813  0.000  0.000     1.175     1.698
 669   1 H      0.085  0.915  0.000  0.000     1.925     2.169
 670   1 H      0.188  0.812  0.000  0.000     1.169     1.694
 671   1 H      0.096  0.904  0.000  0.000     1.823     2.112

 Mol. C6AA /au·bohr⁶  :    4303039.226530
 Mol. C8AA /au·bohr⁸  :   97024261.579286
 Mol. α(0) /au        :       3137.568350

 
molecular dipole:
                 x           y           z       tot (Debye)
 q only:      -13.194     -19.453       1.405
   full:      -13.600     -18.272       4.840      59.189
molecular quadrupole (traceless):
                xx          xy          yy          xz          yz          zz
 q only:    -1485.500   -3176.094    -678.918   -3140.433   -5614.710    2164.418
  q+dip:    -2269.151   -3084.276   -1186.562   -2789.257   -4983.333    3455.713
   full:    -2263.313   -3077.713   -1188.350   -2791.763   -4981.828    3451.663
speedup  1.67
cpu  time for grad   40.49 s
wall time for grad   24.27 s

SCC energy    :   -1038.3893167
rep           :      13.4768616
ES            :       3.0808876
AES           :      -0.1176234
AXC           :       0.3910406
disp          :      -0.9258920
XB            :       0.0000000
fix           :       0.0000000
Gborn         :       0.0000000
Gsasa         :       0.0000000
Ghb           :       0.0000000
Gshift        :       0.0000000
Gsolv         :      -0.7736431     -485.47
Etot ala COSMO:   -1038.3893167
grad norm     :       1.0364343
total E       :   -1024.8070788
atomizationE  :     190.3643905   119455.46
(atE without considering molecular charge,
 total energy contains solvation terms)
H-L gap (eV)  :          0.9374

------------------------------------------------------------------------
 * finished run on 2019/05/05 at 21:59:36.483     
------------------------------------------------------------------------
 total:
 * wall-time:     0 d,  0 h,  0 min, 25.772 sec
 *  cpu-time:     0 d,  0 h,  0 min, 42.538 sec
 * ratio c/w:     1.651 speedup
 SCF:
 * wall-time:     0 d,  0 h,  0 min, 25.066 sec
 *  cpu-time:     0 d,  0 h,  0 min, 41.806 sec
 * ratio c/w:     1.668 speedup

