      -----------------------------------------------------------      
     |                   =====================                   |     
     |                           x T B                           |     
     |                   =====================                   |     
     |                         S. Grimme                         |     
     |          Mulliken Center for Theoretical Chemistry        |     
     |                    University of Bonn                     |     
     |                 Version 6.0.1 (SAW181210)                 |     
      -----------------------------------------------------------      

   This program is distributed in the hope that it will be useful,
   but WITHOUT ANY WARRANTY; without even the implied warranty of
   MERCHANTABILITY or FITNESS FOR A PARTICULAR PURPOSE.
   
   FOR NON-COMMERCIAL, ACADEMIA USE ONLY.
   
   Cite this work as:
   S. Grimme, C. Bannwarth, P. Shushkov, J. Comput. Theory Chem., 2017,
   13, 1989-2009.
   C. Bannwarth, S. Ehlert and S. Grimme., ChemRxiv, 2018, preprint.
   http://doi.org/10.26434/chemrxiv.7246238.v1
   
   for sTDA-xTB:
   S. Grimme and C. Bannwarth, J. Chem. Phys., 2016, 145, 054103.
   
   in the mass-spec context:
   V. Asgeirsson, C. Bauer and S. Grimme, Chem. Sci., 2017, 8, 4879.
   
   if GBSA is used:
   P. Shushkov, F. März and S. Grimme, unpublished.
   
   for ANC optimizer:
   S. Grimme, unpublished.
   Rational Function algorithm used in ANCopt:
   F. Eckert, P. Pulay, H.-J. Werner, J. Comput. Chem., 1997, 18, 1473.
   
   with help from (in alphabetical order)
   C. Bannwarth, F. Bohle, G. Brandenburg, E. Caldeweyher, M. Checinski,
   S. Dohm, S. Ehlert, S. Ehrlich, F. März, H. Neugebauer, J. Pisarek,
   P. Pracht, P. Shushkov, and S. Spicher.
   
 * started run on 2019/05/09 at 18:12:59.054     
========================================================================
 # omp threads = 2
========================================================================
number of atoms            : 697
number of electrons        : 1914
charge                     : -6
spin                       : .0
first test random number   : .7677

########################################################################
# WARNING! Please study the warnings concerning your input carefully
#  - Process number higher than OMP_NUM_THREADS, I hope you know what you are doing.
########################################################################

           ------------------------------------------------- 
          |                 G F N 2 - x T B                 |
          | Geometry, Frequencies, Noncovalent interactions |
          |            JCTC 2018 parametrisation            |
           ------------------------------------------------- 
 
      method parameters     
 k(s)        :  1.8500
 k(p)        :  2.2300
 k(d)        :  2.2300
 k(f)        :  2.0000
 kEN (H0ij)  : -2.0000
 D4 a1       :  0.5200
 D4 a2       :  5.0000
 D4 s6       :  1.0000
 D4 s8       :  2.7000
 D4 s9       :  5.0000
 alphaj      :  2.0000

 Solvent             : h2o
 Using internal parameter file: .param_gbsa2_h2o
 Gsolv ref. state (COSMO-RS): gsolv [1 M gas/solution]
 temperature (mdtemp)       :    298.150000000000     
 dielectric constant        :    80.2000000000000     
 rho                        :    1.00000000000000     
 mass                       :    18.0000000000000     
 surface tension            :    15.5689454083859     
 probe radius               :   0.975313790000000     
 vdW radii scaling          :    1.00000000000000     
 Gshift (Eh)                :   1.857443126794793E-003
 c1                         :    1.55243817000000     
 soset                      :   0.130326360000000     
 HB correction              :  T

            Z     q(EN)     CN     RAES       Cart. coordinates
     1  N   5.0   -0.24    3.20    1.96     6.25135   167.03350    18.68474
     2  C   4.0    0.02    4.32    4.23     4.20931   165.63672    19.90144
     3  C   4.0    0.06    3.25    3.04     2.01995   167.24642    20.81793
     4  O   6.0   -0.33    1.21    1.80    -0.08955   166.79136    19.99478
     5  C   4.0   -0.03    4.35    4.30     5.01043   164.08789    22.23188
     6  C   4.0   -0.06    4.20    3.99     7.43244   165.16088    23.42019
     7  C   4.0   -0.08    4.08    3.77     5.09275   161.27498    21.60123
     8  C   4.0   -0.10    4.02    3.65     7.30523   164.94517    26.29592
     9  H   1.0    0.07    1.03    1.43     7.93766   166.13813    18.67904
    10  H   1.0    0.04    1.06    1.44     3.36908   164.35981    18.49598
    11  H   1.0    0.04    1.09    1.44     3.50825   164.29181    23.63697
    12  H   1.0    0.03    1.03    1.43     9.07126   164.11236    22.74094
    13  H   1.0    0.03    1.04    1.43     7.64443   167.14334    22.91107
    14  H   1.0    0.04    1.00    1.43     5.74279   160.17369    23.21296
    15  H   1.0    0.04    1.00    1.43     3.23936   160.56851    21.06687
    16  H   1.0    0.03    1.00    1.43     6.36829   160.85910    20.04081
    17  H   1.0    0.01    1.00    1.43     9.00809   165.70538    27.15690
    18  H   1.0    0.02    1.00    1.43     5.67199   165.95022    27.02151
    19  H   1.0    0.03    1.00    1.43     7.17067   162.96956    26.85224
    20  N   5.0   -0.21    3.26    1.97    -1.72353   170.09420    16.17567
    21  C   4.0    0.03    4.30    4.20    -3.19341   168.22556    14.83459
    22  C   4.0    0.15    3.34    3.06    -5.51388   167.65646    16.52064
    23  O   6.0   -0.35    1.43    1.80    -7.48946   168.57583    15.74258
    24  C   4.0   -0.05    4.24    4.08    -1.41541   166.15409    13.80212
    25  C   4.0   -0.03    4.11    3.83    -2.31249   164.60893    11.43755
    26  C   4.0   -0.09    4.09    3.79    -4.55970   165.78863    10.01000
    27  C   4.0   -0.09    4.09    3.78    -0.10833   164.18356     9.59546
    28  H   1.0    0.08    1.04    1.43     0.03048   169.62073    16.76014
    29  H   1.0    0.04    1.07    1.44    -4.03178   169.20485    13.20866
    30  H   1.0    0.03    1.04    1.43     0.30925   167.15097    13.26167
    31  H   1.0    0.04    1.02    1.43    -0.92536   164.84427    15.31341
    32  H   1.0    0.03    1.05    1.44    -2.93333   162.75014    12.10824
    33  H   1.0    0.03    1.00    1.43    -5.09883   164.55176     8.46401
    34  H   1.0    0.04    1.00    1.43    -6.17713   166.01611    11.25349
    35  H   1.0    0.03    1.00    1.43    -4.03210   167.61477     9.23397
    36  H   1.0    0.03    1.00    1.43    -0.70598   163.02215     8.01814
    37  H   1.0    0.02    1.00    1.43     0.54191   165.99685     8.90846
    38  H   1.0    0.03    1.00    1.43     1.47009   163.24312    10.51365
    39  N   5.0   -0.15    3.38    2.01    -5.18373   166.45433    18.72569
    40  C   4.0    0.03    4.25    4.10    -7.01517   165.51514    20.57199
    41  C   4.0    0.07    3.25    3.04    -9.36262   167.18882    20.80021
    42  O   6.0   -0.32    1.15    1.80   -11.29558   166.16571    21.54644
    43  C   4.0   -0.05    4.29    4.17    -6.00915   165.29612    23.29320
    44  C   4.0   -0.04    4.11    3.82    -4.02109   163.27301    23.87584
    45  C   4.0   -0.01    4.16    3.92    -3.53521   163.36321    26.74879
    46  N   5.0   -0.14    3.34    2.00    -1.78076   161.47399    27.74553
    47  C   4.0    0.10    3.33    3.06    -2.08335   159.56686    29.41650
    48  N   5.0   -0.19    3.20    1.96    -4.24827   158.92736    30.64350
    49  N   5.0   -0.19    3.25    1.97     0.05629   158.51071    30.26930
    50  H   1.0    0.10    1.11    1.45    -3.37609   165.96698    19.12713
    51  H   1.0    0.05    1.05    1.44    -7.65331   163.64008    19.96076
    52  H   1.0    0.03    1.03    1.43    -5.29417   167.15625    23.83829
    53  H   1.0    0.05    1.04    1.43    -7.66879   164.89303    24.44951
    54  H   1.0    0.07    1.03    1.43    -4.70806   161.40098    23.34751
    55  H   1.0    0.05    1.02    1.43    -2.27765   163.63463    22.84006
    56  H   1.0    0.03    1.02    1.43    -2.74027   165.20762    27.24206
    57  H   1.0    0.04    1.03    1.43    -5.33077   163.14620    27.73794
    58  H   1.0    0.07    1.08    1.44    -0.05417   161.54763    26.93485
    59  H   1.0    0.09    1.03    1.43    -5.86921   159.24385    29.68715
    60  H   1.0    0.09    1.04    1.43    -4.14220   157.26407    31.56562
    61  H   1.0    0.09    1.03    1.43     1.68613   158.87157    29.34329
    62  H   1.0    0.11    1.03    1.43     0.08666   156.74405    31.03494
    63  N   5.0   -0.22    3.32    1.99   -11.95814   167.64998    14.48900
    64  C   4.0    0.03    4.28    4.15   -13.19723   165.23975    14.33555
    65  C   4.0    0.14    3.46    3.10   -15.90108   165.41868    15.26775
    66  O   6.0   -0.32    1.22    1.80   -17.61239   164.19996    14.28572
    67  C   4.0   -0.07    4.15    3.91   -11.80094   163.37542    16.02819
    68  H   1.0    0.13    1.19    1.46   -10.19583   167.74117    15.24708
    69  H   1.0    0.04    1.05    1.44   -13.22376   164.56707    12.36860
    70  H   1.0    0.04    1.00    1.43   -12.58601   161.49806    15.77023
    71  H   1.0    0.04    1.00    1.43    -9.81859   163.32877    15.49261
    72  H   1.0    0.07    1.01    1.43   -11.97643   163.91312    17.99837
    73  N   5.0   -0.15    3.49    2.07   -16.07927   166.77253    17.40833
    74  C   4.0    0.03    4.27    4.14   -18.47430   167.22182    18.62420
    75  C   4.0    0.08    3.24    3.04   -20.19716   168.53675    16.67306
    76  O   6.0   -0.33    1.12    1.80   -22.33923   169.19398    17.25889
    77  C   4.0   -0.05    4.18    3.96   -18.40945   168.60444    21.20968
    78  C   4.0   -0.05    4.10    3.81   -17.27680   167.27079    23.54849
    79  C   4.0   -0.01    4.13    3.86   -18.77755   164.98181    24.52377
    80  N   5.0   -0.15    3.34    2.00   -19.63821   165.26519    27.16058
    81  C   4.0    0.08    3.29    3.05   -19.34673   163.71550    29.17475
    82  N   5.0   -0.19    3.23    1.96   -17.51485   161.96754    29.13487
    83  N   5.0   -0.21    3.20    1.96   -20.83654   163.90222    31.23898
    84  H   1.0    0.08    1.08    1.44   -14.63111   167.92390    17.87128
    85  H   1.0    0.05    1.06    1.44   -19.36762   165.35964    18.87045
    86  H   1.0    0.03    1.03    1.43   -17.36001   170.35708    20.89254
    87  H   1.0    0.04    1.03    1.43   -20.37023   169.14455    21.56641
    88  H   1.0    0.06    1.03    1.43   -15.34768   166.71309    23.08730
    89  H   1.0    0.03    1.03    1.43   -17.17892   168.70608    25.02074
    90  H   1.0    0.04    1.03    1.43   -20.47372   164.76734    23.36270
    91  H   1.0    0.05    1.02    1.43   -17.65562   163.27203    24.32541
    92  H   1.0    0.06    1.07    1.44   -20.95440   166.64090    27.33637
    93  H   1.0    0.09    1.03    1.43   -16.34496   161.86138    27.63836
    94  H   1.0    0.08    1.03    1.43   -17.29484   160.70990    30.54420
    95  H   1.0    0.06    1.03    1.43   -22.20843   165.21661    31.33399
    96  H   1.0    0.06    1.03    1.43   -20.45306   162.86306    32.78515
    97  N   5.0   -0.21    3.17    1.95   -21.44431   165.39286     9.85411
    98  C   4.0    0.03    4.28    4.16   -23.02189   164.07383     8.02984
    99  C   4.0    0.16    3.62    3.18   -23.72732   161.41217     8.81090
   100  O   6.0   -0.30    1.60    1.81   -22.19201   159.94174     9.74023
   101  C   4.0    0.02    4.15    3.90   -21.95573   163.96005     5.33363
   102  O   6.0   -0.27    2.14    1.84   -23.94795   163.15992     3.77885
   103  H   1.0    0.10    1.02    1.43   -19.84463   164.63737    10.57798
   104  H   1.0    0.03    1.06    1.44   -24.74652   165.22156     7.94415
   105  H   1.0    0.02    1.01    1.43   -21.20467   165.80826     4.78991
   106  H   1.0    0.05    1.02    1.43   -20.47701   162.53362     5.18517
   107  H   1.0    0.10    1.02    1.43   -25.02570   164.57776     3.38121
   108  N   5.0   -0.14    3.47    2.06   -26.15105   160.66417     8.58154
   109  C   4.0    0.03    4.59    4.65   -26.48978   158.09106     9.49112
   110  C   4.0    0.18    3.87    3.42   -24.25384   156.69137     8.36529
   111  O   6.0   -0.29    1.42    1.80   -23.70879   156.98165     6.12749
   112  C   4.0    0.05    4.23    4.07   -28.82182   156.54194     8.58089
   113  O   6.0   -0.27    2.11    1.84   -29.43417   157.27064     6.07772
   114  C   4.0   -0.08    4.04    3.69   -31.08093   156.69120    10.35639
   115  H   1.0    0.08    1.05    1.44   -27.44009   161.46621     7.42522
   116  H   1.0    0.04    1.05    1.44   -26.42783   158.05428    11.55245
   117  H   1.0    0.04    1.05    1.44   -28.22085   154.54007     8.56642
   118  H   1.0    0.13    1.04    1.43   -27.87543   157.31767     5.11349
   119  H   1.0    0.04    1.00    1.43   -32.68254   155.85260     9.37841
   120  H   1.0    0.05    1.00    1.43   -30.70245   155.60615    12.05033
   121  H   1.0    0.03    1.00    1.43   -31.53843   158.64070    10.80405
   122  N   5.0   -0.15    3.47    2.06   -23.42932   154.81761     9.85368
   123  C   4.0    0.03    4.43    4.43   -22.16727   152.64861     8.82684
   124  C   4.0    0.16    3.62    3.18   -22.18455   152.57303     5.94955
   125  O   6.0   -0.32    1.42    1.80   -20.17980   152.39675     4.79566
   126  C   4.0   -0.05    4.36    4.31   -23.38218   150.16700     9.72129
   127  C   4.0   -0.02    4.16    3.92   -21.52116   147.93023     9.39678
   128  C   4.0   -0.08    4.08    3.77   -20.67538   147.05077    12.04594
   129  C   4.0   -0.07    4.06    3.72   -22.58583   145.76569     7.77461
   130  H   1.0    0.08    1.07    1.44   -24.16485   154.61275    11.59938
   131  H   1.0    0.04    1.05    1.44   -20.17485   152.66722     9.42231
   132  H   1.0    0.05    1.03    1.43   -23.88001   150.34479    11.71674
   133  H   1.0    0.04    1.03    1.43   -25.13618   149.77124     8.71658
   134  H   1.0    0.04    1.06    1.44   -19.82348   148.59915     8.41405
   135  H   1.0    0.04    1.00    1.43   -19.27097   145.55518    11.90299
   136  H   1.0    0.04    1.00    1.43   -19.83394   148.60709    13.08646
   137  H   1.0    0.04    1.00    1.43   -22.27846   146.32764    13.11275
   138  H   1.0    0.05    1.00    1.43   -21.16233   144.30175     7.51525
   139  H   1.0    0.04    1.00    1.43   -24.22906   144.92194     8.67506
   140  H   1.0    0.05    1.00    1.43   -23.11850   146.45777     5.91466
   141  N   5.0   -0.13    3.56    2.12   -24.42651   152.47173     4.80437
   142  C   4.0    0.04    4.47    4.49   -24.74363   151.69944     2.19958
   143  C   4.0    0.17    3.57    3.15   -22.34814   152.23551     0.73968
   144  O   6.0   -0.31    1.28    1.80   -21.10113   150.55009    -0.25842
   145  C   4.0   -0.05    4.28    4.17   -26.92257   153.16942     0.94706
   146  C   4.0   -0.03    4.15    3.90   -27.16201   152.68686    -1.91776
   147  C   4.0    0.24    3.07    3.02   -28.21390   149.96933    -2.58942
   148  O   6.0   -0.32    1.15    1.80   -30.34467   149.89324    -3.61880
   149  O   6.0   -0.29    1.15    1.80   -26.83412   148.11976    -2.04787
   150  H   1.0    0.07    1.07    1.44   -26.00403   152.36082     5.88358
   151  H   1.0    0.06    1.05    1.44   -25.10107   149.65387     2.08056
   152  H   1.0    0.04    1.03    1.43   -28.68340   152.58748     1.85870
   153  H   1.0    0.05    1.03    1.43   -26.65499   155.18792     1.25696
   154  H   1.0    0.04    1.03    1.43   -28.48389   154.04548    -2.71825
   155  H   1.0    0.05    1.03    1.43   -25.33075   152.84073    -2.85379
   156  N   5.0   -0.13    3.70    2.28   -21.98803   154.71707     0.64741
   157  C   4.0    0.03    4.42    4.41   -20.50559   156.29562    -0.98042
   158  C   4.0    0.15    3.40    3.08   -17.66923   156.20455    -0.31458
   159  O   6.0   -0.33    1.29    1.80   -15.99101   156.28039    -1.90588
   160  C   4.0    0.05    4.25    4.09   -21.54290   159.04941    -0.51642
   161  O   6.0   -0.26    2.18    1.85   -23.95530   158.94013     0.66644
   162  C   4.0   -0.08    4.04    3.69   -21.53428   160.51560    -3.02342
   163  H   1.0    0.11    1.18    1.46   -23.21484   155.79535     1.67905
   164  H   1.0    0.05    1.04    1.44   -20.74216   155.71549    -2.95609
   165  H   1.0    0.04    1.04    1.44   -20.22735   159.95713     0.80513
   166  H   1.0    0.14    1.06    1.44   -24.11697   160.39418     1.79828
   167  H   1.0    0.03    1.00    1.43   -22.04547   162.47141    -2.67847
   168  H   1.0    0.04    1.00    1.43   -19.61917   160.43196    -3.75922
   169  H   1.0    0.04    1.00    1.43   -22.82683   159.66570    -4.36615
   170  N   5.0   -0.14    3.57    2.13   -17.33536   156.25072     2.19358
   171  C   4.0    0.03    4.43    4.43   -14.96357   155.87796     3.47856
   172  C   4.0    0.16    3.51    3.12   -13.89161   153.35302     2.69320
   173  O   6.0   -0.33    1.35    1.80   -11.90135   153.31154     1.52591
   174  C   4.0   -0.05    4.36    4.30   -15.31884   156.01776     6.33439
   175  C   4.0   -0.01    4.19    3.97   -16.89270   158.28411     7.27961
   176  C   4.0   -0.07    4.11    3.82   -16.59979   158.62820    10.12984
   177  C   4.0   -0.08    4.14    3.88   -16.08456   160.71743     5.97415
   178  H   1.0    0.11    1.12    1.45   -18.87202   155.76209     3.23143
   179  H   1.0    0.05    1.06    1.44   -13.63108   157.32099     2.82044
   180  H   1.0    0.05    1.03    1.43   -16.20437   154.26983     6.98070
   181  H   1.0    0.03    1.03    1.43   -13.43379   156.09389     7.17574
   182  H   1.0    0.07    1.05    1.44   -18.89016   157.91569     6.89544
   183  H   1.0    0.06    1.01    1.43   -17.71114   160.22847    10.75957
   184  H   1.0    0.04    1.00    1.43   -17.25376   156.94974    11.12238
   185  H   1.0    0.03    1.00    1.43   -14.62428   158.94009    10.61272
   186  H   1.0    0.04    1.00    1.43   -16.91843   162.33013     6.93025
   187  H   1.0    0.03    1.00    1.43   -14.04051   160.90519     6.11162
   188  H   1.0    0.04    1.00    1.43   -16.60882   160.73027     3.99144
   189  N   5.0   -0.15    3.52    2.09   -15.19164   151.26468     3.28687
   190  C   4.0    0.03    4.45    4.46   -14.18848   148.84899     2.50656
   191  C   4.0    0.16    3.51    3.12   -14.07522   148.73261    -0.37730
   192  O   6.0   -0.31    1.32    1.80   -12.27575   147.91032    -1.59855
   193  C   4.0   -0.04    4.21    4.02   -15.66100   146.67247     3.65826
   194  C   4.0   -0.03    4.11    3.82   -14.02003   144.29532     3.96905
   195  C   4.0    0.24    3.04    3.02   -15.07014   142.04123     5.70881
   196  O   6.0   -0.30    1.14    1.80   -17.25048   141.18951     5.30609
   197  O   6.0   -0.31    1.20    1.80   -13.55434   141.20743     7.36012
   198  H   1.0    0.11    1.10    1.44   -16.98169   151.37632     3.95909
   199  H   1.0    0.05    1.06    1.44   -12.22647   148.75352     3.19943
   200  H   1.0    0.04    1.03    1.43   -16.28401   147.25798     5.54189
   201  H   1.0    0.06    1.02    1.43   -17.33926   146.22601     2.54067
   202  H   1.0    0.06    1.02    1.43   -13.65019   143.43020     2.12317
   203  H   1.0    0.04    1.03    1.43   -12.19498   144.80085     4.78714
   204  N   5.0   -0.13    3.56    2.12   -16.03432   149.80668    -1.53392
   205  C   4.0    0.04    4.46    4.48   -16.23295   149.43824    -4.26482
   206  C   4.0    0.17    3.49    3.11   -13.84117   150.44856    -5.48003
   207  O   6.0   -0.30    1.21    1.80   -12.71752   149.24499    -7.09893
   208  C   4.0   -0.04    4.28    4.15   -18.62857   150.70763    -5.34576
   209  C   4.0   -0.03    4.14    3.87   -20.17266   149.11834    -7.19527
   210  C   4.0    0.25    3.09    3.02   -20.76775   150.68590    -9.64024
   211  O   6.0   -0.30    1.21    1.80   -19.61560   152.72158    -9.90596
   212  O   6.0   -0.30    1.16    1.80   -22.27516   149.73786   -11.17921
   213  H   1.0    0.11    1.11    1.44   -17.70241   150.07168    -0.60341
   214  H   1.0    0.06    1.05    1.44   -16.27331   147.38586    -4.62604
   215  H   1.0    0.07    1.06    1.44   -19.84088   151.16226    -3.75801
   216  H   1.0    0.07    1.06    1.44   -18.08953   152.46207    -6.29693
   217  H   1.0    0.05    1.02    1.43   -19.12794   147.42910    -7.77075
   218  H   1.0    0.06    1.02    1.43   -21.94017   148.46946    -6.34406
   219  N   5.0   -0.14    3.52    2.09   -13.28587   152.77210    -4.68010
   220  C   4.0    0.03    4.37    4.32   -11.20132   154.29622    -5.55500
   221  C   4.0    0.15    3.57    3.15    -8.58577   153.51180    -4.52176
   222  O   6.0   -0.31    1.32    1.80    -6.61404   153.78447    -5.73206
   223  C   4.0   -0.04    4.27    4.14   -11.59261   157.10540    -4.92961
   224  C   4.0   -0.03    4.05    3.70   -10.67572   157.90931    -2.28071
   225  S   6.0   -0.05    2.49    3.10    -7.22901   158.40435    -1.57600
   226  C   4.0   -0.08    3.86    3.41    -6.39132   161.07702    -3.63194
   227  H   1.0    0.12    1.13    1.45   -14.40375   153.62606    -3.37354
   228  H   1.0    0.05    1.07    1.44   -11.07720   154.05658    -7.60424
   229  H   1.0    0.04    1.02    1.43   -10.61966   158.22123    -6.37285
   230  H   1.0    0.06    1.05    1.44   -13.60115   157.50501    -5.02232
   231  H   1.0    0.04    1.07    1.44   -11.55504   159.71010    -1.83283
   232  H   1.0    0.07    1.09    1.44   -11.19739   156.50484    -0.88781
   233  H   1.0    0.03    1.05    1.44    -4.44284   161.48180    -3.17784
   234  H   1.0    0.04    1.04    1.43    -6.63487   160.45252    -5.56108
   235  H   1.0    0.04    1.04    1.43    -7.64298   162.63272    -3.17869
   236  N   5.0   -0.14    3.59    2.15    -8.52925   152.51249    -2.23631
   237  C   4.0    0.04    4.48    4.51    -6.22939   151.33794    -1.44688
   238  C   4.0    0.16    3.63    3.19    -5.28059   149.34558    -3.26415
   239  O   6.0   -0.30    1.29    1.80    -3.07269   149.34043    -3.95652
   240  C   4.0   -0.05    4.44    4.44    -6.77859   149.94302     1.00470
   241  C   4.0   -0.02    4.20    4.00    -5.53539   147.35474     1.49402
   242  C   4.0   -0.07    4.06    3.73    -2.58695   147.24313     1.26063
   243  C   4.0   -0.08    4.11    3.82    -6.40616   146.63023     4.18232
   244  H   1.0    0.12    1.12    1.45   -10.09203   152.33170    -1.15317
   245  H   1.0    0.05    1.05    1.44    -4.73143   152.76213    -1.25227
   246  H   1.0    0.04    1.03    1.43    -6.29711   151.17413     2.58886
   247  H   1.0    0.06    1.05    1.44    -8.80258   149.57962     1.06365
   248  H   1.0    0.05    1.06    1.44    -6.31396   145.93789     0.21138
   249  H   1.0    0.05    1.00    1.43    -1.98881   145.29601     1.54863
   250  H   1.0    0.07    1.03    1.43    -1.90336   147.85208    -0.55813
   251  H   1.0    0.04    1.00    1.43    -1.72605   148.39080     2.72319
   252  H   1.0    0.05    1.00    1.43    -5.74778   144.73875     4.65295
   253  H   1.0    0.04    1.00    1.43    -5.63794   147.93476     5.56810
   254  H   1.0    0.04    1.00    1.43    -8.45477   146.62328     4.29118
   255  N   5.0   -0.15    3.65    2.21    -6.89815   147.49490    -3.85450
   256  C   4.0    0.03    4.54    4.59    -6.11179   145.27700    -5.22442
   257  C   4.0    0.17    3.47    3.10    -4.67945   145.96007    -7.59038
   258  O   6.0   -0.29    1.19    1.80    -2.93600   144.64946    -8.33906
   259  C   4.0   -0.03    4.36    4.32    -8.49089   143.86005    -5.84997
   260  C   4.0   -0.03    4.24    4.09    -9.50041   142.81839    -3.36817
   261  C   4.0    0.25    3.12    3.03   -10.89905   140.30011    -3.97505
   262  O   6.0   -0.29    1.17    1.80   -12.75877   140.49611    -5.42034
   263  O   6.0   -0.29    1.15    1.80   -10.01897   138.30948    -3.05011
   264  H   1.0    0.10    1.10    1.44    -8.69210   147.52302    -3.19669
   265  H   1.0    0.05    1.05    1.44    -4.84366   144.09046    -4.07526
   266  H   1.0    0.07    1.03    1.43    -9.87476   145.08746    -6.75683
   267  H   1.0    0.06    1.03    1.43    -8.07623   142.29244    -7.13341
   268  H   1.0    0.05    1.03    1.43    -7.97132   142.37408    -2.04852
   269  H   1.0    0.07    1.03    1.43   -10.82070   144.11541    -2.47396
   270  N   5.0   -0.13    3.54    2.11    -5.62029   148.04676    -8.64633
   271  C   4.0    0.03    4.22    4.03    -4.62579   149.73878   -10.58259
   272  C   4.0    0.09    3.26    3.04    -1.96920   150.39217    -9.72444
   273  O   6.0   -0.30    1.11    1.80    -0.01158   149.42686   -10.55087
   274  C   4.0   -0.05    4.19    3.98    -6.22506   152.16898   -11.00115
   275  C   4.0   -0.05    4.10    3.80    -9.03416   151.71660   -11.79887
   276  C   4.0   -0.05    4.14    3.88   -10.49114   154.17225   -12.40123
   277  C   4.0   -0.02    4.10    3.79   -13.37982   154.08599   -12.23268
   278  N   5.0   -0.11    3.95    2.73   -14.56552   152.61666   -14.28190
   279  H   1.0    0.09    1.12    1.45    -7.15778   148.75632    -7.75995
   280  H   1.0    0.05    1.05    1.44    -4.47600   148.66504   -12.35650
   281  H   1.0    0.07    1.06    1.44    -6.22089   153.32783    -9.31173
   282  H   1.0    0.03    1.03    1.43    -5.26899   153.19905   -12.50811
   283  H   1.0    0.04    1.02    1.43    -9.05381   150.48938   -13.45605
   284  H   1.0    0.06    1.03    1.43    -9.99990   150.70138   -10.28167
   285  H   1.0    0.04    1.03    1.43    -9.84764   155.65018   -11.11384
   286  H   1.0    0.05    1.04    1.43   -10.01467   154.78831   -14.30574
   287  H   1.0    0.06    1.02    1.43   -14.02254   153.30208   -10.43498
   288  H   1.0    0.07    1.04    1.43   -14.08646   156.00820   -12.42906
   289  H   1.0    0.07    1.03    1.43   -16.46612   152.95925   -14.28066
   290  H   1.0    0.05    0.92    1.42   -13.84797   152.90852   -16.29115
   291  H   1.0    0.06    1.03    1.43   -14.29556   150.72977   -13.96903
   292  N   5.0   -0.25    3.16    1.95   -10.15430   172.51412    -1.96877
   293  C   4.0    0.02    4.23    4.06   -10.31052   170.03773    -3.12006
   294  C   4.0    0.05    3.28    3.05   -11.75727   169.75881    -5.55854
   295  O   6.0   -0.33    1.16    1.80   -11.52068   167.76721    -6.72632
   296  C   4.0   -0.05    4.42    4.41   -11.73462   168.07416    -1.48793
   297  C   4.0   -0.03    4.15    3.91   -10.59932   167.25069     1.05796
   298  C   4.0   -0.09    4.11    3.83   -11.86773   164.79935     1.90856
   299  C   4.0   -0.09    4.12    3.84    -7.76155   166.82596     0.88698
   300  H   1.0    0.06    1.03    1.43   -10.62913   172.60988    -0.12344
   301  H   1.0    0.03    1.06    1.44    -8.39944   169.33845    -3.45586
   302  H   1.0    0.03    1.03    1.43   -13.63014   168.80590    -1.12543
   303  H   1.0    0.05    1.05    1.44   -11.90116   166.38463    -2.66150
   304  H   1.0    0.03    1.05    1.44   -10.98992   168.71206     2.46828
   305  H   1.0    0.03    1.00    1.43   -11.21490   164.29743     3.78668
   306  H   1.0    0.03    1.00    1.43   -13.90726   165.03492     1.96934
   307  H   1.0    0.04    1.00    1.43   -11.39788   163.26793     0.62065
   308  H   1.0    0.03    1.00    1.43    -7.08278   165.91175     2.59526
   309  H   1.0    0.03    1.00    1.43    -7.31016   165.61927    -0.70841
   310  H   1.0    0.02    1.00    1.43    -6.75108   168.60671     0.69199
   311  N   5.0   -0.24    3.19    1.95   -10.04317   163.78739   -11.98896
   312  C   4.0    0.03    4.18    3.95   -11.62633   161.67444   -12.68052
   313  C   4.0    0.06    3.20    3.04   -10.68802   160.59160   -15.18358
   314  O   6.0   -0.32    1.14    1.80   -11.34135   158.48795   -15.85109
   315  C   4.0   -0.04    4.22    4.04   -14.52896   162.30220   -12.82292
   316  C   4.0    0.15    3.17    3.03   -16.33744   160.32049   -11.68232
   317  O   6.0   -0.30    1.19    1.80   -17.56883   158.84951   -12.96500
   318  N   5.0   -0.20    3.17    1.95   -16.49357   160.36791    -9.14632
   319  H   1.0    0.07    1.03    1.43   -10.23759   165.39077   -12.98071
   320  H   1.0    0.04    1.05    1.44   -11.30124   160.23853   -11.21532
   321  H   1.0    0.03    1.03    1.43   -14.83221   164.10633   -11.87535
   322  H   1.0    0.04    1.03    1.43   -15.04118   162.52387   -14.80833
   323  H   1.0    0.10    1.03    1.43   -17.56960   159.08166    -8.24141
   324  H   1.0    0.08    1.03    1.43   -15.37175   161.50935    -8.12153
   325  N   5.0   -0.23    3.25    1.97     9.99641   151.50761     8.05406
   326  C   4.0    0.02    4.33    4.25    10.21266   150.49887    10.59639
   327  C   4.0    0.14    3.44    3.09     8.02635   151.48898    12.19757
   328  O   6.0   -0.31    1.22    1.80     6.95926   150.33769    13.86506
   329  C   4.0   -0.04    4.27    4.14    12.61710   151.38130    11.95056
   330  C   4.0   -0.05    4.10    3.81    14.94133   149.73983    11.42253
   331  C   4.0    0.23    3.04    3.02    16.60163   149.18837    13.91405
   332  O   6.0   -0.31    1.18    1.80    15.22052   148.76061    15.81906
   333  O   6.0   -0.34    1.13    1.80    18.94989   149.11052    13.90366
   334  H   1.0    0.07    1.02    1.43    11.57424   151.49492     6.95210
   335  H   1.0    0.05    1.04    1.43    10.12374   148.41986    10.56308
   336  H   1.0    0.03    1.02    1.43    13.00633   153.35632    11.50963
   337  H   1.0    0.06    1.05    1.44    12.24875   151.22924    13.98014
   338  H   1.0    0.04    1.03    1.43    14.32653   147.87716    10.77545
   339  H   1.0    0.03    1.02    1.43    16.20620   150.48318     9.98379
   340  N   5.0   -0.15    3.52    2.09     7.59315   153.93717    11.74189
   341  C   4.0    0.02    4.30    4.19     6.36541   155.67239    13.48580
   342  C   4.0    0.15    3.47    3.10     3.43120   155.39290    13.22809
   343  O   6.0   -0.32    1.36    1.80     1.92213   154.76103    14.87969
   344  C   4.0   -0.06    4.14    3.89     7.46071   158.43885    13.08703
   345  C   4.0   -0.06    4.11    3.83    10.18277   158.97353    14.13252
   346  C   4.0   -0.06    4.12    3.84    10.38766   161.37079    15.77172
   347  C   4.0   -0.06    4.12    3.84    13.18278   161.98367    16.24107
   348  N   5.0   -0.14    3.98    2.81    13.59299   164.36723    17.73173
   349  H   1.0    0.07    1.11    1.44     8.78577   154.77780    10.52222
   350  H   1.0    0.05    1.05    1.44     6.83372   155.03082    15.40952
   351  H   1.0    0.03    1.02    1.43     7.35359   158.88407    11.08958
   352  H   1.0    0.04    1.03    1.43     6.12655   159.66834    14.06706
   353  H   1.0    0.04    1.02    1.43    10.84698   157.33609    15.20235
   354  H   1.0    0.02    1.03    1.43    11.48166   159.15929    12.55090
   355  H   1.0    0.03    1.02    1.43     9.50131   162.93318    14.76368
   356  H   1.0    0.03    1.02    1.43     9.42679   161.01313    17.56006
   357  H   1.0    0.02    1.02    1.43    14.08608   160.40505    17.21360
   358  H   1.0    0.02    1.02    1.43    14.11143   162.21423    14.41522
   359  H   1.0    0.02    1.02    1.43    15.50107   164.61629    18.02033
   360  H   1.0    0.03    1.02    1.43    12.88085   165.81456    16.59037
   361  H   1.0    0.03    1.02    1.43    12.72559   164.23990    19.46895
   362  N   5.0   -0.16    3.55    2.12     2.59333   156.02876    10.96672
   363  C   4.0    0.03    4.59    4.66    -0.04545   155.56637    10.60314
   364  C   4.0    0.16    3.97    3.57    -0.60964   152.81224    10.87340
   365  O   6.0   -0.33    1.58    1.80    -2.72430   152.08481    11.42562
   366  C   4.0   -0.06    4.46    4.48    -0.99298   156.51931     8.09897
   367  C   4.0   -0.02    4.33    4.25    -2.59325   154.57650     6.80856
   368  C   4.0   -0.08    4.12    3.84    -4.01720   155.99186     4.72443
   369  C   4.0   -0.08    4.25    4.09    -0.87353   152.42387     5.92253
   370  H   1.0    0.06    1.06    1.44     3.75642   156.46333     9.51016
   371  H   1.0    0.05    1.08    1.44    -1.04511   156.53171    12.13695
   372  H   1.0    0.03    1.03    1.43    -2.04870   158.26753     8.40561
   373  H   1.0    0.03    1.04    1.43     0.62909   156.97151     6.89691
   374  H   1.0    0.05    1.09    1.44    -4.01875   153.87536     8.10958
   375  H   1.0    0.04    1.00    1.43    -5.28884   154.74182     3.71310
   376  H   1.0    0.03    1.00    1.43    -5.13871   157.48378     5.57379
   377  H   1.0    0.03    1.00    1.43    -2.72683   156.83062     3.36237
   378  H   1.0    0.04    1.01    1.43    -1.53463   150.58246     6.51970
   379  H   1.0    0.03    1.00    1.43    -0.85373   152.39648     3.85232
   380  H   1.0    0.04    1.03    1.43     1.07636   152.66631     6.49584
   381  N   5.0   -0.14    3.78    2.38     1.16668   151.12125    10.49628
   382  C   4.0    0.04    4.64    4.71     0.07176   148.69613    10.58733
   383  C   4.0    0.17    3.77    3.30    -0.80671   148.49753    13.27392
   384  O   6.0   -0.30    1.38    1.80    -2.88836   147.66025    13.80697
   385  C   4.0   -0.04    4.30    4.19     1.69462   146.87363     9.14823
   386  C   4.0   -0.03    4.10    3.81     4.22066   145.96357    10.20916
   387  C   4.0    0.24    3.06    3.02     5.31782   143.83714     8.33959
   388  O   6.0   -0.30    1.20    1.80     3.94208   143.42988     6.45350
   389  O   6.0   -0.30    1.13    1.80     7.42552   142.83626     8.82815
   390  H   1.0    0.08    1.06    1.44     2.97001   151.39069     9.96933
   391  H   1.0    0.05    1.11    1.44    -1.73039   148.72086     9.53068
   392  H   1.0    0.06    1.04    1.43     0.58700   145.16848     8.75665
   393  H   1.0    0.05    1.04    1.44     2.09071   147.75050     7.33058
   394  H   1.0    0.05    1.02    1.43     5.62354   147.46310    10.32798
   395  H   1.0    0.05    1.01    1.43     4.03301   145.14518    12.10194
   396  N   5.0   -0.13    3.62    2.18     0.59318   149.60739    15.07463
   397  C   4.0    0.04    4.69    4.75    -0.52130   149.03055    17.50531
   398  C   4.0    0.16    3.81    3.35    -2.94498   150.44181    17.89683
   399  O   6.0   -0.33    1.46    1.80    -4.73004   149.60970    19.15306
   400  C   4.0   -0.03    4.30    4.19     1.06196   149.64740    19.84259
   401  C   4.0   -0.07    4.13    3.87     3.24630   151.41541    19.20288
   402  C   4.0   -0.06    4.20    4.01    -0.58825   150.55438    22.06786
   403  H   1.0    0.10    1.07    1.44     2.49271   149.76418    14.91926
   404  H   1.0    0.06    1.07    1.44    -0.99677   146.99688    17.53152
   405  H   1.0    0.04    1.06    1.44     1.90020   147.85608    20.47226
   406  H   1.0    0.04    1.00    1.43     4.21398   151.87072    20.95753
   407  H   1.0    0.06    1.00    1.43     4.58831   150.47640    17.96203
   408  H   1.0    0.07    1.02    1.43     2.59251   153.14248    18.31806
   409  H   1.0    0.05    1.00    1.43     0.61564   150.68150    23.73231
   410  H   1.0    0.06    1.01    1.43    -1.42891   152.40098    21.76050
   411  H   1.0    0.06    1.01    1.43    -2.06925   149.19830    22.48152
   412  N   5.0   -0.14    3.68    2.25    -2.84826   152.78528    17.08926
   413  C   4.0    0.04    4.65    4.72    -4.96342   154.42570    17.53342
   414  C   4.0    0.16    3.80    3.34    -7.32058   153.02481    16.96431
   415  O   6.0   -0.32    1.32    1.80    -9.32993   153.35560    18.03875
   416  C   4.0   -0.02    4.37    4.32    -4.76921   156.65092    15.75250
   417  C   4.0   -0.07    4.22    4.03    -7.03442   156.86889    14.01089
   418  C   4.0   -0.07    4.13    3.86    -4.22293   158.97859    17.33927
   419  H   1.0    0.11    1.11    1.45    -1.26925   153.40177    16.19387
   420  H   1.0    0.06    1.10    1.44    -4.99906   155.06760    19.49539
   421  H   1.0    0.05    1.09    1.44    -3.11940   156.28952    14.56841
   422  H   1.0    0.03    1.00    1.43    -6.89479   158.64249    12.97089
   423  H   1.0    0.05    1.02    1.43    -7.04831   155.34211    12.64780
   424  H   1.0    0.05    1.01    1.43    -8.79192   156.86316    15.06674
   425  H   1.0    0.04    1.00    1.43    -4.01069   160.63328    16.13760
   426  H   1.0    0.06    1.02    1.43    -5.75659   159.26831    18.66985
   427  H   1.0    0.05    1.00    1.43    -2.50095   158.67944    18.41482
   428  N   5.0   -0.14    3.77    2.37    -7.11835   151.58492    14.92440
   429  C   4.0    0.04    4.67    4.74    -9.30852   150.28406    14.20942
   430  C   4.0    0.16    3.66    3.21   -10.17394   148.34449    16.07775
   431  O   6.0   -0.34    1.45    1.80   -12.43813   147.86655    16.38112
   432  C   4.0   -0.02    4.33    4.26    -9.00408   149.12588    11.63696
   433  C   4.0   -0.07    4.16    3.92   -11.61191   148.21076    10.78734
   434  C   4.0   -0.08    4.17    3.93    -7.95555   151.04462     9.77762
   435  H   1.0    0.12    1.13    1.45    -5.43379   151.00689    14.24613
   436  H   1.0    0.05    1.08    1.44   -10.86566   151.67545    14.15020
   437  H   1.0    0.06    1.05    1.44    -7.71571   147.50545    11.78102
   438  H   1.0    0.04    1.00    1.43   -11.46312   147.14845     9.03328
   439  H   1.0    0.06    1.02    1.43   -12.46333   146.98186    12.18588
   440  H   1.0    0.04    1.00    1.43   -12.84853   149.82679    10.48773
   441  H   1.0    0.04    1.00    1.43    -8.07501   150.26868     7.88163
   442  H   1.0    0.04    1.00    1.43    -9.06324   152.77498     9.85995
   443  H   1.0    0.07    1.05    1.44    -6.00779   151.43787    10.21137
   444  N   5.0   -0.12    3.77    2.37    -8.52834   147.25084    17.55528
   445  C   4.0    0.07    4.92    4.89    -9.67823   145.80379    19.48622
   446  C   4.0    0.15    3.72    3.26   -11.09311   147.36598    21.31115
   447  O   6.0   -0.30    1.48    1.80   -12.92312   146.55509    22.48780
   448  C   4.0   -0.04    4.43    4.42    -7.66170   144.36678    20.90395
   449  C   4.0    0.15    3.47    3.10    -7.56746   142.30807    18.94043
   450  O   6.0   -0.29    1.32    1.80    -7.26376   142.90596    16.70512
   451  N   5.0   -0.19    3.19    1.95    -8.24449   140.03524    19.90355
   452  H   1.0    0.12    1.11    1.45    -6.63468   147.33989    17.34191
   453  H   1.0    0.06    1.11    1.45   -11.03429   144.47992    18.63794
   454  H   1.0    0.06    1.03    1.43    -5.94491   145.48800    21.03394
   455  H   1.0    0.06    1.03    1.43    -8.25719   143.69740    22.75861
   456  H   1.0    0.10    1.04    1.43    -8.61393   138.54387    18.77533
   457  H   1.0    0.10    1.04    1.43    -8.68158   139.90228    21.75203
   458  N   5.0   -0.14    3.76    2.35   -10.05059   149.58042    21.69300
   459  C   4.0    0.04    4.57    4.63   -10.88444   150.92410    23.91148
   460  C   4.0    0.18    3.56    3.14   -13.77131   150.64407    23.97968
   461  O   6.0   -0.28    1.18    1.80   -14.95083   150.05380    25.87562
   462  C   4.0   -0.03    4.32    4.23    -9.79619   153.56431    23.70735
   463  C   4.0   -0.03    4.27    4.14    -6.92745   153.26886    23.83002
   464  C   4.0    0.24    3.14    3.03    -5.77222   155.92987    23.94747
   465  O   6.0   -0.32    1.23    1.80    -6.41746   157.45352    22.27300
   466  O   6.0   -0.30    1.19    1.80    -4.32093   156.33725    25.76497
   467  H   1.0    0.11    1.12    1.45    -8.41412   149.97463    20.77634
   468  H   1.0    0.05    1.05    1.44   -10.14862   149.96712    25.61403
   469  H   1.0    0.07    1.04    1.43   -10.33321   154.43353    21.92426
   470  H   1.0    0.06    1.02    1.43   -10.47724   154.75244    25.25328
   471  H   1.0    0.05    1.03    1.43    -6.39106   152.24095    25.54330
   472  H   1.0    0.06    1.04    1.43    -6.20869   152.23951    22.20569
   473  N   5.0   -0.13    3.65    2.21   -14.63972   151.21895    21.64880
   474  C   4.0    0.04    4.44    4.44   -17.01623   150.58582    20.52632
   475  C   4.0    0.16    3.50    3.12   -17.70523   147.80923    20.64665
   476  O   6.0   -0.30    1.40    1.80   -19.33794   147.18562    22.18305
   477  C   4.0   -0.05    4.33    4.25   -16.98782   151.51938    17.82523
   478  C   4.0   -0.05    4.18    3.96   -16.56348   154.38277    17.79753
   479  C   4.0   -0.01    4.13    3.86   -18.85630   155.92824    18.82710
   480  N   5.0   -0.14    3.36    2.00   -19.76989   157.85403    17.03275
   481  C   4.0    0.09    3.31    3.06   -22.06226   158.27822    16.04838
   482  N   5.0   -0.18    3.24    1.96   -24.13608   157.25205    17.03471
   483  N   5.0   -0.16    3.34    1.99   -22.26446   159.97131    14.20933
   484  H   1.0    0.09    1.15    1.45   -13.24811   151.43568    20.35620
   485  H   1.0    0.06    1.06    1.44   -18.49705   151.52245    21.64615
   486  H   1.0    0.06    1.04    1.43   -15.47984   150.57516    16.78321
   487  H   1.0    0.04    1.03    1.43   -18.78294   151.04568    16.92965
   488  H   1.0    0.05    1.03    1.43   -14.85377   154.83552    18.84793
   489  H   1.0    0.04    1.03    1.43   -16.23719   154.92455    15.83184
   490  H   1.0    0.05    1.03    1.43   -20.38788   154.62458    19.25889
   491  H   1.0    0.06    1.02    1.43   -18.32920   156.86904    20.58329
   492  H   1.0    0.08    1.07    1.44   -18.34724   158.88260    16.26178
   493  H   1.0    0.10    1.03    1.43   -24.01658   155.84942    18.31621
   494  H   1.0    0.09    1.03    1.43   -25.84359   157.35602    16.19555
   495  H   1.0    0.11    1.04    1.43   -20.76887   161.02717    13.66102
   496  H   1.0    0.09    1.04    1.43   -23.98180   160.68713    13.80548
   497  N   5.0   -0.14    3.46    2.05   -16.73870   146.27484    18.88467
   498  C   4.0    0.03    4.31    4.22   -17.50923   143.63499    18.67272
   499  C   4.0    0.17    3.52    3.12   -18.37399   142.59299    21.29174
   500  O   6.0   -0.31    1.30    1.80   -20.27018   141.26114    21.46039
   501  C   4.0   -0.04    4.15    3.89   -15.50373   141.80250    17.55564
   502  C   4.0   -0.05    4.04    3.68   -14.57467   141.95521    14.73686
   503  C   4.0   -0.01    4.08    3.76   -16.02983   140.58521    12.56693
   504  N   5.0   -0.14    3.28    1.98   -16.80670   137.86215    12.73772
   505  C   4.0    0.10    3.30    3.05   -17.42374   136.24718    10.83041
   506  N   5.0   -0.17    3.23    1.96   -16.42512   136.42722     8.53528
   507  N   5.0   -0.18    3.24    1.97   -19.09660   134.38632    11.25665
   508  H   1.0    0.11    1.12    1.45   -15.17040   146.78744    17.91183
   509  H   1.0    0.05    1.05    1.44   -19.19973   143.56927    17.46081
   510  H   1.0    0.05    1.03    1.43   -13.82368   141.98022    18.74393
   511  H   1.0    0.05    1.03    1.43   -16.23303   139.89813    17.87950
   512  H   1.0    0.05    1.03    1.43   -14.50059   143.92797    14.15748
   513  H   1.0    0.06    1.02    1.43   -12.63256   141.26381    14.73930
   514  H   1.0    0.04    1.02    1.43   -17.78869   141.64059    12.26402
   515  H   1.0    0.07    1.05    1.44   -14.86631   140.81049    10.88347
   516  H   1.0    0.08    1.07    1.44   -17.65877   137.46916    14.40571
   517  H   1.0    0.12    1.06    1.44   -15.38649   137.98358     8.06476
   518  H   1.0    0.09    1.03    1.43   -17.01402   135.30776     7.11698
   519  H   1.0    0.09    1.03    1.43   -19.58981   134.01871    13.06252
   520  H   1.0    0.11    1.05    1.44   -18.92906   132.74382    10.26545
   521  N   5.0   -0.13    3.53    2.10   -16.93446   143.11717    23.28533
   522  C   4.0    0.04    4.46    4.48   -17.88958   142.49612    25.76531
   523  C   4.0    0.16    3.46    3.10   -20.36660   143.89441    26.36431
   524  O   6.0   -0.29    1.31    1.80   -22.34479   142.71507    26.11586
   525  C   4.0   -0.05    4.23    4.06   -15.78438   142.73063    27.71469
   526  C   4.0   -0.03    4.18    3.96   -14.24152   140.26767    27.75417
   527  C   4.0    0.25    3.09    3.02   -11.34447   140.68933    28.08174
   528  O   6.0   -0.31    1.16    1.80   -10.62582   141.30234    30.24985
   529  O   6.0   -0.30    1.16    1.80   -10.01400   140.37971    26.14985
   530  H   1.0    0.12    1.11    1.45   -15.43488   144.29855    23.16145
   531  H   1.0    0.06    1.07    1.44   -18.50710   140.51084    25.66718
   532  H   1.0    0.07    1.03    1.43   -14.56458   144.33075    27.23844
   533  H   1.0    0.04    1.02    1.43   -16.55977   143.09350    29.58988
   534  H   1.0    0.04    1.02    1.43   -14.85044   139.06141    29.31107
   535  H   1.0    0.06    1.03    1.43   -14.46887   139.23415    25.98438
   536  N   5.0   -0.14    3.45    2.05   -20.24518   146.26051    27.21722
   537  C   4.0    0.03    4.40    4.38   -22.43767   147.74807    27.92350
   538  C   4.0    0.16    3.52    3.12   -24.81144   147.04361    26.46644
   539  O   6.0   -0.31    1.22    1.80   -26.84280   146.98747    27.60227
   540  C   4.0   -0.04    4.32    4.24   -22.09136   150.56735    27.33393
   541  C   4.0   -0.03    4.15    3.90   -20.00394   151.86417    28.83501
   542  C   4.0    0.25    3.09    3.02   -18.99721   154.26478    27.40646
   543  O   6.0   -0.30    1.19    1.80   -20.48784   155.24369    25.87097
   544  O   6.0   -0.29    1.16    1.80   -16.81298   154.99516    27.91810
   545  H   1.0    0.10    1.07    1.44   -18.58752   147.19986    27.08031
   546  H   1.0    0.04    1.05    1.44   -22.81954   147.46817    29.94757
   547  H   1.0    0.07    1.04    1.43   -21.64573   150.72757    25.32489
   548  H   1.0    0.05    1.03    1.43   -23.88431   151.53589    27.64636
   549  H   1.0    0.03    1.02    1.43   -20.66675   152.42270    30.70816
   550  H   1.0    0.06    1.03    1.43   -18.36363   150.63453    29.07587
   551  N   5.0   -0.13    3.50    2.08   -24.55686   146.74668    23.96629
   552  C   4.0    0.03    4.32    4.23   -26.69444   146.13795    22.34171
   553  C   4.0    0.16    3.42    3.08   -27.31791   143.26724    22.46961
   554  O   6.0   -0.30    1.32    1.80   -29.40913   142.62684    23.29777
   555  C   4.0   -0.05    4.13    3.86   -26.30713   147.34057    19.69138
   556  C   4.0   -0.04    4.02    3.66   -28.67716   148.38715    18.30781
   557  C   4.0    0.24    2.98    3.02   -28.35735   150.66317    16.21066
   558  O   6.0   -0.32    1.14    1.80   -29.22782   150.34128    14.04421
   559  O   6.0   -0.31    1.15    1.80   -27.33150   152.63583    16.98213
   560  H   1.0    0.11    1.10    1.44   -22.79521   146.72437    23.21205
   561  H   1.0    0.06    1.07    1.44   -28.33997   147.02352    23.24952
   562  H   1.0    0.06    1.03    1.43   -25.02262   148.93003    19.99556
   563  H   1.0    0.05    1.02    1.43   -25.36549   145.95895    18.48108
   564  H   1.0    0.04    1.01    1.43   -29.70366   146.84267    17.39715
   565  H   1.0    0.04    1.02    1.43   -29.93989   149.21361    19.72044
   566  N   5.0   -0.14    3.39    2.02   -25.64902   141.50165    21.72218
   567  C   4.0    0.05    4.40    4.38   -26.51728   138.91867    21.96345
   568  C   4.0    0.11    3.36    3.07   -27.79729   138.39103    24.49222
   569  O   6.0   -0.31    1.12    1.80   -29.68813   137.08279    24.66503
   570  C   4.0    0.03    4.18    3.96   -24.50465   136.92231    21.69288
   571  O   6.0   -0.26    2.08    1.84   -25.79361   134.83234    20.66153
   572  H   1.0    0.12    1.09    1.44   -23.75658   141.80758    21.57894
   573  H   1.0    0.06    1.06    1.44   -27.94405   138.55924    20.49616
   574  H   1.0    0.05    1.01    1.43   -23.01499   137.59600    20.41570
   575  H   1.0    0.04    1.01    1.43   -23.65927   136.48444    23.53313
   576  H   1.0    0.11    1.02    1.43   -24.77703   133.33368    20.87873
   577  N   5.0   -0.24    3.27    1.97     7.97574   145.62848    30.82871
   578  C   4.0    0.03    4.29    4.19     5.66179   146.05642    29.45879
   579  C   4.0    0.07    3.23    3.04     5.53718   144.47444    27.09283
   580  O   6.0   -0.33    1.19    1.80     3.53043   143.61987    26.34415
   581  C   4.0   -0.04    4.35    4.30     5.62423   148.82526    28.83324
   582  C   4.0   -0.04    4.24    4.09     5.22688   150.22035    31.31504
   583  C   4.0    0.23    3.12    3.03     3.74531   152.69075    30.70816
   584  O   6.0   -0.32    1.17    1.80     4.84491   154.20332    29.26287
   585  O   6.0   -0.32    1.17    1.80     1.58133   152.92390    31.63310
   586  H   1.0    0.06    1.04    1.43     8.89705   147.16802    31.48652
   587  H   1.0    0.04    1.05    1.44     4.00015   145.55146    30.60795
   588  H   1.0    0.04    1.03    1.43     7.37913   149.41001    27.92639
   589  H   1.0    0.05    1.03    1.43     4.05931   149.24995    27.54980
   590  H   1.0    0.04    1.03    1.43     4.07755   149.11828    32.63469
   591  H   1.0    0.03    1.02    1.43     7.01029   150.71525    32.20925
   592  N   5.0   -0.23    3.26    1.97     1.43621   138.90342    24.92099
   593  C   4.0    0.03    4.37    4.33    -0.25304   138.37488    22.85004
   594  C   4.0    0.07    3.27    3.05     0.27760   135.86071    21.61162
   595  O   6.0   -0.33    1.30    1.80    -1.32309   134.74721    20.32565
   596  C   4.0   -0.01    4.32    4.24    -0.19160   140.39594    20.84988
   597  C   4.0   -0.07    4.17    3.95    -0.71567   142.87885    22.15890
   598  C   4.0   -0.07    4.15    3.89     2.27926   140.35497    19.40930
   599  H   1.0    0.11    1.07    1.44     2.10879   140.66166    25.23767
   600  H   1.0    0.04    1.06    1.44    -2.19171   138.25535    23.61100
   601  H   1.0    0.05    1.06    1.44    -1.74656   139.99332    19.53184
   602  H   1.0    0.04    1.00    1.43    -1.29756   144.29121    20.78266
   603  H   1.0    0.05    1.00    1.43    -2.23677   142.65013    23.52698
   604  H   1.0    0.06    1.01    1.43     0.92899   143.59811    23.15175
   605  H   1.0    0.04    1.00    1.43     2.42127   142.04292    18.24235
   606  H   1.0    0.04    1.00    1.43     3.86120   140.30653    20.72103
   607  H   1.0    0.05    1.00    1.43     2.39401   138.71487    18.17646
   608  N   5.0   -0.21    3.22    1.96    -3.82884   131.82035    24.66259
   609  C   4.0    0.03    4.35    4.28    -6.07193   131.97811    23.19962
   610  C   4.0    0.14    3.48    3.10    -5.91345   130.68337    20.56986
   611  O   6.0   -0.32    1.42    1.80    -7.75644   129.48456    19.73737
   612  C   4.0   -0.03    4.31    4.21    -6.89980   134.71874    22.98097
   613  C   4.0    0.16    3.28    3.05    -9.70049   134.60754    22.33231
   614  O   6.0   -0.30    1.21    1.80   -11.22038   134.16180    24.00325
   615  N   5.0   -0.19    3.17    1.95   -10.40932   134.88193    19.84602
   616  H   1.0    0.08    1.03    1.43    -3.08048   133.40564    25.44890
   617  H   1.0    0.05    1.08    1.44    -7.57374   130.91560    24.11878
   618  H   1.0    0.05    1.03    1.43    -6.65728   135.66975    24.79547
   619  H   1.0    0.06    1.03    1.43    -5.77055   135.68298    21.55156
   620  H   1.0    0.10    1.03    1.43   -12.24669   134.46829    19.52656
   621  H   1.0    0.09    1.03    1.43    -9.17848   134.26622    18.52904
   622  N   5.0   -0.15    3.56    2.12    -4.02195   131.06574    19.00041
   623  C   4.0    0.04    4.48    4.51    -4.21875   129.84181    16.59241
   624  C   4.0    0.08    3.30    3.05    -4.98308   127.06541    16.72076
   625  O   6.0   -0.31    1.13    1.80    -6.58874   126.21985    15.30300
   626  C   4.0   -0.05    4.33    4.25    -1.68837   130.20024    15.34576
   627  C   4.0   -0.02    4.24    4.09    -1.43460   133.00588    14.80343
   628  C   4.0    0.24    3.10    3.02    -0.17945   133.37325    12.15117
   629  O   6.0   -0.30    1.17    1.80     2.11319   134.01811    12.35679
   630  O   6.0   -0.29    1.13    1.80    -1.42191   133.01292    10.13717
   631  H   1.0    0.12    1.18    1.46    -2.46258   132.09449    19.43701
   632  H   1.0    0.06    1.06    1.44    -5.72785   130.73166    15.46185
   633  H   1.0    0.04    1.03    1.43    -0.23128   129.48900    16.60742
   634  H   1.0    0.05    1.03    1.43    -1.64746   129.09693    13.59373
   635  H   1.0    0.05    1.03    1.43    -3.29552   133.89997    14.76169
   636  H   1.0    0.06    1.03    1.43    -0.29123   133.98550    16.19376
   637  N   5.0   -0.21    3.24    1.96   -11.40303   125.89006    18.89225
   638  C   4.0    0.05    4.31    4.22   -13.03594   126.04031    16.74624
   639  C   4.0    0.08    3.23    3.04   -13.05067   123.59473    15.16469
   640  O   6.0   -0.30    1.12    1.80   -14.92321   122.23751    15.12311
   641  C   4.0   -0.04    4.26    4.11   -12.35882   128.38087    15.22409
   642  C   4.0   -0.03    4.18    3.97   -13.85488   128.38582    12.77874
   643  C   4.0    0.24    3.08    3.02   -16.82957   128.11369    13.15572
   644  O   6.0   -0.30    1.23    1.80   -17.66027   126.78785    14.91318
   645  O   6.0   -0.31    1.20    1.80   -18.13338   129.31709    11.56562
   646  H   1.0    0.13    1.08    1.44    -9.80738   126.94019    18.91972
   647  H   1.0    0.07    1.09    1.44   -14.98046   126.17630    17.44155
   648  H   1.0    0.05    1.03    1.43   -12.80759   130.03689    16.36701
   649  H   1.0    0.06    1.03    1.43   -10.33176   128.36993    14.83163
   650  H   1.0    0.05    1.02    1.43   -13.52351   130.11363    11.70016
   651  H   1.0    0.05    1.03    1.43   -13.28855   126.78911    11.59759
   652  N   5.0   -0.24    3.18    1.95   -13.90240   143.00923   -22.94132
   653  C   4.0    0.02    4.11    3.82   -14.79128   141.07837   -21.19741
   654  C   4.0    0.05    3.13    3.03   -13.08212   138.67701   -21.45512
   655  O   6.0   -0.32    1.10    1.80   -11.78038   137.68605   -19.80352
   656  C   4.0   -0.07    4.13    3.87   -17.73475   140.64369   -21.59618
   657  C   4.0   -0.06    4.11    3.83   -19.55882   142.73373   -20.55070
   658  C   4.0   -0.06    4.12    3.84   -21.73736   141.71253   -18.91149
   659  C   4.0   -0.05    4.12    3.84   -23.66569   143.82674   -18.44214
   660  N   5.0   -0.13    3.98    2.81   -25.93501   142.99021   -16.95148
   661  H   1.0    0.06    1.03    1.43   -15.22672   143.62176   -24.16099
   662  H   1.0    0.04    1.04    1.43   -14.46981   141.80472   -19.27369
   663  H   1.0    0.01    1.02    1.43   -18.06676   140.32831   -23.59363
   664  H   1.0    0.03    1.03    1.43   -18.13244   138.87353   -20.61615
   665  H   1.0    0.03    1.02    1.43   -18.47287   144.12767   -19.48086
   666  H   1.0    0.02    1.03    1.43   -20.36915   143.76572   -22.13231
   667  H   1.0    0.02    1.02    1.43   -22.64726   140.16374   -19.91953
   668  H   1.0    0.04    1.02    1.43   -20.94718   141.05923   -17.12315
   669  H   1.0    0.04    1.02    1.43   -22.75021   145.39833   -17.46961
   670  H   1.0    0.02    1.02    1.43   -24.32969   144.51570   -20.26799
   671  H   1.0    0.04    1.02    1.43   -27.10475   144.51813   -16.66288
   672  H   1.0    0.03    1.02    1.43   -26.83237   141.64982   -18.09284
   673  H   1.0    0.05    1.02    1.43   -25.39105   142.30268   -15.21426
   674  H   1.0    0.08    1.07    1.44     5.84706   167.32943    17.05946
   675  H   1.0    0.03    1.04    1.43     2.32455   168.63553    22.06239
   676  H   1.0    0.07    1.07    1.44    -1.49868   171.45793    15.18458
   677  H   1.0    0.05    1.04    1.43    -9.26425   169.02108    20.34833
   678  H   1.0    0.09    1.08    1.44   -11.78555   168.30009    12.92691
   679  H   1.0    0.05    1.05    1.44   -19.56739   168.85658    14.92030
   680  H   1.0    0.08    1.08    1.44   -20.88655   166.84878     9.17456
   681  H   1.0    0.07    1.05    1.44    -1.70329   151.69961    -8.38618
   682  H   1.0    0.07    1.07    1.44    -8.55760   173.09008    -2.07543
   683  H   1.0    0.03    1.04    1.43   -12.85929   171.16702    -6.16974
   684  H   1.0    0.10    1.07    1.44   -10.34856   164.22061   -10.37291
   685  H   1.0    0.03    1.05    1.44    -9.53388   161.60976   -16.28011
   686  H   1.0    0.09    1.07    1.44     8.83753   150.61545     7.18596
   687  H   1.0    0.06    1.05    1.44   -27.08841   139.12705    26.08182
   688  H   1.0    0.07    1.07    1.44     7.65633   144.67093    32.19752
   689  H   1.0    0.04    1.05    1.44     7.11266   144.11269    26.11402
   690  H   1.0    0.09    1.08    1.44     0.67370   138.51144    26.38983
   691  H   1.0    0.04    1.05    1.44     1.96877   135.04344    21.81917
   692  H   1.0    0.08    1.08    1.44    -4.08757   130.78771    25.98896
   693  H   1.0    0.04    1.05    1.44    -4.16409   125.91709    17.97841
   694  H   1.0    0.09    1.08    1.44   -12.25149   126.36997    20.28594
   695  H   1.0    0.05    1.04    1.43   -11.52369   123.10769    14.16360
   696  H   1.0    0.08    1.07    1.44   -13.36596   144.36354   -22.06347
   697  H   1.0    0.03    1.05    1.44   -12.96694   137.77244   -23.11028

  Z AO/shell   Hii/eV     exponent
  1     Wed Apr 25 08:07:45 CEST 2018   EN: 2.200 GM2: 0.406  GM3: 0.0800  RAES: 1.40
     1s    -10.707211    1.230000
  6     Wed Apr 25 08:07:45 CEST 2018   EN: 2.550 GM2: 0.538  GM3: 0.1500  RAES: 3.00
     2s    -13.970922    2.096432
     2p    -10.063292    1.800000
  7     Wed Apr 25 08:07:45 CEST 2018   EN: 3.040 GM2: 0.461  GM3:-0.0640  RAES: 1.90
     2s    -16.686243    2.339881
     2p    -12.523956    2.014332
  8     Wed Apr 25 08:07:45 CEST 2018   EN: 3.440 GM2: 0.452  GM3:-0.0517  RAES: 1.80
     2s    -20.229985    2.439742
     2p    -15.503117    2.137023
 16     Tue Apr 24 11:44:34 CEST 2018   EN: 2.580 GM2: 0.340  GM3:-0.0502  RAES: 3.10
     3s    -20.029654    1.981333
     3p    -11.377694    2.025643
     3d     -0.420282    1.702555
 no old-style atom pair restraining (fixing) potential

molecular fragmentation (1/2 indicates fragments):
111111111111111111122222222222222222222222222222222222222222222222222222
222222222222222222222222222222222222222222222222222222222222222222222222
222222222222222222222222222222222222222222222222222222222222222222222222
222222222222222222222222222222222222222222222222222222222222222222222222
222222222222222222222222222222222222222222222222222222222222222222222222
222222222222222222222222222222222222222222222222222222222222222222222222
222222222222222222222222222222222222222222222222222222222222222222222222
222222222222222222222222222222222222222222222222222222222222222222222222
222222222222222222222222222222222222222222222222222222222222222222222222
2222222222222222222222222112222222222222222222222
# atoms in fragment 1/2:    21   676
 fragment masses (1/2) :      115.17     4700.32
CMA distance (Bohr)    :  24.166
constraining FC (au)   :  0.0500
           ------------------------------------------------- 
          |        Self-Consistent Charge Iterations        |
           ------------------------------------------------- 

 Ncao       : 1708
 Nao        : 1707
 Nshell     : 1033
 Nel        : 1914
 T(el)      :   500.0
 intcut     :    35.0
 scfconv/Eh :  0.100E-06
   qconv/e  :  0.100E-04
 intneglect :  0.100E-08
 broydamp   :      0.400
 iter      E             dE          RMSdq      gap      omega  full diag
   1  -1100.3087602 -0.110031E+04  0.475E+00    3.08       0.0  T
   2  -1103.3704547 -0.306169E+01  0.219E+00    1.72       1.0  T
   3  -1103.5956454 -0.225191E+00  0.130E+00    1.80       1.0  T
   4  -1103.7930299 -0.197384E+00  0.286E-01    1.09       1.0  T
   5  -1103.8042340 -0.112042E-01  0.154E-01    1.16       1.0  T
   6  -1103.8062917 -0.205771E-02  0.648E-02    1.00       1.0  T
   7  -1103.8069828 -0.691049E-03  0.308E-02    0.94       1.0  T
   8  -1103.8070939 -0.111098E-03  0.143E-02    0.88       1.0  T
   9  -1103.8071236 -0.297758E-04  0.684E-03    0.86       1.0  T
  10  -1103.8071294 -0.574985E-05  0.269E-03    0.85       1.4  T
  11  -1103.8071306 -0.120630E-05  0.129E-03    0.85       2.9  T
  12  -1103.8071308 -0.194852E-06  0.548E-04    0.85       6.9  T
  13  -1103.8071308 -0.282266E-07  0.237E-04    0.85      16.0  T
  14  -1103.8071308 -0.818909E-08  0.101E-04    0.85      37.4  T
  15  -1103.8071308 -0.118166E-08  0.513E-05    0.85      73.9  T
  16  -1103.8071308 -0.372438E-09  0.234E-05    0.85     161.7  T
speedup  1.96
cpu  time for SCC    1 m 17.0 s
wall time for SCC    0 m 39.2 s

   *** convergence criteria satisfied after 16 iterations ***

          eigenvalues
 #    :         945        946        947        948        949        950        951        952
 occ. :        2.000      2.000      2.000      2.000      2.000      2.000      2.000      2.000
 eps  :        -9.883     -9.880     -9.879     -9.831     -9.819     -9.814     -9.798     -9.788
 #    :         953        954        955        956        957        958        959        960
 occ. :        2.000      2.000      2.000      2.000      2.000      0.000      0.000      0.000
 eps  :        -9.616     -9.609     -9.508     -9.315     -9.245     -8.391     -8.094     -7.913
 #    :         961        962        963        964        965        966        967        968
 occ. :        0.000      0.000      0.000      0.000      0.000      0.000      0.000      0.000
 eps  :        -7.757     -7.738     -7.597     -7.586     -7.554     -7.508     -7.451     -7.437


   #   Z            q   n(s)   n(p)   n(d)      C6AA      α(0)
   1   7 N     -0.377  1.312  4.066  0.000    29.751     8.101
   2   6 C      0.026  1.058  2.916  0.000    20.160     6.395
   3   6 C      0.191  1.091  2.718  0.000    23.907     8.008
   4   8 O     -0.367  1.749  4.618  0.000    21.035     6.149
   5   6 C     -0.023  1.067  2.956  0.000    20.942     6.508
   6   6 C     -0.079  1.056  3.023  0.000    22.009     6.679
   7   6 C     -0.111  1.038  3.072  0.000    22.673     6.790
   8   6 C     -0.116  1.039  3.077  0.000    22.785     6.807
   9   1 H      0.176  0.824  0.000  0.000     1.234     1.740
  10   1 H      0.032  0.968  0.000  0.000     2.556     2.500
  11   1 H      0.038  0.962  0.000  0.000     2.480     2.463
  12   1 H      0.053  0.947  0.000  0.000     2.284     2.363
  13   1 H      0.090  0.910  0.000  0.000     1.883     2.146
  14   1 H      0.034  0.966  0.000  0.000     2.532     2.488
  15   1 H      0.021  0.979  0.000  0.000     2.723     2.580
  16   1 H      0.048  0.952  0.000  0.000     2.340     2.392
  17   1 H      0.051  0.949  0.000  0.000     2.313     2.378
  18   1 H      0.043  0.957  0.000  0.000     2.409     2.427
  19   1 H      0.021  0.979  0.000  0.000     2.716     2.577
  20   7 N     -0.388  1.311  4.077  0.000    30.039     8.140
  21   6 C      0.025  1.067  2.908  0.000    20.178     6.399
  22   6 C      0.263  1.054  2.683  0.000    22.557     7.777
  23   8 O     -0.479  1.736  4.743  0.000    23.308     6.473
  24   6 C     -0.085  1.070  3.015  0.000    22.125     6.698
  25   6 C     -0.018  1.065  2.953  0.000    20.873     6.499
  26   6 C     -0.115  1.041  3.074  0.000    22.763     6.804
  27   6 C     -0.126  1.045  3.081  0.000    22.970     6.834
  28   1 H      0.157  0.843  0.000  0.000     1.352     1.821
  29   1 H      0.060  0.940  0.000  0.000     2.201     2.320
  30   1 H      0.062  0.938  0.000  0.000     2.181     2.310
  31   1 H      0.036  0.964  0.000  0.000     2.509     2.477
  32   1 H      0.008  0.992  0.000  0.000     2.921     2.673
  33   1 H      0.035  0.965  0.000  0.000     2.515     2.480
  34   1 H      0.032  0.968  0.000  0.000     2.552     2.498
  35   1 H      0.052  0.948  0.000  0.000     2.290     2.367
  36   1 H      0.039  0.961  0.000  0.000     2.467     2.456
  37   1 H      0.059  0.941  0.000  0.000     2.214     2.327
  38   1 H      0.042  0.958  0.000  0.000     2.427     2.436
  39   7 N     -0.178  1.241  3.937  0.000    24.849     7.404
  40   6 C      0.022  1.062  2.916  0.000    20.226     6.407
  41   6 C      0.202  1.086  2.712  0.000    23.712     7.975
  42   8 O     -0.358  1.748  4.610  0.000    20.864     6.124
  43   6 C     -0.078  1.059  3.019  0.000    21.979     6.673
  44   6 C     -0.077  1.053  3.024  0.000    21.972     6.674
  45   6 C     -0.026  1.060  2.966  0.000    21.124     6.559
  46   7 N     -0.124  1.208  3.916  0.000    23.690     7.229
  47   6 C      0.248  1.035  2.718  0.000    22.845     7.825
  48   7 N     -0.243  1.260  3.983  0.000    26.343     7.623
  49   7 N     -0.242  1.253  3.989  0.000    26.310     7.618
  50   1 H      0.238  0.762  0.000  0.000     0.931     1.511
  51   1 H      0.075  0.925  0.000  0.000     2.037     2.232
  52   1 H      0.088  0.912  0.000  0.000     1.899     2.155
  53   1 H      0.073  0.927  0.000  0.000     2.049     2.238
  54   1 H      0.061  0.939  0.000  0.000     2.185     2.312
  55   1 H      0.062  0.938  0.000  0.000     2.180     2.309
  56   1 H      0.110  0.890  0.000  0.000     1.698     2.038
  57   1 H      0.083  0.917  0.000  0.000     1.949     2.183
  58   1 H      0.220  0.780  0.000  0.000     1.011     1.575
  59   1 H      0.235  0.765  0.000  0.000     0.945     1.523
  60   1 H      0.225  0.775  0.000  0.000     0.988     1.557
  61   1 H      0.228  0.772  0.000  0.000     0.975     1.547
  62   1 H      0.219  0.781  0.000  0.000     1.012     1.576
  63   7 N     -0.439  1.317  4.122  0.000    31.495     8.335
  64   6 C      0.039  1.050  2.911  0.000    19.927     6.357
  65   6 C      0.257  1.052  2.691  0.000    22.675     7.798
  66   8 O     -0.509  1.743  4.765  0.000    23.977     6.565
  67   6 C     -0.119  1.043  3.076  0.000    22.827     6.810
  68   1 H      0.213  0.787  0.000  0.000     1.040     1.597
  69   1 H      0.017  0.983  0.000  0.000     2.786     2.610
  70   1 H      0.025  0.975  0.000  0.000     2.654     2.547
  71   1 H      0.042  0.958  0.000  0.000     2.422     2.434
  72   1 H      0.061  0.939  0.000  0.000     2.182     2.310
  73   7 N     -0.170  1.245  3.925  0.000    24.668     7.377
  74   6 C      0.014  1.063  2.923  0.000    20.351     6.425
  75   6 C      0.201  1.091  2.708  0.000    23.719     7.976
  76   8 O     -0.362  1.752  4.610  0.000    20.946     6.136
  77   6 C     -0.084  1.060  3.023  0.000    22.100     6.694
  78   6 C     -0.094  1.057  3.038  0.000    22.298     6.724
  79   6 C     -0.026  1.057  2.969  0.000    21.127     6.561
  80   7 N     -0.146  1.217  3.929  0.000    24.165     7.301
  81   6 C      0.230  1.029  2.742  0.000    23.172     7.881
  82   7 N     -0.236  1.225  4.011  0.000    26.174     7.598
  83   7 N     -0.259  1.238  4.020  0.000    26.714     7.676
  84   1 H      0.225  0.775  0.000  0.000     0.988     1.557
  85   1 H      0.100  0.900  0.000  0.000     1.783     2.088
  86   1 H      0.079  0.921  0.000  0.000     1.985     2.204
  87   1 H      0.091  0.909  0.000  0.000     1.871     2.139
  88   1 H      0.087  0.913  0.000  0.000     1.912     2.163
  89   1 H      0.098  0.902  0.000  0.000     1.799     2.098
  90   1 H      0.088  0.912  0.000  0.000     1.899     2.155
  91   1 H      0.065  0.935  0.000  0.000     2.140     2.288
  92   1 H      0.246  0.754  0.000  0.000     0.898     1.484
  93   1 H      0.234  0.766  0.000  0.000     0.948     1.525
  94   1 H      0.224  0.776  0.000  0.000     0.991     1.560
  95   1 H      0.264  0.736  0.000  0.000     0.830     1.427
  96   1 H      0.246  0.754  0.000  0.000     0.900     1.486
  97   7 N     -0.376  1.303  4.074  0.000    29.717     8.096
  98   6 C      0.013  1.062  2.925  0.000    20.368     6.428
  99   6 C      0.270  1.046  2.684  0.000    22.451     7.762
 100   8 O     -0.432  1.752  4.679  0.000    22.311     6.334
 101   6 C      0.058  1.044  2.898  0.000    19.804     6.374
 102   8 O     -0.492  1.725  4.767  0.000    22.719     6.434
 103   1 H      0.163  0.837  0.000  0.000     1.316     1.797
 104   1 H      0.081  0.919  0.000  0.000     1.965     2.192
 105   1 H      0.061  0.939  0.000  0.000     2.191     2.315
 106   1 H      0.057  0.943  0.000  0.000     2.230     2.335
 107   1 H      0.360  0.640  0.000  0.000     0.565     1.180
 108   7 N     -0.165  1.243  3.921  0.000    24.560     7.360
 109   6 C     -0.002  1.069  2.933  0.000    20.585     6.455
 110   6 C      0.294  1.037  2.669  0.000    22.018     7.688
 111   8 O     -0.497  1.737  4.760  0.000    23.727     6.531
 112   6 C      0.123  1.046  2.831  0.000    18.667     6.167
 113   8 O     -0.455  1.711  4.744  0.000    21.945     6.324
 114   6 C     -0.135  1.043  3.093  0.000    23.165     6.864
 115   1 H      0.238  0.762  0.000  0.000     0.931     1.511
 116   1 H      0.067  0.933  0.000  0.000     2.123     2.279
 117   1 H     -0.009  1.009  0.000  0.000     3.224     2.808
 118   1 H      0.318  0.682  0.000  0.000     0.670     1.286
 119   1 H      0.072  0.928  0.000  0.000     2.059     2.244
 120   1 H      0.055  0.945  0.000  0.000     2.263     2.353
 121   1 H      0.092  0.908  0.000  0.000     1.855     2.130
 122   7 N     -0.194  1.242  3.952  0.000    25.221     7.459
 123   6 C      0.027  1.057  2.915  0.000    20.114     6.386
 124   6 C      0.299  1.037  2.663  0.000    21.918     7.667
 125   8 O     -0.501  1.737  4.763  0.000    23.796     6.540
 126   6 C     -0.080  1.065  3.015  0.000    22.012     6.678
 127   6 C     -0.008  1.062  2.946  0.000    20.694     6.471
 128   6 C     -0.112  1.043  3.068  0.000    22.696     6.794
 129   6 C     -0.104  1.038  3.066  0.000    22.551     6.772
 130   1 H      0.204  0.796  0.000  0.000     1.084     1.631
 131   1 H      0.065  0.935  0.000  0.000     2.138     2.287
 132   1 H      0.069  0.931  0.000  0.000     2.097     2.264
 133   1 H      0.046  0.954  0.000  0.000     2.365     2.405
 134   1 H      0.018  0.982  0.000  0.000     2.758     2.597
 135   1 H      0.025  0.975  0.000  0.000     2.661     2.551
 136   1 H      0.048  0.952  0.000  0.000     2.341     2.393
 137   1 H      0.041  0.959  0.000  0.000     2.431     2.438
 138   1 H      0.030  0.970  0.000  0.000     2.585     2.514
 139   1 H      0.050  0.950  0.000  0.000     2.319     2.381
 140   1 H      0.022  0.978  0.000  0.000     2.696     2.568
 141   7 N     -0.176  1.247  3.929  0.000    24.806     7.397
 142   6 C      0.040  1.054  2.906  0.000    19.897     6.349
 143   6 C      0.309  1.028  2.662  0.000    21.745     7.636
 144   8 O     -0.532  1.761  4.771  0.000    24.509     6.637
 145   6 C     -0.069  1.061  3.008  0.000    21.809     6.648
 146   6 C     -0.092  1.069  3.023  0.000    22.266     6.720
 147   6 C      0.366  1.030  2.604  0.000    20.794     7.462
 148   8 O     -0.629  1.765  4.864  0.000    26.842     6.946
 149   8 O     -0.666  1.792  4.874  0.000    27.800     7.069
 150   1 H      0.199  0.801  0.000  0.000     1.114     1.653
 151   1 H      0.032  0.968  0.000  0.000     2.558     2.501
 152   1 H      0.048  0.952  0.000  0.000     2.349     2.397
 153   1 H      0.084  0.916  0.000  0.000     1.943     2.180
 154   1 H      0.053  0.947  0.000  0.000     2.281     2.362
 155   1 H      0.001  0.999  0.000  0.000     3.049     2.730
 156   7 N     -0.201  1.243  3.957  0.000    25.362     7.480
 157   6 C      0.010  1.070  2.920  0.000    20.421     6.436
 158   6 C      0.260  1.049  2.691  0.000    22.621     7.788
 159   8 O     -0.465  1.731  4.733  0.000    23.015     6.432
 160   6 C      0.105  1.056  2.839  0.000    18.950     6.216
 161   8 O     -0.481  1.730  4.750  0.000    22.480     6.400
 162   6 C     -0.143  1.048  3.095  0.000    23.328     6.888
 163   1 H      0.259  0.741  0.000  0.000     0.848     1.443
 164   1 H      0.054  0.946  0.000  0.000     2.274     2.358
 165   1 H      0.045  0.955  0.000  0.000     2.380     2.413
 166   1 H      0.365  0.635  0.000  0.000     0.555     1.170
 167   1 H      0.101  0.899  0.000  0.000     1.774     2.083
 168   1 H      0.061  0.939  0.000  0.000     2.190     2.314
 169   1 H      0.063  0.937  0.000  0.000     2.165     2.301
 170   7 N     -0.174  1.251  3.924  0.000    24.776     7.393
 171   6 C      0.023  1.058  2.919  0.000    20.196     6.399
 172   6 C      0.276  1.043  2.681  0.000    22.328     7.739
 173   8 O     -0.479  1.732  4.746  0.000    23.318     6.474
 174   6 C     -0.080  1.058  3.022  0.000    22.020     6.680
 175   6 C     -0.014  1.056  2.958  0.000    20.792     6.486
 176   6 C     -0.124  1.044  3.081  0.000    22.940     6.829
 177   6 C     -0.127  1.043  3.084  0.000    22.991     6.836
 178   1 H      0.220  0.780  0.000  0.000     1.009     1.573
 179   1 H      0.107  0.893  0.000  0.000     1.721     2.052
 180   1 H      0.024  0.976  0.000  0.000     2.670     2.556
 181   1 H      0.061  0.939  0.000  0.000     2.189     2.314
 182   1 H      0.043  0.957  0.000  0.000     2.409     2.427
 183   1 H      0.086  0.914  0.000  0.000     1.919     2.166
 184   1 H      0.021  0.979  0.000  0.000     2.721     2.580
 185   1 H      0.047  0.953  0.000  0.000     2.361     2.403
 186   1 H      0.072  0.928  0.000  0.000     2.064     2.247
 187   1 H      0.057  0.943  0.000  0.000     2.232     2.337
 188   1 H      0.039  0.961  0.000  0.000     2.465     2.455
 189   7 N     -0.207  1.258  3.949  0.000    25.499     7.500
 190   6 C      0.047  1.053  2.900  0.000    19.779     6.331
 191   6 C      0.286  1.041  2.673  0.000    22.153     7.708
 192   8 O     -0.513  1.751  4.762  0.000    24.076     6.579
 193   6 C     -0.044  1.048  2.996  0.000    21.357     6.579
 194   6 C     -0.079  1.067  3.012  0.000    22.019     6.683
 195   6 C      0.356  1.039  2.605  0.000    20.957     7.491
 196   8 O     -0.605  1.769  4.836  0.000    26.247     6.869
 197   8 O     -0.622  1.778  4.845  0.000    26.677     6.925
 198   1 H      0.226  0.774  0.000  0.000     0.982     1.552
 199   1 H      0.045  0.955  0.000  0.000     2.377     2.411
 200   1 H      0.047  0.953  0.000  0.000     2.353     2.399
 201   1 H      0.028  0.972  0.000  0.000     2.613     2.528
 202   1 H     -0.008  1.008  0.000  0.000     3.198     2.797
 203   1 H      0.011  0.989  0.000  0.000     2.867     2.648
 204   7 N     -0.212  1.280  3.932  0.000    25.620     7.517
 205   6 C      0.049  1.060  2.891  0.000    19.753     6.326
 206   6 C      0.290  1.035  2.675  0.000    22.089     7.696
 207   8 O     -0.503  1.737  4.766  0.000    23.851     6.548
 208   6 C     -0.066  1.053  3.014  0.000    21.767     6.642
 209   6 C     -0.086  1.061  3.024  0.000    22.143     6.701
 210   6 C      0.364  1.028  2.609  0.000    20.834     7.470
 211   8 O     -0.603  1.750  4.853  0.000    26.188     6.861
 212   8 O     -0.623  1.755  4.868  0.000    26.698     6.927
 213   1 H      0.218  0.782  0.000  0.000     1.021     1.583
 214   1 H      0.011  0.989  0.000  0.000     2.877     2.652
 215   1 H      0.044  0.956  0.000  0.000     2.400     2.423
 216   1 H      0.067  0.933  0.000  0.000     2.116     2.275
 217   1 H      0.006  0.994  0.000  0.000     2.953     2.688
 218   1 H     -0.006  1.006  0.000  0.000     3.173     2.785
 219   7 N     -0.195  1.248  3.948  0.000    25.243     7.462
 220   6 C      0.014  1.060  2.927  0.000    20.356     6.426
 221   6 C      0.277  1.041  2.682  0.000    22.322     7.738
 222   8 O     -0.477  1.737  4.740  0.000    23.277     6.469
 223   6 C     -0.082  1.060  3.022  0.000    22.066     6.687
 224   6 C     -0.028  1.076  2.952  0.000    21.085     6.540
 225  16 S     -0.265  1.942  4.257  0.066   152.465    20.782
 226   6 C     -0.073  1.061  3.012  0.000    21.974     6.687
 227   1 H      0.219  0.781  0.000  0.000     1.016     1.579
 228   1 H      0.092  0.908  0.000  0.000     1.858     2.132
 229   1 H      0.085  0.915  0.000  0.000     1.924     2.169
 230   1 H      0.092  0.908  0.000  0.000     1.862     2.134
 231   1 H      0.072  0.928  0.000  0.000     2.063     2.246
 232   1 H      0.049  0.951  0.000  0.000     2.333     2.389
 233   1 H      0.094  0.906  0.000  0.000     1.840     2.121
 234   1 H      0.071  0.929  0.000  0.000     2.073     2.251
 235   1 H      0.086  0.914  0.000  0.000     1.918     2.166
 236   7 N     -0.180  1.245  3.935  0.000    24.899     7.411
 237   6 C      0.040  1.050  2.910  0.000    19.885     6.346
 238   6 C      0.293  1.038  2.669  0.000    22.030     7.687
 239   8 O     -0.488  1.742  4.746  0.000    23.511     6.501
 240   6 C     -0.070  1.060  3.011  0.000    21.820     6.646
 241   6 C     -0.006  1.063  2.943  0.000    20.656     6.465
 242   6 C     -0.115  1.040  3.075  0.000    22.759     6.804
 243   6 C     -0.090  1.039  3.050  0.000    22.260     6.726
 244   1 H      0.213  0.787  0.000  0.000     1.042     1.599
 245   1 H      0.089  0.911  0.000  0.000     1.885     2.147
 246   1 H      0.065  0.935  0.000  0.000     2.138     2.287
 247   1 H      0.043  0.957  0.000  0.000     2.413     2.429
 248   1 H      0.003  0.997  0.000  0.000     3.012     2.714
 249   1 H      0.010  0.990  0.000  0.000     2.892     2.660
 250   1 H      0.063  0.937  0.000  0.000     2.159     2.298
 251   1 H      0.050  0.950  0.000  0.000     2.322     2.383
 252   1 H      0.007  0.993  0.000  0.000     2.948     2.685
 253   1 H      0.045  0.955  0.000  0.000     2.389     2.417
 254   1 H      0.012  0.988  0.000  0.000     2.851     2.640
 255   7 N     -0.195  1.246  3.949  0.000    25.221     7.459
 256   6 C      0.047  1.051  2.902  0.000    19.778     6.329
 257   6 C      0.285  1.032  2.682  0.000    22.169     7.710
 258   8 O     -0.492  1.745  4.747  0.000    23.600     6.513
 259   6 C     -0.038  1.046  2.992  0.000    21.238     6.558
 260   6 C     -0.077  1.060  3.017  0.000    21.957     6.670
 261   6 C      0.368  1.028  2.604  0.000    20.753     7.455
 262   8 O     -0.641  1.764  4.877  0.000    27.137     6.984
 263   8 O     -0.658  1.780  4.878  0.000    27.601     7.044
 264   1 H      0.203  0.797  0.000  0.000     1.089     1.635
 265   1 H      0.029  0.971  0.000  0.000     2.603     2.523
 266   1 H      0.060  0.940  0.000  0.000     2.202     2.321
 267   1 H      0.031  0.969  0.000  0.000     2.577     2.511
 268   1 H     -0.009  1.009  0.000  0.000     3.227     2.809
 269   1 H      0.014  0.986  0.000  0.000     2.821     2.626
 270   7 N     -0.171  1.238  3.933  0.000    24.706     7.382
 271   6 C      0.027  1.065  2.909  0.000    20.146     6.394
 272   6 C      0.211  1.086  2.703  0.000    23.532     7.945
 273   8 O     -0.365  1.758  4.607  0.000    20.995     6.143
 274   6 C     -0.103  1.066  3.036  0.000    22.464     6.749
 275   6 C     -0.081  1.055  3.026  0.000    22.054     6.688
 276   6 C     -0.094  1.056  3.037  0.000    22.289     6.722
 277   6 C     -0.031  1.050  2.981  0.000    21.216     6.575
 278   7 N     -0.133  1.237  3.896  0.000    23.871     7.257
 279   1 H      0.197  0.803  0.000  0.000     1.124     1.660
 280   1 H      0.094  0.906  0.000  0.000     1.844     2.124
 281   1 H      0.094  0.906  0.000  0.000     1.837     2.119
 282   1 H      0.095  0.905  0.000  0.000     1.832     2.117
 283   1 H      0.066  0.934  0.000  0.000     2.129     2.282
 284   1 H      0.033  0.967  0.000  0.000     2.546     2.495
 285   1 H      0.074  0.926  0.000  0.000     2.041     2.234
 286   1 H      0.117  0.883  0.000  0.000     1.638     2.001
 287   1 H      0.073  0.927  0.000  0.000     2.056     2.242
 288   1 H      0.123  0.877  0.000  0.000     1.591     1.972
 289   1 H      0.286  0.714  0.000  0.000     0.758     1.363
 290   1 H      0.329  0.671  0.000  0.000     0.637     1.252
 291   1 H      0.271  0.729  0.000  0.000     0.808     1.408
 292   7 N     -0.390  1.310  4.080  0.000    30.108     8.149
 293   6 C      0.037  1.050  2.912  0.000    19.962     6.364
 294   6 C      0.197  1.089  2.714  0.000    23.799     7.992
 295   8 O     -0.395  1.756  4.639  0.000    21.580     6.228
 296   6 C     -0.072  1.065  3.007  0.000    21.837     6.648
 297   6 C     -0.010  1.058  2.952  0.000    20.718     6.474
[...]
 411   1 H      0.021  0.979  0.000  0.000     2.724     2.581
 412   7 N     -0.190  1.256  3.934  0.000    25.111     7.443
 413   6 C      0.028  1.050  2.922  0.000    20.080     6.375
 414   6 C      0.306  1.029  2.665  0.000    21.813     7.652
 415   8 O     -0.506  1.735  4.770  0.000    23.906     6.555
 416   6 C     -0.020  1.058  2.961  0.000    20.884     6.498
 417   6 C     -0.133  1.041  3.093  0.000    23.114     6.855
 418   6 C     -0.128  1.044  3.084  0.000    23.000     6.837
 419   1 H      0.238  0.762  0.000  0.000     0.932     1.512
 420   1 H      0.089  0.911  0.000  0.000     1.885     2.147
 421   1 H      0.049  0.951  0.000  0.000     2.335     2.389
 422   1 H      0.081  0.919  0.000  0.000     1.969     2.194
 423   1 H      0.039  0.961  0.000  0.000     2.456     2.451
 424   1 H      0.045  0.955  0.000  0.000     2.378     2.412
 425   1 H      0.074  0.926  0.000  0.000     2.045     2.237
 426   1 H      0.079  0.921  0.000  0.000     1.992     2.207
 427   1 H      0.045  0.955  0.000  0.000     2.385     2.415
 428   7 N     -0.185  1.234  3.951  0.000    25.011     7.428
 429   6 C      0.042  1.040  2.918  0.000    19.839     6.335
 430   6 C      0.279  1.041  2.679  0.000    22.283     7.735
 431   8 O     -0.527  1.730  4.797  0.000    24.382     6.620
 432   6 C     -0.006  1.051  2.955  0.000    20.641     6.461
 433   6 C     -0.109  1.040  3.070  0.000    22.631     6.781
 434   6 C     -0.129  1.042  3.088  0.000    23.034     6.842
 435   1 H      0.210  0.790  0.000  0.000     1.059     1.612
 436   1 H      0.081  0.919  0.000  0.000     1.965     2.192
 437   1 H      0.007  0.993  0.000  0.000     2.931     2.678
 438   1 H      0.021  0.979  0.000  0.000     2.713     2.576
 439   1 H      0.029  0.971  0.000  0.000     2.594     2.519
 440   1 H      0.059  0.941  0.000  0.000     2.207     2.323
 441   1 H      0.036  0.964  0.000  0.000     2.498     2.471
 442   1 H      0.065  0.935  0.000  0.000     2.142     2.289
 443   1 H      0.086  0.914  0.000  0.000     1.919     2.166
 444   7 N     -0.162  1.237  3.925  0.000    24.505     7.352
 445   6 C      0.083  1.031  2.886  0.000    19.135     6.214
 446   6 C      0.288  1.026  2.686  0.000    22.128     7.706
 447   8 O     -0.514  1.744  4.770  0.000    24.104     6.583
 448   6 C     -0.095  1.055  3.040  0.000    22.282     6.716
 449   6 C      0.293  1.035  2.672  0.000    22.043     7.699
 450   8 O     -0.502  1.760  4.742  0.000    23.828     6.545
 451   7 N     -0.284  1.265  4.019  0.000    27.325     7.763
 452   1 H      0.226  0.774  0.000  0.000     0.985     1.554
 453   1 H      0.047  0.953  0.000  0.000     2.354     2.399
 454   1 H      0.076  0.924  0.000  0.000     2.022     2.224
 455   1 H      0.058  0.942  0.000  0.000     2.218     2.329
 456   1 H      0.216  0.784  0.000  0.000     1.029     1.589
 457   1 H      0.222  0.778  0.000  0.000     1.000     1.567
 458   7 N     -0.182  1.256  3.926  0.000    24.930     7.416
 459   6 C      0.042  1.061  2.896  0.000    19.831     6.334
 460   6 C      0.303  1.035  2.662  0.000    21.858     7.656
 461   8 O     -0.488  1.747  4.740  0.000    23.512     6.501
 462   6 C     -0.060  1.051  3.008  0.000    21.632     6.619
 463   6 C     -0.086  1.060  3.026  0.000    22.132     6.697
 464   6 C      0.364  1.021  2.615  0.000    20.832     7.470
 465   8 O     -0.587  1.748  4.839  0.000    25.810     6.811
 466   8 O     -0.623  1.758  4.866  0.000    26.696     6.927
 467   1 H      0.229  0.771  0.000  0.000     0.970     1.543
 468   1 H      0.023  0.977  0.000  0.000     2.682     2.561
 469   1 H      0.083  0.917  0.000  0.000     1.944     2.181
 470   1 H      0.053  0.947  0.000  0.000     2.288     2.366
 471   1 H     -0.007  1.007  0.000  0.000     3.184     2.791
 472   1 H      0.012  0.988  0.000  0.000     2.858     2.644
 473   7 N     -0.197  1.250  3.947  0.000    25.266     7.465
 474   6 C      0.038  1.050  2.912  0.000    19.940     6.359
 475   6 C      0.279  1.046  2.675  0.000    22.274     7.729
 476   8 O     -0.508  1.745  4.763  0.000    23.957     6.562
 477   6 C     -0.088  1.058  3.030  0.000    22.169     6.702
 478   6 C     -0.087  1.059  3.028  0.000    22.163     6.703
 479   6 C     -0.023  1.057  2.965  0.000    21.076     6.554
 480   7 N     -0.140  1.210  3.930  0.000    24.030     7.281
 481   6 C      0.228  1.019  2.753  0.000    23.208     7.887
 482   7 N     -0.226  1.223  4.003  0.000    25.941     7.564
 483   7 N     -0.225  1.241  3.985  0.000    25.929     7.563
 484   1 H      0.210  0.790  0.000  0.000     1.056     1.609
 485   1 H      0.071  0.929  0.000  0.000     2.079     2.255
 486   1 H      0.061  0.939  0.000  0.000     2.193     2.316
 487   1 H      0.057  0.943  0.000  0.000     2.236     2.338
 488   1 H      0.069  0.931  0.000  0.000     2.095     2.263
 489   1 H      0.083  0.917  0.000  0.000     1.947     2.182
 490   1 H      0.065  0.935  0.000  0.000     2.144     2.290
 491   1 H      0.100  0.900  0.000  0.000     1.784     2.089
 492   1 H      0.233  0.767  0.000  0.000     0.952     1.528
 493   1 H      0.221  0.779  0.000  0.000     1.004     1.570
 494   1 H      0.240  0.760  0.000  0.000     0.924     1.506
 495   1 H      0.261  0.739  0.000  0.000     0.842     1.437
 496   1 H      0.247  0.753  0.000  0.000     0.897     1.483
 497   7 N     -0.201  1.259  3.942  0.000    25.370     7.481
 498   6 C      0.022  1.068  2.910  0.000    20.224     6.406
 499   6 C      0.283  1.044  2.674  0.000    22.216     7.719
 500   8 O     -0.492  1.733  4.759  0.000    23.600     6.513
 501   6 C     -0.067  1.058  3.009  0.000    21.783     6.646
 502   6 C     -0.062  1.056  3.006  0.000    21.711     6.636
 503   6 C     -0.016  1.058  2.958  0.000    20.970     6.539
 504   7 N     -0.174  1.243  3.930  0.000    24.760     7.390
 505   6 C      0.243  1.026  2.731  0.000    22.927     7.839
 506   7 N     -0.239  1.244  3.995  0.000    26.260     7.611
 507   7 N     -0.254  1.275  3.979  0.000    26.600     7.660
 508   1 H      0.233  0.767  0.000  0.000     0.952     1.529
 509   1 H      0.072  0.928  0.000  0.000     2.068     2.249
 510   1 H      0.030  0.970  0.000  0.000     2.585     2.514
 511   1 H      0.060  0.940  0.000  0.000     2.203     2.321
 512   1 H      0.063  0.937  0.000  0.000     2.162     2.299
 513   1 H      0.045  0.955  0.000  0.000     2.378     2.412
 514   1 H      0.061  0.939  0.000  0.000     2.188     2.313
 515   1 H      0.093  0.907  0.000  0.000     1.850     2.127
 516   1 H      0.217  0.783  0.000  0.000     1.023     1.584
 517   1 H      0.235  0.765  0.000  0.000     0.946     1.524
 518   1 H      0.250  0.750  0.000  0.000     0.885     1.474
 519   1 H      0.234  0.766  0.000  0.000     0.950     1.526
 520   1 H      0.260  0.740  0.000  0.000     0.845     1.440
 521   7 N     -0.180  1.254  3.926  0.000    24.904     7.412
 522   6 C      0.036  1.062  2.902  0.000    19.964     6.360
 523   6 C      0.280  1.042  2.678  0.000    22.266     7.727
 524   8 O     -0.488  1.742  4.746  0.000    23.525     6.503
 525   6 C     -0.049  1.050  2.999  0.000    21.457     6.595
 526   6 C     -0.092  1.069  3.023  0.000    22.258     6.717
 527   6 C      0.369  1.027  2.604  0.000    20.740     7.453
 528   8 O     -0.634  1.766  4.868  0.000    26.967     6.962
 529   8 O     -0.659  1.773  4.885  0.000    27.605     7.044
 530   1 H      0.211  0.789  0.000  0.000     1.053     1.607
 531   1 H      0.068  0.932  0.000  0.000     2.105     2.269
 532   1 H      0.022  0.978  0.000  0.000     2.697     2.568
 533   1 H      0.052  0.948  0.000  0.000     2.295     2.369
 534   1 H      0.035  0.965  0.000  0.000     2.519     2.482
 535   1 H      0.012  0.988  0.000  0.000     2.855     2.642
 536   7 N     -0.170  1.243  3.927  0.000    24.685     7.379
 537   6 C      0.026  1.063  2.911  0.000    20.138     6.390
 538   6 C      0.289  1.039  2.672  0.000    22.106     7.700
 539   8 O     -0.495  1.738  4.757  0.000    23.683     6.525
 540   6 C     -0.047  1.051  2.996  0.000    21.400     6.584
 541   6 C     -0.098  1.066  3.032  0.000    22.380     6.736
 542   6 C      0.369  1.026  2.606  0.000    20.748     7.454
 543   8 O     -0.619  1.755  4.863  0.000    26.578     6.912
 544   8 O     -0.636  1.768  4.868  0.000    27.017     6.969
 545   1 H      0.200  0.800  0.000  0.000     1.106     1.648
 546   1 H      0.072  0.928  0.000  0.000     2.069     2.249
 547   1 H      0.033  0.967  0.000  0.000     2.547     2.496
 548   1 H      0.062  0.938  0.000  0.000     2.179     2.309
 549   1 H      0.037  0.963  0.000  0.000     2.486     2.466
 550   1 H      0.011  0.989  0.000  0.000     2.881     2.654
 551   7 N     -0.184  1.247  3.936  0.000    24.980     7.423
 552   6 C      0.025  1.072  2.904  0.000    20.174     6.398
 553   6 C      0.274  1.054  2.672  0.000    22.372     7.746
 554   8 O     -0.473  1.748  4.724  0.000    23.186     6.456
 555   6 C     -0.054  1.056  2.998  0.000    21.546     6.610
 556   6 C     -0.107  1.082  3.025  0.000    22.573     6.770
 557   6 C      0.360  1.038  2.602  0.000    20.891     7.478
 558   8 O     -0.618  1.771  4.846  0.000    26.555     6.909
 559   8 O     -0.602  1.747  4.855  0.000    26.181     6.860
 560   1 H      0.199  0.801  0.000  0.000     1.114     1.653
 561   1 H      0.087  0.913  0.000  0.000     1.913     2.163
 562   1 H      0.046  0.954  0.000  0.000     2.372     2.409
 563   1 H      0.018  0.982  0.000  0.000     2.768     2.602
 564   1 H      0.009  0.991  0.000  0.000     2.914     2.669
 565   1 H      0.030  0.970  0.000  0.000     2.593     2.518
 566   7 N     -0.180  1.258  3.922  0.000    24.898     7.411
 567   6 C      0.032  1.054  2.914  0.000    20.026     6.369
 568   6 C      0.221  1.077  2.702  0.000    23.344     7.913
 569   8 O     -0.361  1.734  4.627  0.000    20.919     6.132
 570   6 C      0.081  1.035  2.884  0.000    19.414     6.306
 571   8 O     -0.469  1.718  4.750  0.000    22.229     6.365
 572   1 H      0.217  0.783  0.000  0.000     1.025     1.586
 573   1 H      0.103  0.897  0.000  0.000     1.762     2.076
 574   1 H      0.049  0.951  0.000  0.000     2.327     2.386
 575   1 H      0.032  0.968  0.000  0.000     2.556     2.500
 576   1 H      0.352  0.648  0.000  0.000     0.583     1.200
 577   7 N     -0.391  1.310  4.081  0.000    30.115     8.150
 578   6 C      0.049  1.049  2.902  0.000    19.762     6.330
 579   6 C      0.197  1.091  2.712  0.000    23.793     7.989
 580   8 O     -0.400  1.755  4.645  0.000    21.678     6.242
 581   6 C     -0.033  1.046  2.987  0.000    21.143     6.543
 582   6 C     -0.089  1.066  3.023  0.000    22.193     6.706
 583   6 C      0.365  1.027  2.608  0.000    20.808     7.465
 584   8 O     -0.627  1.763  4.864  0.000    26.800     6.941
 585   8 O     -0.641  1.774  4.867  0.000    27.140     6.985
 586   1 H      0.180  0.820  0.000  0.000     1.212     1.724
 587   1 H      0.034  0.966  0.000  0.000     2.534     2.489
 588   1 H      0.058  0.942  0.000  0.000     2.218     2.329
 589   1 H      0.001  0.999  0.000  0.000     3.037     2.725
 590   1 H      0.019  0.981  0.000  0.000     2.744     2.590
 591   1 H      0.041  0.959  0.000  0.000     2.441     2.443
 592   7 N     -0.395  1.292  4.102  0.000    30.228     8.166
 593   6 C      0.048  1.048  2.904  0.000    19.768     6.330
 594   6 C      0.194  1.097  2.709  0.000    23.853     7.999
 595   8 O     -0.382  1.753  4.629  0.000    21.318     6.190
 596   6 C      0.005  1.049  2.946  0.000    20.457     6.432
 597   6 C     -0.103  1.036  3.067  0.000    22.513     6.763
 598   6 C     -0.107  1.035  3.072  0.000    22.598     6.778
 599   1 H      0.195  0.805  0.000  0.000     1.131     1.666
 600   1 H      0.033  0.967  0.000  0.000     2.551     2.498
 601   1 H      0.005  0.995  0.000  0.000     2.968     2.694
 602   1 H      0.012  0.988  0.000  0.000     2.857     2.643
 603   1 H      0.035  0.965  0.000  0.000     2.516     2.481
 604   1 H      0.077  0.923  0.000  0.000     2.005     2.214
 605   1 H      0.025  0.975  0.000  0.000     2.660     2.550
 606   1 H      0.079  0.921  0.000  0.000     1.988     2.205
 607   1 H      0.025  0.975  0.000  0.000     2.660     2.550
 608   7 N     -0.380  1.296  4.084  0.000    29.811     8.109
 609   6 C      0.051  1.047  2.903  0.000    19.731     6.325
 610   6 C      0.255  1.057  2.688  0.000    22.716     7.806
 611   8 O     -0.514  1.754  4.760  0.000    24.103     6.583
 612   6 C     -0.095  1.061  3.034  0.000    22.295     6.721
 613   6 C      0.292  1.047  2.661  0.000    22.050     7.689
 614   8 O     -0.461  1.745  4.717  0.000    22.943     6.422
 615   7 N     -0.307  1.299  4.008  0.000    27.917     7.847
 616   1 H      0.160  0.840  0.000  0.000     1.334     1.809
 617   1 H      0.050  0.950  0.000  0.000     2.323     2.383
 618   1 H      0.074  0.926  0.000  0.000     2.039     2.233
 619   1 H      0.054  0.946  0.000  0.000     2.269     2.356
 620   1 H      0.217  0.783  0.000  0.000     1.023     1.584
 621   1 H      0.199  0.801  0.000  0.000     1.111     1.651
 622   7 N     -0.177  1.260  3.917  0.000    24.832     7.401
 623   6 C      0.046  1.053  2.902  0.000    19.780     6.327
 624   6 C      0.208  1.079  2.713  0.000    23.587     7.954
 625   8 O     -0.366  1.749  4.616  0.000    21.007     6.145
 626   6 C     -0.051  1.050  3.001  0.000    21.479     6.595
 627   6 C     -0.085  1.065  3.020  0.000    22.120     6.695
 628   6 C      0.364  1.032  2.604  0.000    20.826     7.468
 629   8 O     -0.651  1.780  4.871  0.000    27.401     7.018
 630   8 O     -0.655  1.789  4.865  0.000    27.505     7.031
 631   1 H      0.262  0.738  0.000  0.000     0.839     1.435
 632   1 H      0.046  0.954  0.000  0.000     2.365     2.405
 633   1 H      0.072  0.928  0.000  0.000     2.059     2.244
 634   1 H      0.041  0.959  0.000  0.000     2.435     2.440
 635   1 H      0.007  0.993  0.000  0.000     2.940     2.681
 636   1 H      0.038  0.962  0.000  0.000     2.478     2.462
 637   7 N     -0.405  1.302  4.103  0.000    30.524     8.205
 638   6 C      0.045  1.050  2.905  0.000    19.837     6.344
 639   6 C      0.211  1.092  2.698  0.000    23.533     7.944
 640   8 O     -0.365  1.748  4.617  0.000    20.988     6.142
 641   6 C     -0.047  1.051  2.996  0.000    21.416     6.588
 642   6 C     -0.095  1.069  3.026  0.000    22.316     6.727
 643   6 C      0.359  1.034  2.607  0.000    20.909     7.483
 644   8 O     -0.603  1.770  4.833  0.000    26.183     6.860
 645   8 O     -0.637  1.762  4.876  0.000    27.058     6.974
 646   1 H      0.177  0.823  0.000  0.000     1.233     1.739
 647   1 H      0.065  0.935  0.000  0.000     2.139     2.287
 648   1 H      0.008  0.992  0.000  0.000     2.916     2.670
 649   1 H      0.034  0.966  0.000  0.000     2.529     2.487
 650   1 H      0.006  0.994  0.000  0.000     2.952     2.687
 651   1 H      0.009  0.991  0.000  0.000     2.900     2.663
 652   7 N     -0.392  1.321  4.071  0.000    30.148     8.155
 653   6 C      0.033  1.069  2.898  0.000    20.060     6.383
 654   6 C      0.199  1.099  2.702  0.000    23.765     7.983
 655   8 O     -0.403  1.781  4.621  0.000    21.732     6.250
 656   6 C     -0.081  1.067  3.014  0.000    22.056     6.689
 657   6 C     -0.073  1.056  3.017  0.000    21.899     6.663
 658   6 C     -0.088  1.056  3.032  0.000    22.190     6.707
 659   6 C     -0.051  1.060  2.991  0.000    21.592     6.633
 660   7 N     -0.151  1.235  3.915  0.000    24.250     7.314
 661   1 H      0.190  0.810  0.000  0.000     1.159     1.686
 662   1 H      0.034  0.966  0.000  0.000     2.527     2.486
 663   1 H      0.076  0.924  0.000  0.000     2.019     2.222
 664   1 H      0.046  0.954  0.000  0.000     2.372     2.409
 665   1 H      0.048  0.952  0.000  0.000     2.347     2.396
 666   1 H      0.075  0.925  0.000  0.000     2.032     2.229
 667   1 H      0.086  0.914  0.000  0.000     1.918     2.166
 668   1 H      0.055  0.945  0.000  0.000     2.259     2.351
 669   1 H      0.102  0.898  0.000  0.000     1.766     2.078
 670   1 H      0.130  0.870  0.000  0.000     1.533     1.936
 671   1 H      0.300  0.700  0.000  0.000     0.714     1.324
 672   1 H      0.314  0.686  0.000  0.000     0.673     1.285
 673   1 H      0.282  0.718  0.000  0.000     0.768     1.373
 674   1 H      0.184  0.816  0.000  0.000     1.190     1.709
 675   1 H      0.090  0.910  0.000  0.000     1.882     2.145
 676   1 H      0.189  0.811  0.000  0.000     1.163     1.689
 677   1 H      0.102  0.898  0.000  0.000     1.766     2.078
 678   1 H      0.170  0.830  0.000  0.000     1.271     1.766
 679   1 H      0.077  0.923  0.000  0.000     2.007     2.215
 680   1 H      0.194  0.806  0.000  0.000     1.135     1.669
 681   1 H      0.082  0.918  0.000  0.000     1.955     2.187
 682   1 H      0.184  0.816  0.000  0.000     1.188     1.707
 683   1 H      0.077  0.923  0.000  0.000     2.012     2.218
 684   1 H      0.185  0.815  0.000  0.000     1.184     1.704
 685   1 H      0.092  0.908  0.000  0.000     1.856     2.131
 686   1 H      0.155  0.845  0.000  0.000     1.367     1.831
 687   1 H      0.057  0.943  0.000  0.000     2.235     2.338
 688   1 H      0.191  0.809  0.000  0.000     1.155     1.684
 689   1 H      0.077  0.923  0.000  0.000     2.013     2.219
 690   1 H      0.182  0.818  0.000  0.000     1.203     1.718
 691   1 H      0.101  0.899  0.000  0.000     1.778     2.085
 692   1 H      0.208  0.792  0.000  0.000     1.066     1.617
 693   1 H      0.084  0.916  0.000  0.000     1.937     2.177
 694   1 H      0.177  0.823  0.000  0.000     1.230     1.737
 695   1 H      0.060  0.940  0.000  0.000     2.201     2.320
 696   1 H      0.184  0.816  0.000  0.000     1.189     1.708
 697   1 H      0.084  0.916  0.000  0.000     1.936     2.176

 Mol. C6AA /au·bohr⁶  :    4448697.942693
 Mol. C8AA /au·bohr⁸  :   97892784.317256
 Mol. α(0) /au        :       3133.624651

 
molecular dipole:
                 x           y           z       tot (Debye)
 q only:       62.221    -781.376     -85.310
   full:       64.552    -788.228     -83.209    2021.322
molecular quadrupole (traceless):
                xx          xy          yy          xz          yz          zz
 q only:    48919.793   12787.128  -98282.520    1870.985  -16646.297   49362.727
  q+dip:    49936.415   13381.252 -100375.113    1940.115  -16323.244   50438.698
   full:    49930.487   13380.395 -100369.264    1945.549  -16326.197   50438.777
speedup  1.97
cpu  time for grad    1 m 38.7 s
wall time for grad    0 m 50.2 s

SCC energy    :   -1103.8286617
rep           :      12.5600602
ES            :       5.8647521
AES           :      -0.3505521
AXC           :       0.3240264
disp          :      -0.9234943
XB            :       0.0000000
fix           :       0.0000000
Gborn         :       0.0000000
Gsasa         :       0.0000000
Ghb           :       0.0000000
Gshift        :       0.0000000
Gsolv         :      -2.5303677    -1587.83
Etot ala COSMO:   -1103.8286617
grad norm     :       0.8034705
total E       :   -1091.1769105
atomizationE  :     194.4648689   122028.55
(atE without considering molecular charge,
 total energy contains solvation terms)
H-L gap (eV)  :          0.8537

------------------------------------------------------------------------
 * finished run on 2019/05/09 at 18:13:52.349     
------------------------------------------------------------------------
 total:
 * wall-time:     0 d,  0 h,  0 min, 53.293 sec
 *  cpu-time:     0 d,  0 h,  1 min, 43.745 sec
 * ratio c/w:     1.947 speedup
 SCF:
 * wall-time:     0 d,  0 h,  0 min, 52.410 sec
 *  cpu-time:     0 d,  0 h,  1 min, 42.535 sec
 * ratio c/w:     1.956 speedup

