      -----------------------------------------------------------      
     |                   =====================                   |     
     |                           x T B                           |     
     |                   =====================                   |     
     |                         S. Grimme                         |     
     |          Mulliken Center for Theoretical Chemistry        |     
     |                    University of Bonn                     |     
     |                 Version 6.0.1 (SAW181210)                 |     
      -----------------------------------------------------------      

   This program is distributed in the hope that it will be useful,
   but WITHOUT ANY WARRANTY; without even the implied warranty of
   MERCHANTABILITY or FITNESS FOR A PARTICULAR PURPOSE.
   
   FOR NON-COMMERCIAL, ACADEMIA USE ONLY.
   
   Cite this work as:
   S. Grimme, C. Bannwarth, P. Shushkov, J. Comput. Theory Chem., 2017,
   13, 1989-2009.
   C. Bannwarth, S. Ehlert and S. Grimme., ChemRxiv, 2018, preprint.
   http://doi.org/10.26434/chemrxiv.7246238.v1
   
   for sTDA-xTB:
   S. Grimme and C. Bannwarth, J. Chem. Phys., 2016, 145, 054103.
   
   in the mass-spec context:
   V. Asgeirsson, C. Bauer and S. Grimme, Chem. Sci., 2017, 8, 4879.
   
   if GBSA is used:
   P. Shushkov, F. März and S. Grimme, unpublished.
   
   for ANC optimizer:
   S. Grimme, unpublished.
   Rational Function algorithm used in ANCopt:
   F. Eckert, P. Pulay, H.-J. Werner, J. Comput. Chem., 1997, 18, 1473.
   
   with help from (in alphabetical order)
   C. Bannwarth, F. Bohle, G. Brandenburg, E. Caldeweyher, M. Checinski,
   S. Dohm, S. Ehlert, S. Ehrlich, F. März, H. Neugebauer, J. Pisarek,
   P. Pracht, P. Shushkov, and S. Spicher.
   
 * started run on 2019/03/18 at 01:29:54.197     
========================================================================
 # omp threads = 1
========================================================================
number of atoms            : 443
number of electrons        : 1200
charge                     : 1
spin                       : .0
first test random number   : .1219
           ------------------------------------------------- 
          |                 G F N 2 - x T B                 |
          | Geometry, Frequencies, Noncovalent interactions |
          |            JCTC 2018 parametrisation            |
           ------------------------------------------------- 
 
      method parameters     
 k(s)        :  1.8500
 k(p)        :  2.2300
 k(d)        :  2.2300
 k(f)        :  2.0000
 kEN (H0ij)  : -2.0000
 D4 a1       :  0.5200
 D4 a2       :  5.0000
 D4 s6       :  1.0000
 D4 s8       :  2.7000
 D4 s9       :  5.0000
 alphaj      :  2.0000

 Solvent             : h2o
 Using internal parameter file: .param_gbsa2_h2o
 Gsolv ref. state (COSMO-RS): gsolv [1 M gas/solution]
 temperature (mdtemp)       :    298.150000000000     
 dielectric constant        :    80.2000000000000     
 rho                        :    1.00000000000000     
 mass                       :    18.0000000000000     
 surface tension            :    15.5689454083859     
 probe radius               :   0.975313790000000     
 vdW radii scaling          :    1.00000000000000     
 Gshift (Eh)                :   1.857443126794793E-003
 c1                         :    1.55243817000000     
 soset                      :   0.130326360000000     
 HB correction              :  T

            Z     q(EN)     CN     RAES       Cart. coordinates
     1  N   5.0   -0.21    3.23    1.96    49.25597     8.79649    57.87093
     2  C   4.0    0.03    4.23    4.06    50.94707     8.63448    60.01161
     3  C   4.0    0.15    3.43    3.09    49.65455     9.72668    62.37576
     4  O   6.0   -0.31    1.26    1.80    49.76669     8.66040    64.42618
     5  C   4.0   -0.07    4.10    3.81    53.39689    10.04052    59.45546
     6  H   1.0    0.09    1.02    1.43    49.94876     9.38629    56.18487
     7  H   1.0    0.05    1.05    1.44    51.33807     6.64092    60.44123
     8  H   1.0    0.05    1.00    1.43    54.67367     9.88461    61.05307
     9  H   1.0    0.05    1.00    1.43    54.29568     9.22595    57.79631
    10  H   1.0    0.05    1.00    1.43    52.98723    12.02301    59.10127
    11  N   5.0   -0.15    3.51    2.08    48.51365    11.96335    62.08185
    12  C   4.0    0.03    4.53    4.58    47.42801    13.16373    64.27997
    13  C   4.0    0.15    3.47    3.10    44.94823    11.87436    65.01103
    14  O   6.0   -0.32    1.30    1.80    44.38229    11.51203    67.23593
    15  C   4.0   -0.03    4.24    4.08    47.14308    16.04958    64.04593
    16  C   4.0   -0.07    4.11    3.82    49.70472    17.26415    63.48103
    17  C   4.0   -0.07    4.12    3.83    45.18219    16.78959    62.07421
    18  H   1.0    0.07    1.06    1.44    48.50899    12.85233    60.38918
    19  H   1.0    0.05    1.07    1.44    48.72545    12.78402    65.85936
    20  H   1.0    0.04    1.06    1.44    46.49101    16.70100    65.89947
    21  H   1.0    0.04    1.00    1.43    49.57972    19.30025    63.70337
    22  H   1.0    0.04    1.00    1.43    51.14033    16.57310    64.77382
    23  H   1.0    0.04    1.00    1.43    50.29015    16.83315    61.55932
    24  H   1.0    0.04    1.00    1.43    45.03707    18.83590    61.98297
    25  H   1.0    0.04    1.00    1.43    45.71746    16.08063    60.22362
    26  H   1.0    0.05    1.00    1.43    43.34262    16.01407    62.55384
    27  N   5.0   -0.15    3.43    2.03    43.49981    11.15462    63.09176
    28  C   4.0    0.02    4.27    4.14    41.14057     9.86721    63.54218
    29  C   4.0    0.16    3.37    3.07    41.47955     7.43536    65.04908
    30  O   6.0   -0.31    1.24    1.80    39.86654     6.68982    66.53311
    31  H   1.0    0.08    1.06    1.44    43.97354    11.54614    61.27665
    32  H   1.0    0.05    1.02    1.43    39.83967    11.07051    64.61363
    33  H   1.0    0.04    1.03    1.43    40.26788     9.43629    61.72661
    34  N   5.0   -0.14    3.50    2.08    43.63217     6.18183    64.61589
    35  C   4.0    0.04    4.40    4.39    44.18086     3.89746    65.99286
    36  C   4.0    0.17    3.47    3.10    45.15812     4.51835    68.64651
    37  O   6.0   -0.31    1.30    1.80    44.42130     3.27969    70.46778
    38  C   4.0    0.03    4.13    3.85    45.97916     2.13321    64.56460
    39  O   6.0   -0.24    2.07    1.83    48.48109     2.99806    64.81049
    40  H   1.0    0.09    1.06    1.44    44.82623     6.70768    63.21385
    41  H   1.0    0.05    1.06    1.44    42.39659     2.87890    66.29313
    42  H   1.0    0.05    1.01    1.43    45.77934     0.23141    65.37595
    43  H   1.0    0.05    1.01    1.43    45.40994     2.09889    62.56762
    44  H   1.0    0.12    1.02    1.43    49.61618     1.78430    64.06624
    45  N   5.0   -0.13    3.48    2.07    46.70509     6.48978    68.88556
    46  C   4.0    0.04    4.45    4.46    47.46056     7.23675    71.42153
    47  C   4.0    0.16    3.49    3.11    45.12724     7.83906    73.03973
    48  O   6.0   -0.32    1.29    1.80    44.99690     7.08798    75.22990
    49  C   4.0   -0.05    4.26    4.13    49.28625     9.46748    71.39775
    50  C   4.0   -0.05    4.19    3.97    51.95712     8.59896    70.73457
    51  C   4.0   -0.05    4.17    3.94    53.82150    10.80069    70.84888
    52  C   4.0   -0.04    4.11    3.83    56.56655     9.94102    70.69201
    53  N   5.0   -0.12    4.02    2.90    57.41132     8.81844    73.13855
    54  H   1.0    0.11    1.07    1.44    47.57218     7.28422    67.36890
    55  H   1.0    0.05    1.06    1.44    48.34832     5.60528    72.35320
    56  H   1.0    0.05    1.03    1.43    48.59552    10.86929    70.05561
    57  H   1.0    0.04    1.03    1.43    49.27022    10.32145    73.27567
    58  H   1.0    0.04    1.03    1.43    52.47461     7.11733    72.07045
    59  H   1.0    0.06    1.03    1.43    51.95048     7.78279    68.84196
    60  H   1.0    0.04    1.03    1.43    53.44363    12.06418    69.26906
    61  H   1.0    0.04    1.03    1.43    53.51801    11.88347    72.57678
    62  H   1.0    0.04    1.02    1.43    56.77343     8.53280    69.20278
    63  H   1.0    0.04    1.02    1.43    57.78041    11.54976    70.26682
    64  H   1.0    0.06    1.02    1.43    59.27278     8.26018    73.03255
    65  H   1.0    0.05    1.02    1.43    57.22588    10.12716    74.57091
    66  H   1.0    0.05    1.02    1.43    56.31845     7.26759    73.57876
    67  N   5.0   -0.14    3.49    2.07    43.30451     9.19779    71.94893
    68  C   4.0    0.04    4.43    4.44    41.00638     9.74935    73.34313
    69  C   4.0    0.16    3.51    3.12    39.79610     7.28382    74.22096
    70  O   6.0   -0.31    1.30    1.80    39.05290     7.02072    76.40487
    71  C   4.0   -0.04    4.35    4.30    39.08266    11.24149    71.78996
    72  C   4.0   -0.02    4.17    3.94    39.85487    13.97231    71.19975
    73  C   4.0   -0.07    4.11    3.82    37.72880    15.23970    69.71292
    74  C   4.0   -0.07    4.11    3.82    40.40245    15.46644    73.60218
    75  H   1.0    0.11    1.10    1.44    43.51670     9.91708    70.18264
    76  H   1.0    0.05    1.06    1.44    41.47007    10.78573    75.07733
    77  H   1.0    0.06    1.03    1.43    38.73096    10.22041    70.02936
    78  H   1.0    0.05    1.03    1.43    37.32236    11.27055    72.87159
    79  H   1.0    0.05    1.05    1.44    41.55660    13.93689    70.02435
    80  H   1.0    0.04    1.00    1.43    38.28181    17.12916    69.12897
    81  H   1.0    0.05    1.00    1.43    37.24866    14.14684    68.04020
    82  H   1.0    0.05    1.00    1.43    36.04436    15.39062    70.88251
    83  H   1.0    0.04    1.00    1.43    40.48203    17.47640    73.18728
    84  H   1.0    0.05    1.00    1.43    38.92158    15.15151    74.99585
    85  H   1.0    0.04    1.00    1.43    42.19880    14.91805    74.43130
    86  N   5.0   -0.13    3.49    2.07    39.63245     5.42503    72.51719
    87  C   4.0    0.04    4.42    4.42    38.57765     3.01595    73.27485
    88  C   4.0    0.16    3.52    3.12    39.96098     1.96870    75.59409
    89  O   6.0   -0.31    1.30    1.80    38.80752     0.90142    77.30454
    90  C   4.0   -0.04    4.33    4.25    38.81311     0.99128    71.23676
    91  C   4.0   -0.04    4.15    3.89    37.17691     1.36664    68.88952
    92  C   4.0   -0.04    4.22    4.04    37.22222    -1.15712    67.47292
    93  C   4.0   -0.03    4.10    3.81    36.58770    -1.05203    64.66730
    94  N   5.0   -0.11    4.04    2.96    36.97716    -3.63367    63.62562
    95  H   1.0    0.10    1.07    1.44    40.01613     5.71925    70.66643
    96  H   1.0    0.06    1.05    1.44    36.59268     3.25861    73.83859
    97  H   1.0    0.06    1.04    1.43    40.79867     0.85708    70.69325
    98  H   1.0    0.05    1.04    1.43    38.24904    -0.77955    72.13529
    99  H   1.0    0.05    1.02    1.43    35.25476     1.86049    69.43895
   100  H   1.0    0.06    1.03    1.43    37.91721     2.89991    67.73232
   101  H   1.0    0.06    1.04    1.43    39.12927    -1.92935    67.64076
   102  H   1.0    0.05    1.03    1.43    35.92205    -2.43447    68.43146
   103  H   1.0    0.05    1.02    1.43    34.63991    -0.45745    64.35963
   104  H   1.0    0.05    1.02    1.43    37.85108     0.26071    63.70814
   105  H   1.0    0.07    1.02    1.43    36.89818    -3.63993    61.68743
   106  H   1.0    0.10    1.08    1.44    38.76837    -4.37781    64.18266
   107  H   1.0    0.07    1.02    1.43    35.61257    -4.83267    64.30458
   108  N   5.0   -0.14    3.49    2.07    42.48553     2.06240    75.53938
   109  C   4.0    0.04    4.43    4.44    43.91507     1.07633    77.66207
   110  C   4.0    0.16    3.49    3.11    43.22579     2.44839    80.11957
   111  O   6.0   -0.32    1.28    1.80    42.91698     1.26432    82.08469
   112  C   4.0   -0.04    4.31    4.22    46.76270     1.29629    77.25058
   113  C   4.0   -0.04    4.03    3.67    47.85708    -0.71525    75.48869
   114  S   6.0   -0.03    2.46    3.10    49.17123    -3.48085    77.11733
   115  C   4.0   -0.07    3.88    3.44    46.34624    -5.00891    78.28914
   116  H   1.0    0.11    1.09    1.44    43.40118     2.88142    74.06611
   117  H   1.0    0.05    1.06    1.44    43.34539    -0.89301    77.96006
   118  H   1.0    0.06    1.03    1.43    47.11072     3.18188    76.48998
   119  H   1.0    0.05    1.05    1.44    47.70293     1.16598    79.08103
   120  H   1.0    0.05    1.06    1.44    46.47877    -1.35867    74.10325
   121  H   1.0    0.05    1.08    1.44    49.48911     0.02886    74.48434
   122  H   1.0    0.04    1.05    1.44    46.88425    -6.92188    78.79524
   123  H   1.0    0.04    1.03    1.43    45.61476    -4.02321    79.93514
   124  H   1.0    0.04    1.05    1.44    44.98377    -5.05099    76.76082
   125  N   5.0   -0.14    3.51    2.09    43.14786     4.96251    79.99486
   126  C   4.0    0.04    4.45    4.46    42.31334     6.41580    82.15030
   127  C   4.0    0.16    3.47    3.10    39.77907     5.42420    83.15752
   128  O   6.0   -0.31    1.26    1.80    39.45797     5.08919    85.43923
   129  C   4.0   -0.04    4.36    4.30    42.14292     9.21208    81.48415
   130  C   4.0   -0.02    4.18    3.97    44.71064    10.36763    80.77786
   131  C   4.0   -0.08    4.11    3.82    44.34145    13.17568    80.22187
   132  C   4.0   -0.08    4.11    3.82    46.65631    10.02972    82.88268
   133  H   1.0    0.11    1.09    1.44    43.29262     5.85110    78.30141
   134  H   1.0    0.05    1.06    1.44    43.65624     6.13290    83.70718
   135  H   1.0    0.06    1.03    1.43    40.80749     9.43208    79.92563
   136  H   1.0    0.04    1.03    1.43    41.35338    10.22312    83.10301
   137  H   1.0    0.06    1.06    1.44    45.38762     9.43158    79.06392
   138  H   1.0    0.04    1.00    1.43    46.06405    14.00744    79.47638
   139  H   1.0    0.04    1.00    1.43    42.82348    13.44816    78.86334
   140  H   1.0    0.04    1.00    1.43    43.81851    14.16925    81.94459
   141  H   1.0    0.04    1.00    1.43    48.30943    11.18322    82.49380
   142  H   1.0    0.04    1.00    1.43    45.85541    10.62135    84.68301
   143  H   1.0    0.04    1.00    1.43    47.25105     8.07270    83.03523
   144  N   5.0   -0.13    3.51    2.08    38.04764     4.87883    81.40563
   145  C   4.0    0.04    4.42    4.42    35.55664     3.96524    82.10117
   146  C   4.0    0.17    3.49    3.11    35.78714     1.43793    83.49229
   147  O   6.0   -0.28    1.26    1.80    34.69489     1.01560    85.50020
   148  C   4.0   -0.04    4.27    4.13    33.89604     3.74909    79.76359
   149  C   4.0   -0.02    4.18    3.96    31.28891     2.69123    80.39050
   150  C   4.0    0.26    3.10    3.02    31.23066    -0.26264    80.18292
   151  O   6.0   -0.28    1.17    1.80    32.04005    -1.18323    78.17177
   152  O   6.0   -0.26    1.16    1.80    30.34961    -1.45797    82.01522
   153  H   1.0    0.11    1.10    1.44    38.32727     5.41279    79.58566
   154  H   1.0    0.07    1.05    1.44    34.69502     5.27957    83.47014
   155  H   1.0    0.05    1.02    1.43    33.74021     5.62637    78.91389
   156  H   1.0    0.07    1.04    1.43    34.80065     2.48021    78.40550
   157  H   1.0    0.07    1.02    1.43    30.69855     3.22989    82.29401
   158  H   1.0    0.06    1.02    1.43    29.88985     3.39668    79.04536
   159  N   5.0   -0.13    3.54    2.11    37.41911    -0.19938    82.48997
   160  C   4.0    0.04    4.43    4.44    37.80952    -2.65335    83.62516
   161  C   4.0    0.15    3.43    3.09    39.14627    -2.50260    86.19459
   162  O   6.0   -0.32    1.30    1.80    39.09896    -4.31341    87.65472
   163  C   4.0   -0.05    4.30    4.20    39.37104    -4.30956    81.86171
   164  C   4.0   -0.04    4.17    3.93    37.85754    -5.08344    79.52965
   165  C   4.0   -0.01    4.22    4.04    39.50753    -6.67689    77.74952
   166  N   5.0   -0.14    3.39    2.02    39.83733    -5.62754    75.23618
   167  C   4.0    0.09    3.35    3.06    38.47365    -6.36814    73.23824
   168  N   5.0   -0.18    3.29    1.98    36.33414    -7.61493    73.58240
   169  N   5.0   -0.18    3.23    1.96    39.27354    -5.86051    70.90211
   170  H   1.0    0.11    1.10    1.44    38.11487     0.13464    80.73472
   171  H   1.0    0.06    1.05    1.44    35.95479    -3.52143    83.98866
   172  H   1.0    0.05    1.03    1.43    41.03965    -3.22052    81.33093
   173  H   1.0    0.05    1.03    1.43    39.95102    -5.99128    82.90282
   174  H   1.0    0.05    1.02    1.43    36.18713    -6.12103    80.13919
   175  H   1.0    0.07    1.03    1.43    37.18061    -3.39674    78.55472
   176  H   1.0    0.03    1.04    1.43    41.38161    -6.84406    78.59598
   177  H   1.0    0.04    1.03    1.43    38.75180    -8.58361    77.54985
   178  H   1.0    0.08    1.06    1.44    41.13662    -4.25827    74.98287
   179  H   1.0    0.09    1.04    1.43    35.50601    -7.64618    75.29269
   180  H   1.0    0.11    1.08    1.44    35.52133    -8.63396    72.16037
   181  H   1.0    0.11    1.04    1.43    41.07254    -5.30900    70.48795
   182  H   1.0    0.10    1.04    1.43    38.31998    -6.63363    69.44561
   183  N   5.0   -0.13    3.55    2.12    40.45924    -0.41605    86.67951
   184  C   4.0    0.04    4.43    4.43    41.70602     0.01362    89.05933
   185  C   4.0    0.15    3.40    3.08    40.08423     1.54961    90.90164
   186  O   6.0   -0.29    1.24    1.80    40.92263     2.22567    92.94566
   187  C   4.0   -0.04    4.25    4.10    44.31458     1.20828    88.67345
   188  C   4.0   -0.04    4.21    4.02    46.03172    -0.56328    87.17606
   189  C   4.0   -0.05    4.14    3.88    48.79479     0.27938    87.07379
   190  C   4.0   -0.03    4.14    3.87    50.31608    -1.72172    85.64483
   191  N   5.0   -0.11    3.97    2.77    53.06085    -1.22638    85.54517
   192  H   1.0    0.12    1.10    1.44    40.49764     0.99440    85.39014
   193  H   1.0    0.06    1.07    1.44    41.92278    -1.84943    89.95104
   194  H   1.0    0.05    1.03    1.43    44.05925     2.98009    87.65184
   195  H   1.0    0.05    1.03    1.43    45.09047     1.60906    90.53876
   196  H   1.0    0.05    1.03    1.43    45.94562    -2.43102    88.04368
   197  H   1.0    0.06    1.03    1.43    45.27725    -0.71323    85.26472
   198  H   1.0    0.04    1.02    1.43    48.92696     2.10287    86.12619
   199  H   1.0    0.05    1.02    1.43    49.51289     0.47109    88.99567
   200  H   1.0    0.05    1.03    1.43    50.05329    -3.56014    86.53856
   201  H   1.0    0.05    1.02    1.43    49.63369    -1.85673    83.70338
   202  H   1.0    0.12    1.18    1.46    53.90811    -2.70914    84.19217
   203  H   1.0    0.06    1.02    1.43    53.42576     0.53975    84.85620
   204  H   1.0    0.07    1.02    1.43    53.86606    -1.43521    87.28593
   205  N   5.0   -0.13    3.41    2.03    37.67226     1.92445    90.22369
   206  C   4.0    0.03    4.27    4.13    35.91928     3.11149    91.92459
   207  C   4.0    0.17    3.33    3.06    35.72158     5.98696    91.78623
   208  O   6.0   -0.30    1.28    1.80    34.12750     7.05814    93.10215
   209  H   1.0    0.12    1.10    1.44    37.04307     1.52951    88.46293
   210  H   1.0    0.07    1.03    1.43    34.02871     2.35292    91.59043
   211  H   1.0    0.06    1.04    1.43    36.51245     2.64182    93.85265
   212  N   5.0   -0.12    3.50    2.08    37.44976     7.19109    90.41864
   213  C   4.0    0.05    4.40    4.37    37.20250     9.85581    89.90333
   214  C   4.0    0.25    3.23    3.04    35.10062    10.32354    87.88998
   215  O   6.0   -0.28    1.20    1.80    34.06434     8.46424    86.89270
   216  C   4.0   -0.03    4.31    4.21    39.66893    10.92222    88.81579
   217  C   4.0   -0.02    3.69    3.23    41.93220    10.40468    90.40515
   218  C   4.0   -0.00    3.62    3.18    43.53652     8.40193    90.13389
   219  C   4.0    0.01    3.88    3.44    42.86182    11.85102    92.48850
   220  N   5.0   -0.12    3.48    2.07    45.43957     8.52410    91.87233
   221  C   4.0    0.04    3.89    3.45    45.06189    10.59142    93.36806
   222  C   4.0   -0.04    3.40    3.08    42.04450    14.04633    93.70756
   223  C   4.0   -0.05    3.39    3.08    46.44162    11.49668    95.41387
   224  C   4.0   -0.03    3.37    3.07    43.44127    14.94199    95.71293
   225  C   4.0   -0.04    3.38    3.07    45.61176    13.68517    96.55114
   226  O   6.0   -0.31    1.29    1.80    34.70223    12.60301    87.36447
   227  H   1.0    0.11    1.10    1.44    38.33839     6.19098    89.04718
   228  H   1.0    0.06    1.05    1.44    36.67161    10.82482    91.65213
   229  H   1.0    0.05    1.03    1.43    39.91984    10.04891    86.95644
   230  H   1.0    0.05    1.03    1.43    39.38298    12.94718    88.54076
   231  H   1.0    0.05    1.02    1.43    43.42811     6.90070    88.77805
   232  H   1.0    0.08    1.05    1.44    46.78538     7.20607    92.12387
   233  H   1.0    0.06    1.03    1.43    40.34596    14.98893    93.08011
   234  H   1.0    0.06    1.03    1.43    48.11030    10.52897    96.07434
   235  H   1.0    0.06    1.03    1.43    42.83218    16.60738    96.72765
   236  H   1.0    0.06    1.03    1.43    46.63957    14.45375    98.14126
   237  O   6.0   -0.30    1.92    1.82    36.28428    13.47152    79.54258
   238  H   1.0    0.13    0.97    1.43    36.45112    15.18660    80.11774
   239  H   1.0    0.15    1.02    1.43    34.98118    12.75490    80.62658
   240  O   6.0   -0.29    2.00    1.83    32.72710    11.90349    82.91843
   241  H   1.0    0.17    1.07    1.44    33.38647    12.45972    84.58682
   242  H   1.0    0.15    0.98    1.43    32.39506    10.13777    83.17970
   243  O   6.0   -0.31    2.00    1.83    35.35848   -11.33007    70.21925
   244  H   1.0    0.13    0.97    1.43    35.39490   -11.55631    68.39726
   245  H   1.0    0.13    0.97    1.43    36.41081   -12.63734    70.91512
   246  O   6.0   -0.28    1.91    1.82    46.89509    -7.61939    93.33070
   247  H   1.0    0.13    0.97    1.43    46.07576    -8.18665    91.78991
   248  H   1.0    0.13    0.97    1.43    45.77833    -8.08049    94.68830
   249  O   6.0   -0.31    1.92    1.82    44.18712   -11.20215    84.60554
   250  H   1.0    0.12    0.97    1.43    45.73363   -10.43707    84.05385
   251  H   1.0    0.13    0.97    1.43    43.94836   -10.61401    86.32507
   252  N   5.0   -0.10    4.02    2.93    34.88988     4.99953   102.42022
   253  C   4.0   -0.01    4.15    3.91    34.21369     5.71735    99.81921
   254  C   4.0    0.16    3.34    3.06    33.37305     8.51054    99.87763
   255  O   6.0   -0.27    1.27    1.80    32.65590     9.42711   101.88269
   256  H   1.0    0.07    0.97    1.43    34.23026     3.19255   103.14368
   257  H   1.0    0.07    1.02    1.43    36.79616     5.11480   102.73864
   258  H   1.0    0.09    1.07    1.44    34.01272     6.36029   103.55068
   259  H   1.0    0.05    1.02    1.43    35.77314     5.45571    98.50576
   260  H   1.0    0.06    1.02    1.43    32.59935     4.60919    99.16755
   261  N   5.0   -0.12    3.35    2.00    33.50642     9.73805    97.69125
   262  C   4.0    0.03    4.26    4.11    32.63783    12.30688    97.44068
   263  C   4.0    0.16    3.31    3.05    34.69755    14.27413    97.97979
   264  O   6.0   -0.27    1.22    1.80    36.60785    13.78225    99.17471
   265  H   1.0    0.11    1.10    1.44    33.94417     8.80375    96.06149
   266  H   1.0    0.05    1.03    1.43    31.88319    12.58314    95.54302
   267  H   1.0    0.07    1.03    1.43    31.14669    12.64955    98.84193
   268  N   5.0   -0.13    3.47    2.06    34.21715    16.54757    96.96059
   269  C   4.0    0.04    4.30    4.19    35.58154    18.81070    97.64920
   270  C   4.0    0.09    3.22    3.04    34.53623    19.77999   100.18952
   271  O   6.0   -0.25    1.14    1.80    32.56007    18.96784   101.06328
   272  C   4.0   -0.03    4.28    4.16    35.19370    20.90808    95.67953
   273  C   4.0   -0.02    3.65    3.20    36.69831    20.71266    93.29334
   274  C   4.0   -0.01    3.59    3.16    39.16390    20.02780    92.95684
   275  C   4.0    0.01    3.89    3.45    35.79450    21.52885    90.86795
   276  N   5.0   -0.12    3.48    2.07    39.84819    20.32279    90.47377
   277  C   4.0    0.04    3.88    3.43    37.83195    21.23929    89.14992
   278  C   4.0   -0.04    3.40    3.08    33.51027    22.54417    90.01677
   279  C   4.0   -0.04    3.40    3.08    37.59843    21.92096    86.62628
   280  C   4.0   -0.03    3.37    3.07    33.29968    23.21188    87.51152
   281  C   4.0   -0.03    3.38    3.07    35.31403    22.89490    85.83312
   282  H   1.0    0.09    1.07    1.44    32.49775    16.84252    96.18725
   283  H   1.0    0.06    1.05    1.44    37.57684    18.31999    97.87334
   284  H   1.0    0.05    1.03    1.43    33.18674    20.98086    95.19961
   285  H   1.0    0.05    1.03    1.43    35.64037    22.71793    96.57761
   286  H   1.0    0.05    1.02    1.43    40.51643    19.36448    94.30921
   287  H   1.0    0.08    1.05    1.44    41.55409    19.88912    89.75270
   288  H   1.0    0.06    1.03    1.43    31.95281    22.83533    91.30492
   289  H   1.0    0.05    1.03    1.43    39.15859    21.68942    85.33202
   290  H   1.0    0.06    1.03    1.43    31.55128    24.01018    86.82538
   291  H   1.0    0.06    1.03    1.43    35.07452    23.44286    83.88234
   292  N   5.0   -0.18    3.24    1.96    52.70464    21.35914    96.96059
   293  C   4.0    0.03    4.31    4.22    50.06252    21.40917    97.64920
   294  C   4.0    0.15    3.40    3.08    49.74574    20.01926   100.18952
   295  O   6.0   -0.28    1.23    1.80    51.43716    18.71393   101.06328
   296  C   4.0   -0.04    4.30    4.19    48.44005    20.02459    95.67953
   297  C   4.0   -0.02    3.65    3.20    47.85698    21.42534    93.29334
   298  C   4.0   -0.01    3.59    3.16    47.21730    23.90303    92.95684
   299  C   4.0    0.00    3.89    3.45    47.60205    20.23452    90.86795
   300  N   5.0   -0.12    3.48    2.07    46.61968    24.34815    90.47377
   301  C   4.0    0.03    3.88    3.43    46.83409    22.14378    89.14992
   302  C   4.0   -0.05    3.40    3.08    47.86487    17.74866    90.01677
   303  C   4.0   -0.05    3.40    3.08    46.36050    21.60072    86.62628
   304  C   4.0   -0.04    3.37    3.07    47.39191    17.23243    87.51152
   305  C   4.0   -0.04    3.38    3.07    46.65925    19.13540    85.83312
   306  H   1.0    0.09    1.03    1.43    53.30890    19.72262    96.18725
   307  H   1.0    0.04    1.05    1.44    49.48983    23.38251    97.87334
   308  H   1.0    0.05    1.03    1.43    49.38051    18.25013    95.19961
   309  H   1.0    0.05    1.04    1.43    46.64934    19.50650    96.57761
   310  H   1.0    0.05    1.02    1.43    47.11548    25.40601    94.30921
   311  H   1.0    0.08    1.05    1.44    46.14230    26.04233    89.75270
   312  H   1.0    0.05    1.03    1.43    48.39145    16.25429    91.30492
   313  H   1.0    0.05    1.03    1.43    45.78095    23.06762    85.33202
   314  H   1.0    0.05    1.03    1.43    47.57476    15.31912    86.82538
   315  H   1.0    0.05    1.03    1.43    46.30446    18.65400    83.88234
   316  N   5.0   -0.15    3.50    2.08    47.45897    20.32791   101.23635
   317  C   4.0    0.03    4.51    4.55    46.64325    19.05677   103.50801
   318  C   4.0    0.15    3.44    3.09    44.37754    17.38382   102.86524
   319  O   6.0   -0.29    1.23    1.80    42.56936    18.16109   101.64535
   320  C   4.0   -0.02    4.26    4.12    45.94111    20.98793   105.56815
   321  C   4.0   -0.06    4.11    3.83    45.28646    19.61279   108.02250
   322  C   4.0   -0.06    4.13    3.86    48.14319    22.80422   105.97219
   323  H   1.0    0.08    1.07    1.44    46.17599    21.47106   100.40808
   324  H   1.0    0.06    1.07    1.44    48.21310    17.88065   104.16319
   325  H   1.0    0.05    1.05    1.44    44.28538    22.04485   104.91205
   326  H   1.0    0.05    1.00    1.43    44.86360    20.95688   109.51518
   327  H   1.0    0.07    1.00    1.43    43.66928    18.37187   107.75949
   328  H   1.0    0.05    1.00    1.43    46.87282    18.45638   108.63776
   329  H   1.0    0.05    1.00    1.43    47.68199    24.14560   107.45297
   330  H   1.0    0.05    1.00    1.43    49.81058    21.74499   106.53977
   331  H   1.0    0.05    1.00    1.43    48.56819    23.85276   104.25637
   332  N   5.0   -0.14    3.46    2.05    44.58481    15.00865   103.68861
   333  C   4.0    0.04    4.28    4.16    42.61658    13.18443   103.25152
   334  C   4.0    0.11    3.24    3.04    40.45228    13.46237   105.17036
   335  O   6.0   -0.26    1.12    1.80    40.84423    13.84124   107.42224
   336  C   4.0    0.04    4.18    3.96    43.74526    10.53491   103.72977
   337  O   6.0   -0.23    2.05    1.83    41.88416     8.63127   103.76039
   338  H   1.0    0.08    1.06    1.44    46.05372    14.53368   104.85995
   339  H   1.0    0.06    1.05    1.44    41.90056    13.41185   101.32325
   340  H   1.0    0.04    1.01    1.43    45.20838    10.15391   102.32558
   341  H   1.0    0.06    1.02    1.43    44.64841    10.55033   105.58840
   342  H   1.0    0.12    1.02    1.43    41.58178     8.12600   102.02654
   343  N   5.0   -0.20    3.21    1.96    32.78144   -13.00653    97.18138
   344  C   4.0    0.04    4.23    4.07    33.53805   -11.69961    94.91214
   345  C   4.0    0.09    3.22    3.04    34.59121   -13.59734    93.00260
   346  O   6.0   -0.30    1.15    1.80    34.07273   -13.44323    90.73238
   347  C   4.0   -0.04    4.27    4.13    35.46290    -9.63700    95.54877
   348  C   4.0   -0.03    4.23    4.06    36.23426    -8.10540    93.22070
   349  C   4.0    0.16    3.22    3.04    34.05772    -6.63735    92.05930
   350  O   6.0   -0.28    1.22    1.80    31.97803    -6.40969    93.07274
   351  N   5.0   -0.18    3.20    1.96    34.56591    -5.56501    89.83603
   352  H   1.0    0.09    1.02    1.43    33.56525   -12.46684    98.85092
   353  H   1.0    0.07    1.06    1.44    31.86885   -10.84445    94.02496
   354  H   1.0    0.06    1.03    1.43    34.59257    -8.38167    96.93193
   355  H   1.0    0.05    1.03    1.43    37.14117   -10.50977    96.36227
   356  H   1.0    0.05    1.03    1.43    37.71032    -6.76297    93.73394
   357  H   1.0    0.05    1.03    1.43    36.99030    -9.34723    91.76249
   358  H   1.0    0.12    1.08    1.44    36.31662    -5.57831    89.04873
   359  H   1.0    0.11    1.03    1.43    33.19676    -4.57379    88.95916
   360  N   5.0   -0.21    3.20    1.96    50.45594   -15.24961    82.01407
   361  C   4.0    0.03    4.22    4.04    51.10595   -12.87792    80.81363
   362  C   4.0    0.08    3.22    3.04    52.38991   -13.33402    78.24983
   363  O   6.0   -0.32    1.15    1.80    51.81782   -12.13203    76.35625
   364  C   4.0   -0.04    4.29    4.18    52.82826   -11.36660    82.55387
   365  C   4.0   -0.02    4.21    4.02    53.70431    -8.91075    81.34928
   366  C   4.0    0.24    3.14    3.03    54.23205    -6.84873    83.31296
   367  O   6.0   -0.29    1.18    1.80    54.34680    -7.36700    85.58845
   368  O   6.0   -0.31    1.46    1.80    54.45555    -4.64160    82.39134
   369  H   1.0    0.09    1.03    1.43    51.07236   -15.51257    83.80664
   370  H   1.0    0.04    1.05    1.44    49.37537   -11.80012    80.40840
   371  H   1.0    0.06    1.03    1.43    51.82416   -10.94224    84.30663
   372  H   1.0    0.06    1.03    1.43    54.46521   -12.50472    83.07136
   373  H   1.0    0.06    1.03    1.43    55.43617    -9.18435    80.26337
   374  H   1.0    0.05    1.03    1.43    52.28620    -8.14815    80.05613
   375  N   5.0   -0.20    3.24    1.97    47.53654   -15.90326    73.47047
   376  C   4.0    0.03    4.42    4.41    45.97258   -13.84799    72.58387
   377  C   4.0    0.15    3.48    3.11    47.38047   -12.30045    70.58761
   378  O   6.0   -0.30    1.28    1.80    46.40949   -11.64855    68.59100
   379  C   4.0   -0.02    4.28    4.16    45.15766   -12.17047    74.79994
   380  C   4.0   -0.07    4.16    3.92    44.22640    -9.62737    73.82661
   381  C   4.0   -0.07    4.11    3.83    43.07029   -13.48760    76.29913
   382  H   1.0    0.09    1.02    1.43    47.77889   -16.10633    75.36479
   383  H   1.0    0.05    1.05    1.44    44.29417   -14.62080    71.63126
   384  H   1.0    0.05    1.05    1.44    46.81163   -11.88196    76.00762
   385  H   1.0    0.04    1.02    1.43    43.36585    -8.60245    75.36749
   386  H   1.0    0.06    1.00    1.43    45.75794    -8.50687    73.03445
   387  H   1.0    0.06    1.00    1.43    42.84096    -9.90055    72.33304
   388  H   1.0    0.04    1.00    1.43    42.59748   -12.38964    77.96776
   389  H   1.0    0.05    1.00    1.43    41.39332   -13.69156    75.13914
   390  H   1.0    0.05    1.00    1.43    43.70174   -15.33494    76.92473
   391  N   5.0   -0.15    3.51    2.09    49.75399   -11.71166    71.21242
   392  C   4.0    0.05    4.31    4.21    51.19409    -9.94738    69.72351
   393  C   4.0    0.11    3.24    3.04    51.39603   -10.91513    66.99475
   394  O   6.0   -0.27    1.11    1.80    51.08113    -9.56353    65.13604
   395  C   4.0    0.04    4.17    3.94    53.76121    -9.69414    71.01699
   396  O   6.0   -0.24    2.05    1.83    55.13673    -7.74157    69.89943
   397  H   1.0    0.11    1.11    1.44    50.38624   -12.02195    72.99736
   398  H   1.0    0.07    1.05    1.44    50.27100    -8.08580    69.64967
   399  H   1.0    0.06    1.02    1.43    53.40314    -9.30051    73.02362
   400  H   1.0    0.05    1.01    1.43    54.76980   -11.50613    70.86431
   401  H   1.0    0.13    1.02    1.43    56.55830    -7.30750    70.95590
   402  N   5.0   -0.18    3.21    1.96    45.67907   -10.59708    63.24357
   403  C   4.0    0.05    4.22    4.05    45.31276    -8.12525    62.13311
   404  C   4.0    0.09    3.20    3.04    46.92962    -7.84465    59.74799
   405  O   6.0   -0.27    1.11    1.80    46.10938    -6.80624    57.84327
   406  C   4.0   -0.02    4.25    4.10    45.89141    -6.03573    64.02550
   407  C   4.0    0.25    3.09    3.02    43.62650    -5.54441    65.86551
   408  O   6.0   -0.32    1.28    1.80    41.45970    -5.85999    64.96414
   409  O   6.0   -0.31    1.18    1.80    44.14217    -4.79199    68.02099
   410  H   1.0    0.13    1.06    1.44    46.27940   -10.71489    65.05377
   411  H   1.0    0.07    1.06    1.44    43.32785    -7.93867    61.53643
   412  H   1.0    0.07    1.02    1.43    47.58153    -6.47470    65.11809
   413  H   1.0    0.05    1.03    1.43    46.20827    -4.26231    63.01399
   414  N   5.0   -0.20    3.20    1.96    31.91693   -14.49179    85.76024
   415  C   4.0    0.04    4.30    4.20    33.42610   -14.22910    83.48378
   416  C   4.0    0.09    3.23    3.04    33.69052   -16.75166    82.10369
   417  O   6.0   -0.27    1.12    1.80    33.55234   -16.82715    79.79316
   418  C   4.0   -0.02    4.25    4.10    36.03618   -13.06399    84.04404
   419  C   4.0   -0.07    4.13    3.86    37.69778   -13.13893    81.68084
   420  C   4.0   -0.07    4.11    3.82    35.73472   -10.34905    84.98345
   421  H   1.0    0.12    1.05    1.44    32.77111   -14.30829    87.46729
   422  H   1.0    0.06    1.06    1.44    32.38962   -12.99183    82.17946
   423  H   1.0    0.05    1.05    1.44    36.91036   -14.19997    85.53399
   424  H   1.0    0.05    1.00    1.43    39.51897   -12.29144    82.10620
   425  H   1.0    0.06    1.01    1.43    38.01294   -15.06544    81.05323
   426  H   1.0    0.05    1.00    1.43    36.79132   -12.10999    80.15625
   427  H   1.0    0.05    1.00    1.43    37.58277    -9.51792    85.30286
   428  H   1.0    0.05    1.00    1.43    34.72416    -9.21963    83.59905
   429  H   1.0    0.06    1.00    1.43    34.68678   -10.30122    86.75010
   430  H   1.0    0.10    1.07    1.44    48.59901     7.26114    57.54894
   431  H   1.0    0.06    1.04    1.44    35.47999    21.10035   101.15753
   432  H   1.0    0.10    1.07    1.44    53.01679    22.57979    95.81817
   433  H   1.0    0.08    1.04    1.44    38.65691    13.33503   104.59461
   434  H   1.0    0.11    1.07    1.44    31.10565   -12.82586    97.40863
   435  H   1.0    0.06    1.04    1.44    35.72188   -14.99506    93.58485
   436  H   1.0    0.10    1.07    1.44    48.76379   -15.40484    82.08531
   437  H   1.0    0.06    1.05    1.44    53.73942   -14.64708    78.08924
   438  H   1.0    0.10    1.07    1.44    46.87763   -17.38280    72.95149
   439  H   1.0    0.07    1.05    1.44    51.80263   -12.73067    66.66376
   440  H   1.0    0.11    1.07    1.44    44.20893   -11.45198    63.22355
   441  H   1.0    0.07    1.05    1.44    48.69614    -8.51524    59.71971
   442  H   1.0    0.11    1.07    1.44    30.69119   -13.31278    85.76798
   443  H   1.0    0.06    1.04    1.43    33.97628   -18.34062    83.08584

  Z AO/shell   Hii/eV     exponent
  1     Wed Apr 25 08:07:45 CEST 2018   EN: 2.200 GM2: 0.406  GM3: 0.0800  RAES: 1.40
     1s    -10.707211    1.230000
  6     Wed Apr 25 08:07:45 CEST 2018   EN: 2.550 GM2: 0.538  GM3: 0.1500  RAES: 3.00
     2s    -13.970922    2.096432
     2p    -10.063292    1.800000
  7     Wed Apr 25 08:07:45 CEST 2018   EN: 3.040 GM2: 0.461  GM3:-0.0640  RAES: 1.90
     2s    -16.686243    2.339881
     2p    -12.523956    2.014332
  8     Wed Apr 25 08:07:45 CEST 2018   EN: 3.440 GM2: 0.452  GM3:-0.0517  RAES: 1.80
     2s    -20.229985    2.439742
     2p    -15.503117    2.137023
 16     Tue Apr 24 11:44:34 CEST 2018   EN: 2.580 GM2: 0.340  GM3:-0.0502  RAES: 3.10
     3s    -20.029654    1.981333
     3p    -11.377694    2.025643
     3d     -0.420282    1.702555
 no old-style atom pair restraining (fixing) potential

molecular fragmentation (1/2 indicates fragments):
111111111111111111111111111111111111111111111111111111111111111111111111
111111111111111111111111111111111111111111111111111111111111111111111111
111111111111111111111111111111111111111111111111111111111111111111111111
111111111111111111112222222222222222222222222222222222222222222222222222
222222222222222222222222222222222222222222222222222222222222222222222222
222222222222222222222222222222222222222222222222222222222222222222222122
22222222222
# atoms in fragment 1/2:   237   206
 fragment masses (1/2) :     1604.97     1433.59
CMA distance (Bohr)    :  10.040
constraining FC (au)   :  0.0500
           ------------------------------------------------- 
          |        Self-Consistent Charge Iterations        |
           ------------------------------------------------- 

 Ncao       : 1085
 Nao        : 1084
 Nshell     : 656
 Nel        : 1200
 T(el)      :   500.0
 intcut     :    35.0
 scfconv/Eh :  0.100E-06
   qconv/e  :  0.100E-04
 intneglect :  0.100E-08
 broydamp   :      0.400
 iter      E             dE          RMSdq      gap      omega  full diag
   1   -688.5043950 -0.688504E+03  0.467E+00    2.61       0.0  T
   2   -689.9975926 -0.149320E+01  0.224E+00    1.44       1.0  T
   3   -690.0820070 -0.844144E-01  0.121E+00    1.96       1.0  T
   4   -690.1988699 -0.116863E+00  0.291E-01    1.57       1.0  T
   5   -690.2063632 -0.749328E-02  0.157E-01    1.70       1.0  T
   6   -690.2098795 -0.351628E-02  0.701E-02    1.71       1.0  T
   7   -690.2105610 -0.681571E-03  0.292E-02    1.67       1.0  T
   8   -690.2106168 -0.558054E-04  0.142E-02    1.67       1.0  T
   9   -690.2106345 -0.177043E-04  0.615E-03    1.66       1.0  T
  10   -690.2106377 -0.316850E-05  0.309E-03    1.66       1.5  T
  11   -690.2106384 -0.724466E-06  0.149E-03    1.66       3.2  T
  12   -690.2106387 -0.243809E-06  0.739E-04    1.66       6.4  T
  13   -690.2106387 -0.534285E-07  0.348E-04    1.66      13.7  T
  14   -690.2106387 -0.880550E-08  0.184E-04    1.66      25.8  T
  15   -690.2106387 -0.367254E-08  0.679E-05    1.66      70.0  T
  16   -690.2106387 -0.405635E-09  0.337E-05    1.66     141.2  T
speedup  1.00
cpu  time for SCC    8.04 s
wall time for SCC    8.04 s

   *** convergence criteria satisfied after 16 iterations ***

          eigenvalues
 #    :         588        589        590        591        592        593        594        595
 occ. :        2.000      2.000      2.000      2.000      2.000      2.000      2.000      2.000
 eps  :       -10.215    -10.111    -10.105    -10.057     -9.946     -9.936     -9.835     -9.779
 #    :         596        597        598        599        600        601        602        603
 occ. :        2.000      2.000      2.000      2.000      2.000      0.000      0.000      0.000
 eps  :        -9.762     -9.703     -9.643     -9.638     -9.601     -7.941     -7.890     -7.888
 #    :         604        605        606        607        608        609        610        611
 occ. :        0.000      0.000      0.000      0.000      0.000      0.000      0.000      0.000
 eps  :        -7.885     -7.728     -7.554     -7.531     -6.674     -6.531     -6.478     -6.428


   #   Z            q   n(s)   n(p)   n(d)      C6AA      α(0)
   1   7 N     -0.398  1.306  4.092  0.000    30.321     8.178
   2   6 C      0.032  1.056  2.912  0.000    20.047     6.378
   3   6 C      0.259  1.052  2.689  0.000    22.643     7.793
   4   8 O     -0.476  1.738  4.738  0.000    23.269     6.467
   5   6 C     -0.125  1.044  3.081  0.000    22.943     6.829
   6   1 H      0.164  0.836  0.000  0.000     1.311     1.794
   7   1 H      0.035  0.965  0.000  0.000     2.512     2.479
   8   1 H      0.061  0.939  0.000  0.000     2.192     2.315
   9   1 H      0.053  0.947  0.000  0.000     2.284     2.364
  10   1 H      0.056  0.944  0.000  0.000     2.243     2.342
  11   7 N     -0.168  1.236  3.932  0.000    24.625     7.370
  12   6 C      0.006  1.066  2.928  0.000    20.471     6.441
  13   6 C      0.269  1.043  2.688  0.000    22.453     7.760
  14   8 O     -0.481  1.740  4.741  0.000    23.371     6.482
  15   6 C     -0.021  1.061  2.960  0.000    20.917     6.505
  16   6 C     -0.125  1.042  3.083  0.000    22.952     6.831
  17   6 C     -0.128  1.039  3.088  0.000    23.004     6.839
  18   1 H      0.211  0.789  0.000  0.000     1.050     1.605
  19   1 H      0.093  0.907  0.000  0.000     1.853     2.129
  20   1 H      0.056  0.944  0.000  0.000     2.243     2.342
  21   1 H      0.054  0.946  0.000  0.000     2.276     2.359
  22   1 H      0.057  0.943  0.000  0.000     2.239     2.340
  23   1 H      0.052  0.948  0.000  0.000     2.299     2.371
  24   1 H      0.057  0.943  0.000  0.000     2.234     2.337
  25   1 H      0.050  0.950  0.000  0.000     2.320     2.382
  26   1 H      0.042  0.958  0.000  0.000     2.422     2.434
  27   7 N     -0.167  1.235  3.932  0.000    24.608     7.368
  28   6 C     -0.038  1.050  2.988  0.000    21.307     6.583
  29   6 C      0.277  1.038  2.685  0.000    22.319     7.736
  30   8 O     -0.485  1.746  4.739  0.000    23.453     6.493
  31   1 H      0.226  0.774  0.000  0.000     0.984     1.554
  32   1 H      0.091  0.909  0.000  0.000     1.868     2.138
  33   1 H      0.106  0.894  0.000  0.000     1.729     2.056
  34   7 N     -0.171  1.236  3.935  0.000    24.701     7.381
  35   6 C      0.015  1.059  2.926  0.000    20.318     6.418
  36   6 C      0.274  1.041  2.686  0.000    22.372     7.746
  37   8 O     -0.496  1.742  4.754  0.000    23.694     6.526
  38   6 C      0.074  1.037  2.889  0.000    19.564     6.338
  39   8 O     -0.466  1.709  4.756  0.000    22.167     6.356
  40   1 H      0.212  0.788  0.000  0.000     1.045     1.602
  41   1 H      0.085  0.915  0.000  0.000     1.932     2.174
  42   1 H      0.041  0.959  0.000  0.000     2.439     2.442
  43   1 H      0.047  0.953  0.000  0.000     2.362     2.403
  44   1 H      0.343  0.657  0.000  0.000     0.604     1.221
  45   7 N     -0.165  1.248  3.917  0.000    24.560     7.360
  46   6 C      0.015  1.065  2.920  0.000    20.324     6.418
  47   6 C      0.272  1.044  2.683  0.000    22.400     7.751
  48   8 O     -0.500  1.741  4.760  0.000    23.790     6.539
  49   6 C     -0.082  1.055  3.027  0.000    22.063     6.687
  50   6 C     -0.088  1.055  3.033  0.000    22.166     6.703
  51   6 C     -0.094  1.052  3.041  0.000    22.281     6.720
  52   6 C     -0.054  1.060  2.994  0.000    21.635     6.640
  53   7 N     -0.147  1.230  3.918  0.000    24.178     7.303
  54   1 H      0.241  0.759  0.000  0.000     0.920     1.502
  55   1 H      0.082  0.918  0.000  0.000     1.959     2.189
  56   1 H      0.069  0.931  0.000  0.000     2.101     2.267
  57   1 H      0.070  0.930  0.000  0.000     2.091     2.261
  58   1 H      0.063  0.937  0.000  0.000     2.162     2.299
  59   1 H      0.075  0.925  0.000  0.000     2.032     2.229
  60   1 H      0.080  0.920  0.000  0.000     1.974     2.197
  61   1 H      0.082  0.918  0.000  0.000     1.955     2.186
  62   1 H      0.121  0.879  0.000  0.000     1.603     1.980
  63   1 H      0.122  0.878  0.000  0.000     1.600     1.978
  64   1 H      0.301  0.699  0.000  0.000     0.710     1.320
  65   1 H      0.299  0.701  0.000  0.000     0.718     1.327
  66   1 H      0.291  0.709  0.000  0.000     0.740     1.347
  67   7 N     -0.188  1.252  3.936  0.000    25.086     7.439
  68   6 C      0.028  1.057  2.915  0.000    20.110     6.385
  69   6 C      0.280  1.043  2.676  0.000    22.256     7.726
  70   8 O     -0.518  1.753  4.764  0.000    24.185     6.593
  71   6 C     -0.072  1.058  3.015  0.000    21.876     6.658
  72   6 C     -0.013  1.057  2.955  0.000    20.772     6.483
  73   6 C     -0.116  1.042  3.074  0.000    22.778     6.804
  74   6 C     -0.118  1.040  3.079  0.000    22.820     6.811
  75   1 H      0.242  0.758  0.000  0.000     0.915     1.499
  76   1 H      0.071  0.929  0.000  0.000     2.071     2.251
  77   1 H      0.056  0.944  0.000  0.000     2.245     2.343
  78   1 H      0.039  0.961  0.000  0.000     2.461     2.453
  79   1 H      0.058  0.942  0.000  0.000     2.218     2.329
  80   1 H      0.051  0.949  0.000  0.000     2.301     2.372
  81   1 H      0.040  0.960  0.000  0.000     2.454     2.450
  82   1 H      0.033  0.967  0.000  0.000     2.545     2.495
  83   1 H      0.051  0.949  0.000  0.000     2.308     2.376
  84   1 H      0.032  0.968  0.000  0.000     2.553     2.498
  85   1 H      0.042  0.958  0.000  0.000     2.426     2.436
  86   7 N     -0.178  1.245  3.932  0.000    24.851     7.404
  87   6 C      0.029  1.056  2.915  0.000    20.089     6.381
  88   6 C      0.277  1.045  2.678  0.000    22.318     7.737
  89   8 O     -0.514  1.749  4.765  0.000    24.099     6.582
  90   6 C     -0.087  1.059  3.028  0.000    22.146     6.697
  91   6 C     -0.076  1.050  3.026  0.000    21.947     6.670
  92   6 C     -0.103  1.059  3.044  0.000    22.458     6.745
  93   6 C     -0.042  1.056  2.985  0.000    21.415     6.606
  94   7 N     -0.168  1.242  3.927  0.000    24.627     7.370
  95   1 H      0.226  0.774  0.000  0.000     0.985     1.554
  96   1 H      0.050  0.950  0.000  0.000     2.318     2.381
  97   1 H      0.081  0.919  0.000  0.000     1.965     2.192
  98   1 H      0.059  0.941  0.000  0.000     2.206     2.323
  99   1 H      0.051  0.949  0.000  0.000     2.305     2.374
 100   1 H      0.069  0.931  0.000  0.000     2.094     2.263
 101   1 H      0.080  0.920  0.000  0.000     1.981     2.201
 102   1 H      0.078  0.922  0.000  0.000     2.000     2.212
 103   1 H      0.115  0.885  0.000  0.000     1.658     2.013
 104   1 H      0.106  0.894  0.000  0.000     1.736     2.060
 105   1 H      0.289  0.711  0.000  0.000     0.747     1.354
 106   1 H      0.302  0.698  0.000  0.000     0.706     1.317
 107   1 H      0.285  0.715  0.000  0.000     0.761     1.366
 108   7 N     -0.185  1.249  3.936  0.000    25.000     7.426
 109   6 C      0.023  1.060  2.917  0.000    20.181     6.396
 110   6 C      0.271  1.043  2.686  0.000    22.424     7.755
 111   8 O     -0.495  1.742  4.754  0.000    23.677     6.524
 112   6 C     -0.082  1.057  3.026  0.000    22.050     6.682
 113   6 C     -0.025  1.068  2.957  0.000    21.034     6.531
 114  16 S     -0.200  1.918  4.233  0.048   149.546    20.582
 115   6 C     -0.067  1.052  3.015  0.000    21.847     6.667
 116   1 H      0.235  0.765  0.000  0.000     0.943     1.521
 117   1 H      0.071  0.929  0.000  0.000     2.079     2.255
 118   1 H      0.086  0.914  0.000  0.000     1.922     2.168
 119   1 H      0.082  0.918  0.000  0.000     1.961     2.190
 120   1 H      0.055  0.945  0.000  0.000     2.255     2.348
 121   1 H      0.085  0.915  0.000  0.000     1.932     2.173
 122   1 H      0.061  0.939  0.000  0.000     2.183     2.311
 123   1 H      0.051  0.949  0.000  0.000     2.302     2.372
 124   1 H      0.052  0.948  0.000  0.000     2.294     2.368
 125   7 N     -0.182  1.250  3.933  0.000    24.948     7.418
 126   6 C      0.033  1.058  2.909  0.000    20.019     6.370
 127   6 C      0.282  1.045  2.674  0.000    22.228     7.721
 128   8 O     -0.521  1.747  4.774  0.000    24.253     6.603
 129   6 C     -0.063  1.053  3.010  0.000    21.704     6.631
 130   6 C     -0.016  1.058  2.957  0.000    20.818     6.490
 131   6 C     -0.114  1.041  3.073  0.000    22.723     6.796
 132   6 C     -0.123  1.042  3.082  0.000    22.920     6.826
 133   1 H      0.233  0.767  0.000  0.000     0.954     1.530
 134   1 H      0.074  0.926  0.000  0.000     2.040     2.233
 135   1 H      0.044  0.956  0.000  0.000     2.393     2.419
 136   1 H      0.028  0.972  0.000  0.000     2.621     2.532
 137   1 H      0.058  0.942  0.000  0.000     2.220     2.330
 138   1 H      0.061  0.939  0.000  0.000     2.186     2.312
 139   1 H      0.030  0.970  0.000  0.000     2.588     2.516
 140   1 H      0.035  0.965  0.000  0.000     2.513     2.479
 141   1 H      0.069  0.931  0.000  0.000     2.094     2.263
 142   1 H      0.033  0.967  0.000  0.000     2.540     2.492
 143   1 H      0.048  0.952  0.000  0.000     2.350     2.397
 144   7 N     -0.199  1.260  3.940  0.000    25.323     7.474
 145   6 C      0.051  1.053  2.896  0.000    19.723     6.323
 146   6 C      0.291  1.042  2.667  0.000    22.066     7.692
 147   8 O     -0.529  1.754  4.775  0.000    24.445     6.629
 148   6 C     -0.054  1.051  3.003  0.000    21.541     6.607
 149   6 C     -0.089  1.063  3.025  0.000    22.196     6.708
 150   6 C      0.367  1.026  2.607  0.000    20.774     7.459
 151   8 O     -0.617  1.753  4.864  0.000    26.553     6.909
 152   8 O     -0.655  1.779  4.876  0.000    27.507     7.032
 153   1 H      0.228  0.772  0.000  0.000     0.974     1.546
 154   1 H      0.035  0.965  0.000  0.000     2.519     2.482
 155   1 H      0.032  0.968  0.000  0.000     2.561     2.502
 156   1 H      0.065  0.935  0.000  0.000     2.144     2.290
 157   1 H     -0.006  1.006  0.000  0.000     3.156     2.778
 158   1 H      0.021  0.979  0.000  0.000     2.726     2.582
 159   7 N     -0.192  1.254  3.938  0.000    25.161     7.450
 160   6 C      0.039  1.053  2.908  0.000    19.921     6.355
 161   6 C      0.266  1.047  2.687  0.000    22.507     7.769
 162   8 O     -0.488  1.728  4.760  0.000    23.518     6.502
 163   6 C     -0.077  1.058  3.019  0.000    21.965     6.671
 164   6 C     -0.076  1.051  3.026  0.000    21.953     6.671
 165   6 C     -0.025  1.054  2.971  0.000    21.091     6.552
 166   7 N     -0.151  1.205  3.946  0.000    24.277     7.318
 167   6 C      0.229  1.022  2.749  0.000    23.186     7.884
 168   7 N     -0.250  1.237  4.013  0.000    26.500     7.645
 169   7 N     -0.242  1.240  4.002  0.000    26.312     7.618
 170   1 H      0.235  0.765  0.000  0.000     0.944     1.522
 171   1 H      0.050  0.950  0.000  0.000     2.325     2.385
 172   1 H      0.070  0.930  0.000  0.000     2.084     2.258
 173   1 H      0.080  0.920  0.000  0.000     1.982     2.201
 174   1 H      0.049  0.951  0.000  0.000     2.337     2.391
 175   1 H      0.063  0.937  0.000  0.000     2.164     2.300
 176   1 H      0.086  0.914  0.000  0.000     1.914     2.164
 177   1 H      0.093  0.907  0.000  0.000     1.854     2.129
 178   1 H      0.201  0.799  0.000  0.000     1.100     1.643
 179   1 H      0.227  0.773  0.000  0.000     0.977     1.549
 180   1 H      0.278  0.722  0.000  0.000     0.782     1.386
 181   1 H      0.241  0.759  0.000  0.000     0.921     1.503
 182   1 H      0.244  0.756  0.000  0.000     0.908     1.492
 183   7 N     -0.161  1.236  3.924  0.000    24.474     7.347
 184   6 C      0.015  1.062  2.923  0.000    20.331     6.420
 185   6 C      0.268  1.044  2.688  0.000    22.480     7.764
 186   8 O     -0.467  1.731  4.737  0.000    23.076     6.441
 187   6 C     -0.068  1.052  3.016  0.000    21.796     6.646
 188   6 C     -0.076  1.052  3.024  0.000    21.950     6.670
 189   6 C     -0.086  1.055  3.031  0.000    22.137     6.699
 190   6 C     -0.023  1.049  2.974  0.000    21.065     6.550
 191   7 N     -0.207  1.267  3.940  0.000    25.484     7.498
 192   1 H      0.207  0.793  0.000  0.000     1.072     1.622
 193   1 H      0.100  0.900  0.000  0.000     1.787     2.090
 194   1 H      0.045  0.955  0.000  0.000     2.389     2.417
 195   1 H      0.079  0.921  0.000  0.000     1.987     2.204
 196   1 H      0.052  0.948  0.000  0.000     2.291     2.367
 197   1 H      0.060  0.940  0.000  0.000     2.201     2.320
 198   1 H      0.068  0.932  0.000  0.000     2.112     2.272
 199   1 H      0.072  0.928  0.000  0.000     2.061     2.245
 200   1 H      0.084  0.916  0.000  0.000     1.942     2.179
 201   1 H      0.086  0.914  0.000  0.000     1.920     2.167
 202   1 H      0.312  0.688  0.000  0.000     0.676     1.287
 203   1 H      0.267  0.733  0.000  0.000     0.820     1.419
 204   1 H      0.255  0.745  0.000  0.000     0.866     1.457
 205   7 N     -0.178  1.238  3.941  0.000    24.861     7.405
 206   6 C     -0.027  1.049  2.979  0.000    21.129     6.556
 207   6 C      0.277  1.042  2.681  0.000    22.321     7.737
 208   8 O     -0.515  1.732  4.783  0.000    24.114     6.584
 209   1 H      0.189  0.811  0.000  0.000     1.163     1.689
 210   1 H      0.073  0.927  0.000  0.000     2.058     2.243
 211   1 H      0.111  0.889  0.000  0.000     1.689     2.033
 212   7 N     -0.169  1.259  3.910  0.000    24.662     7.376
 213   6 C      0.031  1.066  2.904  0.000    20.063     6.378
 214   6 C      0.370  1.025  2.605  0.000    20.726     7.451
 215   8 O     -0.626  1.779  4.848  0.000    26.774     6.937
 216   6 C     -0.046  1.042  3.003  0.000    21.386     6.583
 217   6 C     -0.035  1.065  2.969  0.000    28.810     8.803
 218   6 C     -0.005  1.066  2.939  0.000    28.118     8.697
 219   6 C     -0.019  1.074  2.945  0.000    28.316     8.717
 220   7 N     -0.104  1.223  3.881  0.000    23.288     7.167
 221   6 C      0.046  1.060  2.894  0.000    26.871     8.496
 222   6 C     -0.037  1.076  2.961  0.000    28.919     8.818
 223   6 C     -0.058  1.071  2.987  0.000    29.449     8.898
 224   6 C     -0.040  1.073  2.967  0.000    28.998     8.831
 225   6 C     -0.040  1.074  2.966  0.000    28.991     8.830
 226   8 O     -0.614  1.769  4.846  0.000    26.475     6.899
 227   1 H      0.209  0.791  0.000  0.000     1.060     1.613
 228   1 H      0.038  0.962  0.000  0.000     2.474     2.460
 229   1 H      0.015  0.985  0.000  0.000     2.818     2.625
 230   1 H      0.045  0.955  0.000  0.000     2.385     2.415
 231   1 H      0.031  0.969  0.000  0.000     2.566     2.505
 232   1 H      0.210  0.790  0.000  0.000     1.057     1.610
 233   1 H      0.014  0.986  0.000  0.000     2.829     2.630
 234   1 H      0.048  0.952  0.000  0.000     2.349     2.397
 235   1 H      0.018  0.982  0.000  0.000     2.766     2.601
 236   1 H      0.022  0.978  0.000  0.000     2.708     2.574
 237   8 O     -0.653  1.762  4.891  0.000    26.501     6.948
 238   1 H      0.316  0.684  0.000  0.000     0.675     1.291
 239   1 H      0.302  0.698  0.000  0.000     0.714     1.327
 240   8 O     -0.645  1.754  4.891  0.000    26.290     6.920
 241   1 H      0.325  0.675  0.000  0.000     0.650     1.267
 242   1 H      0.281  0.719  0.000  0.000     0.780     1.387
 243   8 O     -0.635  1.758  4.876  0.000    26.035     6.887
 244   1 H      0.344  0.656  0.000  0.000     0.602     1.219
 245   1 H      0.329  0.671  0.000  0.000     0.641     1.258
 246   8 O     -0.655  1.778  4.877  0.000    26.542     6.953
 247   1 H      0.320  0.680  0.000  0.000     0.664     1.280
 248   1 H      0.335  0.665  0.000  0.000     0.624     1.241
 249   8 O     -0.627  1.766  4.861  0.000    25.839     6.861
 250   1 H      0.308  0.692  0.000  0.000     0.697     1.312
 251   1 H      0.319  0.681  0.000  0.000     0.666     1.282
 252   7 N     -0.142  1.226  3.916  0.000    24.061     7.285
 253   6 C     -0.079  1.060  3.018  0.000    22.096     6.709
 254   6 C      0.270  1.031  2.699  0.000    22.440     7.757
 255   8 O     -0.468  1.745  4.723  0.000    23.086     6.442
 256   1 H      0.321  0.679  0.000  0.000     0.654     1.268
 257   1 H      0.299  0.701  0.000  0.000     0.717     1.327
 258   1 H      0.306  0.694  0.000  0.000     0.696     1.307
 259   1 H      0.125  0.875  0.000  0.000     1.575     1.963
 260   1 H      0.142  0.858  0.000  0.000     1.447     1.881
 261   7 N     -0.150  1.235  3.916  0.000    24.254     7.314
 262   6 C     -0.033  1.049  2.984  0.000    21.233     6.572
 263   6 C      0.277  1.040  2.684  0.000    22.316     7.735
 264   8 O     -0.464  1.737  4.727  0.000    23.001     6.430
 265   1 H      0.227  0.773  0.000  0.000     0.978     1.549
 266   1 H      0.068  0.932  0.000  0.000     2.109     2.271
 267   1 H      0.101  0.899  0.000  0.000     1.780     2.086
 268   7 N     -0.171  1.246  3.925  0.000    24.705     7.382
 269   6 C      0.028  1.060  2.912  0.000    20.115     6.388
 270   6 C      0.199  1.089  2.712  0.000    23.761     7.983
 271   8 O     -0.367  1.756  4.612  0.000    21.037     6.149
 272   6 C     -0.068  1.051  3.018  0.000    21.803     6.647
 273   6 C     -0.033  1.063  2.970  0.000    28.771     8.797
 274   6 C     -0.007  1.066  2.941  0.000    28.167     8.706
 275   6 C     -0.022  1.075  2.946  0.000    28.394     8.729
 276   7 N     -0.101  1.219  3.883  0.000    23.223     7.157
 277   6 C      0.046  1.061  2.892  0.000    26.881     8.500
 278   6 C     -0.043  1.078  2.965  0.000    29.059     8.839
 279   6 C     -0.056  1.072  2.985  0.000    29.400     8.891
 280   6 C     -0.046  1.076  2.970  0.000    29.149     8.854
 281   6 C     -0.042  1.078  2.964  0.000    29.043     8.838
 282   1 H      0.201  0.799  0.000  0.000     1.101     1.644
 283   1 H      0.103  0.897  0.000  0.000     1.754     2.071
 284   1 H      0.061  0.939  0.000  0.000     2.183     2.311
 285   1 H      0.073  0.927  0.000  0.000     2.055     2.242
 286   1 H      0.049  0.951  0.000  0.000     2.328     2.386
 287   1 H      0.180  0.820  0.000  0.000     1.217     1.728
 288   1 H      0.023  0.977  0.000  0.000     2.684     2.562
 289   1 H      0.034  0.966  0.000  0.000     2.533     2.489
 290   1 H      0.021  0.979  0.000  0.000     2.712     2.575
 291   1 H      0.028  0.972  0.000  0.000     2.618     2.530
 292   7 N     -0.385  1.320  4.065  0.000    29.950     8.128
 293   6 C      0.030  1.060  2.910  0.000    20.084     6.383
 294   6 C      0.271  1.047  2.682  0.000    22.425     7.755
 295   8 O     -0.475  1.747  4.728  0.000    23.248     6.464
 296   6 C     -0.066  1.052  3.014  0.000    21.759     6.640
 297   6 C     -0.034  1.068  2.965  0.000    28.797     8.801
 298   6 C     -0.011  1.065  2.946  0.000    28.265     8.721
 299   6 C     -0.023  1.076  2.948  0.000    28.432     8.735
 300   7 N     -0.118  1.227  3.890  0.000    23.560     7.209
 301   6 C      0.043  1.061  2.897  0.000    26.965     8.514
 302   6 C     -0.040  1.078  2.962  0.000    28.988     8.829
 303   6 C     -0.060  1.071  2.989  0.000    29.482     8.903
 304   6 C     -0.047  1.076  2.970  0.000    29.166     8.856
 305   6 C     -0.043  1.077  2.966  0.000    29.071     8.842
 306   1 H      0.162  0.838  0.000  0.000     1.323     1.802
 307   1 H      0.041  0.959  0.000  0.000     2.438     2.442
 308   1 H      0.046  0.954  0.000  0.000     2.370     2.408
 309   1 H      0.033  0.967  0.000  0.000     2.544     2.495
 310   1 H      0.036  0.964  0.000  0.000     2.500     2.473
 311   1 H      0.193  0.807  0.000  0.000     1.144     1.675
 312   1 H      0.023  0.977  0.000  0.000     2.690     2.565
 313   1 H      0.029  0.971  0.000  0.000     2.603     2.523
 314   1 H      0.030  0.970  0.000  0.000     2.588     2.516
 315   1 H      0.031  0.969  0.000  0.000     2.569     2.507
 316   7 N     -0.176  1.236  3.939  0.000    24.802     7.396
 317   6 C      0.013  1.066  2.921  0.000    20.350     6.423
 318   6 C      0.271  1.041  2.687  0.000    22.414     7.753
 319   8 O     -0.483  1.748  4.735  0.000    23.414     6.488
 320   6 C     -0.016  1.062  2.954  0.000    20.822     6.490
 321   6 C     -0.120  1.040  3.080  0.000    22.857     6.817
 322   6 C     -0.118  1.040  3.078  0.000    22.811     6.810
 323   1 H      0.199  0.801  0.000  0.000     1.114     1.653
 324   1 H      0.073  0.927  0.000  0.000     2.058     2.243
 325   1 H      0.043  0.957  0.000  0.000     2.404     2.425
 326   1 H      0.058  0.942  0.000  0.000     2.225     2.333
 327   1 H      0.036  0.964  0.000  0.000     2.504     2.475
 328   1 H      0.050  0.950  0.000  0.000     2.326     2.385
 329   1 H      0.055  0.945  0.000  0.000     2.259     2.350
 330   1 H      0.050  0.950  0.000  0.000     2.326     2.385
 331   1 H      0.042  0.958  0.000  0.000     2.421     2.433
 332   7 N     -0.166  1.245  3.921  0.000    24.598     7.366
 333   6 C      0.018  1.060  2.922  0.000    20.286     6.414
 334   6 C      0.212  1.086  2.702  0.000    23.513     7.941
 335   8 O     -0.358  1.753  4.605  0.000    20.865     6.124
 336   6 C      0.067  1.041  2.892  0.000    19.651     6.347
 337   8 O     -0.466  1.719  4.747  0.000    22.175     6.357
 338   1 H      0.212  0.788  0.000  0.000     1.046     1.602
 339   1 H      0.092  0.908  0.000  0.000     1.858     2.132
 340   1 H      0.061  0.939  0.000  0.000     2.183     2.310
 341   1 H      0.074  0.926  0.000  0.000     2.046     2.237
 342   1 H      0.348  0.652  0.000  0.000     0.592     1.209
 343   7 N     -0.391  1.310  4.081  0.000    30.125     8.152
 344   6 C      0.043  1.051  2.906  0.000    19.874     6.350
 345   6 C      0.196  1.099  2.705  0.000    23.825     7.994
 346   8 O     -0.386  1.758  4.628  0.000    21.403     6.203
 347   6 C     -0.065  1.056  3.010  0.000    21.749     6.639
 348   6 C     -0.102  1.057  3.045  0.000    22.443     6.744
 349   6 C      0.291  1.038  2.670  0.000    22.059     7.690
 350   8 O     -0.522  1.755  4.767  0.000    24.271     6.605
 351   7 N     -0.289  1.267  4.023  0.000    27.464     7.783
 352   1 H      0.175  0.825  0.000  0.000     1.241     1.745
 353   1 H      0.051  0.949  0.000  0.000     2.310     2.377
 354   1 H      0.071  0.929  0.000  0.000     2.078     2.254
 355   1 H      0.069  0.931  0.000  0.000     2.094     2.263
 356   1 H      0.083  0.917  0.000  0.000     1.945     2.181
 357   1 H      0.066  0.934  0.000  0.000     2.128     2.281
 358   1 H      0.234  0.766  0.000  0.000     0.947     1.525
 359   1 H      0.188  0.812  0.000  0.000     1.171     1.695
 360   7 N     -0.391  1.312  4.079  0.000    30.121     8.151
 361   6 C      0.043  1.056  2.902  0.000    19.878     6.351
 362   6 C      0.198  1.097  2.704  0.000    23.777     7.986
 363   8 O     -0.369  1.742  4.627  0.000    21.071     6.154
 364   6 C     -0.058  1.052  3.007  0.000    21.611     6.617
 365   6 C     -0.096  1.058  3.038  0.000    22.333     6.728
 366   6 C      0.362  1.025  2.613  0.000    20.858     7.474
 367   8 O     -0.588  1.769  4.819  0.000    25.820     6.813
 368   8 O     -0.566  1.753  4.813  0.000    25.264     6.741
 369   1 H      0.169  0.831  0.000  0.000     1.282     1.773
 370   1 H      0.043  0.957  0.000  0.000     2.412     2.429
 371   1 H      0.057  0.943  0.000  0.000     2.234     2.337
 372   1 H      0.045  0.955  0.000  0.000     2.381     2.413
 373   1 H      0.036  0.964  0.000  0.000     2.506     2.475
 374   1 H      0.051  0.949  0.000  0.000     2.311     2.378
 375   7 N     -0.393  1.313  4.080  0.000    30.189     8.160
 376   6 C      0.028  1.061  2.911  0.000    20.107     6.386
 377   6 C      0.276  1.047  2.677  0.000    22.325     7.738
 378   8 O     -0.497  1.748  4.749  0.000    23.715     6.529
 379   6 C     -0.022  1.063  2.958  0.000    20.923     6.506
 380   6 C     -0.125  1.040  3.085  0.000    22.948     6.830
 381   6 C     -0.122  1.041  3.081  0.000    22.896     6.822
 382   1 H      0.157  0.843  0.000  0.000     1.354     1.823
 383   1 H      0.036  0.964  0.000  0.000     2.497     2.471
 384   1 H      0.043  0.957  0.000  0.000     2.404     2.424
 385   1 H      0.059  0.941  0.000  0.000     2.215     2.327
 386   1 H      0.036  0.964  0.000  0.000     2.506     2.475
 387   1 H      0.043  0.957  0.000  0.000     2.407     2.426
 388   1 H      0.054  0.946  0.000  0.000     2.265     2.354
 389   1 H      0.049  0.951  0.000  0.000     2.333     2.389
 390   1 H      0.042  0.958  0.000  0.000     2.424     2.435
 391   7 N     -0.183  1.255  3.928  0.000    24.974     7.422
 392   6 C      0.033  1.056  2.911  0.000    20.020     6.371
 393   6 C      0.210  1.083  2.707  0.000    23.542     7.946
 394   8 O     -0.361  1.754  4.606  0.000    20.909     6.131
 395   6 C      0.076  1.039  2.885  0.000    19.504     6.324
 396   8 O     -0.481  1.719  4.762  0.000    22.482     6.401
 397   1 H      0.235  0.765  0.000  0.000     0.942     1.521
 398   1 H      0.079  0.921  0.000  0.000     1.986     2.204
 399   1 H      0.063  0.937  0.000  0.000     2.160     2.298
 400   1 H      0.043  0.957  0.000  0.000     2.414     2.430
 401   1 H      0.362  0.638  0.000  0.000     0.562     1.177
 402   7 N     -0.405  1.312  4.093  0.000    30.512     8.204
 403   6 C      0.050  1.054  2.897  0.000    19.763     6.333
 404   6 C      0.198  1.096  2.706  0.000    23.775     7.985
 405   8 O     -0.397  1.753  4.643  0.000    21.620     6.234
 406   6 C     -0.093  1.072  3.021  0.000    22.280     6.720
 407   6 C      0.367  1.026  2.607  0.000    20.774     7.459
 408   8 O     -0.599  1.736  4.864  0.000    26.103     6.850
 409   8 O     -0.591  1.762  4.829  0.000    25.899     6.823
 410   1 H      0.171  0.829  0.000  0.000     1.268     1.764
 411   1 H      0.056  0.944  0.000  0.000     2.244     2.343
 412   1 H      0.040  0.960  0.000  0.000     2.443     2.444
 413   1 H      0.026  0.974  0.000  0.000     2.644     2.543
 414   7 N     -0.403  1.313  4.090  0.000    30.469     8.198
 415   6 C      0.036  1.061  2.903  0.000    19.977     6.366
 416   6 C      0.202  1.092  2.706  0.000    23.700     7.973
 417   8 O     -0.379  1.752  4.627  0.000    21.262     6.182
 418   6 C     -0.015  1.065  2.950  0.000    20.802     6.487
 419   6 C     -0.123  1.042  3.081  0.000    22.915     6.825
 420   6 C     -0.110  1.038  3.071  0.000    22.651     6.786
 421   1 H      0.181  0.819  0.000  0.000     1.208     1.722
 422   1 H      0.044  0.956  0.000  0.000     2.390     2.418
 423   1 H      0.046  0.954  0.000  0.000     2.373     2.409
 424   1 H      0.065  0.935  0.000  0.000     2.143     2.289
 425   1 H      0.040  0.960  0.000  0.000     2.450     2.448
 426   1 H      0.047  0.953  0.000  0.000     2.352     2.399
 427   1 H      0.054  0.946  0.000  0.000     2.274     2.358
 428   1 H      0.029  0.971  0.000  0.000     2.600     2.521
 429   1 H      0.036  0.964  0.000  0.000     2.499     2.472
 430   1 H      0.173  0.827  0.000  0.000     1.252     1.752
 431   1 H      0.082  0.918  0.000  0.000     1.954     2.186
 432   1 H      0.184  0.816  0.000  0.000     1.193     1.711
 433   1 H      0.081  0.919  0.000  0.000     1.969     2.194
 434   1 H      0.182  0.818  0.000  0.000     1.202     1.718
 435   1 H      0.086  0.914  0.000  0.000     1.914     2.163
 436   1 H      0.185  0.815  0.000  0.000     1.185     1.705
 437   1 H      0.078  0.922  0.000  0.000     2.000     2.212
 438   1 H      0.182  0.818  0.000  0.000     1.203     1.718
 439   1 H      0.072  0.928  0.000  0.000     2.060     2.244
 440   1 H      0.178  0.822  0.000  0.000     1.225     1.733
 441   1 H      0.063  0.937  0.000  0.000     2.169     2.303
 442   1 H      0.169  0.831  0.000  0.000     1.276     1.769
 443   1 H      0.069  0.931  0.000  0.000     2.092     2.262

 Mol. C6AA /au·bohr⁶  :    1801783.188423
 Mol. C8AA /au·bohr⁸  :   40278536.030158
 Mol. α(0) /au        :       2016.704507

 
molecular dipole:
                 x           y           z       tot (Debye)
 q only:       70.709      10.005      64.476
   full:       69.191      10.421      62.256     238.059
molecular quadrupole (traceless):
                xx          xy          yy          xz          yz          zz
 q only:     1956.904    1041.107   -4180.992    7445.739     867.832    2224.088
  q+dip:     2015.045    1025.439   -3928.419    7103.264     888.017    1913.374
   full:     2019.390    1034.055   -3924.909    7101.614     887.476    1905.519
speedup  1.00
cpu  time for grad   10.12 s
wall time for grad   10.12 s

SCC energy    :    -690.2325310
rep           :       8.2771285
ES            :       2.3258463
AES           :      -0.1316065
AXC           :       0.2221474
disp          :      -0.5506919
XB            :       0.0000000
fix           :       0.0000000
Gborn         :       0.0000000
Gsasa         :       0.0000000
Ghb           :       0.0000000
Gshift        :       0.0000000
Gsolv         :      -0.6431636     -403.59
Etot ala COSMO:    -690.2325310
grad norm     :       0.5887835
total E       :    -681.9066673
atomizationE  :     122.7568885    77031.11
(atE without considering molecular charge,
 total energy contains solvation terms)
H-L gap (eV)  :          1.6597

------------------------------------------------------------------------
 * finished run on 2019/03/18 at 01:30:04.996     
------------------------------------------------------------------------
 total:
 * wall-time:     0 d,  0 h,  0 min, 10.798 sec
 *  cpu-time:     0 d,  0 h,  0 min, 10.749 sec
 * ratio c/w:     0.995 speedup
 SCF:
 * wall-time:     0 d,  0 h,  0 min, 10.581 sec
 *  cpu-time:     0 d,  0 h,  0 min, 10.577 sec
 * ratio c/w:     1.000 speedup

