      -----------------------------------------------------------      
     |                   =====================                   |     
     |                           x T B                           |     
     |                   =====================                   |     
     |                         S. Grimme                         |     
     |          Mulliken Center for Theoretical Chemistry        |     
     |                    University of Bonn                     |     
     |                 Version 6.0.1 (SAW181210)                 |     
      -----------------------------------------------------------      

   This program is distributed in the hope that it will be useful,
   but WITHOUT ANY WARRANTY; without even the implied warranty of
   MERCHANTABILITY or FITNESS FOR A PARTICULAR PURPOSE.
   
   FOR NON-COMMERCIAL, ACADEMIA USE ONLY.
   
   Cite this work as:
   S. Grimme, C. Bannwarth, P. Shushkov, J. Comput. Theory Chem., 2017,
   13, 1989-2009.
   C. Bannwarth, S. Ehlert and S. Grimme., ChemRxiv, 2018, preprint.
   http://doi.org/10.26434/chemrxiv.7246238.v1
   
   for sTDA-xTB:
   S. Grimme and C. Bannwarth, J. Chem. Phys., 2016, 145, 054103.
   
   in the mass-spec context:
   V. Asgeirsson, C. Bauer and S. Grimme, Chem. Sci., 2017, 8, 4879.
   
   if GBSA is used:
   P. Shushkov, F. März and S. Grimme, unpublished.
   
   for ANC optimizer:
   S. Grimme, unpublished.
   Rational Function algorithm used in ANCopt:
   F. Eckert, P. Pulay, H.-J. Werner, J. Comput. Chem., 1997, 18, 1473.
   
   with help from (in alphabetical order)
   C. Bannwarth, F. Bohle, G. Brandenburg, E. Caldeweyher, M. Checinski,
   S. Dohm, S. Ehlert, S. Ehrlich, F. März, H. Neugebauer, J. Pisarek,
   P. Pracht, P. Shushkov, and S. Spicher.
   
 * started run on 2019/05/07 at 23:36:05.886     
========================================================================
 # omp threads = 2
========================================================================
number of atoms            : 325
number of electrons        : 838
charge                     : 2
spin                       : .0
first test random number   : .4534

########################################################################
# WARNING! Please study the warnings concerning your input carefully
#  - Process number higher than OMP_NUM_THREADS, I hope you know what you are doing.
########################################################################

           ------------------------------------------------- 
          |                 G F N 2 - x T B                 |
          | Geometry, Frequencies, Noncovalent interactions |
          |            JCTC 2018 parametrisation            |
           ------------------------------------------------- 
 
      method parameters     
 k(s)        :  1.8500
 k(p)        :  2.2300
 k(d)        :  2.2300
 k(f)        :  2.0000
 kEN (H0ij)  : -2.0000
 D4 a1       :  0.5200
 D4 a2       :  5.0000
 D4 s6       :  1.0000
 D4 s8       :  2.7000
 D4 s9       :  5.0000
 alphaj      :  2.0000

 Solvent             : h2o
 Using internal parameter file: .param_gbsa2_h2o
 Gsolv ref. state (COSMO-RS): gsolv [1 M gas/solution]
 temperature (mdtemp)       :    298.150000000000     
 dielectric constant        :    80.2000000000000     
 rho                        :    1.00000000000000     
 mass                       :    18.0000000000000     
 surface tension            :    15.5689454083859     
 probe radius               :   0.975313790000000     
 vdW radii scaling          :    1.00000000000000     
 Gshift (Eh)                :   1.857443126794793E-003
 c1                         :    1.55243817000000     
 soset                      :   0.130326360000000     
 HB correction              :  T

            Z     q(EN)     CN     RAES       Cart. coordinates
     1  N   5.0   -0.18    3.29    1.98    64.88120    45.46480   157.79122
     2  C   4.0    0.03    4.49    4.52    65.19918    46.82229   155.44254
     3  C   4.0    0.16    3.52    3.13    63.16797    48.80593   154.98704
     4  O   6.0   -0.29    1.32    1.80    61.40866    49.05027   156.43617
     5  C   4.0   -0.02    4.45    4.46    64.89878    44.81245   153.41314
     6  C   4.0   -0.05    4.17    3.93    66.31636    45.46988   150.99863
     7  C   4.0   -0.06    4.23    4.06    62.06193    44.20169   153.28620
     8  C   4.0   -0.07    4.07    3.74    69.00347    46.28548   151.67323
     9  H   1.0    0.09    1.04    1.43    64.00065    43.77526   157.69474
    10  H   1.0    0.04    1.06    1.44    67.04382    47.73754   155.52544
    11  H   1.0    0.05    1.08    1.44    65.85048    43.13104   154.14022
    12  H   1.0    0.04    1.03    1.43    66.42212    43.76633   149.85144
    13  H   1.0    0.04    1.02    1.43    65.35995    46.87990   149.83867
    14  H   1.0    0.05    1.00    1.43    61.79914    42.17234   153.16371
    15  H   1.0    0.08    1.03    1.43    61.13178    44.82886   155.00635
    16  H   1.0    0.07    1.03    1.43    61.13796    45.17656   151.74628
    17  H   1.0    0.05    1.00    1.43    70.21380    46.15708   150.01450
    18  H   1.0    0.04    1.00    1.43    69.08199    48.22454   152.33988
    19  H   1.0    0.05    1.00    1.43    69.76167    45.04045   153.11850
    20  N   5.0   -0.14    3.37    2.01    63.36357    50.25557   152.89484
    21  C   4.0    0.02    4.27    4.14    61.22265    51.79736   152.16980
    22  C   4.0    0.15    3.28    3.05    59.26403    50.26552   150.64964
    23  O   6.0   -0.31    1.26    1.80    58.89206    48.02457   151.00245
    24  H   1.0    0.07    1.07    1.44    64.68454    49.87266   151.58215
    25  H   1.0    0.06    1.04    1.43    60.31825    52.40431   153.92728
    26  H   1.0    0.04    1.02    1.43    61.87928    53.42768   151.09852
    27  N   5.0   -0.14    3.47    2.06    58.02024    51.65763   148.92339
    28  C   4.0    0.04    4.36    4.31    56.55525    50.75342   146.77413
    29  C   4.0    0.14    3.57    3.15    55.72896    53.18741   145.42195
    30  O   6.0   -0.29    1.38    1.80    55.44819    55.14908   146.63377
    31  C   4.0    0.04    4.11    3.82    54.28599    49.03722   147.47372
    32  O   6.0   -0.27    2.08    1.84    54.06808    47.09287   145.65150
    33  H   1.0    0.10    1.10    1.44    58.22995    53.56168   148.94674
    34  H   1.0    0.05    1.05    1.44    57.79303    49.63099   145.54773
    35  H   1.0    0.06    1.02    1.43    54.66399    48.24961   149.34667
    36  H   1.0    0.04    1.01    1.43    52.53801    50.15117   147.54868
    37  H   1.0    0.12    1.02    1.43    53.07889    45.72466   146.32866
    38  N   5.0   -0.10    3.68    2.24    55.44939    53.05840   142.94104
    39  C   4.0    0.03    4.63    4.70    54.77623    55.24445   141.41355
    40  C   4.0    0.18    3.47    3.10    54.61181    57.67124   142.93267
    41  O   6.0   -0.28    1.25    1.80    56.50706    58.93426   143.28801
    42  C   4.0   -0.05    4.34    4.28    52.38959    54.41189   139.91894
    43  C   4.0   -0.04    4.27    4.13    51.91550    51.70009   140.82541
    44  C   4.0   -0.01    4.44    4.45    54.58255    50.85262   141.57556
    45  H   1.0    0.05    1.06    1.44    56.36078    55.55527   140.11168
    46  H   1.0    0.04    1.03    1.43    50.75452    55.63228   140.12632
    47  H   1.0    0.04    1.02    1.43    52.84530    54.40474   137.91133
    48  H   1.0    0.04    1.02    1.43    50.70117    51.64944   142.48584
    49  H   1.0    0.04    1.02    1.43    51.09987    50.50905   139.36705
    50  H   1.0    0.06    1.06    1.44    54.61624    49.14038   142.68996
    51  H   1.0    0.04    1.02    1.43    55.76762    50.59167   139.90325
    52  N   5.0   -0.14    3.48    2.06    52.21442    58.22868   143.58669
    53  C   4.0    0.03    4.28    4.17    51.07052    60.51412   144.63685
    54  C   4.0    0.16    3.41    3.08    50.48938    62.28851   142.38268
    55  O   6.0   -0.29    1.26    1.80    51.87075    63.97848   141.65104
    56  C   4.0    0.05    4.10    3.80    52.56528    61.69405   146.86442
    57  O   6.0   -0.24    2.10    1.84    54.83918    62.91324   146.27318
    58  H   1.0    0.07    1.10    1.44    50.95501    56.83409   143.28288
    59  H   1.0    0.04    1.06    1.44    49.25772    59.92856   145.43963
    60  H   1.0    0.05    1.02    1.43    51.35833    63.11302   147.75178
    61  H   1.0    0.06    1.01    1.43    52.93653    60.17574   148.22811
    62  H   1.0    0.16    1.06    1.44    55.91449    61.71925   145.35384
    63  N   5.0   -0.14    3.47    2.06    48.34861    61.66311   141.14447
    64  C   4.0    0.03    4.51    4.55    47.51297    63.34955   139.12942
    65  C   4.0    0.17    3.46    3.10    46.95039    65.91509   140.37748
    66  O   6.0   -0.28    1.26    1.80    45.37154    66.07884   142.04233
    67  C   4.0   -0.02    4.23    4.06    45.17771    62.37289   137.67569
    68  C   4.0   -0.07    4.07    3.75    45.89607    60.42698   135.64308
    69  C   4.0   -0.06    4.12    3.84    43.16279    61.33405   139.46929
    70  H   1.0    0.07    1.07    1.44    46.97578    60.64021   141.98330
    71  H   1.0    0.05    1.06    1.44    49.09404    63.55237   137.80944
    72  H   1.0    0.06    1.06    1.44    44.38274    64.03315   136.72613
    73  H   1.0    0.05    1.00    1.43    44.20207    59.78498   134.67840
    74  H   1.0    0.05    1.00    1.43    47.15321    61.26246   134.25146
    75  H   1.0    0.05    1.00    1.43    46.82679    58.80449   136.48990
    76  H   1.0    0.06    1.00    1.43    41.37493    61.18497   138.46598
    77  H   1.0    0.04    1.00    1.43    43.64923    59.45151   140.13418
    78  H   1.0    0.07    1.01    1.43    42.88657    62.60908   141.05587
    79  N   5.0   -0.12    3.44    2.04    48.40397    67.83073   139.63029
    80  C   4.0    0.04    4.36    4.32    48.48371    70.35201   140.73819
    81  C   4.0    0.16    3.47    3.10    45.81449    71.28987   141.53241
    82  O   6.0   -0.25    1.24    1.80    43.97709    70.92814   140.17368
    83  C   4.0   -0.04    4.23    4.06    49.67580    72.18778   138.79361
    84  C   4.0   -0.04    4.14    3.88    51.95218    73.72334   139.73067
    85  C   4.0   -0.00    4.17    3.93    54.13941    72.15791   140.83329
    86  N   5.0   -0.14    3.38    2.01    53.95653    71.91785   143.57688
    87  C   4.0    0.10    3.32    3.06    54.40526    69.89147   145.01454
    88  N   5.0   -0.16    3.27    1.97    55.01873    67.67376   144.04098
    89  N   5.0   -0.18    3.24    1.96    54.17965    70.10413   147.53192
    90  H   1.0    0.08    1.08    1.44    49.74931    67.47815   138.32386
    91  H   1.0    0.05    1.07    1.44    49.66180    70.23910   142.42920
    92  H   1.0    0.05    1.04    1.43    50.27475    71.09106   137.15444
    93  H   1.0    0.07    1.03    1.43    48.22797    73.49968   138.13936
    94  H   1.0    0.05    1.03    1.43    52.66597    74.75815   138.09980
    95  H   1.0    0.05    1.02    1.43    51.35031    75.13758   141.10402
    96  H   1.0    0.05    1.03    1.43    54.18183    70.29519   139.96323
    97  H   1.0    0.06    1.02    1.43    55.92097    73.11405   140.40211
    98  H   1.0    0.08    1.07    1.44    53.69039    73.59088   144.46571
    99  H   1.0    0.11    1.04    1.43    54.83003    67.32975   142.17763
   100  H   1.0    0.12    1.08    1.44    55.04076    66.07961   145.12986
   101  H   1.0    0.09    1.03    1.43    54.08564    71.81579   148.35917
   102  H   1.0    0.10    1.03    1.43    54.71244    68.63405   148.61900
   103  N   5.0   -0.09    3.61    2.17    45.71263    72.65575   143.69158
   104  C   4.0    0.04    4.50    4.54    43.36692    73.58645   144.78173
   105  C   4.0    0.10    3.27    3.05    41.53597    74.72606   142.95181
   106  O   6.0   -0.24    1.13    1.80    42.17654    76.12122   141.20986
   107  C   4.0   -0.03    4.38    4.35    44.20578    75.70958   146.56586
   108  C   4.0   -0.04    4.26    4.11    46.62126    74.60291   147.67474
   109  C   4.0   -0.01    4.37    4.32    47.81533    73.28853   145.39213
   110  H   1.0    0.05    1.05    1.44    42.41623    72.07291   145.83794
   111  H   1.0    0.07    1.03    1.43    44.64573    77.39378   145.46174
   112  H   1.0    0.05    1.02    1.43    42.77159    76.13414   147.97693
   113  H   1.0    0.05    1.02    1.43    47.85360    76.04618   148.45903
   114  H   1.0    0.05    1.02    1.43    46.13556    73.25252   149.15249
   115  H   1.0    0.04    1.02    1.43    49.07951    74.61152   144.43839
   116  H   1.0    0.05    1.02    1.43    48.82473    71.58719   145.97343
   117  N   5.0   -0.18    3.25    1.97    38.69049    60.96808   153.09713
   118  C   4.0    0.03    4.24    4.08    40.47334    59.80412   154.86452
   119  C   4.0    0.09    3.24    3.04    42.23830    61.89712   155.75760
   120  O   6.0   -0.29    1.14    1.80    42.95935    63.57959   154.34901
   121  C   4.0   -0.04    4.27    4.14    41.96225    57.68316   153.57610
   122  C   4.0   -0.04    4.19    3.99    44.01694    56.59770   155.24143
   123  C   4.0   -0.00    4.19    3.98    45.03834    54.04196   154.34891
   124  N   5.0   -0.14    3.38    2.01    46.32777    54.06553   151.94271
   125  C   4.0    0.09    3.33    3.06    48.49580    55.24474   151.38950
   126  N   5.0   -0.18    3.26    1.97    49.61590    56.77483   153.03321
   127  N   5.0   -0.19    3.23    1.96    49.53945    54.95153   149.09881
   128  H   1.0    0.09    1.03    1.43    38.97559    60.63356   151.23961
   129  H   1.0    0.05    1.06    1.44    39.42105    59.07432   156.48595
   130  H   1.0    0.05    1.05    1.44    40.65970    56.18485   153.05187
   131  H   1.0    0.05    1.03    1.43    42.81257    58.47759   151.86890
   132  H   1.0    0.05    1.03    1.43    45.49517    58.01377   155.46506
   133  H   1.0    0.05    1.03    1.43    43.21599    56.27420   157.12071
   134  H   1.0    0.05    1.03    1.43    46.33036    53.29351   155.77275
   135  H   1.0    0.07    1.04    1.43    43.46419    52.72069   154.17705
   136  H   1.0    0.08    1.07    1.44    45.68292    52.77347   150.69658
   137  H   1.0    0.09    1.03    1.43    49.02889    56.96000   154.82872
   138  H   1.0    0.10    1.03    1.43    51.27647    57.61951   152.63237
   139  H   1.0    0.08    1.03    1.43    48.68330    53.92415   147.74655
   140  H   1.0    0.10    1.03    1.43    51.19507    55.80294   148.67262
   141  N   5.0   -0.15    3.42    2.03    47.95071    65.63171   157.06285
   142  C   4.0    0.03    4.37    4.32    50.07301    65.82503   155.31758
   143  C   4.0    0.09    3.18    3.03    52.17771    63.92858   155.95010
   144  O   6.0   -0.28    1.12    1.80    53.25576    62.81320   154.24997
   145  C   4.0   -0.04    4.31    4.21    50.95133    68.59048   155.51039
   146  C   4.0   -0.04    4.25    4.10    49.39726    69.73774   157.66651
   147  C   4.0   -0.00    4.36    4.31    47.00192    68.14905   157.68460
   148  H   1.0    0.05    1.05    1.44    49.43627    65.35917   153.40141
   149  H   1.0    0.05    1.02    1.43    52.96912    68.70590   155.87926
   150  H   1.0    0.04    1.02    1.43    50.55676    69.56894   153.74465
   151  H   1.0    0.05    1.02    1.43    50.35874    69.53120   159.47695
   152  H   1.0    0.05    1.02    1.43    48.99580    71.72664   157.35873
   153  H   1.0    0.06    1.02    1.43    46.07767    68.22224   159.51160
   154  H   1.0    0.05    1.02    1.43    45.67307    68.75034   156.21588
   155  N   5.0   -0.21    3.19    1.95    53.33089    51.94712   160.33410
   156  C   4.0    0.04    4.23    4.06    55.13031    50.14249   159.37271
   157  C   4.0    0.10    3.22    3.04    54.36633    47.37351   159.64813
   158  O   6.0   -0.26    1.13    1.80    55.68659    45.71822   158.72279
   159  C   4.0    0.06    4.22    4.04    57.86144    50.38533   160.53355
   160  O   6.0   -0.22    2.10    1.84    58.29302    48.77712   162.63742
   161  C   4.0   -0.06    4.08    3.76    58.56370    53.13589   161.03023
   162  H   1.0    0.09    1.02    1.43    52.76646    51.76114   162.14715
   163  H   1.0    0.05    1.06    1.44    55.30828    50.58915   157.36052
   164  H   1.0    0.09    1.09    1.44    59.14751    49.59939   159.13326
   165  H   1.0    0.13    1.02    1.43    57.66475    49.58561   164.15030
   166  H   1.0    0.06    1.00    1.43    60.55921    53.25571   161.51513
   167  H   1.0    0.05    1.00    1.43    58.22342    54.28050   159.36965
   168  H   1.0    0.05    1.00    1.43    57.47439    53.91418   162.59100
   169  N   5.0   -0.14    3.42    2.03    43.98523    44.83980   153.64103
   170  C   4.0    0.02    4.49    4.52    43.66507    45.57532   150.98602
   171  C   4.0    0.14    3.48    3.11    42.33465    48.12714   150.73262
   172  O   6.0   -0.29    1.25    1.80    41.52683    49.34771   152.51366
   173  C   4.0   -0.04    4.32    4.24    41.95991    43.53736   149.80421
   174  C   4.0   -0.03    4.25    4.11    40.45625    42.59644   152.11152
   175  C   4.0    0.00    4.23    4.05    42.29295    42.79672   154.35698
   176  H   1.0    0.04    1.05    1.44    45.54429    45.69790   150.13840
   177  H   1.0    0.06    1.03    1.43    40.73579    44.30767   148.34838
   178  H   1.0    0.05    1.02    1.43    43.10480    42.01665   149.02677
   179  H   1.0    0.06    1.02    1.43    38.85177    43.84338   152.45072
   180  H   1.0    0.05    1.02    1.43    39.78270    40.67502   151.86729
   181  H   1.0    0.06    1.02    1.43    41.24076    43.21916   156.07204
   182  H   1.0    0.05    1.02    1.43    43.40039    41.07018   154.61013
   183  N   5.0   -0.09    3.78    2.39    42.02229    48.86689   148.31828
   184  C   4.0    0.03    4.64    4.71    40.58519    51.14230   147.74989
   185  C   4.0    0.15    3.43    3.09    38.17939    50.22208   146.43333
   186  O   6.0   -0.29    1.25    1.80    37.78896    47.99206   145.96487
   187  C   4.0   -0.05    4.27    4.13    42.36719    52.82096   146.16549
   188  C   4.0   -0.05    4.27    4.13    44.60695    51.04056   145.61333
   189  C   4.0   -0.01    4.40    4.38    43.54348    48.36787   146.11203
   190  H   1.0    0.07    1.08    1.44    40.03070    51.98407   149.55076
   191  H   1.0    0.05    1.02    1.43    41.44513    53.38825   144.41537
   192  H   1.0    0.04    1.02    1.43    42.92328    54.50187   147.20602
   193  H   1.0    0.04    1.02    1.43    45.29644    51.22768   143.68677
   194  H   1.0    0.04    1.03    1.43    46.15512    51.34122   146.93373
   195  H   1.0    0.06    1.02    1.43    42.31942    47.73971   144.57290
   196  H   1.0    0.04    1.02    1.43    44.99104    46.95464   146.43761
   197  N   5.0   -0.14    3.46    2.05    36.47979    52.07731   146.07966
   198  C   4.0    0.04    4.34    4.27    33.94262    51.49068   145.31130
   199  C   4.0    0.09    3.23    3.04    33.52880    51.92572   142.51652
   200  O   6.0   -0.26    1.12    1.80    34.48843    53.63143   141.27693
   201  C   4.0   -0.04    4.37    4.34    31.99303    53.04666   146.76873
   202  C   4.0   -0.02    4.18    3.96    31.32208    51.91817   149.34509
   203  C   4.0   -0.07    4.12    3.85    29.79192    53.88480   150.78345
   204  C   4.0   -0.06    4.11    3.81    29.80203    49.48708   149.07608
   205  H   1.0    0.08    1.06    1.44    37.01271    53.90252   146.15469
   206  H   1.0    0.06    1.08    1.44    33.70163    49.47431   145.70517
   207  H   1.0    0.05    1.03    1.43    32.73053    54.95995   146.99486
   208  H   1.0    0.05    1.04    1.43    30.27598    53.21413   145.64210
   209  H   1.0    0.05    1.05    1.44    33.06651    51.49267   150.37673
   210  H   1.0    0.05    1.00    1.43    29.24217    53.16583   152.62564
   211  H   1.0    0.05    1.00    1.43    30.91567    55.57789   151.06761
   212  H   1.0    0.05    1.00    1.43    28.10551    54.39502   149.73267
   213  H   1.0    0.05    1.00    1.43    29.32773    48.72183   150.92235
   214  H   1.0    0.05    1.00    1.43    28.05678    49.85256   148.05434
   215  H   1.0    0.05    1.00    1.43    30.83541    48.02898   148.05890
   216  N   5.0   -0.18    3.25    1.97    35.81782    61.38106   161.23807
   217  C   4.0    0.04    4.25    4.11    35.91932    59.13503   162.77860
   218  C   4.0    0.09    3.22    3.04    38.63157    58.29163   163.20520
   219  O   6.0   -0.29    1.13    1.80    40.27776    58.54593   161.60330
   220  C   4.0   -0.03    4.36    4.30    34.22869    57.08614   161.68748
   221  C   4.0   -0.00    3.61    3.17    35.24529    56.04535   159.28111
   222  C   4.0   -0.04    3.51    3.12    34.98458    57.47789   157.10055
   223  C   4.0   -0.03    3.45    3.09    36.38659    53.67682   159.18952
   224  C   4.0   -0.05    3.50    3.11    35.77429    56.54295   154.80376
   225  C   4.0   -0.03    3.42    3.08    37.23302    52.74351   156.91279
   226  C   4.0    0.07    3.48    3.10    36.89553    54.17037   154.70953
   227  O   6.0   -0.24    2.14    1.85    37.57210    53.16854   152.42464
   228  H   1.0    0.10    1.02    1.43    36.94698    61.59636   159.71545
   229  H   1.0    0.05    1.06    1.44    35.13757    59.66276   164.62382
   230  H   1.0    0.05    1.03    1.43    34.01913    55.60408   163.09695
   231  H   1.0    0.05    1.04    1.43    32.38836    57.95278   161.36010
   232  H   1.0    0.05    1.03    1.43    34.07579    59.30080   157.19221
   233  H   1.0    0.06    1.03    1.43    36.53775    52.58588   160.90675
   234  H   1.0    0.05    1.04    1.43    35.45278    57.61971   153.10209
   235  H   1.0    0.07    1.03    1.43    38.11031    50.91193   156.74608
   236  H   1.0    0.11    1.04    1.43    36.79911    54.17487   151.10557
   237  N   5.0   -0.14    3.39    2.02    60.37188    38.53464   148.76457
   238  C   4.0    0.03    4.35    4.29    57.99969    37.73699   147.56394
   239  C   4.0    0.09    3.20    3.04    58.44523    35.97012   145.29929
   240  O   6.0   -0.27    1.12    1.80    60.19445    36.29986   143.81712
   241  C   4.0   -0.04    4.33    4.26    56.79270    40.18855   146.51386
   242  C   4.0   -0.04    4.24    4.07    58.27420    42.34057   147.72380
   243  C   4.0   -0.00    4.28    4.17    60.87057    41.17443   148.11634
   244  H   1.0    0.05    1.04    1.43    56.80566    36.76910   148.94145
   245  H   1.0    0.05    1.03    1.43    57.02198    40.22418   144.46527
   246  H   1.0    0.04    1.02    1.43    54.77299    40.22695   146.86399
   247  H   1.0    0.05    1.02    1.43    58.34001    44.00752   146.52775
   248  H   1.0    0.05    1.02    1.43    57.45149    42.88984   149.52784
   249  H   1.0    0.05    1.02    1.43    61.95442    41.22617   146.35066
   250  H   1.0    0.04    1.05    1.44    61.95085    42.11774   149.56864
   251  N   5.0   -0.17    3.24    1.96    58.85508    39.92035   138.47529
   252  C   4.0    0.04    4.21    4.03    60.65274    41.95283   138.08531
   253  C   4.0    0.10    3.21    3.04    62.34779    41.28045   135.80891
   254  O   6.0   -0.24    1.13    1.80    63.32890    39.17215   135.66965
   255  C   4.0   -0.04    4.39    4.37    62.27535    42.12729   140.45769
   256  C   4.0   -0.02    4.18    3.95    63.80482    44.55564   140.72415
   257  C   4.0   -0.07    4.11    3.81    62.09837    46.78368   141.39198
   258  C   4.0   -0.07    4.11    3.83    65.77842    44.15326   142.79117
   259  H   1.0    0.11    1.03    1.43    59.25941    38.51873   139.71154
   260  H   1.0    0.05    1.05    1.44    59.59907    43.68162   137.69064
   261  H   1.0    0.04    1.04    1.43    61.02016    41.92813   142.08296
   262  H   1.0    0.07    1.04    1.43    63.53898    40.49589   140.44703
   263  H   1.0    0.05    1.05    1.44    64.76450    44.94298   138.93427
   264  H   1.0    0.04    1.00    1.43    63.21372    48.47549   141.72549
   265  H   1.0    0.06    1.01    1.43    60.78324    47.16417   139.86454
   266  H   1.0    0.04    1.00    1.43    61.01065    46.36884   143.08636
   267  H   1.0    0.04    1.00    1.43    66.94456    45.83510   142.98584
   268  H   1.0    0.04    1.00    1.43    64.83802    43.81082   144.58219
   269  H   1.0    0.05    1.00    1.43    66.99465    42.56396   142.33974
   270  N   5.0   -0.19    3.22    1.96    69.21940    50.23561   133.27191
   271  C   4.0    0.03    4.19    3.97    68.24596    51.29664   135.60645
   272  C   4.0    0.09    3.20    3.04    70.14975    50.50786   137.68603
   273  O   6.0   -0.30    1.17    1.80    71.24252    52.06563   139.01548
   274  C   4.0   -0.04    4.25    4.10    65.58849    50.29272   136.14933
   275  C   4.0   -0.03    4.18    3.96    63.46467    51.34804   134.49337
   276  C   4.0    0.15    3.20    3.04    60.98925    49.87046   134.80264
   277  O   6.0   -0.31    1.22    1.80    60.80544    47.71228   135.63330
   278  N   5.0   -0.18    3.19    1.95    58.92171    51.10238   134.03791
   279  H   1.0    0.09    1.03    1.43    68.11505    48.94303   132.39095
   280  H   1.0    0.06    1.05    1.44    68.26871    53.36536   135.50381
   281  H   1.0    0.05    1.03    1.43    65.61013    48.23955   135.94756
   282  H   1.0    0.04    1.03    1.43    65.15801    50.71093   138.12237
   283  H   1.0    0.05    1.03    1.43    63.11800    53.32773   134.93799
   284  H   1.0    0.05    1.03    1.43    63.99934    51.21321   132.50446
   285  H   1.0    0.09    1.03    1.43    58.98992    52.86718   133.33143
   286  H   1.0    0.10    1.03    1.43    57.24708    50.19648   134.12872
   287  N   5.0   -0.19    3.23    1.96    74.59491    54.75794   142.37566
   288  C   4.0    0.04    4.34    4.28    74.42057    54.69643   145.10116
   289  C   4.0    0.10    3.24    3.04    77.03018    54.16750   146.20116
   290  O   6.0   -0.26    1.12    1.80    77.75078    55.22070   148.12276
   291  C   4.0   -0.02    4.34    4.28    72.48194    52.82509   146.15053
   292  C   4.0   -0.04    4.22    4.03    69.98721    52.93843   144.71496
   293  C   4.0   -0.06    4.19    3.97    72.08350    53.55636   148.88544
   294  C   4.0   -0.08    4.03    3.67    67.98045    51.20571   145.81332
   295  H   1.0    0.12    1.05    1.44    73.73817    53.41439   141.32585
   296  H   1.0    0.06    1.06    1.44    73.90778    56.60770   145.73167
   297  H   1.0    0.05    1.05    1.44    73.26370    50.91431   146.00347
   298  H   1.0    0.05    1.03    1.43    69.29314    54.88364   144.71464
   299  H   1.0    0.07    1.05    1.44    70.29939    52.40946   142.75380
   300  H   1.0    0.04    1.00    1.43    71.17359    52.04171   149.93093
   301  H   1.0    0.07    1.02    1.43    73.87720    53.97675   149.79024
   302  H   1.0    0.05    1.00    1.43    70.90300    55.23474   149.00071
   303  H   1.0    0.04    1.00    1.43    66.34281    51.13476   144.57161
   304  H   1.0    0.04    1.00    1.43    68.71278    49.29759   146.03335
   305  H   1.0    0.04    1.00    1.43    67.34998    51.87803   147.64710
   306  H   1.0    0.10    1.07    1.44    66.40586    45.15042   158.47615
   307  H   1.0    0.07    1.05    1.44    39.68849    74.36335   143.11404
   308  H   1.0    0.09    1.10    1.44    37.11795    60.41089   153.42762
   309  H   1.0    0.06    1.05    1.44    42.84373    61.92288   157.54753
   310  H   1.0    0.11    1.21    1.47    46.53906    65.24010   156.19889
   311  H   1.0    0.06    1.04    1.43    52.65686    63.61470   157.75092
   312  H   1.0    0.10    1.08    1.44    53.98689    53.51289   160.23124
   313  H   1.0    0.06    1.04    1.44    52.78918    46.91705   160.58371
   314  H   1.0    0.09    1.10    1.44    45.64095    44.65575   153.98345
   315  H   1.0    0.07    1.05    1.44    32.39666    50.77160   141.53808
   316  H   1.0    0.09    1.08    1.44    34.25532    61.55423   160.58909
   317  H   1.0    0.06    1.05    1.44    39.12624    57.49441   164.84557
   318  H   1.0    0.09    1.10    1.44    60.38355    38.03063   150.38889
   319  H   1.0    0.07    1.04    1.44    57.29091    34.50339   145.00378
   320  H   1.0    0.09    1.07    1.44    57.38654    40.56264   139.04399
   321  H   1.0    0.07    1.04    1.43    62.65018    42.55507   134.44694
   322  H   1.0    0.11    1.07    1.44    69.46469    51.48178   132.14079
   323  H   1.0    0.06    1.04    1.44    70.52306    48.67897   137.98077
   324  H   1.0    0.11    1.07    1.44    73.92838    56.21163   141.79680
   325  H   1.0    0.07    1.05    1.44    78.18457    52.93939   145.34664

  Z AO/shell   Hii/eV     exponent
  1     Wed Apr 25 08:07:45 CEST 2018   EN: 2.200 GM2: 0.406  GM3: 0.0800  RAES: 1.40
     1s    -10.707211    1.230000
  6     Wed Apr 25 08:07:45 CEST 2018   EN: 2.550 GM2: 0.538  GM3: 0.1500  RAES: 3.00
     2s    -13.970922    2.096432
     2p    -10.063292    1.800000
  7     Wed Apr 25 08:07:45 CEST 2018   EN: 3.040 GM2: 0.461  GM3:-0.0640  RAES: 1.90
     2s    -16.686243    2.339881
     2p    -12.523956    2.014332
  8     Wed Apr 25 08:07:45 CEST 2018   EN: 3.440 GM2: 0.452  GM3:-0.0517  RAES: 1.80
     2s    -20.229985    2.439742
     2p    -15.503117    2.137023
 no old-style atom pair restraining (fixing) potential

molecular fragmentation (1/2 indicates fragments):
111111111111111111111111111111111111111111111111111111111111111111111111
111111111111111111111111111111111111111111112222222222222222222222222222
222222222222222222222222222222222222222222222222222222222222222222222222
222222222222222222222222222222222222222222222222222222222222222222222222
2222222222222222211222222222222222222
# atoms in fragment 1/2:   118   207
 fragment masses (1/2) :      796.94     1295.69
CMA distance (Bohr)    :   9.713
constraining FC (au)   :  0.0500
           ------------------------------------------------- 
          |        Self-Consistent Charge Iterations        |
           ------------------------------------------------- 

 Ncao       : 766
 Nao        : 766
 Nshell     : 472
 Nel        : 838
 T(el)      :   500.0
 intcut     :    35.0
 scfconv/Eh :  0.100E-06
   qconv/e  :  0.100E-04
 intneglect :  0.100E-08
 broydamp   :      0.400
 iter      E             dE          RMSdq      gap      omega  full diag
   1   -476.0143592 -0.476014E+03  0.445E+00    3.04       0.0  T
   2   -477.1013203 -0.108696E+01  0.206E+00    1.54       1.0  T
   3   -477.1693425 -0.680222E-01  0.118E+00    1.67       1.0  T
   4   -477.2445412 -0.751987E-01  0.233E-01    1.31       1.0  T
   5   -477.2484020 -0.386079E-02  0.104E-01    1.42       1.0  T
   6   -477.2490766 -0.674603E-03  0.452E-02    1.42       1.0  T
   7   -477.2492167 -0.140101E-03  0.212E-02    1.40       1.0  T
   8   -477.2492412 -0.245626E-04  0.979E-03    1.40       1.0  T
   9   -477.2492487 -0.744238E-05  0.431E-03    1.40       1.3  T
  10   -477.2492500 -0.130675E-05  0.177E-03    1.40       3.1  T
  11   -477.2492501 -0.151280E-06  0.790E-04    1.40       7.0  T
  12   -477.2492502 -0.356226E-07  0.276E-04    1.40      20.1  T
  13   -477.2492502 -0.709207E-08  0.139E-04    1.40      39.9  T
  14   -477.2492502 -0.806551E-09  0.601E-05    1.40      92.4  T
  15   -477.2492502 -0.225668E-09  0.229E-05    1.40     241.7  T
speedup  1.93
cpu  time for SCC    8.29 s
wall time for SCC    4.29 s

   *** convergence criteria satisfied after 15 iterations ***

          eigenvalues
 #    :         407        408        409        410        411        412        413        414
 occ. :        2.000      2.000      2.000      2.000      2.000      2.000      2.000      2.000
 eps  :       -10.642    -10.529    -10.521    -10.172     -9.993     -9.958     -9.846     -9.690
 #    :         415        416        417        418        419        420        421        422
 occ. :        2.000      2.000      2.000      2.000      2.000      0.000      0.000      0.000
 eps  :        -9.668     -9.656     -9.580     -9.471     -9.361     -7.958     -7.904     -7.738
 #    :         423        424        425        426        427        428        429        430
 occ. :        0.000      0.000      0.000      0.000      0.000      0.000      0.000      0.000
 eps  :        -7.713     -7.666     -7.555     -7.537     -7.515     -7.490     -7.421     -6.650


   #   Z            q   n(s)   n(p)   n(d)      C6AA      α(0)
   1   7 N     -0.391  1.310  4.081  0.000    30.129     8.152
   2   6 C      0.031  1.054  2.916  0.000    20.060     6.377
   3   6 C      0.280  1.047  2.673  0.000    22.263     7.727
   4   8 O     -0.464  1.738  4.727  0.000    23.005     6.431
   5   6 C     -0.022  1.067  2.954  0.000    20.917     6.503
   6   6 C     -0.066  1.050  3.017  0.000    21.772     6.643
   7   6 C     -0.127  1.040  3.087  0.000    22.984     6.835
   8   6 C     -0.110  1.038  3.072  0.000    22.658     6.787
   9   1 H      0.155  0.845  0.000  0.000     1.366     1.831
  10   1 H      0.037  0.963  0.000  0.000     2.488     2.467
  11   1 H      0.025  0.975  0.000  0.000     2.652     2.546
  12   1 H      0.042  0.958  0.000  0.000     2.416     2.431
  13   1 H      0.039  0.961  0.000  0.000     2.456     2.451
  14   1 H      0.027  0.973  0.000  0.000     2.634     2.538
  15   1 H      0.054  0.946  0.000  0.000     2.269     2.356
  16   1 H      0.078  0.922  0.000  0.000     1.996     2.209
  17   1 H      0.043  0.957  0.000  0.000     2.408     2.427
  18   1 H      0.035  0.965  0.000  0.000     2.513     2.479
  19   1 H      0.037  0.963  0.000  0.000     2.492     2.469
  20   7 N     -0.180  1.241  3.939  0.000    24.896     7.411
  21   6 C     -0.040  1.056  2.984  0.000    21.348     6.589
  22   6 C      0.274  1.041  2.685  0.000    22.372     7.745
  23   8 O     -0.459  1.747  4.712  0.000    22.892     6.415
  24   1 H      0.192  0.808  0.000  0.000     1.148     1.679
  25   1 H      0.104  0.896  0.000  0.000     1.752     2.070
  26   1 H      0.083  0.917  0.000  0.000     1.953     2.185
  27   7 N     -0.191  1.243  3.948  0.000    25.149     7.448
  28   6 C      0.013  1.066  2.921  0.000    20.374     6.429
  29   6 C      0.254  1.043  2.703  0.000    22.736     7.809
  30   8 O     -0.471  1.740  4.731  0.000    23.159     6.452
  31   6 C      0.068  1.039  2.893  0.000    19.675     6.358
  32   8 O     -0.467  1.713  4.754  0.000    22.192     6.359
  33   1 H      0.223  0.777  0.000  0.000     0.995     1.563
  34   1 H      0.078  0.922  0.000  0.000     2.001     2.212
  35   1 H      0.063  0.937  0.000  0.000     2.166     2.301
  36   1 H      0.054  0.946  0.000  0.000     2.271     2.357
  37   1 H      0.336  0.664  0.000  0.000     0.622     1.239
  38   7 N     -0.070  1.243  3.827  0.000    22.603     7.061
  39   6 C     -0.002  1.074  2.928  0.000    20.575     6.452
  40   6 C      0.295  1.031  2.675  0.000    22.003     7.681
  41   8 O     -0.472  1.747  4.724  0.000    23.164     6.453
  42   6 C     -0.095  1.062  3.033  0.000    22.299     6.719
  43   6 C     -0.079  1.056  3.023  0.000    21.979     6.670
  44   6 C     -0.038  1.060  2.978  0.000    21.246     6.563
  45   1 H      0.083  0.917  0.000  0.000     1.953     2.186
  46   1 H      0.073  0.927  0.000  0.000     2.054     2.241
  47   1 H      0.074  0.926  0.000  0.000     2.040     2.234
  48   1 H      0.064  0.936  0.000  0.000     2.157     2.296
  49   1 H      0.076  0.924  0.000  0.000     2.016     2.220
  50   1 H      0.109  0.891  0.000  0.000     1.702     2.040
  51   1 H      0.066  0.934  0.000  0.000     2.130     2.282
  52   7 N     -0.185  1.237  3.948  0.000    25.003     7.426
  53   6 C     -0.013  1.080  2.933  0.000    20.835     6.502
  54   6 C      0.267  1.045  2.688  0.000    22.489     7.766
  55   8 O     -0.450  1.737  4.713  0.000    22.713     6.390
  56   6 C      0.068  1.036  2.896  0.000    19.663     6.355
  57   8 O     -0.460  1.702  4.757  0.000    22.046     6.338
  58   1 H      0.216  0.784  0.000  0.000     1.030     1.590
  59   1 H      0.085  0.915  0.000  0.000     1.931     2.173
  60   1 H      0.075  0.925  0.000  0.000     2.033     2.230
  61   1 H      0.058  0.942  0.000  0.000     2.228     2.335
  62   1 H      0.342  0.658  0.000  0.000     0.607     1.224
  63   7 N     -0.179  1.261  3.918  0.000    24.885     7.409
  64   6 C      0.009  1.071  2.920  0.000    20.423     6.434
  65   6 C      0.278  1.040  2.682  0.000    22.298     7.732
  66   8 O     -0.487  1.746  4.741  0.000    23.500     6.499
  67   6 C     -0.014  1.060  2.953  0.000    20.790     6.485
  68   6 C     -0.125  1.044  3.081  0.000    22.960     6.833
  69   6 C     -0.126  1.039  3.087  0.000    22.975     6.835
  70   1 H      0.219  0.781  0.000  0.000     1.015     1.579
  71   1 H      0.066  0.934  0.000  0.000     2.127     2.281
  72   1 H      0.032  0.968  0.000  0.000     2.558     2.501
  73   1 H      0.050  0.950  0.000  0.000     2.324     2.384
  74   1 H      0.042  0.958  0.000  0.000     2.420     2.433
  75   1 H      0.061  0.939  0.000  0.000     2.186     2.312
  76   1 H      0.042  0.958  0.000  0.000     2.428     2.437
  77   1 H      0.059  0.941  0.000  0.000     2.205     2.322
  78   1 H      0.062  0.938  0.000  0.000     2.179     2.308
  79   7 N     -0.173  1.248  3.924  0.000    24.740     7.387
  80   6 C      0.013  1.068  2.918  0.000    20.373     6.430
  81   6 C      0.279  1.042  2.679  0.000    22.282     7.729
  82   8 O     -0.503  1.766  4.737  0.000    23.861     6.549
  83   6 C     -0.077  1.059  3.019  0.000    21.974     6.674
  84   6 C     -0.086  1.056  3.030  0.000    22.152     6.701
  85   6 C     -0.029  1.056  2.973  0.000    21.179     6.568
  86   7 N     -0.154  1.214  3.940  0.000    24.340     7.327
  87   6 C      0.226  1.021  2.752  0.000    23.241     7.893
  88   7 N     -0.243  1.246  3.997  0.000    26.341     7.622
  89   7 N     -0.262  1.241  4.021  0.000    26.798     7.688
  90   1 H      0.211  0.789  0.000  0.000     1.052     1.607
  91   1 H      0.081  0.919  0.000  0.000     1.969     2.195
  92   1 H      0.070  0.930  0.000  0.000     2.090     2.261
  93   1 H      0.055  0.945  0.000  0.000     2.259     2.351
  94   1 H      0.078  0.922  0.000  0.000     2.002     2.213
  95   1 H      0.070  0.930  0.000  0.000     2.088     2.260
  96   1 H      0.089  0.911  0.000  0.000     1.890     2.150
  97   1 H      0.090  0.910  0.000  0.000     1.875     2.142
  98   1 H      0.226  0.774  0.000  0.000     0.983     1.553
  99   1 H      0.235  0.765  0.000  0.000     0.943     1.521
 100   1 H      0.264  0.736  0.000  0.000     0.831     1.428
 101   1 H      0.242  0.758  0.000  0.000     0.916     1.499
 102   1 H      0.247  0.753  0.000  0.000     0.894     1.481
 103   7 N     -0.081  1.230  3.851  0.000    22.817     7.094
 104   6 C      0.030  1.055  2.915  0.000    20.041     6.369
 105   6 C      0.212  1.075  2.713  0.000    23.513     7.942
 106   8 O     -0.387  1.761  4.626  0.000    21.423     6.206
 107   6 C     -0.066  1.056  3.010  0.000    21.727     6.631
 108   6 C     -0.080  1.053  3.026  0.000    22.000     6.674
 109   6 C     -0.028  1.062  2.966  0.000    21.102     6.545
 110   1 H      0.070  0.930  0.000  0.000     2.089     2.260
 111   1 H      0.066  0.934  0.000  0.000     2.125     2.280
 112   1 H      0.066  0.934  0.000  0.000     2.127     2.281
 113   1 H      0.087  0.913  0.000  0.000     1.909     2.161
 114   1 H      0.078  0.922  0.000  0.000     1.997     2.210
 115   1 H      0.081  0.919  0.000  0.000     1.967     2.193
 116   1 H      0.088  0.912  0.000  0.000     1.898     2.155
 117   7 N     -0.394  1.325  4.069  0.000    30.210     8.163
 118   6 C      0.034  1.057  2.909  0.000    20.014     6.373
 119   6 C      0.201  1.088  2.711  0.000    23.729     7.978
 120   8 O     -0.363  1.747  4.616  0.000    20.954     6.137
 121   6 C     -0.082  1.058  3.024  0.000    22.058     6.686
 122   6 C     -0.084  1.050  3.034  0.000    22.101     6.693
 123   6 C     -0.033  1.052  2.981  0.000    21.239     6.576
 124   7 N     -0.130  1.206  3.924  0.000    23.814     7.248
 125   6 C      0.224  1.023  2.753  0.000    23.283     7.900
 126   7 N     -0.227  1.219  4.008  0.000    25.964     7.568
 127   7 N     -0.242  1.219  4.023  0.000    26.314     7.619
 128   1 H      0.169  0.831  0.000  0.000     1.277     1.770
 129   1 H      0.046  0.954  0.000  0.000     2.370     2.408
 130   1 H      0.069  0.931  0.000  0.000     2.095     2.263
 131   1 H      0.068  0.932  0.000  0.000     2.108     2.271
 132   1 H      0.059  0.941  0.000  0.000     2.213     2.327
 133   1 H      0.062  0.938  0.000  0.000     2.171     2.304
 134   1 H      0.080  0.920  0.000  0.000     1.984     2.202
 135   1 H      0.106  0.894  0.000  0.000     1.735     2.060
 136   1 H      0.217  0.783  0.000  0.000     1.023     1.584
 137   1 H      0.243  0.757  0.000  0.000     0.909     1.494
 138   1 H      0.244  0.756  0.000  0.000     0.907     1.492
 139   1 H      0.224  0.776  0.000  0.000     0.990     1.559
 140   1 H      0.239  0.761  0.000  0.000     0.928     1.509
 141   7 N     -0.317  1.358  3.959  0.000    28.152     7.880
 142   6 C      0.026  1.066  2.908  0.000    20.125     6.386
 143   6 C      0.198  1.092  2.710  0.000    23.784     7.987
 144   8 O     -0.363  1.743  4.620  0.000    20.962     6.138
 145   6 C     -0.066  1.057  3.009  0.000    21.748     6.636
 146   6 C     -0.067  1.051  3.016  0.000    21.762     6.638
 147   6 C      0.013  1.043  2.944  0.000    20.383     6.433
 148   1 H      0.055  0.945  0.000  0.000     2.261     2.352
 149   1 H      0.047  0.953  0.000  0.000     2.358     2.401
 150   1 H      0.065  0.935  0.000  0.000     2.137     2.286
 151   1 H      0.042  0.958  0.000  0.000     2.422     2.434
 152   1 H      0.044  0.956  0.000  0.000     2.394     2.420
 153   1 H      0.034  0.966  0.000  0.000     2.532     2.489
 154   1 H      0.017  0.983  0.000  0.000     2.776     2.606
 155   7 N     -0.385  1.311  4.075  0.000    29.971     8.131
 156   6 C      0.016  1.067  2.917  0.000    20.337     6.425
 157   6 C      0.207  1.081  2.712  0.000    23.615     7.958
 158   8 O     -0.386  1.765  4.621  0.000    21.410     6.204
 159   6 C      0.096  1.053  2.851  0.000    19.098     6.241
 160   8 O     -0.508  1.749  4.759  0.000    23.064     6.483
 161   6 C     -0.128  1.042  3.086  0.000    23.027     6.843
 162   1 H      0.156  0.844  0.000  0.000     1.362     1.828
 163   1 H      0.084  0.916  0.000  0.000     1.939     2.177
 164   1 H      0.090  0.910  0.000  0.000     1.875     2.142
 165   1 H      0.320  0.680  0.000  0.000     0.664     1.280
 166   1 H      0.050  0.950  0.000  0.000     2.324     2.384
 167   1 H      0.061  0.939  0.000  0.000     2.190     2.314
 168   1 H      0.048  0.952  0.000  0.000     2.339     2.392
 169   7 N     -0.285  1.268  4.017  0.000    27.343     7.766
 170   6 C      0.022  1.067  2.912  0.000    20.197     6.396
 171   6 C      0.256  1.049  2.695  0.000    22.688     7.800
 172   8 O     -0.462  1.743  4.719  0.000    22.964     6.425
 173   6 C     -0.065  1.056  3.010  0.000    21.739     6.636
 174   6 C     -0.058  1.052  3.006  0.000    21.591     6.612
 175   6 C      0.017  1.045  2.938  0.000    20.346     6.433
 176   1 H      0.037  0.963  0.000  0.000     2.486     2.466
 177   1 H      0.049  0.951  0.000  0.000     2.336     2.390
 178   1 H      0.039  0.961  0.000  0.000     2.467     2.456
 179   1 H      0.036  0.964  0.000  0.000     2.506     2.476
 180   1 H      0.029  0.971  0.000  0.000     2.604     2.523
 181   1 H      0.032  0.968  0.000  0.000     2.557     2.501
 182   1 H      0.009  0.991  0.000  0.000     2.901     2.664
 183   7 N     -0.094  1.235  3.859  0.000    23.081     7.135
 184   6 C     -0.012  1.075  2.937  0.000    20.752     6.479
 185   6 C      0.277  1.041  2.682  0.000    22.323     7.737
 186   8 O     -0.487  1.760  4.728  0.000    23.507     6.500
 187   6 C     -0.092  1.061  3.031  0.000    22.238     6.712
 188   6 C     -0.081  1.061  3.020  0.000    22.013     6.675
 189   6 C     -0.014  1.053  2.961  0.000    20.844     6.502
 190   1 H      0.112  0.888  0.000  0.000     1.683     2.029
 191   1 H      0.068  0.932  0.000  0.000     2.107     2.270
 192   1 H      0.087  0.913  0.000  0.000     1.911     2.162
 193   1 H      0.080  0.920  0.000  0.000     1.976     2.198
 194   1 H      0.056  0.944  0.000  0.000     2.252     2.347
 195   1 H      0.066  0.934  0.000  0.000     2.132     2.283
 196   1 H      0.063  0.937  0.000  0.000     2.163     2.300
 197   7 N     -0.176  1.237  3.939  0.000    24.805     7.397
 198   6 C      0.026  1.051  2.923  0.000    20.134     6.389
 199   6 C      0.199  1.084  2.717  0.000    23.754     7.982
 200   8 O     -0.372  1.754  4.618  0.000    21.137     6.164
 201   6 C     -0.074  1.061  3.013  0.000    21.909     6.662
 202   6 C     -0.012  1.057  2.956  0.000    20.761     6.481
 203   6 C     -0.118  1.041  3.077  0.000    22.816     6.809
 204   6 C     -0.116  1.039  3.077  0.000    22.771     6.804
 205   1 H      0.217  0.783  0.000  0.000     1.024     1.585
 206   1 H      0.090  0.910  0.000  0.000     1.882     2.145
 207   1 H      0.071  0.929  0.000  0.000     2.076     2.253
 208   1 H      0.056  0.944  0.000  0.000     2.242     2.342
 209   1 H      0.048  0.952  0.000  0.000     2.344     2.395
 210   1 H      0.045  0.955  0.000  0.000     2.386     2.416
 211   1 H      0.046  0.954  0.000  0.000     2.370     2.407
 212   1 H      0.043  0.957  0.000  0.000     2.404     2.425
 213   1 H      0.042  0.958  0.000  0.000     2.420     2.432
 214   1 H      0.040  0.960  0.000  0.000     2.447     2.446
 215   1 H      0.034  0.966  0.000  0.000     2.529     2.487
 216   7 N     -0.383  1.307  4.076  0.000    29.899     8.121
 217   6 C      0.043  1.052  2.905  0.000    19.867     6.348
 218   6 C      0.199  1.084  2.717  0.000    23.759     7.983
 219   8 O     -0.364  1.746  4.618  0.000    20.972     6.140
 220   6 C     -0.070  1.052  3.018  0.000    21.819     6.648
 221   6 C      0.001  1.075  2.924  0.000    27.995     8.679
 222   6 C     -0.044  1.079  2.965  0.000    29.089     8.845
 223   6 C     -0.039  1.083  2.956  0.000    28.972     8.827
 224   6 C     -0.079  1.078  3.001  0.000    29.973     8.978
 225   6 C     -0.053  1.077  2.976  0.000    29.309     8.878
 226   6 C      0.143  1.046  2.811  0.000    24.887     8.176
 227   8 O     -0.412  1.716  4.696  0.000    21.087     6.199
 228   1 H      0.163  0.837  0.000  0.000     1.318     1.798
 229   1 H      0.058  0.942  0.000  0.000     2.226     2.333
 230   1 H      0.044  0.956  0.000  0.000     2.392     2.419
 231   1 H      0.059  0.941  0.000  0.000     2.210     2.325
 232   1 H      0.042  0.958  0.000  0.000     2.420     2.432
 233   1 H      0.033  0.967  0.000  0.000     2.547     2.496
 234   1 H      0.053  0.947  0.000  0.000     2.284     2.363
 235   1 H      0.060  0.940  0.000  0.000     2.201     2.320
 236   1 H      0.324  0.676  0.000  0.000     0.652     1.268
 237   7 N     -0.282  1.275  4.007  0.000    27.277     7.757
 238   6 C      0.030  1.065  2.905  0.000    20.068     6.377
 239   6 C      0.196  1.090  2.714  0.000    23.814     7.992
 240   8 O     -0.374  1.759  4.615  0.000    21.162     6.168
 241   6 C     -0.056  1.055  3.000  0.000    21.552     6.605
 242   6 C     -0.061  1.049  3.012  0.000    21.649     6.622
 243   6 C      0.000  1.047  2.952  0.000    20.608     6.468
 244   1 H      0.031  0.969  0.000  0.000     2.567     2.506
 245   1 H      0.040  0.960  0.000  0.000     2.454     2.450
 246   1 H      0.049  0.951  0.000  0.000     2.334     2.389
 247   1 H      0.054  0.946  0.000  0.000     2.275     2.359
 248   1 H      0.048  0.952  0.000  0.000     2.340     2.392
 249   1 H      0.037  0.963  0.000  0.000     2.492     2.469
 250   1 H      0.056  0.944  0.000  0.000     2.252     2.347
 251   7 N     -0.387  1.309  4.078  0.000    30.012     8.136
 252   6 C      0.041  1.057  2.902  0.000    19.910     6.356
 253   6 C      0.204  1.092  2.704  0.000    23.662     7.966
 254   8 O     -0.385  1.767  4.617  0.000    21.379     6.199
 255   6 C     -0.062  1.060  3.002  0.000    21.674     6.626
 256   6 C     -0.010  1.055  2.955  0.000    20.716     6.474
 257   6 C     -0.115  1.041  3.074  0.000    22.763     6.802
 258   6 C     -0.112  1.041  3.071  0.000    22.685     6.790
 259   1 H      0.151  0.849  0.000  0.000     1.394     1.849
 260   1 H      0.071  0.929  0.000  0.000     2.072     2.251
 261   1 H      0.052  0.948  0.000  0.000     2.296     2.370
 262   1 H      0.034  0.966  0.000  0.000     2.525     2.485
 263   1 H      0.020  0.980  0.000  0.000     2.728     2.583
 264   1 H      0.037  0.963  0.000  0.000     2.490     2.467
 265   1 H      0.058  0.942  0.000  0.000     2.221     2.331
 266   1 H      0.040  0.960  0.000  0.000     2.453     2.449
 267   1 H      0.040  0.960  0.000  0.000     2.443     2.444
 268   1 H      0.043  0.957  0.000  0.000     2.407     2.426
 269   1 H      0.025  0.975  0.000  0.000     2.652     2.547
 270   7 N     -0.390  1.319  4.071  0.000    30.098     8.148
 271   6 C      0.037  1.060  2.903  0.000    19.979     6.368
 272   6 C      0.197  1.098  2.705  0.000    23.792     7.988
 273   8 O     -0.369  1.751  4.619  0.000    21.081     6.156
 274   6 C     -0.063  1.049  3.013  0.000    21.699     6.632
 275   6 C     -0.099  1.059  3.040  0.000    22.385     6.736
 276   6 C      0.284  1.041  2.675  0.000    22.194     7.714
 277   8 O     -0.497  1.756  4.742  0.000    23.727     6.531
 278   7 N     -0.286  1.263  4.022  0.000    27.375     7.771
 279   1 H      0.169  0.831  0.000  0.000     1.277     1.770
 280   1 H      0.059  0.941  0.000  0.000     2.213     2.326
 281   1 H      0.058  0.942  0.000  0.000     2.228     2.334
 282   1 H      0.051  0.949  0.000  0.000     2.301     2.372
 283   1 H      0.074  0.926  0.000  0.000     2.038     2.233
 284   1 H      0.069  0.931  0.000  0.000     2.095     2.263
 285   1 H      0.229  0.771  0.000  0.000     0.969     1.542
 286   1 H      0.231  0.769  0.000  0.000     0.962     1.536
 287   7 N     -0.409  1.313  4.096  0.000    30.623     8.219
 288   6 C      0.037  1.059  2.903  0.000    19.951     6.361
 289   6 C      0.204  1.091  2.705  0.000    23.664     7.967
 290   8 O     -0.392  1.758  4.635  0.000    21.530     6.221
 291   6 C     -0.015  1.060  2.954  0.000    20.797     6.486
 292   6 C     -0.062  1.048  3.014  0.000    21.695     6.631
 293   6 C     -0.117  1.039  3.079  0.000    22.788     6.804
 294   6 C     -0.107  1.036  3.071  0.000    22.610     6.781
 295   1 H      0.184  0.816  0.000  0.000     1.189     1.708
 296   1 H      0.052  0.948  0.000  0.000     2.293     2.368
 297   1 H      0.027  0.973  0.000  0.000     2.625     2.534
 298   1 H      0.041  0.959  0.000  0.000     2.441     2.443
 299   1 H      0.053  0.947  0.000  0.000     2.287     2.365
 300   1 H      0.045  0.955  0.000  0.000     2.383     2.414
 301   1 H      0.035  0.965  0.000  0.000     2.511     2.478
 302   1 H      0.051  0.949  0.000  0.000     2.306     2.375
 303   1 H      0.041  0.959  0.000  0.000     2.432     2.439
 304   1 H      0.036  0.964  0.000  0.000     2.509     2.477
 305   1 H      0.044  0.956  0.000  0.000     2.400     2.422
 306   1 H      0.172  0.828  0.000  0.000     1.259     1.758
 307   1 H      0.061  0.939  0.000  0.000     2.182     2.310
 308   1 H      0.176  0.824  0.000  0.000     1.237     1.742
 309   1 H      0.061  0.939  0.000  0.000     2.190     2.314
 310   1 H      0.198  0.802  0.000  0.000     1.116     1.654
 311   1 H      0.071  0.929  0.000  0.000     2.078     2.254
 312   1 H      0.198  0.802  0.000  0.000     1.113     1.653
 313   1 H      0.069  0.931  0.000  0.000     2.093     2.262
 314   1 H      0.171  0.829  0.000  0.000     1.265     1.762
 315   1 H      0.067  0.933  0.000  0.000     2.123     2.278
 316   1 H      0.183  0.817  0.000  0.000     1.199     1.715
 317   1 H      0.061  0.939  0.000  0.000     2.184     2.311
 318   1 H      0.162  0.838  0.000  0.000     1.325     1.803
 319   1 H      0.057  0.943  0.000  0.000     2.233     2.336
 320   1 H      0.184  0.816  0.000  0.000     1.188     1.707
 321   1 H      0.064  0.936  0.000  0.000     2.149     2.292
 322   1 H      0.186  0.814  0.000  0.000     1.178     1.700
 323   1 H      0.072  0.928  0.000  0.000     2.064     2.247
 324   1 H      0.181  0.819  0.000  0.000     1.206     1.720
 325   1 H      0.063  0.937  0.000  0.000     2.164     2.300

 Mol. C6AA /au·bohr⁶  :     900549.713342
 Mol. C8AA /au·bohr⁸  :   19737285.716067
 Mol. α(0) /au        :       1417.738840

 
molecular dipole:
                 x           y           z       tot (Debye)
 q only:       94.856     128.357     294.154
   full:       93.809     126.684     294.159     848.285
molecular quadrupole (traceless):
                xx          xy          yy          xz          yz          zz
 q only:   -21340.467    9404.524  -15682.446   20774.174   28339.412   37022.913
  q+dip:   -21357.359    9187.950  -15826.488   20547.332   27943.252   37183.847
   full:   -21354.207    9191.141  -15827.726   20547.720   27944.918   37181.934
speedup  1.94
cpu  time for grad   10.02 s
wall time for grad    5.16 s

SCC energy    :    -477.2726090
rep           :       6.0721315
ES            :       1.2437042
AES           :      -0.0047570
AXC           :       0.1958612
disp          :      -0.3503833
XB            :       0.0000000
fix           :       0.0000000
Gborn         :       0.0000000
Gsasa         :       0.0000000
Ghb           :       0.0000000
Gshift        :       0.0000000
Gsolv         :      -0.3954105     -248.12
Etot ala COSMO:    -477.2726090
grad norm     :       0.7059333
total E       :    -471.1795388
atomizationE  :      87.5436845    54934.49
(atE without considering molecular charge,
 total energy contains solvation terms)
H-L gap (eV)  :          1.4029

------------------------------------------------------------------------
 * finished run on 2019/05/07 at 23:36:11.515     
------------------------------------------------------------------------
 total:
 * wall-time:     0 d,  0 h,  0 min,  5.627 sec
 *  cpu-time:     0 d,  0 h,  0 min, 10.770 sec
 * ratio c/w:     1.914 speedup
 SCF:
 * wall-time:     0 d,  0 h,  0 min,  5.391 sec
 *  cpu-time:     0 d,  0 h,  0 min, 10.491 sec
 * ratio c/w:     1.946 speedup

