      -----------------------------------------------------------      
     |                   =====================                   |     
     |                           x T B                           |     
     |                   =====================                   |     
     |                         S. Grimme                         |     
     |          Mulliken Center for Theoretical Chemistry        |     
     |                    University of Bonn                     |     
     |                 Version 6.0.1 (SAW181210)                 |     
      -----------------------------------------------------------      

   This program is distributed in the hope that it will be useful,
   but WITHOUT ANY WARRANTY; without even the implied warranty of
   MERCHANTABILITY or FITNESS FOR A PARTICULAR PURPOSE.
   
   FOR NON-COMMERCIAL, ACADEMIA USE ONLY.
   
   Cite this work as:
   S. Grimme, C. Bannwarth, P. Shushkov, J. Comput. Theory Chem., 2017,
   13, 1989-2009.
   C. Bannwarth, S. Ehlert and S. Grimme., ChemRxiv, 2018, preprint.
   http://doi.org/10.26434/chemrxiv.7246238.v1
   
   for sTDA-xTB:
   S. Grimme and C. Bannwarth, J. Chem. Phys., 2016, 145, 054103.
   
   in the mass-spec context:
   V. Asgeirsson, C. Bauer and S. Grimme, Chem. Sci., 2017, 8, 4879.
   
   if GBSA is used:
   P. Shushkov, F. März and S. Grimme, unpublished.
   
   for ANC optimizer:
   S. Grimme, unpublished.
   Rational Function algorithm used in ANCopt:
   F. Eckert, P. Pulay, H.-J. Werner, J. Comput. Chem., 1997, 18, 1473.
   
   with help from (in alphabetical order)
   C. Bannwarth, F. Bohle, G. Brandenburg, E. Caldeweyher, M. Checinski,
   S. Dohm, S. Ehlert, S. Ehrlich, F. März, H. Neugebauer, J. Pisarek,
   P. Pracht, P. Shushkov, and S. Spicher.
   
 * started run on 2019/05/12 at 13:12:03.957     
========================================================================
 # omp threads = 2
========================================================================
number of atoms            : 660
number of electrons        : 1736
charge                     : 0
spin                       : .0
first test random number   : .5870

########################################################################
# WARNING! Please study the warnings concerning your input carefully
#  - Process number higher than OMP_NUM_THREADS, I hope you know what you are doing.
########################################################################

           ------------------------------------------------- 
          |                 G F N 2 - x T B                 |
          | Geometry, Frequencies, Noncovalent interactions |
          |            JCTC 2018 parametrisation            |
           ------------------------------------------------- 
 
      method parameters     
 k(s)        :  1.8500
 k(p)        :  2.2300
 k(d)        :  2.2300
 k(f)        :  2.0000
 kEN (H0ij)  : -2.0000
 D4 a1       :  0.5200
 D4 a2       :  5.0000
 D4 s6       :  1.0000
 D4 s8       :  2.7000
 D4 s9       :  5.0000
 alphaj      :  2.0000

 Solvent             : h2o
 Using internal parameter file: .param_gbsa2_h2o
 Gsolv ref. state (COSMO-RS): gsolv [1 M gas/solution]
 temperature (mdtemp)       :    298.150000000000     
 dielectric constant        :    80.2000000000000     
 rho                        :    1.00000000000000     
 mass                       :    18.0000000000000     
 surface tension            :    15.5689454083859     
 probe radius               :   0.975313790000000     
 vdW radii scaling          :    1.00000000000000     
 Gshift (Eh)                :   1.857443126794793E-003
 c1                         :    1.55243817000000     
 soset                      :   0.130326360000000     
 HB correction              :  T

            Z     q(EN)     CN     RAES       Cart. coordinates
     1  N   5.0   -0.16    4.17    3.37   143.90452   102.59511   396.21884
     2  C   4.0    0.00    4.35    4.29   142.25290   104.10500   394.47462
     3  C   4.0    0.15    3.43    3.09   139.91342   105.15947   395.81444
     4  O   6.0   -0.28    1.21    1.80   138.81171   103.90091   397.52086
     5  C   4.0    0.02    4.19    3.98   141.41386   102.46661   392.17105
     6  O   6.0   -0.27    2.05    1.83   139.76413   100.37846   392.82300
     7  H   1.0    0.07    1.09    1.44   144.66986   101.37624   395.34957
     8  H   1.0    0.07    1.08    1.44   145.06292   103.60423   396.90670
     9  H   1.0    0.09    1.09    1.44   142.96344   101.91292   397.43204
    10  H   1.0    0.04    1.12    1.45   143.23178   105.52986   393.86613
    11  H   1.0    0.04    1.07    1.44   140.52380   103.55320   390.99186
    12  H   1.0    0.04    1.07    1.44   142.91808   101.78064   391.37925
    13  H   1.0    0.14    1.07    1.44   139.51847    99.46384   391.54933
    14  N   5.0   -0.17    3.48    2.06   139.16320   107.45738   395.04532
    15  C   4.0    0.03    4.49    4.52   136.63475   108.36067   395.68783
    16  C   4.0    0.16    3.46    3.10   134.60707   106.52574   394.80344
    17  O   6.0   -0.31    1.27    1.80   132.92332   105.84166   396.26230
    18  C   4.0   -0.05    4.37    4.33   136.26436   110.95148   394.53131
    19  C   4.0   -0.04    4.18    3.96   134.07417   112.59554   395.59901
    20  C   4.0    0.24    3.08    3.02   134.58439   115.51706   395.22484
    21  O   6.0   -0.29    1.17    1.80   135.58595   116.31641   393.22551
    22  O   6.0   -0.27    1.16    1.80   134.05905   117.05340   396.94827
    23  H   1.0    0.09    1.13    1.45   140.06271   108.49484   394.17416
    24  H   1.0    0.06    1.13    1.45   136.47034   108.50428   397.50763
    25  H   1.0    0.06    1.10    1.44   137.81204   111.90390   394.77131
    26  H   1.0    0.05    1.10    1.44   135.93744   110.72849   392.74174
    27  H   1.0    0.04    1.08    1.44   132.51892   112.17035   394.72785
    28  H   1.0    0.06    1.08    1.44   133.89653   112.27051   397.39425
    29  N   5.0   -0.17    3.48    2.06   134.86407   105.56765   392.48852
    30  C   4.0    0.03    4.44    4.45   133.02159   103.93682   391.23185
    31  C   4.0    0.16    3.49    3.11   131.78760   101.81654   392.76253
    32  O   6.0   -0.31    1.25    1.80   129.45190   101.67481   392.91371
    33  C   4.0   -0.05    4.41    4.40   134.35951   102.77275   388.88859
    34  C   4.0   -0.01    3.59    3.16   132.56994   101.72962   386.92895
    35  C   4.0   -0.04    3.51    3.12   131.32273    99.41848   387.27288
    36  C   4.0   -0.05    3.51    3.12   132.15609   103.07510   384.71797
    37  C   4.0   -0.04    3.43    3.09   129.63898    98.51897   385.47764
    38  C   4.0   -0.05    3.43    3.09   130.48747   102.19449   382.91517
    39  C   4.0   -0.04    3.43    3.09   129.20245    99.90981   383.30256
    40  H   1.0    0.09    1.15    1.45   136.16042   105.85111   391.55122
    41  H   1.0    0.05    1.13    1.45   131.61374   105.03286   390.81611
    42  H   1.0    0.04    1.10    1.44   135.37241   104.07288   388.08357
    43  H   1.0    0.05    1.10    1.44   135.43666   101.39891   389.44984
    44  H   1.0    0.06    1.10    1.44   131.62697    98.47551   388.72419
    45  H   1.0    0.05    1.10    1.44   133.01214   104.58499   384.44585
    46  H   1.0    0.06    1.10    1.44   128.80561    96.99207   385.73464
    47  H   1.0    0.06    1.09    1.44   130.21346   103.11857   381.44496
    48  H   1.0    0.06    1.09    1.44   128.05917    99.32778   382.10070
    49  N   5.0   -0.17    3.54    2.11   133.27859   100.08556   393.81133
    50  C   4.0    0.04    4.59    4.66   132.08617    97.98040   395.10390
    51  C   4.0    0.16    3.45    3.09   130.74636    98.79298   397.49629
    52  O   6.0   -0.28    1.20    1.80   128.99647    97.46262   398.35423
    53  C   4.0   -0.04    4.42    4.41   134.03448    95.92249   395.54043
    54  C   4.0   -0.04    4.29    4.17   134.39731    94.43716   393.06489
    55  C   4.0    0.24    3.17    3.03   131.92366    93.04444   392.43372
    56  O   6.0   -0.28    1.18    1.80   130.46101    92.45673   394.25919
    57  O   6.0   -0.29    1.16    1.80   131.48335    92.69106   390.12447
    58  H   1.0    0.10    1.13    1.45   134.90376   100.09122   393.79810
    59  H   1.0    0.07    1.16    1.46   130.78226    97.23396   394.05321
    60  H   1.0    0.05    1.09    1.44   135.63508    96.66893   396.03176
    61  H   1.0    0.07    1.09    1.44   133.45056    94.77543   396.84623
    62  H   1.0    0.05    1.09    1.44   134.79982    95.58990   391.69862
    63  H   1.0    0.05    1.08    1.44   135.74279    93.20884   393.26520
    64  N   5.0   -0.15    3.52    2.09   131.49847   100.99451   398.51108
    65  C   4.0    0.04    4.42    4.41   130.37219   102.04898   400.80143
    66  C   4.0    0.16    3.46    3.10   127.87398   103.34911   400.25151
    67  O   6.0   -0.27    1.23    1.80   126.07307   103.09589   401.72550
    68  C   4.0   -0.07    4.21    4.03   132.17310   103.93493   402.07699
    69  H   1.0    0.12    1.15    1.45   132.67766   101.92426   397.89314
    70  H   1.0    0.07    1.13    1.45   130.08118   100.66192   401.96550
    71  H   1.0    0.06    1.06    1.44   131.37942   104.58499   403.59444
    72  H   1.0    0.06    1.05    1.44   133.73213   103.07132   402.50785
    73  H   1.0    0.07    1.06    1.44   132.51892   105.30876   400.91481
    74  N   5.0   -0.16    3.53    2.10   127.75303   104.76263   398.16148
    75  C   4.0    0.04    4.59    4.65   125.38521   105.93048   397.38102
    76  C   4.0    0.16    3.53    3.13   123.38588   103.92548   396.87646
    77  O   6.0   -0.31    1.27    1.80   121.16356   104.27697   397.52086
    78  C   4.0   -0.03    4.43    4.43   125.79528   107.64068   395.06989
    79  C   4.0   -0.08    4.32    4.23   123.33863   108.53074   394.12124
    80  C   4.0   -0.08    4.24    4.07   127.45257   109.92347   395.75586
    81  H   1.0    0.12    1.14    1.45   129.00970   105.06876   397.17693
    82  H   1.0    0.06    1.13    1.45   124.78805   106.98683   398.75674
    83  H   1.0    0.05    1.13    1.45   126.64943   106.67881   393.76598
    84  H   1.0    0.05    1.07    1.44   123.62209   109.68914   392.73041
    85  H   1.0    0.05    1.07    1.44   122.36353   107.08888   393.54677
    86  H   1.0    0.05    1.07    1.44   122.45046   109.38679   395.47618
    87  H   1.0    0.05    1.06    1.44   127.67366   110.96849   394.26675
    88  H   1.0    0.05    1.06    1.44   126.62676   110.88534   397.07867
    89  H   1.0    0.06    1.06    1.44   129.08151   109.32254   396.34356
    90  N   5.0   -0.16    3.49    2.07   124.12476   101.76741   395.79932
    91  C   4.0    0.04    4.50    4.53   122.28795    99.71706   395.51397
    92  C   4.0    0.10    3.28    3.05   121.23348    98.91393   398.09534
    93  O   6.0   -0.29    1.11    1.80   118.95447    98.40559   398.35234
    94  C   4.0   -0.03    4.46    4.48   123.44824    97.44561   394.11935
    95  C   4.0   -0.06    4.33    4.26   124.34586    98.21473   391.50208
    96  C   4.0   -0.08    4.27    4.13   121.49615    95.33478   394.06077
    97  C   4.0   -0.07    4.15    3.91   125.78583    96.13414   390.16038
    98  H   1.0    0.11    1.13    1.45   125.61764   101.45372   395.23807
    99  H   1.0    0.05    1.13    1.45   120.90845   100.35957   394.49352
   100  H   1.0    0.07    1.13    1.45   124.93734    96.83901   394.99997
   101  H   1.0    0.04    1.10    1.44   122.88888    98.64747   390.47596
   102  H   1.0    0.06    1.10    1.44   125.45702    99.66415   391.65515
   103  H   1.0    0.05    1.06    1.44   122.19913    93.89481   393.17071
   104  H   1.0    0.06    1.07    1.44   121.07663    94.86235   395.78042
   105  H   1.0    0.05    1.06    1.44   119.99571    95.93383   393.19339
   106  H   1.0    0.05    1.06    1.44   126.19212    96.68972   388.46151
   107  H   1.0    0.07    1.06    1.44   127.32784    95.78076   391.08823
   108  H   1.0    0.05    1.06    1.44   124.73892    94.62992   390.09235
   109  N   5.0   -0.22    3.25    1.97   116.49594   104.27508   400.76930
   110  C   4.0    0.03    4.38    4.35   114.15268   104.33177   399.31799
   111  C   4.0    0.09    3.26    3.05   112.57286   101.99796   399.85656
   112  O   6.0   -0.28    1.11    1.80   110.26740   102.13969   400.22128
   113  C   4.0   -0.02    4.49    4.53   114.80463   104.57365   396.50041
   114  C   4.0   -0.05    4.35    4.29   115.55485   107.32132   395.99585
   115  C   4.0   -0.09    4.26    4.12   112.65034   103.59478   394.83178
   116  C   4.0   -0.09    4.22    4.04   116.37121   107.55942   393.34646
   117  H   1.0    0.13    1.10    1.44   117.82630   104.22595   399.83578
   118  H   1.0    0.05    1.13    1.45   113.15490   105.78497   399.82444
   119  H   1.0    0.06    1.14    1.45   116.23137   103.50785   396.06388
   120  H   1.0    0.04    1.10    1.44   114.11866   108.42303   396.28120
   121  H   1.0    0.05    1.10    1.44   116.94191   107.80131   397.09378
   122  H   1.0    0.04    1.06    1.44   113.10199   103.83477   393.07056
   123  H   1.0    0.05    1.06    1.44   112.39145   101.81276   395.17193
   124  H   1.0    0.05    1.06    1.44   111.12155   104.53208   395.21729
   125  H   1.0    0.04    1.06    1.44   116.86065   109.29797   393.02709
   126  H   1.0    0.04    1.07    1.44   117.79796   106.44637   393.05922
   127  H   1.0    0.04    1.07    1.44   114.98038   107.09077   392.24853
   128  N   5.0   -0.24    3.27    1.97   113.98449    88.18217   391.90082
   129  C   4.0    0.02    4.37    4.32   116.42602    89.44073   391.84034
   130  C   4.0    0.15    3.43    3.09   117.61843    89.27443   389.21363
   131  O   6.0   -0.31    1.25    1.80   118.74093    91.11692   388.31790
   132  C   4.0   -0.06    4.33    4.25   118.13055    88.33524   393.90204
   133  C   4.0   -0.06    4.23    4.06   117.46537    89.26498   396.64970
   134  C   4.0   -0.06    4.24    4.07   116.85498    87.04834   398.42982
   135  C   4.0   -0.04    4.24    4.08   114.13567    86.02033   397.98951
   136  N   5.0   -0.17    4.10    3.16   113.60277    83.67518   399.47862
   137  H   1.0    0.10    1.09    1.44   113.85788    86.94440   392.94772
   138  H   1.0    0.04    1.13    1.45   116.22193    91.22463   392.20884
   139  H   1.0    0.04    1.09    1.44   117.97181    86.50787   393.87747
   140  H   1.0    0.05    1.09    1.44   119.86343    88.81901   393.55244
   141  H   1.0    0.05    1.08    1.44   118.89589    90.17961   397.33945
   142  H   1.0    0.04    1.09    1.44   115.99705    90.36103   396.57600
   143  H   1.0    0.04    1.09    1.44   118.04173    85.68395   398.12746
   144  H   1.0    0.05    1.08    1.44   116.98160    87.61336   400.16837
   145  H   1.0    0.04    1.08    1.44   112.92435    87.29967   398.49218
   146  H   1.0    0.04    1.08    1.44   113.92591    85.62348   396.21128
   147  H   1.0    0.07    1.08    1.44   112.02673    83.15928   399.19516
   148  H   1.0    0.07    1.09    1.44   114.66668    82.45252   399.02886
   149  H   1.0    0.07    1.09    1.44   113.78796    83.98320   401.12079
   150  N   5.0   -0.16    3.48    2.07   117.36143    87.09936   387.93806
   151  C   4.0    0.03    4.42    4.41   118.18535    86.83669   385.29811
   152  C   4.0    0.16    3.44    3.09   117.04963    88.94184   383.67484
   153  O   6.0   -0.30    1.23    1.80   118.41590    90.26654   382.30101
   154  C   4.0   -0.06    4.29    4.18   117.43891    84.16650   384.34569
   155  C   4.0   -0.06    4.20    3.99   117.69780    83.37660   381.48087
   156  C   4.0   -0.06    4.22    4.04   120.37932    83.44274   380.34514
   157  C   4.0   -0.04    4.23    4.07   122.18401    81.36782   381.30134
   158  N   5.0   -0.17    4.10    3.13   121.88732    78.81102   380.11271
   159  H   1.0    0.09    1.13    1.45   116.71325    85.74443   388.55978
   160  H   1.0    0.06    1.12    1.45   120.00894    86.98220   385.16772
   161  H   1.0    0.04    1.09    1.44   118.46314    82.96653   385.28111
   162  H   1.0    0.04    1.09    1.44   115.66824    83.93407   384.75954
   163  H   1.0    0.04    1.09    1.44   117.08553    81.65695   381.30512
   164  H   1.0    0.05    1.09    1.44   116.66601    84.51421   380.48120
   165  H   1.0    0.05    1.09    1.44   120.24515    83.25377   378.52723
   166  H   1.0    0.05    1.09    1.44   121.14277    85.06034   380.75332
   167  H   1.0    0.04    1.08    1.44   123.90366    81.91395   380.98387
   168  H   1.0    0.04    1.09    1.44   121.91378    81.16184   383.10225
   169  H   1.0    0.07    1.08    1.44   123.06462    77.76411   380.70041
   170  H   1.0    0.07    1.08    1.44   120.36798    78.18174   380.47364
   171  H   1.0    0.07    1.08    1.44   122.04606    78.93007   378.44408
   172  N   5.0   -0.17    3.50    2.08   114.54574    89.35569   383.92428
   173  C   4.0    0.03    4.45    4.46   113.16057    91.12825   382.30290
   174  C   4.0    0.16    3.43    3.09   113.89189    93.87214   382.84714
   175  O   6.0   -0.31    1.22    1.80   113.93536    95.43872   381.09536
   176  C   4.0   -0.05    4.39    4.36   110.30519    90.77299   382.71108
   177  C   4.0   -0.04    4.27    4.13   109.27718    88.15005   382.03267
   178  C   4.0    0.25    3.14    3.03   106.53141    87.80234   382.86037
   179  O   6.0   -0.28    1.20    1.80   105.76418    89.11192   384.67072
   180  O   6.0   -0.27    1.17    1.80   105.16514    86.24898   381.72842
   181  H   1.0    0.09    1.13    1.45   113.60465    88.62059   385.02788
   182  H   1.0    0.05    1.12    1.45   113.57442    90.77110   380.55301
   183  H   1.0    0.06    1.10    1.44   109.93292    91.06589   384.48175
   184  H   1.0    0.06    1.09    1.44   109.41513    91.99375   381.67362
   185  H   1.0    0.05    1.09    1.44   109.35844    87.92517   380.21664
   186  H   1.0    0.05    1.09    1.44   110.29008    86.87259   382.86982
   187  N   5.0   -0.16    3.51    2.09   114.40590    94.46740   385.27544
   188  C   4.0    0.03    4.57    4.63   115.21281    96.99774   386.04456
   189  C   4.0    0.16    3.50    3.12   117.76394    97.62135   384.89560
   190  O   6.0   -0.32    1.29    1.80   118.13622    99.65470   383.80334
   191  C   4.0   -0.03    4.48    4.51   115.29407    97.19427   388.94151
   192  C   4.0   -0.06    4.37    4.33   112.58798    96.86735   389.94117
   193  C   4.0   -0.09    4.26    4.12   116.43546    99.66793   389.78999
   194  C   4.0   -0.09    4.18    3.97   112.44247    96.30232   392.64915
   195  H   1.0    0.10    1.13    1.45   114.29818    93.41860   386.51321
   196  H   1.0    0.05    1.13    1.45   113.99016    98.21095   385.41717
   197  H   1.0    0.05    1.13    1.45   116.36932    95.87147   389.61803
   198  H   1.0    0.04    1.10    1.44   111.66202    98.42260   389.64637
   199  H   1.0    0.05    1.11    1.45   111.79241    95.48407   389.03977
   200  H   1.0    0.04    1.06    1.44   116.36743    99.76052   391.61925
   201  H   1.0    0.05    1.06    1.44   118.17590    99.74729   389.22307
   202  H   1.0    0.04    1.06    1.44   115.47548   101.04932   389.05867
   203  H   1.0    0.05    1.06    1.44   110.68125    96.14737   393.13292
   204  H   1.0    0.04    1.06    1.44   113.32120    94.72818   392.97796
   205  H   1.0    0.05    1.07    1.44   113.23049    97.66671   393.58645
   206  N   5.0   -0.16    3.43    2.04   119.56296    95.86580   385.12426
   207  C   4.0    0.01    4.35    4.29   122.02716    96.21351   383.93751
   208  C   4.0    0.17    3.40    3.08   121.89866    96.42327   381.08780
   209  O   6.0   -0.32    1.32    1.80   123.25738    97.94450   379.94641
   210  H   1.0    0.12    1.13    1.45   119.40422    94.47496   385.95007
   211  H   1.0    0.05    1.09    1.44   122.79439    97.74607   384.58758
   212  H   1.0    0.05    1.09    1.44   123.09864    94.78487   384.35514
   213  N   5.0   -0.15    3.50    2.08   120.26027    94.90393   379.90295
   214  C   4.0    0.04    4.43    4.43   119.81051    95.13447   377.18363
   215  C   4.0    0.16    3.47    3.10   119.09431    97.83111   376.50144
   216  O   6.0   -0.30    1.23    1.80   120.19413    98.98196   374.76100
   217  C   4.0   -0.08    4.22    4.04   117.72804    93.29199   376.36727
   218  H   1.0    0.12    1.15    1.45   119.39289    93.73608   380.62671
   219  H   1.0    0.06    1.13    1.45   121.34308    94.69417   376.28034
   220  H   1.0    0.05    1.05    1.44   117.48426    93.43183   374.55691
   221  H   1.0    0.05    1.05    1.44   118.24015    91.58557   376.79813
   222  H   1.0    0.06    1.06    1.44   116.17657    93.71907   377.24221
   223  N   5.0   -0.16    3.50    2.07   117.20458    98.84590   377.86960
   224  C   4.0    0.03    4.49    4.53   116.46570   101.49529   377.61260
   225  C   4.0    0.16    3.52    3.12   118.70880   103.25463   378.05668
   226  O   6.0   -0.31    1.27    1.80   119.38722   104.79664   376.41451
   227  C   4.0   -0.05    4.50    4.54   114.35110   102.13780   379.44752
   228  C   4.0   -0.05    4.21    4.02   113.47237   104.81932   379.18674
   229  S   6.0   -0.05    2.68    3.10   111.20281   105.69993   381.59614
   230  C   4.0   -0.08    4.02    3.65   113.28907   105.89079   384.15672
   231  H   1.0    0.12    1.14    1.45   116.32208    98.02575   378.96186
   232  H   1.0    0.05    1.13    1.45   115.83642   101.72773   375.90618
   233  H   1.0    0.05    1.10    1.44   112.92246   101.03609   379.12438
   234  H   1.0    0.06    1.11    1.45   114.95203   101.89969   381.16339
   235  H   1.0    0.04    1.15    1.45   114.91612   105.93993   379.33036
   236  H   1.0    0.04    1.14    1.45   112.67491   105.03286   377.55024
   237  H   1.0    0.04    1.12    1.45   112.35555   106.40102   385.64960
   238  H   1.0    0.04    1.12    1.45   114.05252   104.24673   384.42884
   239  H   1.0    0.04    1.12    1.45   114.58731   107.12856   383.77688
   240  N   5.0   -0.16    3.53    2.10   119.87288   103.06376   380.28656
   241  C   4.0    0.03    4.55    4.60   121.99126   104.71916   380.85348
   242  C   4.0    0.16    3.50    3.11   124.03783   104.59822   378.84281
   243  O   6.0   -0.31    1.25    1.80   125.03561   106.56732   378.05668
   244  C   4.0   -0.05    4.53    4.58   123.11565   104.12768   383.40650
   245  C   4.0   -0.03    4.36    4.30   121.74559   105.37868   385.57590
   246  C   4.0   -0.09    4.22    4.05   122.94179   104.35634   388.01932
   247  C   4.0   -0.09    4.26    4.13   121.96102   108.19626   385.34536
   248  H   1.0    0.12    1.16    1.46   119.47792   102.01875   381.46764
   249  H   1.0    0.05    1.15    1.45   121.32796   106.42748   380.89694
   250  H   1.0    0.05    1.10    1.44   123.05139   102.31354   383.67295
   251  H   1.0    0.05    1.11    1.45   124.85608   104.70216   383.43295
   252  H   1.0    0.04    1.13    1.45   119.94846   105.01207   385.59102
   253  H   1.0    0.04    1.05    1.44   122.10275   105.11790   389.45929
   254  H   1.0    0.04    1.06    1.44   122.73770   102.53653   388.06656
   255  H   1.0    0.04    1.06    1.44   124.72380   104.78719   388.03444
   256  H   1.0    0.04    1.06    1.44   121.23348   108.97483   386.83635
   257  H   1.0    0.04    1.06    1.44   123.73170   108.64979   385.20552
   258  H   1.0    0.04    1.06    1.44   121.05584   108.74239   383.84869
   259  N   5.0   -0.16    3.52    2.09   124.73325   102.29087   378.02078
   260  C   4.0    0.04    4.44    4.45   126.91022   101.98851   376.32947
   261  C   4.0    0.16    3.44    3.09   126.34708   103.20927   373.77645
   262  O   6.0   -0.31    1.25    1.80   127.86075   104.77774   372.83537
   263  C   4.0    0.03    4.23    4.07   127.59619    99.17282   376.10460
   264  O   6.0   -0.28    2.07    1.83   130.09251    98.83834   375.10493
   265  H   1.0    0.13    1.18    1.46   123.98681   100.90192   378.41195
   266  H   1.0    0.06    1.13    1.45   128.38609   102.82566   377.02300
   267  H   1.0    0.05    1.07    1.44   127.51871    98.40937   377.76945
   268  H   1.0    0.05    1.07    1.44   126.39432    98.35835   374.98588
   269  H   1.0    0.14    1.07    1.44   130.35708    97.30199   374.81013
   270  N   5.0   -0.16    3.49    2.07   124.09263   102.59322   372.73522
   271  C   4.0    0.03    4.48    4.51   123.09675   103.85556   370.50912
   272  C   4.0    0.16    3.53    3.13   123.22903   106.73550   370.69809
   273  O   6.0   -0.32    1.28    1.80   124.06240   108.02240   368.94065
   274  C   4.0   -0.05    4.49    4.53   120.37365   103.04109   370.13306
   275  C   4.0   -0.03    4.35    4.30   118.92045   104.40358   368.05058
   276  C   4.0   -0.08    4.25    4.09   119.95602   104.06721   365.45788
   277  C   4.0   -0.09    4.22    4.04   116.13311   103.53620   368.13940
   278  H   1.0    0.12    1.15    1.45   123.11187   101.43104   373.30969
   279  H   1.0    0.05    1.13    1.45   124.11531   103.36045   369.06726
   280  H   1.0    0.05    1.10    1.44   120.36231   101.25530   369.72110
   281  H   1.0    0.06    1.10    1.44   119.46847   103.32833   371.70154
   282  H   1.0    0.05    1.14    1.45   119.07541   106.20260   368.37373
   283  H   1.0    0.05    1.06    1.44   118.92423   105.01207   364.27491
   284  H   1.0    0.05    1.06    1.44   121.67945   104.68893   365.42009
   285  H   1.0    0.05    1.06    1.44   119.92579   102.28520   365.03080
   286  H   1.0    0.04    1.05    1.44   115.18825   104.42626   366.84494
   287  H   1.0    0.05    1.06    1.44   116.06130   101.72962   367.83516
   288  H   1.0    0.04    1.05    1.44   115.44147   103.91792   369.79291
   289  N   5.0   -0.16    3.55    2.11   122.30306   107.81076   372.76167
   290  C   4.0    0.04    4.54    4.59   122.33897   110.55275   372.92986
   291  C   4.0    0.16    3.46    3.10   125.00915   111.58265   373.07537
   292  O   6.0   -0.30    1.22    1.80   125.43812   113.68213   372.11916
   293  C   4.0   -0.06    4.49    4.53   120.79884   111.38423   375.18241
   294  C   4.0   -0.03    4.34    4.27   117.98126   110.80030   375.12572
   295  C   4.0   -0.09    4.23    4.06   116.84553   111.03085   377.80535
   296  C   4.0   -0.09    4.26    4.13   116.54129   112.58420   373.48733
   297  H   1.0    0.12    1.15    1.45   121.66812   107.02841   374.03724
   298  H   1.0    0.05    1.14    1.45   121.57174   111.26139   371.42375
   299  H   1.0    0.05    1.11    1.44   121.48670   110.56220   376.66962
   300  H   1.0    0.04    1.11    1.44   120.96514   113.20403   375.33926
   301  H   1.0    0.05    1.13    1.45   117.81496   109.09955   374.46242
   302  H   1.0    0.04    1.06    1.44   115.03896   110.73416   377.71653
   303  H   1.0    0.04    1.05    1.44   117.63166   109.78174   378.89572
   304  H   1.0    0.04    1.06    1.44   117.17246   112.71459   378.44975
   305  H   1.0    0.04    1.06    1.44   114.75550   112.18547   373.59693
   306  H   1.0    0.04    1.06    1.44   116.83609   114.29818   374.06747
   307  H   1.0    0.04    1.06    1.44   117.11766   112.40090   371.75634
   308  N   5.0   -0.15    3.47    2.06   126.80250   110.14835   374.23566
   309  C   4.0    0.04    4.43    4.43   129.48591   110.86455   374.11661
   310  C   4.0    0.16    3.44    3.09   130.37975   110.88345   371.38217
   311  O   6.0   -0.27    1.21    1.80   131.47957   112.75995   370.48455
   312  C   4.0   -0.05    4.32    4.24   131.22824   109.12789   375.66618
   313  C   4.0   -0.04    4.23    4.06   131.21501   109.19592   378.66140
   314  C   4.0    0.16    3.27    3.05   132.10885   111.65824   379.88405
   315  O   6.0   -0.29    1.21    1.80   131.15832   112.44247   381.84936
   316  N   5.0   -0.22    3.26    1.97   133.81149   112.96593   378.60470
   317  H   1.0    0.13    1.14    1.45   126.50392   108.79152   375.07659
   318  H   1.0    0.07    1.13    1.45   129.61252   112.52940   374.87439
   319  H   1.0    0.06    1.09    1.44   130.81250   107.40446   375.20509
   320  H   1.0    0.05    1.10    1.44   132.94978   109.51340   375.16540
   321  H   1.0    0.06    1.09    1.44   129.49914   108.90302   379.23209
   322  H   1.0    0.04    1.09    1.44   132.31483   107.86178   379.26800
   323  H   1.0    0.11    1.10    1.44   134.34818   112.41602   377.17229
   324  H   1.0    0.15    1.11    1.44   134.38030   114.36432   379.20375
   325  N   5.0   -0.16    3.47    2.06   129.81850   108.80097   369.98944
   326  C   4.0    0.04    4.45    4.47   130.78037   108.45515   367.36839
   327  C   4.0    0.17    3.45    3.09   129.81850   110.50739   365.60339
   328  O   6.0   -0.27    1.21    1.80   131.25847   111.52974   364.07460
   329  C   4.0   -0.05    4.35    4.30   130.02826   105.87001   366.22511
   330  C   4.0   -0.05    4.32    4.23   131.64587   103.78186   367.30792
   331  C   4.0   -0.06    4.21    4.02   130.89754   101.08144   366.60305
   332  C   4.0   -0.04    4.22    4.04   132.34318    99.16904   368.37751
   333  N   5.0   -0.17    4.09    3.11   133.16143    96.75208   367.13218
   334  H   1.0    0.13    1.15    1.45   128.89443   107.57076   370.51290
   335  H   1.0    0.06    1.13    1.45   132.60585   108.51940   367.49878
   336  H   1.0    0.06    1.09    1.44   128.27460   105.51474   366.61817
   337  H   1.0    0.06    1.09    1.44   130.26637   105.91347   364.40908
   338  H   1.0    0.05    1.10    1.44   133.36552   104.03130   366.72589
   339  H   1.0    0.06    1.10    1.44   131.58162   103.89713   369.13529
   340  H   1.0    0.05    1.08    1.44   129.09285   100.85467   366.82982
   341  H   1.0    0.05    1.08    1.44   131.35863   100.74129   364.86262
   342  H   1.0    0.05    1.08    1.44   133.84929    99.99296   369.01623
   343  H   1.0    0.05    1.08    1.44   131.23769    98.71928   369.77024
   344  H   1.0    0.07    1.08    1.44   134.05527    95.82233   368.21310
   345  H   1.0    0.07    1.08    1.44   131.81405    95.87336   366.64085
   346  H   1.0    0.07    1.08    1.44   134.11385    97.09223   365.78858
   347  N   5.0   -0.16    3.52    2.09   127.37509   111.12155   365.78480
   348  C   4.0    0.04    4.47    4.49   126.11464   112.98860   364.19743
   349  C   4.0    0.16    3.43    3.09   126.87998   115.69091   364.78325
   350  O   6.0   -0.28    1.23    1.80   125.95212   117.38222   363.44721
   351  C   4.0   -0.04    4.40    4.38   123.22903   112.72782   364.46200
   352  C   4.0   -0.04    4.29    4.18   122.09141   110.29008   363.41509
   353  C   4.0    0.25    3.17    3.03   122.31818   110.15213   360.58239
   354  O   6.0   -0.27    1.19    1.80   121.47158   111.93981   359.30493
   355  O   6.0   -0.27    1.18    1.80   123.33296   108.24917   359.64319
   356  H   1.0    0.12    1.16    1.46   126.36408   110.44692   366.86573
   357  H   1.0    0.07    1.13    1.45   126.57195   112.65034   362.45511
   358  H   1.0    0.05    1.09    1.44   122.80573   112.80341   366.24401
   359  H   1.0    0.07    1.10    1.44   122.44290   114.12244   363.57004
   360  H   1.0    0.06    1.10    1.44   122.97581   108.85199   364.13318
   361  H   1.0    0.05    1.09    1.44   120.31318   110.21449   363.85350
   362  N   5.0   -0.15    3.42    2.03   128.40688   116.13311   366.76179
   363  C   4.0    0.03    4.34    4.28   129.38576   118.64077   367.29847
   364  C   4.0    0.16    3.35    3.06   127.77004   120.27161   368.98600
   365  O   6.0   -0.27    1.22    1.80   128.39365   122.50904   369.33182
   366  H   1.0    0.13    1.14    1.45   128.89443   114.99549   367.81437
   367  H   1.0    0.06    1.09    1.44   131.02037   118.46314   368.10728
   368  H   1.0    0.07    1.10    1.44   129.59741   119.53273   365.71110
   369  N   5.0   -0.15    3.49    2.07   125.71969   119.22848   370.05558
   370  C   4.0    0.03    4.53    4.58   123.96224   120.70436   371.60138
   371  C   4.0    0.16    3.45    3.10   124.94490   121.10876   374.26778
   372  O   6.0   -0.29    1.21    1.80   125.36631   123.27438   375.06903
   373  C   4.0   -0.06    4.58    4.64   121.43379   119.37588   371.80169
   374  C   4.0   -0.03    4.40    4.37   119.57430   120.43223   369.92519
   375  C   4.0   -0.08    4.26    4.12   120.33019   119.44769   367.30414
   376  C   4.0   -0.09    4.30    4.19   117.04774   119.53084   370.64329
   377  H   1.0    0.11    1.14    1.45   125.30773   117.66379   369.91008
   378  H   1.0    0.06    1.14    1.45   123.76004   122.32385   370.76801
   379  H   1.0    0.05    1.11    1.45   121.65678   117.59009   371.45965
   380  H   1.0    0.04    1.11    1.45   120.75538   119.61209   373.48922
   381  H   1.0    0.04    1.13    1.45   119.55351   122.26338   369.88929
   382  H   1.0    0.05    1.05    1.44   119.13399   120.07130   366.06448
   383  H   1.0    0.06    1.06    1.44   122.01583   120.05051   366.90541
   384  H   1.0    0.05    1.06    1.44   120.30940   117.61465   367.32682
   385  H   1.0    0.05    1.06    1.44   115.81752   120.20358   369.46221
   386  H   1.0    0.04    1.07    1.44   117.03073   117.69969   370.59038
   387  H   1.0    0.04    1.07    1.44   116.66790   120.11287   372.34026
   388  N   5.0   -0.16    3.51    2.08   125.27560   119.01872   375.66240
   389  C   4.0    0.03    4.50    4.53   126.45668   119.04518   378.14361
   390  C   4.0    0.16    3.49    3.11   129.32906   119.12076   377.96220
   391  O   6.0   -0.27    1.25    1.80   130.46857   117.39922   376.83592
   392  C   4.0   -0.04    4.56    4.61   125.76693   116.64711   379.53445
   393  C   4.0   -0.03    4.35    4.29   123.09297   116.27484   380.48687
   394  C   4.0   -0.09    4.23    4.06   123.08919   113.82764   382.07802
   395  C   4.0   -0.09    4.29    4.18   122.28228   118.48582   381.94763
   396  H   1.0    0.10    1.14    1.45   124.81451   117.53528   375.18808
   397  H   1.0    0.05    1.13    1.45   125.87276   120.54940   379.01666
   398  H   1.0    0.06    1.11    1.45   126.10708   115.24683   378.40061
   399  H   1.0    0.06    1.12    1.45   126.85352   116.54129   381.00655
   400  H   1.0    0.04    1.13    1.45   121.88732   116.10476   379.11682
   401  H   1.0    0.04    1.05    1.44   121.39788   113.54229   382.72809
   402  H   1.0    0.05    1.05    1.44   123.59375   112.42358   381.01410
   403  H   1.0    0.05    1.06    1.44   124.27027   114.01662   383.46697
   404  H   1.0    0.04    1.06    1.44   120.59853   118.18157   382.60525
   405  H   1.0    0.05    1.07    1.44   123.45391   118.75038   383.33280
   406  H   1.0    0.04    1.07    1.44   122.26905   119.95413   380.85159
   407  N   5.0   -0.17    3.48    2.06   130.54038   121.01994   379.13194
   408  C   4.0    0.04    4.57    4.63   133.30505   120.86687   379.14328
   409  C   4.0    0.16    3.42    3.08   134.24613   119.12454   381.23331
   410  O   6.0   -0.28    1.22    1.80   135.99035   117.60143   380.84025
   411  C   4.0   -0.05    4.50    4.53   134.47101   123.47847   379.31902
   412  C   4.0   -0.04    4.22    4.04   134.89809   124.53105   376.73765
   413  S   6.0   -0.02    2.62    3.10   135.31761   127.87020   376.76600
   414  C   4.0   -0.07    3.99    3.60   134.39542   128.50325   373.51567
   415  H   1.0    0.10    1.11    1.45   129.86197   122.30117   379.86515
   416  H   1.0    0.07    1.15    1.45   133.85874   120.17712   377.53701
   417  H   1.0    0.05    1.12    1.45   133.34095   124.59719   380.22987
   418  H   1.0    0.06    1.10    1.44   136.08295   123.37454   380.18452
   419  H   1.0    0.05    1.15    1.45   136.40609   123.77327   376.02145
   420  H   1.0    0.06    1.16    1.46   133.44489   124.14933   375.68697
   421  H   1.0    0.05    1.10    1.44   134.36707   130.31550   373.24544
   422  H   1.0    0.05    1.10    1.44   135.61240   127.72280   372.38751
   423  H   1.0    0.06    1.10    1.44   132.72868   127.80028   373.22087
   424  N   5.0   -0.14    3.58    2.14   133.00458   119.26438   383.41217
   425  C   4.0    0.04    4.45    4.46   133.52615   117.93780   385.74220
   426  C   4.0    0.14    3.56    3.14   131.00903   116.75483   386.49431
   427  O   6.0   -0.29    1.31    1.80   129.02104   117.96047   386.27888
   428  C   4.0    0.04    4.23    4.06   134.45211   119.83697   387.73964
   429  O   6.0   -0.26    2.08    1.84   136.13586   121.69457   386.67572
   430  H   1.0    0.11    1.17    1.46   131.70823   120.22625   383.59547
   431  H   1.0    0.06    1.12    1.45   134.81683   116.64333   385.60614
   432  H   1.0    0.06    1.07    1.44   132.99891   120.69869   388.45018
   433  H   1.0    0.06    1.07    1.44   135.34217   118.92234   389.05489
   434  H   1.0    0.15    1.07    1.44   137.32450   121.98937   387.68295
   435  N   5.0   -0.09    3.65    2.21   130.95801   114.38889   387.26532
   436  C   4.0    0.04    4.54    4.59   128.45412   113.25884   387.76610
   437  C   4.0    0.09    3.23    3.04   126.99336   114.67046   389.81645
   438  O   6.0   -0.31    1.12    1.80   124.66900   114.58920   389.74275
   439  C   4.0   -0.05    4.41    4.39   129.01537   110.48661   388.48797
   440  C   4.0   -0.05    4.38    4.34   131.79516   110.14835   388.24798
   441  C   4.0   -0.02    4.37    4.33   133.09907   112.71837   387.88326
   442  H   1.0    0.06    1.12    1.45   127.46202   113.21348   386.22597
   443  H   1.0    0.04    1.09    1.44   128.47491   110.18236   390.21329
   444  H   1.0    0.04    1.09    1.44   128.12720   109.36411   387.34469
   445  H   1.0    0.04    1.09    1.44   132.41877   109.35088   389.77487
   446  H   1.0    0.05    1.09    1.44   132.12775   109.07498   386.80045
   447  H   1.0    0.05    1.08    1.44   133.93433   113.25884   389.42339
   448  H   1.0    0.05    1.08    1.44   134.30471   112.65601   386.50376
   449  N   5.0   -0.23    3.23    1.96   121.35820   119.73493   388.70340
   450  C   4.0    0.03    4.33    4.26   118.78061   118.88833   388.25176
   451  C   4.0    0.08    3.26    3.05   117.05529   119.49493   390.44384
   452  O   6.0   -0.30    1.16    1.80   114.76117   119.25683   390.18683
   453  C   4.0   -0.05    4.64    4.71   118.76739   116.05374   387.74153
   454  C   4.0   -0.03    4.57    4.63   116.24082   114.94069   387.33902
   455  C   4.0   -0.09    4.52    4.56   116.47893   112.92057   385.50976
   456  C   4.0   -0.07    4.56    4.61   115.40745   113.65757   389.43472
   457  H   1.0    0.12    1.09    1.44   122.36542   118.53495   389.13237
   458  H   1.0    0.04    1.13    1.45   118.11165   119.71981   386.76076
   459  H   1.0    0.04    1.12    1.45   119.75760   115.73249   386.23353
   460  H   1.0    0.05    1.12    1.45   119.52139   115.20336   389.18150
   461  H   1.0    0.06    1.16    1.46   115.11644   116.30885   386.86848
   462  H   1.0    0.03    1.08    1.44   114.85376   112.09665   385.31701
   463  H   1.0    0.03    1.07    1.44   117.01561   113.62922   383.90728
   464  H   1.0    0.03    1.09    1.44   117.72426   111.71682   386.10881
   465  H   1.0    0.04    1.09    1.44   113.77473   112.91113   389.06812
   466  H   1.0    0.04    1.10    1.44   116.61688   112.34421   389.85046
   467  H   1.0    0.06    1.09    1.44   115.25817   114.83298   390.83312
   468  N   5.0   -0.16    3.43    2.04   108.31342   127.60941   374.06180
   469  C   4.0    0.02    4.54    4.59   110.04630   126.50014   372.18342
   470  C   4.0    0.15    3.44    3.09   110.11244   123.63532   371.91885
   471  O   6.0   -0.31    1.27    1.80   109.97260   122.56763   369.84204
   472  C   4.0   -0.05    4.49    4.52   112.63523   127.45635   373.08859
   473  C   4.0   -0.05    4.43    4.42   112.04563   129.99614   374.09204
   474  C   4.0   -0.02    4.45    4.46   109.45482   129.82039   375.30335
   475  H   1.0    0.05    1.12    1.45   109.54363   127.17289   370.55258
   476  H   1.0    0.04    1.09    1.44   113.30230   126.35842   374.39628
   477  H   1.0    0.04    1.09    1.44   113.81252   127.54705   371.68453
   478  H   1.0    0.04    1.09    1.44   113.30608   130.47235   375.33359
   479  H   1.0    0.04    1.09    1.44   112.03051   131.20934   372.71632
   480  H   1.0    0.05    1.08    1.44   109.59844   129.55016   377.10993
   481  H   1.0    0.04    1.08    1.44   108.47594   131.33217   374.97076
   482  N   5.0   -0.17    3.51    2.08   110.39023   122.35409   374.04102
   483  C   4.0    0.03    4.52    4.57   110.36944   119.59509   374.01456
   484  C   4.0    0.09    3.32    3.06   107.93548   118.63700   372.84482
   485  O   6.0   -0.31    1.16    1.80   107.98650   117.07797   371.11950
   486  C   4.0   -0.03    4.50    4.54   110.70204   118.53684   376.70553
   487  C   4.0   -0.06    4.38    4.35   113.37978   119.01494   377.57480
   488  C   4.0   -0.09    4.29    4.18   110.08410   115.74760   376.68663
   489  C   4.0   -0.09    4.20    3.99   113.56686   119.14155   380.34325
   490  H   1.0    0.09    1.13    1.45   110.59054   123.01927   375.51122
   491  H   1.0    0.05    1.13    1.45   111.78107   119.02439   372.99411
   492  H   1.0    0.04    1.13    1.45   109.56631   119.37210   377.87527
   493  H   1.0    0.04    1.11    1.44   114.45692   117.65245   376.98899
   494  H   1.0    0.04    1.11    1.45   113.95992   120.61365   376.88883
   495  H   1.0    0.04    1.06    1.44   110.46204   115.04274   378.33447
   496  H   1.0    0.05    1.07    1.44   108.30397   115.53407   376.30680
   497  H   1.0    0.04    1.06    1.44   111.10077   114.92179   375.40540
   498  H   1.0    0.04    1.06    1.44   115.30730   119.47036   380.81001
   499  H   1.0    0.04    1.06    1.44   112.48972   120.49460   380.95363
   500  H   1.0    0.04    1.06    1.44   113.02073   117.54095   381.05190
   501  N   5.0   -0.22    3.27    1.97   107.65391   119.40800   365.92275
   502  C   4.0    0.04    4.33    4.25   109.45293   117.94913   364.44310
   503  C   4.0    0.15    3.44    3.09   108.79908   115.14478   364.45633
   504  O   6.0   -0.30    1.24    1.80   108.85955   113.92024   362.44755
   505  C   4.0   -0.08    4.22    4.04   112.12311   118.47448   365.39174
   506  H   1.0    0.14    1.10    1.44   108.23972   119.97303   367.32871
   507  H   1.0    0.05    1.13    1.45   109.39435   118.48015   362.68943
   508  H   1.0    0.05    1.06    1.44   113.30986   117.46725   364.42231
   509  H   1.0    0.05    1.06    1.44   112.49350   120.25649   365.17631
   510  H   1.0    0.05    1.06    1.44   112.22704   118.02472   367.16430
   511  N   5.0   -0.17    3.50    2.08   108.08854   114.10921   366.65030
   512  C   4.0    0.04    4.45    4.47   107.23439   111.50139   366.66353
   513  C   4.0    0.09    3.24    3.04   104.73428   111.16880   365.24623
   514  O   6.0   -0.28    1.12    1.80   104.23350   109.08254   364.32405
   515  C   4.0   -0.05    4.50    4.54   106.94904   110.61133   369.34316
   516  C   4.0   -0.03    4.33    4.25   109.41324   110.20693   370.78691
   517  C   4.0   -0.09    4.21    4.02   108.83688   109.72505   373.57236
   518  C   4.0   -0.09    4.23    4.05   110.89290   108.06209   369.55859
   519  H   1.0    0.12    1.15    1.45   108.08854   114.85754   368.09405
   520  H   1.0    0.05    1.14    1.45   108.49484   110.46771   365.82449
   521  H   1.0    0.05    1.10    1.44   105.97394   111.86044   370.26345
   522  H   1.0    0.05    1.11    1.44   106.05709   109.01073   369.32426
   523  H   1.0    0.05    1.13    1.45   110.47716   111.69792   370.72266
   524  H   1.0    0.04    1.06    1.44   110.41480   109.48883   374.47565
   525  H   1.0    0.04    1.06    1.44   107.93737   111.17069   374.25267
   526  H   1.0    0.05    1.06    1.44   107.80320   108.21894   373.71598
   527  H   1.0    0.04    1.06    1.44   112.41980   107.75973   370.52613
   528  H   1.0    0.04    1.06    1.44   109.85355   106.55220   369.54536
   529  H   1.0    0.04    1.06    1.44   111.32376   108.54208   367.84271
   530  N   5.0   -0.22    3.24    1.97   106.76385   110.45448   358.35440
   531  C   4.0    0.04    4.32    4.24   107.71816   107.90335   358.04260
   532  C   4.0    0.09    3.22    3.04   105.56765   105.98339   357.77237
   533  O   6.0   -0.27    1.12    1.80   105.68670   104.32988   356.14720
   534  C   4.0   -0.05    4.46    4.48   109.41324   107.25896   360.24980
   535  C   4.0   -0.05    4.39    4.37   110.88723   104.89113   359.88130
   536  C   4.0   -0.01    4.42    4.41   111.67902   103.94438   362.41731
   537  N   5.0   -0.16    3.46    2.05   112.83932   101.46317   362.28692
   538  C   4.0    0.11    3.48    3.11   115.10132   101.10034   361.23245
   539  N   5.0   -0.24    3.31    1.98   116.32397   103.04676   360.09295
   540  N   5.0   -0.23    3.27    1.97   116.07264    98.77598   361.17198
   541  H   1.0    0.13    1.10    1.44   107.31376   111.24439   359.66209
   542  H   1.0    0.06    1.13    1.45   108.71593   107.80887   356.50814
   543  H   1.0    0.05    1.10    1.44   110.60566   108.62901   360.49735
   544  H   1.0    0.06    1.11    1.45   108.37956   107.04920   361.74835
   545  H   1.0    0.07    1.10    1.44   109.84788   103.62312   359.06116
   546  H   1.0    0.05    1.11    1.44   112.38011   105.22750   358.87219
   547  H   1.0    0.04    1.10    1.44   112.89790   105.10656   363.13919
   548  H   1.0    0.05    1.10    1.44   110.20504   103.82721   363.50201
   549  H   1.0    0.12    1.15    1.45   112.04563   100.18949   362.90675
   550  H   1.0    0.11    1.10    1.44   115.63989   104.52074   360.04949
   551  H   1.0    0.11    1.08    1.44   117.78095   102.80487   359.41643
   552  H   1.0    0.12    1.09    1.44   115.24305    97.53254   361.80882
   553  H   1.0    0.11    1.09    1.44   117.52773    98.52086   360.49735
   554  N   5.0   -0.22    3.25    1.97   107.25707    98.06544   371.10060
   555  C   4.0    0.03    4.27    4.14   108.35122    99.98540   372.73899
   556  C   4.0    0.08    3.20    3.04   106.43503   102.03764   373.39662
   557  O   6.0   -0.31    1.15    1.80   106.18370   102.75196   375.58870
   558  C   4.0   -0.06    4.32    4.24   110.77196   101.03609   371.49367
   559  C   4.0   -0.04    4.26    4.11   112.76562    99.00085   370.68864
   560  C   4.0    0.24    3.15    3.03   112.35933    97.86702   368.09216
   561  O   6.0   -0.30    1.21    1.80   110.93069    98.88936   366.48400
   562  O   6.0   -0.28    1.19    1.80   113.37600    95.79021   367.70288
   563  H   1.0    0.12    1.10    1.44   107.90713    98.00308   369.61150
   564  H   1.0    0.05    1.13    1.45   108.85010    99.24274   374.33959
   565  H   1.0    0.05    1.09    1.44   110.29197   101.95827   369.98377
   566  H   1.0    0.04    1.09    1.44   111.59021   102.16425   372.68230
   567  H   1.0    0.04    1.09    1.44   114.42480    99.77942   370.69242
   568  H   1.0    0.05    1.09    1.44   112.71648    97.62702   371.90185
   569  N   5.0   -0.21    3.25    1.97   102.52897    99.54887   378.93163
   570  C   4.0    0.04    4.42    4.42   103.98028    99.88147   381.25788
   571  C   4.0    0.15    3.48    3.10   103.93871   102.62157   382.17818
   572  O   6.0   -0.31    1.28    1.80   103.49840   103.15447   384.42506
   573  C   4.0    0.05    4.35    4.29   106.75251    99.07266   380.87049
   574  O   6.0   -0.27    2.14    1.85   107.01707    96.67271   379.62894
   575  C   4.0   -0.08    4.23    4.05   108.07910    98.85156   383.37248
   576  H   1.0    0.12    1.09    1.44   103.40013    98.89125   377.72787
   577  H   1.0    0.06    1.13    1.45   103.20927    98.80810   382.52778
   578  H   1.0    0.05    1.11    1.45   107.51596   100.36146   379.81413
   579  H   1.0    0.15    1.08    1.44   108.55342    96.29477   379.49854
   580  H   1.0    0.05    1.06    1.44   109.82331    98.35079   383.11548
   581  H   1.0    0.05    1.06    1.44   108.04508   100.46350   384.24554
   582  H   1.0    0.05    1.06    1.44   107.24573    97.59301   384.41561
   583  N   5.0   -0.17    3.52    2.09   104.49807   104.38657   380.49254
   584  C   4.0    0.04    4.50    4.54   104.62846   107.01329   381.28056
   585  C   4.0    0.10    3.33    3.06   102.14536   107.94493   382.33502
   586  O   6.0   -0.28    1.13    1.80   102.12079   109.40757   384.15105
   587  C   4.0   -0.05    4.48    4.50   105.34655   108.63090   379.08469
   588  C   4.0   -0.02    3.85    3.39   105.01963   111.32942   379.50421
   589  C   4.0   -0.01    3.69    3.23   103.56832   112.96971   378.12282
   590  C   4.0    0.02    3.98    3.58   106.21205   112.78262   381.37693
   591  N   5.0   -0.14    3.54    2.11   103.87257   115.36399   378.99210
   592  C   4.0    0.04    3.99    3.60   105.45049   115.30352   381.03489
   593  C   4.0   -0.05    3.49    3.11   107.90335   112.22138   383.27800
   594  C   4.0   -0.05    3.47    3.10   106.27630   117.24994   382.57880
   595  C   4.0   -0.05    3.46    3.10   108.75562   114.15645   384.78978
   596  C   4.0   -0.04    3.47    3.10   107.90902   116.63955   384.45341
   597  H   1.0    0.12    1.15    1.45   104.80231   104.12012   378.91840
   598  H   1.0    0.05    1.14    1.45   105.90213   107.14179   382.59203
   599  H   1.0    0.04    1.11    1.45   107.11534   108.34177   378.69730
   600  H   1.0    0.05    1.12    1.45   104.30720   108.16413   377.64850
   601  H   1.0    0.05    1.08    1.44   102.52519   112.50861   376.78490
   602  H   1.0    0.09    1.11    1.45   103.18660   116.69625   378.36093
   603  H   1.0    0.05    1.10    1.44   108.45515   110.57164   383.53311
   604  H   1.0    0.06    1.10    1.44   105.73584   118.90534   382.33691
   605  H   1.0    0.05    1.10    1.44   109.91969   113.80686   386.05967
   606  H   1.0    0.06    1.10    1.44   108.47972   117.89622   385.54189
   607  N   5.0   -0.22    3.26    1.97   101.87135   105.53741   388.86970
   608  C   4.0    0.04    4.45    4.46   103.71383   106.78085   390.50431
   609  C   4.0    0.09    3.29    3.05   102.91259   109.45671   391.08067
   610  O   6.0   -0.28    1.12    1.80   102.96739   110.23338   393.27276
   611  C   4.0   -0.03    4.46    4.47   106.35189   106.74306   389.33646
   612  C   4.0   -0.08    4.31    4.22   107.99028   108.58743   390.74619
   613  C   4.0   -0.09    4.29    4.19   107.31376   104.12390   389.48764
   614  H   1.0    0.14    1.11    1.45   102.43826   105.07632   387.41650
   615  H   1.0    0.05    1.14    1.45   103.76674   105.83599   392.07467
   616  H   1.0    0.05    1.13    1.45   106.35000   107.24762   387.57523
   617  H   1.0    0.04    1.06    1.44   109.71560   108.43059   390.14904
   618  H   1.0    0.06    1.07    1.44   107.37423   110.28630   390.44006
   619  H   1.0    0.05    1.06    1.44   107.91091   108.20760   392.53765
   620  H   1.0    0.04    1.06    1.44   108.94837   104.04075   388.65994
   621  H   1.0    0.04    1.07    1.44   107.48194   103.65147   391.25075
   622  H   1.0    0.06    1.07    1.44   106.13079   103.00518   388.64860
   623  N   5.0   -0.23    3.22    1.96   124.16444   133.68488   379.13194
   624  C   4.0    0.03    4.32    4.24   121.39977   133.83794   379.14328
   625  C   4.0    0.08    3.21    3.04   120.45868   135.58027   381.23331
   626  O   6.0   -0.28    1.11    1.80   118.71447   137.10339   380.84025
   627  C   4.0   -0.05    4.49    4.53   120.23381   131.22634   379.31902
   628  C   4.0   -0.05    4.22    4.04   119.80673   130.17377   376.73765
   629  S   6.0   -0.04    2.62    3.10   119.38721   126.83462   376.76600
   630  C   4.0   -0.07    3.99    3.61   120.30940   126.20156   373.51567
   631  H   1.0    0.10    1.07    1.44   124.84285   132.40364   379.86515
   632  H   1.0    0.05    1.14    1.45   120.84608   134.52769   377.53701
   633  H   1.0    0.05    1.12    1.45   121.36386   130.10763   380.22987
   634  H   1.0    0.05    1.10    1.44   118.62187   131.33028   380.18452
   635  H   1.0    0.04    1.15    1.45   118.29873   130.93155   376.02145
   636  H   1.0    0.05    1.16    1.46   121.25993   130.55549   375.68697
   637  H   1.0    0.05    1.10    1.44   120.33774   124.38931   373.24544
   638  H   1.0    0.04    1.10    1.44   119.09241   126.98202   372.38751
   639  H   1.0    0.06    1.10    1.44   121.97613   126.90454   373.22087
   640  H   1.0    0.08    1.04    1.43   122.38325    98.79567   399.59037
   641  H   1.0    0.10    1.08    1.44   116.59873   105.67041   401.73628
   642  H   1.0    0.07    1.05    1.44   113.39273   100.29664   399.92289
   643  H   1.0    0.09    1.08    1.44   112.77969    89.30095   392.33598
   644  H   1.0    0.06    1.04    1.43   127.92653   115.61870   391.15850
   645  H   1.0    0.10    1.08    1.44   121.98019   120.44130   387.28681
   646  H   1.0    0.06    1.05    1.44   117.78399   120.08417   392.08483
   647  H   1.0    0.09    1.21    1.47   107.20701   128.63548   373.27720
   648  H   1.0    0.06    1.05    1.44   106.27066   119.27186   373.47441
   649  H   1.0    0.10    1.08    1.44   107.14087   120.75720   365.02329
   650  H   1.0    0.06    1.04    1.43   103.54127   112.62491   365.08028
   651  H   1.0    0.11    1.08    1.44   107.19997   111.39271   357.00455
   652  H   1.0    0.07    1.04    1.43   104.06814   106.07668   358.91859
   653  H   1.0    0.11    1.08    1.44   107.47435    96.53076   371.80068
   654  H   1.0    0.06    1.04    1.44   105.37370   102.80998   372.03716
   655  H   1.0    0.11    1.08    1.44   101.20519    98.52363   379.23004
   656  H   1.0    0.06    1.05    1.44   100.51759   107.37654   381.56147
   657  H   1.0    0.11    1.08    1.44   101.29272   104.13191   389.63278
   658  H   1.0    0.07    1.05    1.44   102.33934   110.59303   389.68381
   659  H   1.0    0.10    1.08    1.44   124.72370   133.63529   377.52653
   660  H   1.0    0.06    1.04    1.43   121.24607   135.50805   382.94967

  Z AO/shell   Hii/eV     exponent
  1     Wed Apr 25 08:07:45 CEST 2018   EN: 2.200 GM2: 0.406  GM3: 0.0800  RAES: 1.40
     1s    -10.707211    1.230000
  6     Wed Apr 25 08:07:45 CEST 2018   EN: 2.550 GM2: 0.538  GM3: 0.1500  RAES: 3.00
     2s    -13.970922    2.096432
     2p    -10.063292    1.800000
  7     Wed Apr 25 08:07:45 CEST 2018   EN: 3.040 GM2: 0.461  GM3:-0.0640  RAES: 1.90
     2s    -16.686243    2.339881
     2p    -12.523956    2.014332
  8     Wed Apr 25 08:07:45 CEST 2018   EN: 3.440 GM2: 0.452  GM3:-0.0517  RAES: 1.80
     2s    -20.229985    2.439742
     2p    -15.503117    2.137023
 16     Tue Apr 24 11:44:34 CEST 2018   EN: 2.580 GM2: 0.340  GM3:-0.0502  RAES: 3.10
     3s    -20.029654    1.981333
     3p    -11.377694    2.025643
     3d     -0.420282    1.702555
 no old-style atom pair restraining (fixing) potential

molecular fragmentation (1/2 indicates fragments):
111111111111111111111111111111111111111111111111111111111111111111111111
111111111111111111111111111111111111222222222222222222222222222222222222
222222222222222222222222222222222222222222222222222222222222222222222222
222222222222222222222222222222222222222222222222222222222222222222222222
222222222222222222222222222222222222222222222222222222222222222222222222
222222222222222222222222222222222222222222222222222222222222222222222222
222222222222222222222222222222222222222222222222222222222222222222222222
222222222222222222222222222222222222222222222222222222222222222222222222
222222222222222222222222222222222222222222222222222222222222222122222222
222222222222
# atoms in fragment 1/2:   109   551
 fragment masses (1/2) :      776.86     3613.62
CMA distance (Bohr)    :  21.615
constraining FC (au)   :  0.0500
           ------------------------------------------------- 
          |        Self-Consistent Charge Iterations        |
           ------------------------------------------------- 

 Ncao       : 1593
 Nao        : 1590
 Nshell     : 968
 Nel        : 1736
 T(el)      :   500.0
 intcut     :    35.0
 scfconv/Eh :  0.100E-06
   qconv/e  :  0.100E-04
 intneglect :  0.100E-08
 broydamp   :      0.400
 iter      E             dE          RMSdq      gap      omega  full diag
   1   -992.8878723 -0.992888E+03  0.454E+00    2.69       0.0  T
   2   -995.1571506 -0.226928E+01  0.215E+00    1.43       1.0  T
   3   -995.2772903 -0.120140E+00  0.124E+00    1.89       1.0  T
   4   -995.4442423 -0.166952E+00  0.244E-01    1.23       1.0  T
   5   -995.4546881 -0.104458E-01  0.116E-01    1.40       1.0  T
