      -----------------------------------------------------------      
     |                   =====================                   |     
     |                           x T B                           |     
     |                   =====================                   |     
     |                         S. Grimme                         |     
     |          Mulliken Center for Theoretical Chemistry        |     
     |                    University of Bonn                     |     
     |                 Version 6.0.1 (SAW181210)                 |     
      -----------------------------------------------------------      

   This program is distributed in the hope that it will be useful,
   but WITHOUT ANY WARRANTY; without even the implied warranty of
   MERCHANTABILITY or FITNESS FOR A PARTICULAR PURPOSE.
   
   FOR NON-COMMERCIAL, ACADEMIA USE ONLY.
   
   Cite this work as:
   S. Grimme, C. Bannwarth, P. Shushkov, J. Comput. Theory Chem., 2017,
   13, 1989-2009.
   C. Bannwarth, S. Ehlert and S. Grimme., ChemRxiv, 2018, preprint.
   http://doi.org/10.26434/chemrxiv.7246238.v1
   
   for sTDA-xTB:
   S. Grimme and C. Bannwarth, J. Chem. Phys., 2016, 145, 054103.
   
   in the mass-spec context:
   V. Asgeirsson, C. Bauer and S. Grimme, Chem. Sci., 2017, 8, 4879.
   
   if GBSA is used:
   P. Shushkov, F. März and S. Grimme, unpublished.
   
   for ANC optimizer:
   S. Grimme, unpublished.
   Rational Function algorithm used in ANCopt:
   F. Eckert, P. Pulay, H.-J. Werner, J. Comput. Chem., 1997, 18, 1473.
   
   with help from (in alphabetical order)
   C. Bannwarth, F. Bohle, G. Brandenburg, E. Caldeweyher, M. Checinski,
   S. Dohm, S. Ehlert, S. Ehrlich, F. März, H. Neugebauer, J. Pisarek,
   P. Pracht, P. Shushkov, and S. Spicher.
   
 * started run on 2019/05/11 at 23:08:11.252     
========================================================================
 # omp threads = 2
========================================================================
number of atoms            : 355
number of electrons        : 942
charge                     : -1
spin                       : .0
first test random number   : .4519

########################################################################
# WARNING! Please study the warnings concerning your input carefully
#  - Process number higher than OMP_NUM_THREADS, I hope you know what you are doing.
########################################################################

           ------------------------------------------------- 
          |                 G F N 2 - x T B                 |
          | Geometry, Frequencies, Noncovalent interactions |
          |            JCTC 2018 parametrisation            |
           ------------------------------------------------- 
 
      method parameters     
 k(s)        :  1.8500
 k(p)        :  2.2300
 k(d)        :  2.2300
 k(f)        :  2.0000
 kEN (H0ij)  : -2.0000
 D4 a1       :  0.5200
 D4 a2       :  5.0000
 D4 s6       :  1.0000
 D4 s8       :  2.7000
 D4 s9       :  5.0000
 alphaj      :  2.0000

 Solvent             : h2o
 Using internal parameter file: .param_gbsa2_h2o
 Gsolv ref. state (COSMO-RS): gsolv [1 M gas/solution]
 temperature (mdtemp)       :    298.150000000000     
 dielectric constant        :    80.2000000000000     
 rho                        :    1.00000000000000     
 mass                       :    18.0000000000000     
 surface tension            :    15.5689454083859     
 probe radius               :   0.975313790000000     
 vdW radii scaling          :    1.00000000000000     
 Gshift (Eh)                :   1.857443126794793E-003
 c1                         :    1.55243817000000     
 soset                      :   0.130326360000000     
 HB correction              :  T

            Z     q(EN)     CN     RAES       Cart. coordinates
     1  N   5.0   -0.21    3.15    1.95    78.55557   117.23068   -33.24117
     2  C   4.0    0.03    4.25    4.11    80.92148   118.25319   -34.18722
     3  C   4.0    0.09    3.31    3.06    83.26101   117.49843   -32.71483
     4  O   6.0   -0.28    1.13    1.80    85.00928   116.41009   -33.77260
     5  C   4.0   -0.05    4.43    4.43    81.21000   121.12021   -34.01663
     6  C   4.0   -0.03    4.17    3.94    80.02643   122.69108   -36.11341
     7  C   4.0   -0.08    4.11    3.83    81.47607   125.18846   -36.33210
     8  C   4.0   -0.08    4.15    3.91    80.05034   121.30853   -38.62367
     9  H   1.0    0.08    1.02    1.43    77.37567   118.45170   -32.34011
    10  H   1.0    0.05    1.06    1.44    81.20865   117.51741   -36.09745
    11  H   1.0    0.04    1.03    1.43    80.48639   121.73401   -32.18629
    12  H   1.0    0.06    1.06    1.44    83.24413   121.49036   -34.03803
    13  H   1.0    0.03    1.05    1.44    78.05846   123.09151   -35.60082
    14  H   1.0    0.04    1.00    1.43    80.57344   126.38736   -37.73228
    15  H   1.0    0.04    1.00    1.43    81.49745   126.16322   -34.52304
    16  H   1.0    0.05    1.00    1.43    83.41749   124.85384   -36.91102
    17  H   1.0    0.04    1.00    1.43    79.14167   122.44417   -40.07394
    18  H   1.0    0.04    1.00    1.43    81.98975   120.95715   -39.19851
    19  H   1.0    0.04    1.03    1.43    79.10226   119.51321   -38.50570
    20  N   5.0   -0.19    3.24    1.96    90.66076   116.27038   -36.68658
    21  C   4.0    0.03    4.43    4.42    90.17847   118.74884   -37.71256
    22  C   4.0    0.15    3.38    3.07    89.77511   120.89197   -35.75846
    23  O   6.0   -0.28    1.20    1.80    88.29121   120.84167   -33.99436
    24  C   4.0   -0.02    4.38    4.34    87.82332   118.46695   -39.37378
    25  C   4.0   -0.05    4.19    3.98    88.26172   116.58083   -41.54804
    26  C   4.0   -0.07    4.17    3.93    87.04334   121.08008   -40.28350
    27  C   4.0   -0.08    4.01    3.64    86.42691   114.36300   -41.43894
    28  H   1.0    0.08    1.06    1.44    89.88343   114.86788   -37.72655
    29  H   1.0    0.03    1.06    1.44    91.81218   119.27922   -38.87710
    30  H   1.0    0.06    1.06    1.44    86.33970   117.73746   -38.12339
    31  H   1.0    0.03    1.03    1.43    87.98946   117.55977   -43.33798
    32  H   1.0    0.04    1.03    1.43    90.19363   115.86706   -41.50915
    33  H   1.0    0.03    1.00    1.43    85.47916   120.95210   -41.60950
    34  H   1.0    0.06    1.01    1.43    86.41797   122.21991   -38.69070
    35  H   1.0    0.04    1.02    1.43    88.60259   122.05386   -41.15654
    36  H   1.0    0.04    1.00    1.43    86.72617   113.07381   -43.00885
    37  H   1.0    0.04    1.00    1.43    86.62619   113.30641   -39.68619
    38  H   1.0    0.04    1.00    1.43    84.48425   115.03355   -41.53007
    39  N   5.0   -0.14    3.46    2.05    91.19903   122.93628   -36.34067
    40  C   4.0    0.03    4.36    4.32    91.11777   125.40162   -35.14533
    41  C   4.0    0.15    3.51    3.12    89.13193   127.16988   -36.31580
    42  O   6.0   -0.31    1.27    1.80    88.14465   126.77202   -38.37297
    43  C   4.0   -0.03    4.25    4.10    93.72497   126.66408   -35.45439
    44  C   4.0    0.24    3.16    3.03    93.91358   129.59157   -34.86459
    45  O   6.0   -0.30    1.17    1.80    94.68927   130.21642   -32.73145
    46  O   6.0   -0.29    1.25    1.80    93.36861   131.05612   -36.62272
    47  H   1.0    0.07    1.09    1.44    92.18141   122.89695   -37.97073
    48  H   1.0    0.05    1.05    1.44    90.67162   125.10959   -33.14841
    49  H   1.0    0.05    1.02    1.43    95.08733   125.69886   -34.24231
    50  H   1.0    0.05    1.03    1.43    94.31457   126.47456   -37.42590
    51  N   5.0   -0.09    3.70    2.26    88.64955   129.23722   -34.92357
    52  C   4.0    0.03    4.55    4.61    87.45932   131.41985   -36.10568
    53  C   4.0    0.17    3.40    3.08    89.00911   132.45928   -38.38240
    54  O   6.0   -0.29    1.30    1.80    88.98941   131.35485   -40.41841
    55  C   4.0   -0.05    4.34    4.27    86.90750   133.20460   -33.86668
    56  C   4.0   -0.04    4.24    4.09    88.90157   132.51612   -31.89682
    57  C   4.0   -0.01    4.39    4.37    89.07916   129.65348   -32.21659
    58  H   1.0    0.04    1.06    1.44    85.70963   130.76901   -37.00420
    59  H   1.0    0.04    1.02    1.43    86.89372   135.19493   -34.37689
    60  H   1.0    0.04    1.03    1.43    85.04592   132.72278   -33.11643
    61  H   1.0    0.06    1.03    1.43    90.73461   133.33462   -32.36122
    62  H   1.0    0.04    1.02    1.43    88.38466   133.05539   -29.98577
    63  H   1.0    0.06    1.05    1.44    90.90625   128.96341   -31.58426
    64  H   1.0    0.04    1.02    1.43    87.59184   128.67541   -31.15192
    65  N   5.0   -0.13    3.44    2.04    89.98486   134.78026   -38.03877
    66  C   4.0    0.03    4.32    4.23    90.66421   136.74656   -39.86554
    67  C   4.0    0.16    3.44    3.09    90.49416   135.74119   -42.59674
    68  O   6.0   -0.31    1.30    1.80    88.52610   135.79507   -43.82348
    69  C   4.0   -0.04    4.25    4.11    93.18367   138.03404   -39.13081
    70  C   4.0    0.15    3.19    3.03    93.00694   139.75180   -36.77957
    71  O   6.0   -0.30    1.21    1.80    91.03961   140.61466   -35.95141
    72  N   5.0   -0.19    3.18    1.95    95.22973   140.32382   -35.70575
    73  H   1.0    0.09    1.09    1.44    90.15347   135.39230   -36.24333
    74  H   1.0    0.06    1.05    1.44    89.16889   138.19635   -39.73074
    75  H   1.0    0.05    1.03    1.43    94.60916   136.59592   -38.75246
    76  H   1.0    0.04    1.03    1.43    93.80634   139.22599   -40.69579
    77  H   1.0    0.10    1.03    1.43    95.17652   141.30044   -34.06999
    78  H   1.0    0.08    1.03    1.43    96.86124   139.47990   -36.18822
    79  N   5.0   -0.14    3.46    2.05    92.65115   134.95377   -43.63973
    80  C   4.0    0.03    4.39    4.36    92.77082   134.26292   -46.29980
    81  C   4.0    0.16    3.53    3.13    90.65732   132.44102   -47.05475
    82  O   6.0   -0.32    1.37    1.80    89.53559   132.68247   -49.07598
    83  C   4.0   -0.04    4.23    4.06    95.37914   133.08473   -46.88160
    84  C   4.0   -0.03    4.12    3.85    96.06612   133.01156   -49.69093
    85  C   4.0    0.25    3.06    3.02    98.69786   131.68075   -50.27084
    86  O   6.0   -0.29    1.16    1.80    98.89017   129.41605   -49.65259
    87  O   6.0   -0.28    1.15    1.80   100.33681   132.99563   -51.33577
    88  H   1.0    0.08    1.07    1.44    94.18150   134.60337   -42.55756
    89  H   1.0    0.05    1.05    1.44    92.54060   135.98092   -47.43941
    90  H   1.0    0.05    1.03    1.43    96.81597   134.18599   -45.88635
    91  H   1.0    0.05    1.03    1.43    95.42641   131.16080   -46.12617
    92  H   1.0    0.06    1.02    1.43    94.62184   131.94647   -50.71354
    93  H   1.0    0.05    1.02    1.43    96.16942   134.91405   -50.46288
    94  N   5.0   -0.14    3.57    2.13    90.24583   130.44773   -45.56674
    95  C   4.0    0.03    4.51    4.55    88.48716   128.54432   -46.44043
    96  C   4.0    0.16    3.59    3.16    85.98398   129.78984   -46.98366
    97  O   6.0   -0.32    1.37    1.80    84.53576   129.20216   -48.70449
    98  C   4.0   -0.05    4.34    4.27    88.33828   126.40115   -44.53163
    99  C   4.0   -0.02    4.18    3.97    90.74088   124.75585   -44.75421
   100  C   4.0   -0.07    4.09    3.79    92.27117   124.81638   -42.30203
   101  C   4.0   -0.08    4.09    3.78    90.10928   122.07538   -45.67332
   102  H   1.0    0.11    1.08    1.44    90.73549   130.43396   -43.71727
   103  H   1.0    0.05    1.06    1.44    89.17772   127.81471   -48.25950
   104  H   1.0    0.07    1.04    1.43    88.11370   127.17823   -42.63968
   105  H   1.0    0.04    1.03    1.43    86.65648   125.28510   -44.95148
   106  H   1.0    0.04    1.07    1.44    91.94109   125.61083   -46.20744
   107  H   1.0    0.03    1.00    1.43    93.27513   123.04766   -42.00327
   108  H   1.0    0.05    1.00    1.43    93.65690   126.34090   -42.36237
   109  H   1.0    0.06    1.02    1.43    91.04410   125.20028   -40.71052
   110  H   1.0    0.04    1.01    1.43    91.45100   120.70407   -44.96041
   111  H   1.0    0.03    1.00    1.43    88.23447   121.50011   -45.08514
   112  H   1.0    0.04    1.00    1.43    90.13289   122.03039   -47.72686
   113  N   5.0   -0.14    3.75    2.34    85.40000   131.62140   -45.41271
   114  C   4.0    0.04    4.53    4.58    83.03210   132.84748   -45.82129
   115  C   4.0    0.16    3.48    3.11    83.12287   134.16520   -48.41844
   116  O   6.0   -0.30    1.27    1.80    81.51636   133.81120   -50.04093
   117  C   4.0   -0.05    4.35    4.30    82.53550   134.45901   -43.50905
   118  C   4.0   -0.02    4.24    4.09    83.29005   133.09013   -41.04332
   119  C   4.0   -0.08    4.11    3.82    82.02222   134.46496   -38.83640
   120  C   4.0   -0.07    4.14    3.89    82.62544   130.28635   -40.99239
   121  H   1.0    0.11    1.12    1.45    86.60651   132.27908   -44.09525
   122  H   1.0    0.05    1.06    1.44    81.56829   131.38781   -46.00857
   123  H   1.0    0.05    1.03    1.43    83.61421   136.21258   -43.63544
   124  H   1.0    0.03    1.03    1.43    80.53048   134.94120   -43.44976
   125  H   1.0    0.06    1.09    1.44    85.31568   133.31278   -40.79351
   126  H   1.0    0.04    1.00    1.43    82.63200   133.71939   -37.02805
   127  H   1.0    0.04    1.00    1.43    82.49157   136.46795   -38.88537
   128  H   1.0    0.04    1.00    1.43    79.97906   134.27969   -38.94642
   129  H   1.0    0.04    1.01    1.43    82.83807   129.56874   -39.08189
   130  H   1.0    0.04    1.00    1.43    80.65848   130.02828   -41.54189
   131  H   1.0    0.05    1.01    1.43    83.81523   129.15075   -42.20286
   132  N   5.0   -0.14    3.50    2.08    85.15195   135.64856   -48.76048
   133  C   4.0    0.04    4.37    4.33    85.66860   136.93133   -51.14936
   134  C   4.0    0.17    3.52    3.12    85.14136   135.15598   -53.37227
   135  O   6.0   -0.30    1.30    1.80    84.03540   135.86524   -55.27752
   136  C   4.0   -0.03    4.27    4.14    88.41686   137.91347   -51.22733
   137  C   4.0    0.16    3.19    3.03    89.27073   139.15286   -53.71975
   138  O   6.0   -0.28    1.20    1.80    89.30874   138.04502   -55.74401
   139  N   5.0   -0.19    3.18    1.95    90.13991   141.53057   -53.46797
   140  H   1.0    0.11    1.08    1.44    86.43877   135.79410   -47.35127
   141  H   1.0    0.05    1.05    1.44    84.36247   138.53411   -51.35267
   142  H   1.0    0.04    1.03    1.43    88.66098   139.24444   -49.67281
   143  H   1.0    0.07    1.04    1.43    89.65831   136.29044   -50.92546
   144  H   1.0    0.10    1.03    1.43    90.68501   142.46622   -55.03533
   145  H   1.0    0.08    1.03    1.43    90.00619   142.49811   -51.83634
   146  N   5.0   -0.13    3.54    2.10    85.93606   132.77882   -53.05683
   147  C   4.0    0.04    4.40    4.39    85.94600   131.06518   -55.18477
   148  C   4.0    0.16    3.52    3.12    83.28802   130.42443   -56.11047
   149  O   6.0   -0.31    1.23    1.80    82.83798   130.12687   -58.36428
   150  C   4.0    0.04    4.17    3.94    87.24685   128.57336   -54.46740
   151  O   6.0   -0.26    2.09    1.84    85.69081   126.94908   -53.10935
   152  H   1.0    0.12    1.11    1.45    87.07963   132.38365   -51.56952
   153  H   1.0    0.06    1.05    1.44    86.95897   131.95402   -56.76517
   154  H   1.0    0.05    1.02    1.43    87.75606   127.57812   -56.20543
   155  H   1.0    0.05    1.01    1.43    88.98945   129.02037   -53.41863
   156  H   1.0    0.15    1.08    1.44    85.22614   127.70964   -51.47918
   157  N   5.0   -0.14    3.54    2.10    81.55910   130.08507   -54.29424
   158  C   4.0    0.04    4.45    4.47    78.96094   129.74179   -54.99732
   159  C   4.0    0.15    3.37    3.07    77.58575   132.28399   -55.39524
   160  O   6.0   -0.30    1.22    1.80    75.28054   132.33386   -55.50447
   161  C   4.0   -0.04    4.33    4.26    77.50315   127.99828   -53.21487
   162  C   4.0   -0.04    4.06    3.73    76.74054   125.56649   -54.53828
   163  S   6.0   -0.04    2.59    3.10    74.50138   123.70660   -52.73279
   164  C   4.0   -0.07    3.91    3.48    71.95079   125.96480   -52.49490
   165  H   1.0    0.11    1.08    1.44    81.95783   130.55205   -52.48102
   166  H   1.0    0.06    1.08    1.44    79.01219   128.90799   -56.90213
   167  H   1.0    0.05    1.03    1.43    78.64407   127.60701   -51.54385
   168  H   1.0    0.05    1.05    1.44    75.81868   129.03186   -52.62800
   169  H   1.0    0.05    1.07    1.44    75.87316   125.99599   -56.35706
   170  H   1.0    0.04    1.07    1.44    78.37866   124.36121   -54.84882
   171  H   1.0    0.05    1.05    1.44    70.47633   125.05795   -51.40269
   172  H   1.0    0.04    1.04    1.43    72.56929   127.63198   -51.46953
   173  H   1.0    0.04    1.04    1.43    71.30574   126.50278   -54.36231
   174  N   5.0   -0.13    3.52    2.09    79.10988   134.26201   -55.76936
   175  C   4.0    0.04    4.29    4.18    78.39879   136.79427   -56.49712
   176  C   4.0    0.16    3.38    3.07    79.89881   137.77178   -58.81862
   177  O   6.0   -0.30    1.24    1.80    79.93199   140.03696   -59.26469
   178  C   4.0   -0.05    4.11    3.83    78.76488   138.66029   -54.31410
   179  H   1.0    0.12    1.15    1.45    80.98079   134.08551   -55.42203
   180  H   1.0    0.06    1.05    1.44    76.39687   136.73719   -57.03663
   181  H   1.0    0.05    1.00    1.43    78.05196   140.49867   -54.87337
   182  H   1.0    0.05    1.00    1.43    77.79839   137.99055   -52.63397
   183  H   1.0    0.06    1.01    1.43    80.77454   138.81970   -53.92198
   184  N   5.0   -0.13    3.41    2.03    80.96129   136.02993   -60.36332
   185  C   4.0    0.04    4.30    4.19    82.46823   136.78279   -62.53908
   186  C   4.0    0.15    3.36    3.07    82.47309   134.98223   -64.84957
   187  O   6.0   -0.29    1.24    1.80    83.43438   135.76827   -66.81689
   188  C   4.0   -0.05    4.10    3.80    85.22364   137.30710   -61.78504
   189  H   1.0    0.10    1.07    1.44    81.31353   134.29220   -59.65393
   190  H   1.0    0.07    1.06    1.44    81.64772   138.55914   -63.22675
   191  H   1.0    0.06    1.00    1.43    86.28756   137.87701   -63.44545
   192  H   1.0    0.07    1.00    1.43    85.28956   138.79734   -60.37569
   193  H   1.0    0.06    1.00    1.43    86.07771   135.61891   -60.98264
   194  N   5.0   -0.13    3.42    2.03    81.57815   132.63362   -64.64697
   195  C   4.0    0.04    4.28    4.16    81.50410   130.90293   -66.77968
   196  C   4.0    0.26    3.14    3.03    78.84009   130.90579   -68.13361
   197  O   6.0   -0.29    1.17    1.80    78.85309   130.09211   -70.33623
   198  C   4.0   -0.06    4.08    3.76    82.26906   128.25851   -65.93198
   199  O   6.0   -0.27    1.17    1.80    76.99229   131.69771   -66.92266
   200  H   1.0    0.09    1.07    1.44    80.65374   132.08237   -63.07574
   201  H   1.0    0.07    1.06    1.44    82.84433   131.61209   -68.18682
   202  H   1.0    0.05    1.00    1.43    82.11570   126.96708   -67.52057
   203  H   1.0    0.05    1.00    1.43    84.20417   128.26353   -65.23689
   204  H   1.0    0.05    1.00    1.43    81.02984   127.61753   -64.42047
   205  N   5.0   -0.22    3.22    1.96    91.15835   107.94372   -52.90583
   206  C   4.0    0.03    4.27    4.14    90.73318   110.47922   -52.01277
   207  C   4.0    0.07    3.24    3.04    88.64882   111.61719   -53.60220
   208  O   6.0   -0.31    1.12    1.80    86.68602   112.44303   -52.68264
   209  C   4.0   -0.06    4.28    4.16    93.09235   112.10222   -52.10073
   210  C   4.0   -0.05    4.22    4.04    92.97839   113.89966   -49.87568
   211  C   4.0   -0.02    4.20    4.00    95.56149   115.01534   -49.29191
   212  N   5.0   -0.15    3.39    2.02    95.78855   115.65447   -46.62360
   213  C   4.0    0.09    3.33    3.06    95.91092   117.93640   -45.57647
   214  N   5.0   -0.19    3.26    1.97    95.61262   120.03572   -46.91652
   215  N   5.0   -0.20    3.24    1.96    96.24360   118.12798   -43.07440
   216  H   1.0    0.07    1.03    1.43    92.95613   107.36325   -53.15019
   217  H   1.0    0.04    1.06    1.44    89.99805   110.37330   -50.07206
   218  H   1.0    0.03    1.03    1.43    94.74497   110.87678   -51.90602
   219  H   1.0    0.04    1.03    1.43    93.24098   113.10841   -53.89174
   220  H   1.0    0.04    1.02    1.43    91.56860   115.36431   -50.18904
   221  H   1.0    0.04    1.04    1.43    92.39394   112.82119   -48.21409
   222  H   1.0    0.03    1.03    1.43    97.00380   113.58348   -49.67116
   223  H   1.0    0.04    1.03    1.43    95.98418   116.65025   -50.46216
   224  H   1.0    0.07    1.07    1.44    95.95237   114.14474   -45.46239
   225  H   1.0    0.08    1.03    1.43    95.23849   119.99320   -48.78178
   226  H   1.0    0.08    1.03    1.43    95.88433   121.75197   -46.13918
   227  H   1.0    0.08    1.03    1.43    96.74036   116.60627   -42.04489
   228  H   1.0    0.08    1.03    1.43    96.61235   119.83683   -42.31587
   229  N   5.0   -0.22    3.24    1.96    80.50180   115.14248   -53.13923
   230  C   4.0    0.03    4.31    4.22    79.34213   117.30597   -54.35424
   231  C   4.0    0.07    3.24    3.04    77.09178   116.66107   -55.99031
   232  O   6.0   -0.31    1.15    1.80    75.99545   118.32811   -57.11050
   233  C   4.0   -0.04    4.42    4.41    81.16853   118.72707   -56.00594
   234  C   4.0   -0.02    4.21    4.02    82.84872   120.37399   -54.36879
   235  C   4.0   -0.07    4.15    3.90    83.99194   118.97100   -52.08648
   236  C   4.0   -0.07    4.11    3.82    84.93055   121.50445   -56.01718
   237  H   1.0    0.09    1.03    1.43    82.29014   114.65936   -53.58842
   238  H   1.0    0.04    1.06    1.44    78.59959   118.58106   -52.89198
   239  H   1.0    0.04    1.03    1.43    82.27959   117.38150   -57.11457
   240  H   1.0    0.05    1.04    1.43    80.10968   119.90399   -57.32005
   241  H   1.0    0.04    1.06    1.44    81.71235   121.92593   -53.61328
   242  H   1.0    0.04    1.00    1.43    85.29664   120.26277   -51.15820
   243  H   1.0    0.04    1.01    1.43    82.57612   118.43835   -50.70571
   244  H   1.0    0.05    1.00    1.43    85.06580   117.31429   -52.65779
   245  H   1.0    0.05    1.01    1.43    85.84518   123.05691   -55.03497
   246  H   1.0    0.04    1.00    1.43    86.34890   120.07258   -56.42668
   247  H   1.0    0.04    1.00    1.43    84.16780   122.21722   -57.78255
   248  N   5.0   -0.21    3.28    1.98    71.96810   115.40591   -49.50095
   249  C   4.0    0.03    4.36    4.31    71.56603   117.84494   -48.39535
   250  C   4.0    0.15    3.48    3.11    70.15289   119.63495   -50.10937
   251  O   6.0   -0.32    1.33    1.80    68.63832   121.10840   -49.16637
   252  C   4.0   -0.04    4.32    4.23    74.09025   118.89573   -47.51108
   253  C   4.0   -0.02    3.52    3.12    74.97963   117.40581   -45.21290
   254  C   4.0   -0.05    3.47    3.10    75.20014   118.61529   -42.88545
   255  C   4.0   -0.05    3.47    3.10    75.57210   114.82502   -45.21736
   256  C   4.0   -0.05    3.46    3.10    75.94179   117.38605   -40.69116
   257  C   4.0   -0.05    3.42    3.08    76.41164   113.58118   -43.05312
   258  C   4.0    0.06    3.43    3.09    76.65235   114.86190   -40.76189
   259  O   6.0   -0.25    2.10    1.84    77.56773   113.79644   -38.61269
   260  H   1.0    0.08    1.03    1.43    73.57863   115.23046   -50.51935
   261  H   1.0    0.05    1.06    1.44    70.31889   117.58981   -46.75274
   262  H   1.0    0.04    1.03    1.43    75.46009   118.73907   -49.04306
   263  H   1.0    0.04    1.03    1.43    73.87550   120.87676   -47.00135
   264  H   1.0    0.04    1.03    1.43    74.69403   120.59000   -42.74202
   265  H   1.0    0.04    1.04    1.43    75.49122   113.78425   -46.95891
   266  H   1.0    0.05    1.04    1.43    75.83988   118.34513   -38.90193
   267  H   1.0    0.05    1.03    1.43    76.96505   111.61984   -43.09516
   268  H   1.0    0.11    1.03    1.43    78.22068   112.10883   -39.00781
   269  N   5.0   -0.14    3.53    2.10    70.51326   119.62695   -52.60213
   270  C   4.0    0.03    4.36    4.30    68.62490   120.91780   -54.15183
   271  C   4.0    0.08    3.23    3.04    66.02477   119.70805   -53.61512
   272  O   6.0   -0.29    1.12    1.80    64.28294   121.06782   -52.84985
   273  C   4.0   -0.05    4.22    4.03    69.49632   120.94259   -56.91450
   274  C   4.0   -0.05    4.12    3.83    68.57321   123.22452   -58.46117
   275  C   4.0   -0.01    4.12    3.85    69.23240   122.93335   -61.31391
   276  N   5.0   -0.14    3.33    1.99    68.78685   125.26368   -62.82070
   277  C   4.0    0.09    3.30    3.05    68.65373   125.57642   -65.33745
   278  N   5.0   -0.19    3.24    1.96    68.65132   123.60787   -66.90569
   279  N   5.0   -0.18    3.23    1.96    68.56798   127.90660   -66.33910
   280  H   1.0    0.08    1.07    1.44    71.41883   118.16927   -53.44222
   281  H   1.0    0.06    1.07    1.44    68.44540   122.84923   -53.44965
   282  H   1.0    0.06    1.04    1.43    71.56196   120.94965   -56.87768
   283  H   1.0    0.04    1.02    1.43    68.88825   119.18951   -57.82208
   284  H   1.0    0.05    1.02    1.43    66.53063   123.40684   -58.25062
   285  H   1.0    0.04    1.02    1.43    69.45140   124.93637   -57.72702
   286  H   1.0    0.05    1.02    1.43    71.23223   122.42261   -61.45915
   287  H   1.0    0.04    1.02    1.43    68.08614   121.40048   -62.07884
   288  H   1.0    0.08    1.07    1.44    68.75809   126.85560   -61.76298
   289  H   1.0    0.08    1.03    1.43    68.84677   121.83688   -66.23619
   290  H   1.0    0.08    1.03    1.43    68.59766   123.85597   -68.78978
   291  H   1.0    0.09    1.03    1.43    68.35489   129.44170   -65.23672
   292  H   1.0    0.09    1.03    1.43    68.28239   128.11561   -68.20894
   293  N   5.0   -0.19    3.22    1.96    63.57882   122.25902   -47.18547
   294  C   4.0    0.03    4.27    4.13    62.66588   124.83077   -47.06169
   295  C   4.0    0.08    3.30    3.05    59.96190   124.84362   -48.00621
   296  O   6.0   -0.30    1.11    1.80    58.07629   125.61644   -46.92511
   297  C   4.0   -0.04    4.45    4.46    63.96997   126.61356   -48.87171
   298  C   4.0   -0.02    4.21    4.03    66.45660   127.56782   -47.85905
   299  C   4.0   -0.08    4.14    3.89    67.16101   129.83310   -49.47775
   300  C   4.0   -0.08    4.14    3.89    66.33489   128.30585   -45.08605
   301  H   1.0    0.12    1.05    1.44    65.29810   121.86613   -47.93570
   302  H   1.0    0.04    1.06    1.44    62.67787   125.49603   -45.10820
   303  H   1.0    0.06    1.03    1.43    64.30076   125.67451   -50.67259
   304  H   1.0    0.04    1.05    1.44    62.71818   128.22900   -49.18618
   305  H   1.0    0.05    1.05    1.44    67.87973   126.07711   -48.05402
   306  H   1.0    0.04    1.00    1.43    69.08189   130.42964   -49.06226
   307  H   1.0    0.04    1.00    1.43    67.01242   129.39096   -51.47353
   308  H   1.0    0.04    1.01    1.43    65.88965   131.37709   -49.03249
   309  H   1.0    0.04    1.00    1.43    68.05801   129.30102   -44.56049
   310  H   1.0    0.04    1.00    1.43    64.75495   129.56307   -44.71477
   311  H   1.0    0.04    1.00    1.43    66.18505   126.65790   -43.87433
   312  N   5.0   -0.22    3.24    1.97    72.83122   138.57158   -39.01941
   313  C   4.0    0.03    4.17    3.94    75.52199   138.32411   -38.58567
   314  C   4.0    0.07    3.15    3.03    76.32467   139.25768   -35.90994
   315  O   6.0   -0.31    1.10    1.80    77.23245   137.85422   -34.31047
   316  C   4.0   -0.05    4.29    4.18    76.90019   139.73692   -40.74919
   317  C   4.0   -0.03    4.20    4.00    75.61626   139.58161   -43.38294
   318  C   4.0   -0.08    4.10    3.81    77.37065   140.67814   -45.41184
   319  C   4.0   -0.08    4.12    3.83    74.89397   136.89474   -44.16185
   320  H   1.0    0.07    1.06    1.44    72.29970   138.90644   -40.82242
   321  H   1.0    0.04    1.05    1.44    76.00325   136.30319   -38.65967
   322  H   1.0    0.04    1.03    1.43    77.08513   141.73611   -40.28480
   323  H   1.0    0.04    1.03    1.43    78.80336   138.95677   -40.90631
   324  H   1.0    0.04    1.06    1.44    73.93865   140.78069   -43.38378
   325  H   1.0    0.04    1.00    1.43    76.43355   140.64223   -47.23993
   326  H   1.0    0.04    1.00    1.43    77.83197   142.63108   -44.98406
   327  H   1.0    0.04    1.00    1.43    79.10579   139.58300   -45.54781
   328  H   1.0    0.04    1.00    1.43    74.32727   136.86893   -46.12965
   329  H   1.0    0.04    1.00    1.43    76.53242   135.66095   -43.97493
   330  H   1.0    0.03    1.00    1.43    73.36112   136.09999   -43.05693
   331  N   5.0   -0.21    3.20    1.96    81.12014   138.44805   -28.17472
   332  C   4.0    0.03    4.13    3.87    83.41735   139.93653   -28.06433
   333  C   4.0    0.08    3.17    3.03    83.46885   141.62296   -25.65723
   334  O   6.0   -0.29    1.11    1.80    85.48174   142.18926   -24.67500
   335  C   4.0   -0.07    4.10    3.80    83.62118   141.52854   -30.45362
   336  H   1.0    0.09    1.03    1.43    79.67574   139.25806   -29.12726
   337  H   1.0    0.05    1.05    1.44    85.02149   138.64110   -27.89064
   338  H   1.0    0.05    1.00    1.43    85.44446   142.46167   -30.52646
   339  H   1.0    0.05    1.00    1.43    83.40801   140.32575   -32.10583
   340  H   1.0    0.04    1.00    1.43    82.13642   142.94771   -30.45148
   341  H   1.0    0.09    1.08    1.44    90.48624   106.83421   -51.80591
   342  H   1.0    0.05    1.05    1.44    88.84025   111.71846   -55.47948
   343  H   1.0    0.09    1.08    1.44    80.54653   115.39218   -51.45750
   344  H   1.0    0.05    1.05    1.44    76.51721   114.86724   -56.14232
   345  H   1.0    0.09    1.08    1.44    72.04076   114.23110   -48.27331
   346  H   1.0    0.05    1.04    1.43    65.77046   117.85534   -53.88688
   347  H   1.0    0.09    1.07    1.44    63.67135   121.61322   -45.61482
   348  H   1.0    0.06    1.06    1.44    59.55602   124.15583   -49.71889
   349  H   1.0    0.09    1.07    1.44    72.04707   137.13514   -38.55649
   350  H   1.0    0.05    1.04    1.44    76.10578   141.07440   -35.43804
   351  H   1.0    0.09    1.07    1.44    81.44018   136.96646   -28.94611
   352  H   1.0    0.05    1.04    1.43    81.85116   142.24850   -24.90702
   353  H   1.0    0.10    1.07    1.44    77.65361   116.59558   -34.53565
   354  H   1.0    0.05    1.05    1.44    83.38305   117.88866   -30.86987
   355  H   1.0    0.09    1.07    1.44    92.33845   115.99816   -36.62472

  Z AO/shell   Hii/eV     exponent
  1     Wed Apr 25 08:07:45 CEST 2018   EN: 2.200 GM2: 0.406  GM3: 0.0800  RAES: 1.40
     1s    -10.707211    1.230000
  6     Wed Apr 25 08:07:45 CEST 2018   EN: 2.550 GM2: 0.538  GM3: 0.1500  RAES: 3.00
     2s    -13.970922    2.096432
     2p    -10.063292    1.800000
  7     Wed Apr 25 08:07:45 CEST 2018   EN: 3.040 GM2: 0.461  GM3:-0.0640  RAES: 1.90
     2s    -16.686243    2.339881
     2p    -12.523956    2.014332
  8     Wed Apr 25 08:07:45 CEST 2018   EN: 3.440 GM2: 0.452  GM3:-0.0517  RAES: 1.80
     2s    -20.229985    2.439742
     2p    -15.503117    2.137023
 16     Tue Apr 24 11:44:34 CEST 2018   EN: 2.580 GM2: 0.340  GM3:-0.0502  RAES: 3.10
     3s    -20.029654    1.981333
     3p    -11.377694    2.025643
     3d     -0.420282    1.702555
 no old-style atom pair restraining (fixing) potential

molecular fragmentation (1/2 indicates fragments):
111111111111111111122222222222222222222222222222222222222222222222222222
222222222222222222222222222222222222222222222222222222222222222222222222
222222222222222222222222222222222222222222222222222222222222222222222222
222222222222222222222222222222222222222222222222222222222222222222222222
2222222222222222222222222222222222222222222222222222222222222222112
# atoms in fragment 1/2:    21   334
 fragment masses (1/2) :      115.17     2255.72
CMA distance (Bohr)    :  15.383
constraining FC (au)   :  0.0500
           ------------------------------------------------- 
          |        Self-Consistent Charge Iterations        |
           ------------------------------------------------- 

 Ncao       : 856
 Nao        : 855
 Nshell     : 521
 Nel        : 942
 T(el)      :   500.0
 intcut     :    35.0
 scfconv/Eh :  0.100E-06
   qconv/e  :  0.100E-04
 intneglect :  0.100E-08
 broydamp   :      0.400
 iter      E             dE          RMSdq      gap      omega  full diag
   1   -537.2255361 -0.537226E+03  0.461E+00    3.15       0.0  T
   2   -538.5364471 -0.131091E+01  0.214E+00    1.73       1.0  T
   3   -538.6177263 -0.812792E-01  0.123E+00    2.09       1.0  T
   4   -538.7053789 -0.876526E-01  0.250E-01    1.49       1.0  T
   5   -538.7098460 -0.446713E-02  0.126E-01    1.61       1.0  T
   6   -538.7105447 -0.698659E-03  0.540E-02    1.58       1.0  T
   7   -538.7107717 -0.227040E-03  0.220E-02    1.56       1.0  T
   8   -538.7107981 -0.263739E-04  0.109E-02    1.55       1.0  T
   9   -538.7108074 -0.928174E-05  0.486E-03    1.55       1.1  T
  10   -538.7108089 -0.153395E-05  0.201E-03    1.55       2.6  T
  11   -538.7108092 -0.227669E-06  0.883E-04    1.55       6.0  T
  12   -538.7108092 -0.400057E-07  0.389E-04    1.55      13.6  T
  13   -538.7108092 -0.965520E-08  0.183E-04    1.55      29.0  T
  14   -538.7108092 -0.126067E-08  0.844E-05    1.55      62.9  T
  15   -538.7108092 -0.452019E-09  0.348E-05    1.55     152.5  T
speedup  1.85
cpu  time for SCC    9.16 s
wall time for SCC    4.94 s

   *** convergence criteria satisfied after 15 iterations ***

          eigenvalues
 #    :         459        460        461        462        463        464        465        466
 occ. :        2.000      2.000      2.000      2.000      2.000      2.000      2.000      2.000
 eps  :       -10.237    -10.228    -10.040    -10.003     -9.997     -9.952     -9.887     -9.789
 #    :         467        468        469        470        471        472        473        474
 occ. :        2.000      2.000      2.000      2.000      2.000      0.000      0.000      0.000
 eps  :        -9.677     -9.623     -9.524     -9.493     -9.438     -7.891     -7.737     -7.697
 #    :         475        476        477        478        479        480        481        482
 occ. :        0.000      0.000      0.000      0.000      0.000      0.000      0.000      0.000
 eps  :        -7.677     -7.263     -7.194     -7.149     -7.117     -6.911     -6.671     -6.549


   #   Z            q   n(s)   n(p)   n(d)      C6AA      α(0)
   1   7 N     -0.387  1.319  4.068  0.000    30.019     8.137
   2   6 C      0.039  1.051  2.910  0.000    19.931     6.359
   3   6 C      0.201  1.086  2.713  0.000    23.721     7.980
   4   8 O     -0.372  1.753  4.619  0.000    21.129     6.163
   5   6 C     -0.065  1.057  3.008  0.000    21.699     6.625
   6   6 C     -0.005  1.054  2.951  0.000    20.633     6.461
   7   6 C     -0.106  1.041  3.065  0.000    22.571     6.773
   8   6 C     -0.123  1.039  3.084  0.000    22.903     6.823
   9   1 H      0.162  0.838  0.000  0.000     1.325     1.803
  10   1 H      0.062  0.938  0.000  0.000     2.171     2.304
  11   1 H      0.039  0.961  0.000  0.000     2.462     2.454
  12   1 H      0.036  0.964  0.000  0.000     2.497     2.471
  13   1 H      0.033  0.967  0.000  0.000     2.544     2.494
  14   1 H      0.045  0.955  0.000  0.000     2.382     2.414
  15   1 H      0.025  0.975  0.000  0.000     2.657     2.549
  16   1 H      0.026  0.974  0.000  0.000     2.641     2.541
  17   1 H      0.040  0.960  0.000  0.000     2.447     2.446
  18   1 H      0.040  0.960  0.000  0.000     2.450     2.448
  19   1 H      0.058  0.942  0.000  0.000     2.223     2.332
  20   7 N     -0.397  1.327  4.070  0.000    30.283     8.173
  21   6 C      0.036  1.064  2.900  0.000    19.984     6.366
  22   6 C      0.280  1.051  2.669  0.000    22.257     7.725
  23   8 O     -0.492  1.755  4.737  0.000    23.598     6.513
  24   6 C     -0.021  1.066  2.956  0.000    20.912     6.503
  25   6 C     -0.075  1.056  3.019  0.000    21.924     6.666
  26   6 C     -0.118  1.040  3.077  0.000    22.802     6.808
  27   6 C     -0.112  1.038  3.073  0.000    22.698     6.794
  28   1 H      0.182  0.818  0.000  0.000     1.203     1.718
  29   1 H      0.006  0.994  0.000  0.000     2.955     2.688
  30   1 H      0.053  0.947  0.000  0.000     2.278     2.360
  31   1 H      0.059  0.941  0.000  0.000     2.206     2.323
  32   1 H      0.048  0.952  0.000  0.000     2.339     2.392
  33   1 H      0.041  0.959  0.000  0.000     2.433     2.439
  34   1 H      0.013  0.987  0.000  0.000     2.834     2.633
  35   1 H      0.063  0.937  0.000  0.000     2.169     2.303
  36   1 H      0.053  0.947  0.000  0.000     2.283     2.363
  37   1 H      0.035  0.965  0.000  0.000     2.521     2.483
  38   1 H      0.034  0.966  0.000  0.000     2.534     2.489
  39   7 N     -0.202  1.257  3.945  0.000    25.393     7.484
  40   6 C      0.040  1.056  2.904  0.000    19.914     6.356
  41   6 C      0.266  1.047  2.688  0.000    22.516     7.771
  42   8 O     -0.468  1.737  4.731  0.000    23.090     6.443
  43   6 C     -0.104  1.077  3.027  0.000    22.492     6.753
  44   6 C      0.374  1.023  2.603  0.000    20.666     7.439
  45   8 O     -0.627  1.772  4.855  0.000    26.805     6.941
  46   8 O     -0.625  1.767  4.858  0.000    26.743     6.933
  47   1 H      0.200  0.800  0.000  0.000     1.108     1.649
  48   1 H      0.044  0.956  0.000  0.000     2.402     2.424
  49   1 H      0.032  0.968  0.000  0.000     2.562     2.503
  50   1 H      0.028  0.972  0.000  0.000     2.615     2.529
  51   7 N     -0.101  1.236  3.865  0.000    23.228     7.158
  52   6 C      0.026  1.069  2.905  0.000    20.117     6.384
  53   6 C      0.295  1.048  2.657  0.000    21.992     7.678
  54   8 O     -0.478  1.734  4.744  0.000    23.293     6.471
  55   6 C     -0.078  1.057  3.020  0.000    21.956     6.667
  56   6 C     -0.060  1.047  3.012  0.000    21.628     6.618
  57   6 C      0.002  1.051  2.946  0.000    20.575     6.464
  58   1 H      0.078  0.922  0.000  0.000     2.005     2.214
  59   1 H      0.061  0.939  0.000  0.000     2.187     2.313
  60   1 H      0.069  0.931  0.000  0.000     2.093     2.263
  61   1 H      0.046  0.954  0.000  0.000     2.373     2.409
  62   1 H      0.069  0.931  0.000  0.000     2.099     2.266
  63   1 H      0.057  0.943  0.000  0.000     2.229     2.335
  64   1 H      0.050  0.950  0.000  0.000     2.325     2.385
  65   7 N     -0.175  1.239  3.936  0.000    24.799     7.396
  66   6 C      0.025  1.065  2.910  0.000    20.178     6.399
  67   6 C      0.281  1.043  2.676  0.000    22.238     7.722
  68   8 O     -0.481  1.735  4.746  0.000    23.372     6.482
  69   6 C     -0.115  1.066  3.050  0.000    22.708     6.785
  70   6 C      0.290  1.036  2.673  0.000    22.078     7.693
  71   8 O     -0.483  1.746  4.737  0.000    23.404     6.486
  72   7 N     -0.288  1.269  4.019  0.000    27.426     7.778
  73   1 H      0.206  0.794  0.000  0.000     1.074     1.623
  74   1 H      0.091  0.909  0.000  0.000     1.871     2.139
  75   1 H      0.073  0.927  0.000  0.000     2.058     2.244
  76   1 H      0.094  0.906  0.000  0.000     1.839     2.120
  77   1 H      0.244  0.756  0.000  0.000     0.906     1.491
  78   1 H      0.228  0.772  0.000  0.000     0.973     1.545
  79   7 N     -0.175  1.247  3.928  0.000    24.789     7.395
  80   6 C      0.023  1.066  2.912  0.000    20.200     6.400
  81   6 C      0.282  1.042  2.677  0.000    22.231     7.722
  82   8 O     -0.501  1.739  4.762  0.000    23.812     6.542
  83   6 C     -0.054  1.056  2.998  0.000    21.538     6.607
  84   6 C     -0.094  1.069  3.026  0.000    22.305     6.726
  85   6 C      0.370  1.027  2.603  0.000    20.733     7.451
  86   8 O     -0.630  1.763  4.867  0.000    26.860     6.949
  87   8 O     -0.639  1.777  4.862  0.000    27.094     6.979
  88   1 H      0.210  0.790  0.000  0.000     1.056     1.610
  89   1 H      0.071  0.929  0.000  0.000     2.076     2.253
  90   1 H      0.050  0.950  0.000  0.000     2.325     2.385
  91   1 H      0.046  0.954  0.000  0.000     2.364     2.405
  92   1 H      0.014  0.986  0.000  0.000     2.820     2.626
  93   1 H      0.020  0.980  0.000  0.000     2.733     2.585
  94   7 N     -0.180  1.251  3.929  0.000    24.889     7.409
  95   6 C      0.029  1.058  2.913  0.000    20.077     6.377
  96   6 C      0.276  1.036  2.688  0.000    22.328     7.740
  97   8 O     -0.502  1.739  4.763  0.000    23.837     6.546
  98   6 C     -0.084  1.062  3.022  0.000    22.088     6.690
  99   6 C     -0.019  1.061  2.958  0.000    20.876     6.499
 100   6 C     -0.118  1.043  3.075  0.000    22.826     6.813
 101   6 C     -0.140  1.048  3.091  0.000    23.248     6.876
 102   1 H      0.223  0.777  0.000  0.000     0.996     1.563
 103   1 H      0.068  0.932  0.000  0.000     2.107     2.270
 104   1 H      0.083  0.917  0.000  0.000     1.948     2.183
 105   1 H      0.067  0.933  0.000  0.000     2.122     2.278
 106   1 H      0.032  0.968  0.000  0.000     2.561     2.503
 107   1 H      0.043  0.957  0.000  0.000     2.404     2.425
 108   1 H      0.014  0.986  0.000  0.000     2.832     2.632
 109   1 H      0.060  0.940  0.000  0.000     2.202     2.321
 110   1 H      0.069  0.931  0.000  0.000     2.101     2.267
 111   1 H      0.062  0.938  0.000  0.000     2.180     2.309
 112   1 H      0.053  0.947  0.000  0.000     2.283     2.363
 113   7 N     -0.163  1.237  3.925  0.000    24.517     7.354
 114   6 C      0.026  1.058  2.916  0.000    20.122     6.383
 115   6 C      0.278  1.044  2.678  0.000    22.296     7.732
 116   8 O     -0.479  1.744  4.735  0.000    23.334     6.476
 117   6 C     -0.076  1.058  3.018  0.000    21.947     6.668
 118   6 C     -0.015  1.056  2.958  0.000    20.801     6.487
 119   6 C     -0.116  1.043  3.073  0.000    22.772     6.804
 120   6 C     -0.116  1.038  3.078  0.000    22.772     6.804
 121   1 H      0.221  0.779  0.000  0.000     1.006     1.571
 122   1 H      0.084  0.916  0.000  0.000     1.937     2.177
 123   1 H      0.051  0.949  0.000  0.000     2.308     2.376
 124   1 H      0.061  0.939  0.000  0.000     2.185     2.311
 125   1 H      0.028  0.972  0.000  0.000     2.620     2.531
 126   1 H      0.040  0.960  0.000  0.000     2.444     2.445
 127   1 H      0.037  0.963  0.000  0.000     2.493     2.469
 128   1 H      0.053  0.947  0.000  0.000     2.285     2.364
 129   1 H      0.046  0.954  0.000  0.000     2.373     2.409
 130   1 H      0.047  0.953  0.000  0.000     2.357     2.401
 131   1 H      0.040  0.960  0.000  0.000     2.454     2.450
 132   7 N     -0.186  1.248  3.938  0.000    25.023     7.429
 133   6 C      0.034  1.060  2.905  0.000    20.010     6.371
 134   6 C      0.294  1.037  2.669  0.000    22.014     7.684
 135   8 O     -0.491  1.748  4.743  0.000    23.582     6.511
 136   6 C     -0.112  1.067  3.044  0.000    22.632     6.773
 137   6 C      0.289  1.037  2.674  0.000    22.096     7.696
 138   8 O     -0.496  1.760  4.735  0.000    23.693     6.526
 139   7 N     -0.291  1.272  4.019  0.000    27.501     7.788
 140   1 H      0.218  0.782  0.000  0.000     1.018     1.580
 141   1 H      0.068  0.932  0.000  0.000     2.105     2.269
 142   1 H      0.077  0.923  0.000  0.000     2.012     2.218
 143   1 H      0.088  0.912  0.000  0.000     1.895     2.153
 144   1 H      0.241  0.759  0.000  0.000     0.917     1.500
 145   1 H      0.241  0.759  0.000  0.000     0.921     1.503
 146   7 N     -0.197  1.258  3.939  0.000    25.274     7.467
 147   6 C      0.021  1.059  2.920  0.000    20.219     6.402
 148   6 C      0.284  1.038  2.678  0.000    22.183     7.713
 149   8 O     -0.501  1.746  4.755  0.000    23.808     6.542
 150   6 C      0.081  1.035  2.884  0.000    19.432     6.313
 151   8 O     -0.465  1.701  4.764  0.000    22.162     6.355
 152   1 H      0.227  0.773  0.000  0.000     0.979     1.550
 153   1 H      0.049  0.951  0.000  0.000     2.329     2.387
 154   1 H      0.062  0.938  0.000  0.000     2.179     2.308
 155   1 H      0.025  0.975  0.000  0.000     2.665     2.553
 156   1 H      0.336  0.664  0.000  0.000     0.621     1.238
 157   7 N     -0.168  1.246  3.921  0.000    24.633     7.371
 158   6 C      0.019  1.062  2.919  0.000    20.254     6.407
 159   6 C      0.269  1.044  2.686  0.000    22.447     7.758
 160   8 O     -0.476  1.735  4.741  0.000    23.261     6.466
 161   6 C     -0.066  1.047  3.019  0.000    21.734     6.633
 162   6 C     -0.011  1.065  2.946  0.000    20.776     6.490
 163  16 S     -0.195  1.906  4.238  0.051   149.346    20.569
 164   6 C     -0.061  1.053  3.009  0.000    21.748     6.652
 165   1 H      0.216  0.784  0.000  0.000     1.026     1.587
 166   1 H      0.083  0.917  0.000  0.000     1.947     2.182
 167   1 H      0.060  0.940  0.000  0.000     2.196     2.318
 168   1 H      0.069  0.931  0.000  0.000     2.095     2.264
 169   1 H      0.049  0.951  0.000  0.000     2.330     2.387
 170   1 H      0.056  0.944  0.000  0.000     2.246     2.343
 171   1 H      0.076  0.924  0.000  0.000     2.019     2.222
 172   1 H      0.043  0.957  0.000  0.000     2.404     2.425
 173   1 H      0.060  0.940  0.000  0.000     2.199     2.319
 174   7 N     -0.195  1.244  3.951  0.000    25.236     7.461
 175   6 C      0.028  1.061  2.911  0.000    20.122     6.390
 176   6 C      0.278  1.050  2.672  0.000    22.298     7.732
 177   8 O     -0.472  1.741  4.731  0.000    23.178     6.455
 178   6 C     -0.116  1.039  3.077  0.000    22.777     6.805
 179   1 H      0.204  0.796  0.000  0.000     1.088     1.634
 180   1 H      0.082  0.918  0.000  0.000     1.958     2.188
 181   1 H      0.077  0.923  0.000  0.000     2.010     2.217
 182   1 H      0.064  0.936  0.000  0.000     2.157     2.297
 183   1 H      0.048  0.952  0.000  0.000     2.344     2.394
 184   7 N     -0.188  1.255  3.932  0.000    25.072     7.437
 185   6 C      0.027  1.062  2.911  0.000    20.139     6.392
 186   6 C      0.269  1.046  2.685  0.000    22.456     7.760
 187   8 O     -0.518  1.750  4.768  0.000    24.195     6.595
 188   6 C     -0.107  1.039  3.068  0.000    22.596     6.778
 189   1 H      0.187  0.813  0.000  0.000     1.175     1.698
 190   1 H      0.078  0.922  0.000  0.000     1.999     2.211
 191   1 H      0.065  0.935  0.000  0.000     2.137     2.286
 192   1 H      0.060  0.940  0.000  0.000     2.205     2.322
 193   1 H      0.040  0.960  0.000  0.000     2.443     2.444
 194   7 N     -0.167  1.249  3.919  0.000    24.620     7.369
 195   6 C      0.011  1.075  2.914  0.000    20.415     6.436
 196   6 C      0.370  1.024  2.606  0.000    20.725     7.450
 197   8 O     -0.628  1.767  4.861  0.000    26.819     6.943
 198   6 C     -0.111  1.041  3.071  0.000    22.682     6.791
 199   8 O     -0.624  1.763  4.861  0.000    26.723     6.931
 200   1 H      0.192  0.808  0.000  0.000     1.146     1.677
 201   1 H      0.039  0.961  0.000  0.000     2.466     2.456
 202   1 H      0.058  0.942  0.000  0.000     2.219     2.329
 203   1 H      0.049  0.951  0.000  0.000     2.335     2.390
 204   1 H      0.048  0.952  0.000  0.000     2.344     2.394
 205   7 N     -0.394  1.311  4.083  0.000    30.201     8.162
 206   6 C      0.040  1.052  2.908  0.000    19.911     6.354
 207   6 C      0.200  1.091  2.709  0.000    23.742     7.980
 208   8 O     -0.381  1.757  4.624  0.000    21.308     6.189
 209   6 C     -0.079  1.057  3.021  0.000    21.992     6.675
 210   6 C     -0.086  1.055  3.031  0.000    22.126     6.695
 211   6 C     -0.029  1.056  2.973  0.000    21.173     6.566
 212   7 N     -0.135  1.210  3.925  0.000    23.919     7.264
 213   6 C      0.230  1.019  2.751  0.000    23.167     7.880
 214   7 N     -0.230  1.218  4.012  0.000    26.043     7.579
 215   7 N     -0.257  1.238  4.019  0.000    26.683     7.672
 216   1 H      0.175  0.825  0.000  0.000     1.244     1.747
 217   1 H      0.053  0.947  0.000  0.000     2.283     2.363
 218   1 H      0.072  0.928  0.000  0.000     2.069     2.250
 219   1 H      0.058  0.942  0.000  0.000     2.225     2.333
 220   1 H      0.064  0.936  0.000  0.000     2.153     2.294
 221   1 H      0.076  0.924  0.000  0.000     2.023     2.224
 222   1 H      0.096  0.904  0.000  0.000     1.819     2.109
 223   1 H      0.081  0.919  0.000  0.000     1.966     2.193
 224   1 H      0.245  0.755  0.000  0.000     0.905     1.490
 225   1 H      0.244  0.756  0.000  0.000     0.909     1.493
 226   1 H      0.231  0.769  0.000  0.000     0.961     1.536
 227   1 H      0.250  0.750  0.000  0.000     0.885     1.473
 228   1 H      0.226  0.774  0.000  0.000     0.983     1.553
 229   7 N     -0.388  1.302  4.086  0.000    30.047     8.141
 230   6 C      0.041  1.049  2.911  0.000    19.902     6.353
 231   6 C      0.193  1.088  2.719  0.000    23.876     8.003
 232   8 O     -0.371  1.744  4.626  0.000    21.106     6.160
 233   6 C     -0.064  1.053  3.011  0.000    21.706     6.630
 234   6 C     -0.008  1.057  2.951  0.000    20.683     6.468
 235   6 C     -0.115  1.042  3.073  0.000    22.767     6.804
 236   6 C     -0.117  1.041  3.076  0.000    22.795     6.807
 237   1 H      0.171  0.829  0.000  0.000     1.270     1.765
 238   1 H      0.057  0.943  0.000  0.000     2.240     2.341
 239   1 H      0.045  0.955  0.000  0.000     2.378     2.412
 240   1 H      0.043  0.957  0.000  0.000     2.414     2.429
 241   1 H      0.024  0.976  0.000  0.000     2.678     2.559
 242   1 H      0.037  0.963  0.000  0.000     2.488     2.467
 243   1 H      0.044  0.956  0.000  0.000     2.392     2.419
 244   1 H      0.050  0.950  0.000  0.000     2.316     2.380
 245   1 H      0.044  0.956  0.000  0.000     2.395     2.420
 246   1 H      0.040  0.960  0.000  0.000     2.446     2.446
 247   1 H      0.023  0.977  0.000  0.000     2.683     2.562
 248   7 N     -0.392  1.314  4.078  0.000    30.138     8.153
 249   6 C      0.037  1.052  2.911  0.000    19.956     6.362
 250   6 C      0.269  1.047  2.684  0.000    22.455     7.761
 251   8 O     -0.500  1.742  4.757  0.000    23.774     6.537
 252   6 C     -0.071  1.056  3.015  0.000    21.848     6.653
 253   6 C     -0.000  1.084  2.916  0.000    28.033     8.684
 254   6 C     -0.042  1.087  2.955  0.000    29.044     8.838
 255   6 C     -0.047  1.083  2.964  0.000    29.162     8.856
 256   6 C     -0.064  1.075  2.989  0.000    29.585     8.919
 257   6 C     -0.078  1.081  2.997  0.000    29.957     8.975
 258   6 C      0.140  1.044  2.816  0.000    24.946     8.185
 259   8 O     -0.438  1.727  4.711  0.000    21.602     6.274
 260   1 H      0.159  0.841  0.000  0.000     1.344     1.816
 261   1 H      0.050  0.950  0.000  0.000     2.315     2.379
 262   1 H      0.051  0.949  0.000  0.000     2.304     2.374
 263   1 H      0.045  0.955  0.000  0.000     2.386     2.416
 264   1 H      0.032  0.968  0.000  0.000     2.558     2.501
 265   1 H      0.054  0.946  0.000  0.000     2.266     2.354
 266   1 H      0.046  0.954  0.000  0.000     2.373     2.409
 267   1 H      0.046  0.954  0.000  0.000     2.365     2.405
 268   1 H      0.349  0.651  0.000  0.000     0.592     1.209
 269   7 N     -0.158  1.261  3.897  0.000    24.408     7.337
 270   6 C      0.017  1.066  2.917  0.000    20.285     6.413
 271   6 C      0.197  1.090  2.714  0.000    23.804     7.990
 272   8 O     -0.348  1.766  4.582  0.000    20.677     6.097
 273   6 C     -0.086  1.058  3.028  0.000    22.136     6.699
 274   6 C     -0.076  1.055  3.021  0.000    21.960     6.673
 275   6 C     -0.028  1.062  2.966  0.000    21.169     6.569
 276   7 N     -0.145  1.213  3.932  0.000    24.134     7.296
 277   6 C      0.234  1.022  2.744  0.000    23.104     7.869
 278   7 N     -0.245  1.226  4.019  0.000    26.393     7.630
 279   7 N     -0.262  1.243  4.019  0.000    26.788     7.687
 280   1 H      0.212  0.788  0.000  0.000     1.045     1.602
 281   1 H      0.099  0.901  0.000  0.000     1.790     2.092
 282   1 H      0.091  0.909  0.000  0.000     1.867     2.137
 283   1 H      0.075  0.925  0.000  0.000     2.037     2.232
 284   1 H      0.071  0.929  0.000  0.000     2.072     2.251
 285   1 H      0.058  0.942  0.000  0.000     2.223     2.331
 286   1 H      0.087  0.913  0.000  0.000     1.910     2.161
 287   1 H      0.096  0.904  0.000  0.000     1.826     2.113
 288   1 H      0.221  0.779  0.000  0.000     1.004     1.570
 289   1 H      0.254  0.746  0.000  0.000     0.869     1.461
 290   1 H      0.252  0.748  0.000  0.000     0.874     1.465
 291   1 H      0.240  0.760  0.000  0.000     0.925     1.506
 292   1 H      0.250  0.750  0.000  0.000     0.883     1.472
 293   7 N     -0.391  1.305  4.086  0.000    30.113     8.150
 294   6 C      0.047  1.048  2.905  0.000    19.796     6.337
 295   6 C      0.204  1.094  2.702  0.000    23.674     7.971
 296   8 O     -0.409  1.756  4.653  0.000    21.871     6.270
 297   6 C     -0.068  1.056  3.013  0.000    21.777     6.638
 298   6 C     -0.006  1.050  2.956  0.000    20.654     6.464
 299   6 C     -0.117  1.043  3.074  0.000    22.777     6.802
 300   6 C     -0.111  1.039  3.073  0.000    22.684     6.791
 301   1 H      0.185  0.815  0.000  0.000     1.188     1.707
 302   1 H      0.040  0.960  0.000  0.000     2.449     2.447
 303   1 H      0.068  0.932  0.000  0.000     2.112     2.272
 304   1 H      0.038  0.962  0.000  0.000     2.476     2.461
 305   1 H      0.039  0.961  0.000  0.000     2.457     2.451
 306   1 H      0.034  0.966  0.000  0.000     2.527     2.486
 307   1 H      0.044  0.956  0.000  0.000     2.399     2.422
 308   1 H      0.043  0.957  0.000  0.000     2.411     2.428
 309   1 H      0.039  0.961  0.000  0.000     2.457     2.451
 310   1 H      0.037  0.963  0.000  0.000     2.494     2.469
 311   1 H      0.035  0.965  0.000  0.000     2.515     2.480
 312   7 N     -0.392  1.308  4.084  0.000    30.146     8.154
 313   6 C      0.042  1.060  2.898  0.000    19.889     6.354
 314   6 C      0.198  1.098  2.705  0.000    23.789     7.987
 315   8 O     -0.367  1.757  4.610  0.000    21.035     6.149
 316   6 C     -0.075  1.062  3.013  0.000    21.928     6.667
 317   6 C     -0.012  1.060  2.951  0.000    20.757     6.481
 318   6 C     -0.115  1.043  3.073  0.000    22.761     6.802
 319   6 C     -0.113  1.038  3.075  0.000    22.708     6.795
 320   1 H      0.180  0.820  0.000  0.000     1.214     1.726
 321   1 H      0.029  0.971  0.000  0.000     2.595     2.519
 322   1 H      0.052  0.948  0.000  0.000     2.298     2.370
 323   1 H      0.043  0.957  0.000  0.000     2.414     2.430
 324   1 H      0.044  0.956  0.000  0.000     2.391     2.418
 325   1 H      0.041  0.959  0.000  0.000     2.430     2.438
 326   1 H      0.044  0.956  0.000  0.000     2.391     2.418
 327   1 H      0.032  0.968  0.000  0.000     2.560     2.502
 328   1 H      0.040  0.960  0.000  0.000     2.448     2.447
 329   1 H      0.032  0.968  0.000  0.000     2.562     2.503
 330   1 H      0.045  0.955  0.000  0.000     2.385     2.415
 331   7 N     -0.391  1.318  4.073  0.000    30.122     8.151
 332   6 C      0.040  1.056  2.904  0.000    19.925     6.359
 333   6 C      0.200  1.096  2.704  0.000    23.748     7.980
 334   8 O     -0.378  1.759  4.619  0.000    21.252     6.181
 335   6 C     -0.118  1.042  3.075  0.000    22.804     6.809
 336   1 H      0.167  0.833  0.000  0.000     1.289     1.779
 337   1 H      0.056  0.944  0.000  0.000     2.248     2.345
 338   1 H      0.050  0.950  0.000  0.000     2.323     2.383
 339   1 H      0.059  0.941  0.000  0.000     2.214     2.327
 340   1 H      0.054  0.946  0.000  0.000     2.272     2.357
 341   1 H      0.186  0.814  0.000  0.000     1.182     1.703
 342   1 H      0.068  0.932  0.000  0.000     2.104     2.268
 343   1 H      0.176  0.824  0.000  0.000     1.237     1.742
 344   1 H      0.074  0.926  0.000  0.000     2.043     2.235
 345   1 H      0.189  0.811  0.000  0.000     1.165     1.691
 346   1 H      0.081  0.919  0.000  0.000     1.966     2.193
 347   1 H      0.170  0.830  0.000  0.000     1.272     1.767
 348   1 H      0.068  0.932  0.000  0.000     2.107     2.270
 349   1 H      0.176  0.824  0.000  0.000     1.239     1.744
 350   1 H      0.076  0.924  0.000  0.000     2.017     2.221
 351   1 H      0.181  0.819  0.000  0.000     1.208     1.721
 352   1 H      0.081  0.919  0.000  0.000     1.973     2.196
 353   1 H      0.187  0.813  0.000  0.000     1.177     1.699
 354   1 H      0.054  0.946  0.000  0.000     2.271     2.357
 355   1 H      0.180  0.820  0.000  0.000     1.211     1.724

 Mol. C6AA /au·bohr⁶  :    1131596.348996
 Mol. C8AA /au·bohr⁸  :   25067873.824651
 Mol. α(0) /au        :       1590.487788

 
molecular dipole:
                 x           y           z       tot (Debye)
 q only:      -93.100    -151.257      50.720
   full:      -89.454    -149.999      52.433     463.492
molecular quadrupole (traceless):
                xx          xy          yy          xz          yz          zz
 q only:     3945.812  -20965.093  -16356.176    7223.998   11694.199   12410.364
  q+dip:     4484.960  -20119.391  -16247.829    7180.041   11929.754   11762.869
   full:     4487.326  -20116.199  -16246.179    7178.234   11925.358   11758.853
speedup  1.87
cpu  time for grad   10.57 s
wall time for grad    5.65 s

SCC energy    :    -538.7307008
rep           :       6.5621151
ES            :       1.7292079
AES           :      -0.0262907
AXC           :       0.1901240
disp          :      -0.4286810
XB            :       0.0000000
fix           :       0.0000000
Gborn         :       0.0000000
Gsasa         :       0.0000000
Ghb           :       0.0000000
Gshift        :       0.0000000
Gsolv         :      -0.4740751     -297.49
Etot ala COSMO:    -538.7307008
grad norm     :       0.6196227
total E       :    -532.1371352
atomizationE  :      97.4650233    61160.23
(atE without considering molecular charge,
 total energy contains solvation terms)
H-L gap (eV)  :          1.5462

------------------------------------------------------------------------
 * finished run on 2019/05/11 at 23:08:17.488     
------------------------------------------------------------------------
 total:
 * wall-time:     0 d,  0 h,  0 min,  6.234 sec
 *  cpu-time:     0 d,  0 h,  0 min, 11.450 sec
 * ratio c/w:     1.837 speedup
 SCF:
 * wall-time:     0 d,  0 h,  0 min,  5.940 sec
 *  cpu-time:     0 d,  0 h,  0 min, 11.151 sec
 * ratio c/w:     1.877 speedup

