      -----------------------------------------------------------      
     |                   =====================                   |     
     |                           x T B                           |     
     |                   =====================                   |     
     |                         S. Grimme                         |     
     |          Mulliken Center for Theoretical Chemistry        |     
     |                    University of Bonn                     |     
     |                 Version 6.0.1 (SAW181210)                 |     
      -----------------------------------------------------------      

   This program is distributed in the hope that it will be useful,
   but WITHOUT ANY WARRANTY; without even the implied warranty of
   MERCHANTABILITY or FITNESS FOR A PARTICULAR PURPOSE.
   
   FOR NON-COMMERCIAL, ACADEMIA USE ONLY.
   
   Cite this work as:
   S. Grimme, C. Bannwarth, P. Shushkov, J. Comput. Theory Chem., 2017,
   13, 1989-2009.
   C. Bannwarth, S. Ehlert and S. Grimme., ChemRxiv, 2018, preprint.
   http://doi.org/10.26434/chemrxiv.7246238.v1
   
   for sTDA-xTB:
   S. Grimme and C. Bannwarth, J. Chem. Phys., 2016, 145, 054103.
   
   in the mass-spec context:
   V. Asgeirsson, C. Bauer and S. Grimme, Chem. Sci., 2017, 8, 4879.
   
   if GBSA is used:
   P. Shushkov, F. März and S. Grimme, unpublished.
   
   for ANC optimizer:
   S. Grimme, unpublished.
   Rational Function algorithm used in ANCopt:
   F. Eckert, P. Pulay, H.-J. Werner, J. Comput. Chem., 1997, 18, 1473.
   
   with help from (in alphabetical order)
   C. Bannwarth, F. Bohle, G. Brandenburg, E. Caldeweyher, M. Checinski,
   S. Dohm, S. Ehlert, S. Ehrlich, F. März, H. Neugebauer, J. Pisarek,
   P. Pracht, P. Shushkov, and S. Spicher.
   
 * started run on 2019/02/18 at 08:32:37.591     
========================================================================
 # omp threads = 12
========================================================================
number of atoms            : 569
number of electrons        : 1532
charge                     : 0
spin                       : .0
first test random number   : .9947

########################################################################
# WARNING! Please study the warnings concerning your input carefully
#  - Process number higher than OMP_NUM_THREADS, I hope you know what you are doing.
########################################################################

           ------------------------------------------------- 
          |                 G F N 2 - x T B                 |
          | Geometry, Frequencies, Noncovalent interactions |
          |            JCTC 2018 parametrisation            |
           ------------------------------------------------- 
 
      method parameters     
 k(s)        :  1.8500
 k(p)        :  2.2300
 k(d)        :  2.2300
 k(f)        :  2.0000
 kEN (H0ij)  : -2.0000
 D4 a1       :  0.5200
 D4 a2       :  5.0000
 D4 s6       :  1.0000
 D4 s8       :  2.7000
 D4 s9       :  5.0000
 alphaj      :  2.0000

 Solvent             : h2o
 Using internal parameter file: .param_gbsa2_h2o
 Gsolv ref. state (COSMO-RS): gsolv [1 M gas/solution]
 temperature (mdtemp)       :    298.150000000000     
 dielectric constant        :    80.2000000000000     
 rho                        :    1.00000000000000     
 mass                       :    18.0000000000000     
 surface tension            :    15.5689454083859     
 probe radius               :   0.975313790000000     
 vdW radii scaling          :    1.00000000000000     
 Gshift (Eh)                :   1.857443126794793E-003
 c1                         :    1.55243817000000     
 soset                      :   0.130326360000000     
 HB correction              :  T

            Z     q(EN)     CN     RAES       Cart. coordinates
     1  N   5.0   -0.20    3.25    1.97    43.19282    31.00845   -16.60837
     2  C   4.0    0.03    4.41    4.39    44.68879    30.81323   -14.32237
     3  C   4.0    0.14    3.43    3.09    47.26782    29.71579   -15.04768
     4  O   6.0   -0.30    1.24    1.80    47.41190    27.82076   -16.37347
     5  C   4.0   -0.02    4.26    4.13    43.40984    29.07266   -12.36352
     6  C   4.0   -0.08    4.12    3.83    44.82839    29.22666    -9.85920
     7  C   4.0   -0.08    4.13    3.86    40.64798    29.81368   -12.00038
     8  H   1.0    0.10    1.03    1.43    43.13507    29.43897   -17.69115
     9  H   1.0    0.05    1.05    1.44    44.89782    32.71776   -13.54475
    10  H   1.0    0.05    1.05    1.44    43.50838    27.13480   -13.08969
    11  H   1.0    0.04    1.00    1.43    43.96425    27.99365    -8.46229
    12  H   1.0    0.05    1.00    1.43    46.80023    28.69819   -10.09631
    13  H   1.0    0.05    1.00    1.43    44.77183    31.14969    -9.12806
    14  H   1.0    0.04    1.00    1.43    39.83342    28.71379   -10.47180
    15  H   1.0    0.04    1.00    1.43    40.51552    31.80671   -11.51017
    16  H   1.0    0.04    1.00    1.43    39.54655    29.48324   -13.70475
    17  N   5.0   -0.15    3.46    2.05    49.26661    30.96620   -14.14423
    18  C   4.0    0.04    4.39    4.37    51.81612    30.17424   -14.68619
    19  C   4.0    0.16    3.50    3.11    52.82843    28.41622   -12.63721
    20  O   6.0   -0.32    1.33    1.80    52.44353    28.75229   -10.36988
    21  C   4.0    0.03    4.17    3.94    53.53473    32.51030   -14.79954
    22  O   6.0   -0.26    2.08    1.84    56.11536    31.79433   -14.78409
    23  H   1.0    0.11    1.12    1.45    49.01077    32.52014   -12.99701
    24  H   1.0    0.06    1.06    1.44    51.80805    29.17512   -16.50107
    25  H   1.0    0.04    1.01    1.43    53.06659    33.55717   -16.51771
    26  H   1.0    0.05    1.01    1.43    53.10112    33.70201   -13.15655
    27  H   1.0    0.11    1.02    1.43    57.05755    33.30353   -15.25005
    28  N   5.0   -0.14    3.41    2.03    54.39785    26.62869   -13.47380
    29  C   4.0    0.02    4.27    4.14    55.59645    24.92872   -11.69783
    30  C   4.0    0.17    3.42    3.09    56.70323    26.37706    -9.47299
    31  O   6.0   -0.31    1.30    1.80    56.62202    25.55839    -7.31484
    32  H   1.0    0.11    1.09    1.44    54.45033    26.18863   -15.34013
    33  H   1.0    0.05    1.02    1.43    54.26154    23.53164   -10.95653
    34  H   1.0    0.07    1.04    1.43    57.13357    23.95255   -12.67371
    35  N   5.0   -0.14    3.48    2.07    57.97527    28.49675   -10.08339
    36  C   4.0    0.04    4.43    4.44    59.26632    29.95042    -8.14137
    37  C   4.0    0.16    3.49    3.11    57.53908    30.60674    -5.93180
    38  O   6.0   -0.31    1.27    1.80    58.16422    30.25244    -3.72875
    39  C   4.0   -0.04    4.27    4.14    60.38572    32.35875    -9.28632
    40  C   4.0   -0.03    4.18    3.97    61.70766    33.98978    -7.31152
    41  C   4.0    0.25    3.09    3.02    64.05392    32.71587    -6.03276
    42  O   6.0   -0.32    1.24    1.80    64.89264    30.73199    -6.98549
    43  O   6.0   -0.30    1.17    1.80    64.92374    33.83704    -4.16030
    44  H   1.0    0.09    1.09    1.44    57.53306    29.39934   -11.71616
    45  H   1.0    0.07    1.06    1.44    60.80340    28.80362    -7.35927
    46  H   1.0    0.05    1.03    1.43    61.79758    31.81084   -10.68067
    47  H   1.0    0.04    1.03    1.43    58.87861    33.45395   -10.17736
    48  H   1.0    0.04    1.02    1.43    62.39333    35.73393    -8.18020
    49  H   1.0    0.05    1.03    1.43    60.42618    34.53920    -5.78622
    50  N   5.0   -0.14    3.50    2.08    55.35293    31.73686    -6.54459
    51  C   4.0    0.03    4.42    4.42    53.66933    32.62099    -4.57905
    52  C   4.0    0.16    3.45    3.09    52.46568    30.42406    -3.14626
    53  O   6.0   -0.32    1.27    1.80    52.08417    30.55252    -0.86560
    54  C   4.0   -0.04    4.25    4.11    51.70801    34.46617    -5.64742
    55  C   4.0   -0.03    4.19    3.97    49.66002    33.21855    -7.24617
    56  C   4.0    0.24    3.11    3.03    48.28457    35.27732    -8.84375
    57  O   6.0   -0.29    1.17    1.80    46.97069    36.83975    -7.69878
    58  O   6.0   -0.32    1.25    1.80    48.65756    35.21235   -11.18343
    59  H   1.0    0.09    1.07    1.44    54.67613    31.68364    -8.32815
    60  H   1.0    0.05    1.06    1.44    54.84288    33.62626    -3.18947
    61  H   1.0    0.05    1.03    1.43    50.80994    35.47414    -4.08993
    62  H   1.0    0.05    1.03    1.43    52.71636    35.86694    -6.78630
    63  H   1.0    0.06    1.04    1.43    50.44599    31.83515    -8.54900
    64  H   1.0    0.05    1.02    1.43    48.26929    32.29789    -6.03294
    65  N   5.0   -0.14    3.50    2.08    51.92531    28.37420    -4.51193
    66  C   4.0    0.04    4.45    4.46    50.83751    26.15309    -3.33092
    67  C   4.0    0.16    3.48    3.11    52.70151    25.03833    -1.41999
    68  O   6.0   -0.32    1.31    1.80    52.04538    24.48361     0.73564
    69  C   4.0   -0.04    4.33    4.26    50.12758    24.19628    -5.33759
    70  C   4.0   -0.01    3.58    3.15    48.95223    21.90606    -4.12755
    71  C   4.0   -0.05    3.47    3.10    46.49592    22.01688    -3.20698
    72  C   4.0   -0.03    3.47    3.10    50.31192    19.68183    -3.84901
    73  C   4.0   -0.05    3.38    3.07    45.43011    19.94697    -2.02220
    74  C   4.0   -0.03    3.38    3.07    49.23785    17.59746    -2.68961
    75  C   4.0   -0.04    3.37    3.07    46.79357    17.72753    -1.76956
    76  H   1.0    0.10    1.08    1.44    52.16172    28.37134    -6.40886
    77  H   1.0    0.05    1.05    1.44    49.15678    26.71980    -2.25599
    78  H   1.0    0.04    1.03    1.43    48.80205    25.08202    -6.64904
    79  H   1.0    0.05    1.03    1.43    51.82366    23.66177    -6.38286
    80  H   1.0    0.04    1.03    1.43    45.41802    23.73532    -3.44141
    81  H   1.0    0.06    1.03    1.43    52.21521    19.55575    -4.57853
    82  H   1.0    0.04    1.03    1.43    43.53446    20.06375    -1.27736
    83  H   1.0    0.06    1.03    1.43    50.30771    15.86827    -2.55406
    84  H   1.0    0.06    1.03    1.43    45.94214    16.09947    -0.88148
    85  N   5.0   -0.14    3.52    2.09    55.04025    24.73134    -2.27659
    86  C   4.0    0.04    4.42    4.41    57.12193    23.92388    -0.68675
    87  C   4.0    0.16    3.53    3.13    57.24768    25.57586     1.68371
    88  O   6.0   -0.31    1.28    1.80    57.34679    24.66962     3.80772
    89  C   4.0   -0.03    4.34    4.28    59.59414    24.13153    -2.19148
    90  C   4.0   -0.01    3.58    3.16    61.89376    24.12298    -0.52243
    91  C   4.0   -0.04    3.46    3.10    62.85088    21.89017     0.47466
    92  C   4.0   -0.03    3.47    3.10    63.11565    26.37775     0.03702
    93  C   4.0   -0.03    3.43    3.09    65.00117    21.89724     1.95231
    94  C   4.0   -0.04    3.43    3.09    65.26493    26.41237     1.52285
    95  C   4.0    0.07    3.45    3.09    66.24109    24.16238     2.46550
    96  O   6.0   -0.24    2.12    1.84    68.36759    24.08869     3.90894
    97  H   1.0    0.11    1.12    1.45    55.47144    25.18235    -4.08893
    98  H   1.0    0.05    1.05    1.44    56.80208    21.97429    -0.05077
    99  H   1.0    0.05    1.03    1.43    59.66413    22.58207    -3.54922
   100  H   1.0    0.07    1.04    1.43    59.54495    25.90511    -3.24293
   101  H   1.0    0.05    1.03    1.43    61.91013    20.12925     0.06663
   102  H   1.0    0.07    1.03    1.43    62.41358    28.14421    -0.71814
   103  H   1.0    0.06    1.03    1.43    65.76859    20.16721     2.70465
   104  H   1.0    0.07    1.03    1.43    66.16787    28.19644     1.95814
   105  H   1.0    0.12    1.04    1.43    69.08881    25.76100     4.04621
   106  N   5.0   -0.13    3.52    2.09    57.19512    28.05923     1.25396
   107  C   4.0    0.04    4.44    4.45    57.48664    29.83233     3.31782
   108  C   4.0    0.16    3.50    3.12    55.45427    29.35076     5.31989
   109  O   6.0   -0.31    1.26    1.80    55.94439    29.20095     7.57856
   110  C   4.0   -0.04    4.37    4.33    57.27142    32.53242     2.32787
   111  C   4.0   -0.04    4.07    3.74    58.19790    34.41434     4.29164
   112  S   6.0   -0.05    2.56    3.10    57.07336    37.58772     3.63654
   113  C   4.0   -0.06    3.89    3.45    58.20194    38.02822     0.44987
   114  H   1.0    0.11    1.10    1.44    57.34963    28.74143    -0.52684
   115  H   1.0    0.06    1.05    1.44    59.34927    29.57397     4.20702
   116  H   1.0    0.06    1.03    1.43    58.42520    32.67890     0.62086
   117  H   1.0    0.06    1.04    1.43    55.30538    32.90883     1.81992
   118  H   1.0    0.05    1.08    1.44    57.46689    33.94760     6.15843
   119  H   1.0    0.06    1.07    1.44    60.26117    34.44480     4.35619
   120  H   1.0    0.04    1.04    1.44    58.17645    40.03778     0.04760
   121  H   1.0    0.05    1.04    1.43    60.11743    37.29687     0.32608
   122  H   1.0    0.04    1.04    1.43    56.97999    37.03948    -0.87374
   123  N   5.0   -0.14    3.53    2.10    53.11080    29.19010     4.41700
   124  C   4.0    0.04    4.44    4.45    50.99020    28.82823     6.11511
   125  C   4.0    0.16    3.49    3.11    51.31433    26.35814     7.57338
   126  O   6.0   -0.33    1.29    1.80    50.86769    26.21272     9.84182
   127  C   4.0   -0.05    4.35    4.29    48.49901    28.84562     4.65201
   128  C   4.0   -0.03    4.18    3.96    46.16584    28.95739     6.37379
   129  C   4.0   -0.07    4.11    3.82    45.95489    31.51506     7.69100
   130  C   4.0   -0.08    4.10    3.81    43.78032    28.48160     4.82010
   131  H   1.0    0.11    1.10    1.44    52.76038    29.36601     2.54410
   132  H   1.0    0.05    1.06    1.44    51.02344    30.36629     7.50310
   133  H   1.0    0.05    1.03    1.43    48.49850    30.48203     3.39646
   134  H   1.0    0.05    1.03    1.43    48.42648    27.15184     3.47308
   135  H   1.0    0.04    1.05    1.44    46.33702    27.46617     7.79852
   136  H   1.0    0.04    1.00    1.43    44.26656    31.55436     8.85711
   137  H   1.0    0.04    1.00    1.43    47.57106    31.87185     8.90111
   138  H   1.0    0.05    1.00    1.43    45.81845    33.00065     6.27942
   139  H   1.0    0.04    1.00    1.43    42.13082    28.42283     6.04394
   140  H   1.0    0.05    1.00    1.43    43.51801    29.98614     3.44346
   141  H   1.0    0.04    1.00    1.43    43.90586    26.69038     3.82084
   142  N   5.0   -0.14    3.53    2.10    52.09092    24.40018     6.19878
   143  C   4.0    0.04    4.47    4.49    52.48465    21.93615     7.31593
   144  C   4.0    0.16    3.49    3.11    54.31623    22.10331     9.54093
   145  O   6.0   -0.32    1.29    1.80    53.97808    20.85082    11.46066
   146  C   4.0    0.06    4.23    4.06    53.43716    20.04680     5.29562
   147  O   6.0   -0.26    2.12    1.84    51.60879    19.72353     3.38012
   148  C   4.0   -0.07    4.10    3.80    53.91768    17.45693     6.47132
   149  H   1.0    0.11    1.11    1.44    52.39836    24.61858     4.32476
   150  H   1.0    0.05    1.05    1.44    50.67663    21.23592     8.05827
   151  H   1.0    0.06    1.04    1.43    55.19502    20.81747     4.49576
   152  H   1.0    0.15    1.05    1.44    51.47527    21.25018     2.38770
   153  H   1.0    0.05    1.00    1.43    54.40996    16.14213     4.97488
   154  H   1.0    0.05    1.00    1.43    55.44247    17.57444     7.83583
   155  H   1.0    0.05    1.00    1.43    52.19668    16.82490     7.39277
   156  N   5.0   -0.14    3.51    2.08    56.30423    23.61858     9.22859
   157  C   4.0    0.04    4.42    4.41    58.09826    24.01731    11.26092
   158  C   4.0    0.16    3.47    3.10    56.80260    25.18554    13.57901
   159  O   6.0   -0.31    1.29    1.80    57.23292    24.37428    15.70506
   160  C   4.0   -0.04    4.27    4.13    60.26605    25.73342    10.42892
   161  C   4.0   -0.04    4.18    3.95    61.91253    24.58491     8.32301
   162  C   4.0   -0.01    4.21    4.01    64.68390    24.37766     9.08489
   163  N   5.0   -0.14    3.40    2.02    65.03507    22.35994    10.90862
   164  C   4.0    0.10    3.33    3.06    66.96731    22.12581    12.50521
   165  N   5.0   -0.18    3.25    1.97    68.58725    23.99213    12.90518
   166  N   5.0   -0.19    3.24    1.97    67.28295    19.93298    13.70633
   167  H   1.0    0.11    1.09    1.44    56.57382    24.55612     7.58404
   168  H   1.0    0.05    1.05    1.44    58.82174    22.17369    11.87979
   169  H   1.0    0.06    1.03    1.43    59.45832    27.51693     9.78740
   170  H   1.0    0.05    1.03    1.43    61.42087    26.12313    12.09091
   171  H   1.0    0.05    1.03    1.43    61.19154    22.73419     7.77505
   172  H   1.0    0.06    1.03    1.43    61.80576    25.76530     6.63749
   173  H   1.0    0.06    1.03    1.43    65.82734    23.98311     7.41336
   174  H   1.0    0.05    1.03    1.43    65.28837    26.17568     9.88472
   175  H   1.0    0.07    1.07    1.44    63.98910    20.79743    10.55997
   176  H   1.0    0.10    1.05    1.44    68.39467    25.75565    12.15337
   177  H   1.0    0.09    1.03    1.43    69.93819    23.79170    14.24373
   178  H   1.0    0.08    1.03    1.43    66.08418    18.47719    13.44127
   179  H   1.0    0.09    1.03    1.43    68.62174    19.73221    15.04464
   180  N   5.0   -0.14    3.51    2.08    55.26217    27.12556    13.12679
   181  C   4.0    0.04    4.43    4.44    53.87797    28.31355    15.17991
   182  C   4.0    0.16    3.46    3.10    52.35639    26.32416    16.63354
   183  O   6.0   -0.29    1.22    1.80    52.28727    26.31491    18.95763
   184  C   4.0   -0.05    4.27    4.14    52.15065    30.39420    14.15389
   185  C   4.0   -0.05    4.19    3.98    53.69513    32.73100    13.43200
   186  C   4.0   -0.01    4.22    4.04    52.18651    34.65142    11.90858
   187  N   5.0   -0.14    3.40    2.02    50.09049    35.67147    13.34939
   188  C   4.0    0.09    3.34    3.06    48.43279    37.30009    12.41311
   189  N   5.0   -0.19    3.27    1.97    48.45239    37.92152     9.97079
   190  N   5.0   -0.18    3.23    1.96    46.67939    38.28134    13.92183
   191  H   1.0    0.11    1.08    1.44    55.03131    27.81366    11.35218
   192  H   1.0    0.05    1.05    1.44    55.22164    29.12057    16.54115
   193  H   1.0    0.06    1.03    1.43    51.13576    29.64344    12.52465
   194  H   1.0    0.05    1.03    1.43    50.77427    30.90193    15.60026
   195  H   1.0    0.04    1.03    1.43    54.40106    33.61514    15.15344
   196  H   1.0    0.05    1.03    1.43    55.31035    32.16071    12.28634
   197  H   1.0    0.05    1.02    1.43    53.45167    36.19013    11.34225
   198  H   1.0    0.05    1.03    1.43    51.46408    33.74940    10.19445
   199  H   1.0    0.08    1.06    1.44    50.02385    35.31610    15.25464
   200  H   1.0    0.10    1.07    1.44    49.68495    37.15702     8.70110
   201  H   1.0    0.08    1.03    1.43    47.17274    39.17130     9.32437
   202  H   1.0    0.09    1.02    1.43    46.74259    38.02688    15.85149
   203  H   1.0    0.09    1.03    1.43    45.43534    39.54148    13.24001
   204  N   5.0   -0.14    3.52    2.09    51.11552    24.67461    15.19035
   205  C   4.0    0.04    4.50    4.53    49.55188    22.67487    16.22899
   206  C   4.0    0.16    3.48    3.11    51.16702    20.91824    17.87191
   207  O   6.0   -0.27    1.24    1.80    50.53911    20.37825    20.04481
   208  C   4.0   -0.02    4.26    4.12    48.20357    21.23738    14.09687
   209  C   4.0   -0.07    4.12    3.85    46.79907    18.94304    15.14263
   210  C   4.0   -0.08    4.11    3.83    46.35834    22.99751    12.73735
   211  H   1.0    0.11    1.10    1.44    51.15352    24.89211    13.28365
   212  H   1.0    0.06    1.05    1.44    48.14558    23.50680    17.51148
   213  H   1.0    0.06    1.06    1.44    49.66181    20.57992    12.78629
   214  H   1.0    0.04    1.00    1.43    45.87540    17.91479    13.62624
   215  H   1.0    0.05    1.00    1.43    48.07103    17.65362    16.11679
   216  H   1.0    0.05    1.00    1.43    45.36129    19.53015    16.48908
   217  H   1.0    0.04    1.00    1.43    45.26255    21.93971    11.36182
   218  H   1.0    0.04    1.00    1.43    45.05374    23.82532    14.09084
   219  H   1.0    0.06    1.01    1.43    47.35333    24.51710    11.78320
   220  N   5.0   -0.14    3.51    2.09    53.27907    20.08457    16.79349
   221  C   4.0    0.04    4.43    4.42    55.02634    18.44202    18.13144
   222  C   4.0    0.16    3.52    3.12    55.70405    19.61026    20.67696
   223  O   6.0   -0.27    1.23    1.80    55.71431    18.37851    22.66048
   224  C   4.0   -0.05    4.37    4.32    57.41577    18.10443    16.54113
   225  C   4.0   -0.02    4.19    3.98    59.42156    16.43225    17.80115
   226  C   4.0   -0.07    4.10    3.80    58.59038    13.66908    17.91498
   227  C   4.0   -0.08    4.10    3.80    61.91561    16.68341    16.36232
   228  H   1.0    0.11    1.10    1.44    53.66167    20.49449    14.95466
   229  H   1.0    0.05    1.05    1.44    54.10164    16.62986    18.53128
   230  H   1.0    0.05    1.03    1.43    56.86806    17.28602    14.72987
   231  H   1.0    0.06    1.04    1.43    58.20941    19.98195    16.21893
   232  H   1.0    0.06    1.06    1.44    59.70707    17.09644    19.74028
   233  H   1.0    0.05    1.00    1.43    59.97510    12.56008    18.95212
   234  H   1.0    0.05    1.00    1.43    56.79189    13.47143    18.88757
   235  H   1.0    0.04    1.00    1.43    58.40792    12.88397    16.02522
   236  H   1.0    0.04    1.00    1.43    63.31803    15.43605    17.19519
   237  H   1.0    0.04    1.00    1.43    61.63274    16.14407    14.40053
   238  H   1.0    0.05    1.00    1.43    62.58669    18.62024    16.48961
   239  N   5.0   -0.13    3.50    2.08    56.37441    22.03332    20.58624
   240  C   4.0    0.05    4.36    4.30    57.16331    23.34677    22.85118
   241  C   4.0    0.11    3.26    3.04    55.03875    23.26814    24.80536
   242  O   6.0   -0.26    1.11    1.80    55.43814    22.65471    27.01268
   243  C   4.0   -0.03    4.28    4.15    57.96146    26.04986    22.22734
   244  C   4.0   -0.03    4.23    4.07    59.21011    27.32149    24.49197
   245  C   4.0    0.16    3.23    3.04    61.68660    26.05782    25.21613
   246  O   6.0   -0.29    1.22    1.80    62.80414    24.55886    23.84219
   247  N   5.0   -0.18    3.18    1.95    62.57325    26.73506    27.48214
   248  H   1.0    0.12    1.10    1.44    56.45223    22.97429    18.91288
   249  H   1.0    0.08    1.06    1.44    58.76557    22.32672    23.68841
   250  H   1.0    0.06    1.03    1.43    59.30822    25.95996    20.66876
   251  H   1.0    0.06    1.03    1.43    56.31519    27.13412    21.63526
   252  H   1.0    0.04    1.03    1.43    59.61000    29.29301    24.04615
   253  H   1.0    0.05    1.03    1.43    57.95801    27.28517    26.12728
   254  H   1.0    0.09    1.02    1.43    61.70764    28.07245    28.55133
   255  H   1.0    0.10    1.03    1.43    64.22053    26.00368    28.09977
   256  O   6.0   -0.33    1.99    1.83    51.41932    35.92442     6.02333
   257  H   1.0    0.12    1.03    1.43    53.02227    36.69914     5.63594
   258  H   1.0    0.12    0.97    1.43    50.41897    36.04445     4.50725
   259  O   6.0   -0.31    1.95    1.82    69.03344    29.20728    10.97972
   260  H   1.0    0.13    0.96    1.43    70.73068    28.89390    10.35269
   261  H   1.0    0.16    1.01    1.43    68.09761    30.03930     9.62164
   262  O   6.0   -0.31    1.95    1.82    66.40477    27.68962   -10.97972
   263  H   1.0    0.13    0.96    1.43    65.82755    26.06308   -10.35269
   264  H   1.0    0.16    1.01    1.43    66.15214    28.91608    -9.62164
   265  N   5.0   -0.11    4.05    3.01    61.36100    28.85360   -15.87976
   266  C   4.0   -0.02    4.17    3.94    61.61414    27.28539   -18.18242
   267  C   4.0    0.16    3.34    3.06    60.07387    24.86582   -17.74827
   268  O   6.0   -0.30    1.27    1.80    59.78192    24.08555   -15.59361
   269  H   1.0    0.08    1.04    1.43    61.50953    27.64134   -14.34275
   270  H   1.0    0.06    1.02    1.43    62.75673    30.20181   -15.75272
   271  H   1.0    0.07    1.03    1.43    59.59041    29.67954   -15.80353
   272  H   1.0    0.04    1.02    1.43    60.94896    28.26626   -19.86812
   273  H   1.0    0.05    1.02    1.43    63.58971    26.74101   -18.43356
   274  N   5.0   -0.13    3.36    2.00    59.23834    23.75790   -19.84702
   275  C   4.0    0.02    4.15    3.90    57.50411    21.65915   -19.75683
   276  C   4.0    0.08    3.12    3.03    54.76884    22.57610   -19.44840
   277  O   6.0   -0.29    1.18    1.80    54.27767    24.65211   -18.56207
   278  H   1.0    0.08    1.06    1.44    59.42975    24.68241   -21.51910
   279  H   1.0    0.04    1.02    1.43    57.69973    20.51855   -21.45954
   280  H   1.0    0.06    1.03    1.43    57.93774    20.51202   -18.08883
   281  N   5.0   -0.19    3.25    1.97    47.32961    19.96039   -16.60837
   282  C   4.0    0.04    4.31    4.21    46.41256    18.76245   -14.32237
   283  C   4.0    0.09    3.23    3.04    44.17264    17.07766   -15.04768
   284  O   6.0   -0.28    1.13    1.80    42.45945    17.90040   -16.37347
   285  C   4.0   -0.02    4.26    4.12    45.54465    20.74034   -12.36352
   286  C   4.0   -0.08    4.11    3.83    44.96874    19.43484    -9.85920
   287  C   4.0   -0.07    4.13    3.86    47.56733    22.76167   -12.00038
   288  H   1.0    0.10    1.03    1.43    45.99927    20.79514   -17.69115
   289  H   1.0    0.06    1.05    1.44    47.95741    17.62916   -13.54475
   290  H   1.0    0.05    1.05    1.44    43.81715    21.62393   -13.08969
   291  H   1.0    0.04    1.00    1.43    44.33300    20.79971    -8.46229
   292  H   1.0    0.04    1.00    1.43    43.52516    17.99141   -10.09631
   293  H   1.0    0.05    1.00    1.43    46.66242    18.52230    -9.12806
   294  H   1.0    0.04    1.00    1.43    47.02208    24.01704   -10.47180
   295  H   1.0    0.05    1.00    1.43    49.35957    21.87987   -11.51017
   296  H   1.0    0.06    1.00    1.43    47.83187    23.88076   -13.70475
   297  N   5.0   -0.21    3.24    1.96    41.88038     9.06522    -6.54459
   298  C   4.0    0.03    4.31    4.21    43.48786    10.08119    -4.57905
   299  C   4.0    0.15    3.43    3.09    42.18708    12.22205    -3.14626
   300  O   6.0   -0.32    1.27    1.80    42.48909    12.48821    -0.86560
   301  C   4.0   -0.04    4.25    4.11    46.06648    10.85715    -5.64742
   302  C   4.0   -0.03    4.18    3.97    46.01001    13.25458    -7.24617
   303  C   4.0    0.24    3.11    3.02    48.48069    13.41637    -8.84375
   304  O   6.0   -0.29    1.17    1.80    50.49073    13.77300    -7.69878
   305  O   6.0   -0.29    1.16    1.80    48.23792    13.12584   -11.18343
   306  H   1.0    0.08    1.03    1.43    42.17268     9.67795    -8.32815
   307  H   1.0    0.05    1.06    1.44    43.77167     8.56224    -3.18947
   308  H   1.0    0.05    1.03    1.43    47.38845    11.13093    -4.08993
   309  H   1.0    0.05    1.03    1.43    46.77541     9.28352    -6.78630
   310  H   1.0    0.05    1.03    1.43    44.41897    13.26561    -8.54900
   311  H   1.0    0.05    1.02    1.43    45.90806    14.91931    -6.03294
   312  N   5.0   -0.15    3.47    2.06    40.68203    13.71495    -4.51193
   313  C   4.0    0.04    4.35    4.29    39.30239    15.76757    -3.33092
   314  C   4.0    0.09    3.26    3.04    37.40499    14.71068    -1.41999
   315  O   6.0   -0.29    1.11    1.80    37.25265    15.55627     0.73564
   316  C   4.0   -0.04    4.32    4.24    37.96271    17.36079    -5.33759
   317  C   4.0   -0.01    3.58    3.15    36.56700    19.52379    -4.12755
   318  C   4.0   -0.04    3.47    3.10    37.89113    21.59561    -3.20698
   319  C   4.0   -0.03    3.47    3.10    33.96092    19.45837    -3.84901
   320  C   4.0   -0.05    3.38    3.07    36.63145    23.55358    -2.02220
   321  C   4.0   -0.04    3.37    3.07    32.69283    21.43073    -2.68961
   322  C   4.0   -0.04    3.37    3.07    34.02762    23.48251    -1.76956
   323  H   1.0    0.07    1.07    1.44    40.56135    13.51164    -6.40886
   324  H   1.0    0.05    1.05    1.44    40.63355    16.93977    -2.25599
   325  H   1.0    0.04    1.03    1.43    39.39255    18.06587    -6.64904
   326  H   1.0    0.04    1.03    1.43    36.65177    16.15920    -6.38286
   327  H   1.0    0.04    1.03    1.43    39.91830    21.66987    -3.44141
   328  H   1.0    0.05    1.03    1.43    32.90009    17.87312    -4.57853
   329  H   1.0    0.04    1.03    1.43    37.68040    25.13687    -1.27736
   330  H   1.0    0.05    1.03    1.43    30.66038    21.36880    -2.55406
   331  H   1.0    0.04    1.03    1.43    33.04339    25.03390    -0.88148
   332  N   5.0   -0.20    3.21    1.96    40.79588    12.28034     4.41700
   333  C   4.0    0.03    4.22    4.04    41.54279    14.29777     6.11511
   334  C   4.0    0.08    3.21    3.04    39.24156    15.25211     7.57338
   335  O   6.0   -0.31    1.13    1.80    39.33895    15.71162     9.84182
   336  C   4.0   -0.04    4.34    4.28    42.80344    16.44650     4.65201
   337  C   4.0   -0.02    4.18    3.96    44.06683    18.41121     6.37379
   338  C   4.0   -0.08    4.11    3.82    46.38731    17.31506     7.69100
   339  C   4.0   -0.08    4.10    3.81    44.84755    20.71502     4.82010
   340  H   1.0    0.12    1.05    1.44    41.12343    12.49586     2.54410
   341  H   1.0    0.04    1.05    1.44    42.85817    13.49995     7.50310
   342  H   1.0    0.05    1.03    1.43    44.22088    15.62874     3.39646
   343  H   1.0    0.05    1.03    1.43    41.37286    17.35621     3.47308
   344  H   1.0    0.05    1.05    1.44    42.68981    19.00857     7.79852
   345  H   1.0    0.04    1.00    1.43    47.26551    18.75754     8.85711
   346  H   1.0    0.04    1.00    1.43    45.88821    15.73702     8.90111
   347  H   1.0    0.04    1.00    1.43    47.74209    16.69042     6.27942
   348  H   1.0    0.04    1.00    1.43    45.62139    22.17292     6.04394
   349  H   1.0    0.05    1.00    1.43    46.28167    20.18992     3.44346
   350  H   1.0    0.04    1.00    1.43    43.23353    21.50191     3.82084
   351  N   5.0   -0.19    3.21    1.96    37.93225    11.44947    13.12679
   352  C   4.0    0.04    4.22    4.04    39.65318    12.05422    15.17991
   353  C   4.0    0.09    3.20    3.04    38.69111    14.36665    16.63354
   354  O   6.0   -0.28    1.11    1.80    38.71766    14.43114    18.95763
   355  C   4.0   -0.04    4.26    4.13    42.31874    12.50980    14.15389
   356  C   4.0   -0.05    4.19    3.98    43.57023    10.00384    13.43200
   357  C   4.0   -0.01    4.22    4.03    45.98767    10.35014    11.90858
   358  N   5.0   -0.14    3.40    2.02    47.91907    11.65532    13.34939
   359  C   4.0    0.09    3.34    3.06    50.15834    12.27662    12.41311
   360  N   5.0   -0.19    3.26    1.97    50.68671    11.94893     9.97079
   361  N   5.0   -0.19    3.23    1.96    51.88483    13.30448    13.92183
   362  H   1.0    0.09    1.03    1.43    38.64359    11.30535    11.35218
   363  H   1.0    0.05    1.05    1.44    39.68024    10.48706    16.54115
   364  H   1.0    0.06    1.03    1.43    42.17601    13.76410    12.52465
   365  H   1.0    0.05    1.03    1.43    43.44663    13.44792    15.60026
   366  H   1.0    0.04    1.03    1.43    43.98295     8.95042    15.15344
   367  H   1.0    0.04    1.03    1.43    42.26873     8.89017    12.28634
   368  H   1.0    0.04    1.02    1.43    46.68765     8.48512    11.34225
   369  H   1.0    0.04    1.02    1.43    45.56771    11.42679    10.19445
   370  H   1.0    0.08    1.06    1.44    47.64463    11.89072    15.25464
   371  H   1.0    0.08    1.02    1.43    49.40836    11.26375     8.70110
   372  H   1.0    0.08    1.03    1.43    52.40888    12.43226     9.32437
   373  H   1.0    0.08    1.02    1.43    51.63286    13.37698    15.85149
   374  H   1.0    0.08    1.03    1.43    53.59817    13.75179    13.24001
   375  N   5.0   -0.21    3.20    1.96    33.60840    30.78154    -4.51193
   376  C   4.0    0.03    4.24    4.07    36.07583    30.95004    -3.33092
   377  C   4.0    0.08    3.23    3.04    36.10924    33.12169    -1.41999
   378  O   6.0   -0.32    1.19    1.80    36.91771    32.83082     0.73564
   379  C   4.0   -0.04    4.32    4.24    38.12544    31.31362    -5.33759
   380  C   4.0   -0.01    3.58    3.15    40.69651    31.44085    -4.12755
   381  C   4.0   -0.05    3.47    3.10    41.82869    29.25821    -3.20698
   382  C   4.0   -0.03    3.47    3.10    41.94290    33.73049    -3.84901
   383  C   4.0   -0.05    3.38    3.07    44.15419    29.37014    -2.02220
   384  C   4.0   -0.03    3.38    3.07    44.28506    33.84250    -2.68961
   385  C   4.0   -0.04    3.37    3.07    45.39455    31.66065    -1.76956
   386  H   1.0    0.08    1.03    1.43    33.49266    30.98771    -6.40886
   387  H   1.0    0.04    1.05    1.44    36.42541    29.21112    -2.25599
   388  H   1.0    0.04    1.03    1.43    38.02114    29.72281    -6.64904
   389  H   1.0    0.04    1.03    1.43    37.74030    33.04973    -6.38286
   390  H   1.0    0.04    1.03    1.43    40.87943    27.46549    -3.44141
   391  H   1.0    0.06    1.03    1.43    41.10045    35.44182    -4.57853
   392  H   1.0    0.04    1.03    1.43    45.00088    27.67007    -1.27736
   393  H   1.0    0.06    1.03    1.43    45.24765    35.63362    -2.55406
   394  H   1.0    0.06    1.03    1.43    47.23021    31.73732    -0.88148
   395  N   5.0   -0.20    3.24    1.97    32.30906    31.40026     4.41700
   396  C   4.0    0.03    4.33    4.25    33.68275    29.74469     6.11511
   397  C   4.0    0.15    3.44    3.09    35.65985    31.26045     7.57338
   398  O   6.0   -0.32    1.28    1.80    36.00910    30.94636     9.84182
   399  C   4.0   -0.05    4.35    4.29    34.91328    27.57857     4.65201
   400  C   4.0   -0.02    4.18    3.96    35.98307    25.50209     6.37379
   401  C   4.0   -0.07    4.11    3.82    33.87354    24.04057     7.69100
   402  C   4.0   -0.08    4.10    3.81    37.58788    23.67407     4.82010
   403  H   1.0    0.09    1.02    1.43    32.33193    31.00882     2.54410
   404  H   1.0    0.05    1.05    1.44    32.33413    29.00445     7.50310
   405  H   1.0    0.04    1.03    1.43    33.49636    26.75992     3.39646
   406  H   1.0    0.05    1.03    1.43    36.41640    28.36264     3.47308
   407  H   1.0    0.05    1.05    1.44    37.18892    26.39595     7.79852
   408  H   1.0    0.05    1.00    1.43    34.68367    22.55879     8.85711
   409  H   1.0    0.05    1.00    1.43    32.75646    25.26183     8.90111
   410  H   1.0    0.04    1.00    1.43    32.65520    23.17961     6.27942
   411  H   1.0    0.04    1.00    1.43    38.46352    22.27495     6.04394
   412  H   1.0    0.05    1.00    1.43    36.41606    22.69463     3.44346
   413  H   1.0    0.04    1.00    1.43    39.07635    24.67840     3.82084
   414  N   5.0   -0.15    3.49    2.07    36.96719    32.91197     6.19878
   415  C   4.0    0.04    4.37    4.33    38.90424    34.48497     7.31593
   416  C   4.0    0.09    3.26    3.05    37.84369    35.98758     9.54093
   417  O   6.0   -0.30    1.12    1.80    39.09744    36.32098    11.46066
   418  C   4.0    0.05    4.22    4.05    40.06421    36.25454     5.29562
   419  O   6.0   -0.26    2.12    1.84    41.25835    34.83275     3.38012
   420  C   4.0   -0.06    4.10    3.79    42.06684    37.96561     6.47132
   421  H   1.0    0.11    1.10    1.44    36.62434    33.06902     4.32476
   422  H   1.0    0.05    1.05    1.44    40.41467    33.26928     8.05827
   423  H   1.0    0.05    1.03    1.43    38.51786    37.39155     4.49576
   424  H   1.0    0.15    1.05    1.44    40.00300    33.95380     2.38770
   425  H   1.0    0.05    1.00    1.43    42.95935    39.04934     4.97488
   426  H   1.0    0.05    1.00    1.43    41.20268    39.22737     7.83583
   427  H   1.0    0.05    1.00    1.43    43.47470    36.79120     7.39277
   428  N   5.0   -0.19    3.22    1.96    37.21723    31.93003    15.19035
   429  C   4.0    0.04    4.30    4.20    39.73088    31.57576    16.22899
   430  C   4.0    0.09    3.22    3.04    40.44459    33.85282    17.87191
   431  O   6.0   -0.28    1.11    1.80    41.22619    33.57902    20.04481
   432  C   4.0   -0.02    4.25    4.11    41.64993    31.12682    14.09687
   433  C   4.0   -0.07    4.12    3.85    44.33914    31.05766    15.14263
   434  C   4.0   -0.08    4.11    3.83    41.04823    28.64875    12.73735
   435  H   1.0    0.12    1.05    1.44    37.00987    31.85419    13.28365
   436  H   1.0    0.05    1.05    1.44    39.71355    29.94190    17.51148
   437  H   1.0    0.06    1.06    1.44    41.49019    32.71843    12.78629
   438  H   1.0    0.04    1.00    1.43    45.69147    30.77186    13.62624
   439  H   1.0    0.05    1.00    1.43    44.81983    32.80392    16.11679
   440  H   1.0    0.05    1.00    1.43    44.54958    29.51896    16.48908
   441  H   1.0    0.04    1.00    1.43    42.51221    28.22867    11.36182
   442  H   1.0    0.04    1.00    1.43    40.98362    27.10502    14.09084
   443  H   1.0    0.06    1.01    1.43    39.23473    28.75063    11.78320
   444  N   5.0   -0.21    3.19    1.95    72.54919    36.91101    10.08339
   445  C   4.0    0.03    4.23    4.06    70.64475    36.51976     8.14137
   446  C   4.0    0.08    3.23    3.04    70.93999    38.34375     5.93180
   447  O   6.0   -0.31    1.16    1.80    70.93425    37.62522     3.72875
   448  C   4.0   -0.04    4.26    4.12    67.99938    36.75449     9.28632
   449  C   4.0   -0.03    4.18    3.97    65.92590    36.42518     7.31152
   450  C   4.0    0.25    3.09    3.02    65.85601    33.75631     6.03276
   451  O   6.0   -0.32    1.24    1.80    67.15474    32.03801     6.98549
   452  O   6.0   -0.30    1.17    1.80    64.45014    33.56360     4.16030
   453  H   1.0    0.08    1.02    1.43    71.98864    37.74527    11.71616
   454  H   1.0    0.06    1.06    1.44    70.86937    34.61521     7.35927
   455  H   1.0    0.05    1.03    1.43    67.76795    35.25784    10.68067
   456  H   1.0    0.04    1.02    1.43    67.80447    38.60730    10.17736
   457  H   1.0    0.04    1.02    1.43    64.07259    36.70344     8.18020
   458  H   1.0    0.05    1.03    1.43    66.09083    37.80969     5.78622
   459  N   5.0   -0.20    3.23    1.96    77.27765    37.57010     2.27659
   460  C   4.0    0.03    4.32    4.24    76.93609    35.36359     0.68675
   461  C   4.0    0.16    3.48    3.10    75.44255    36.08067    -1.68371
   462  O   6.0   -0.31    1.27    1.80    76.17783    35.54172    -3.80772
   463  C   4.0   -0.03    4.34    4.27    75.52015    33.32642     2.19148
   464  C   4.0   -0.01    3.58    3.15    74.37774    31.33061     0.52243
   465  C   4.0   -0.04    3.46    3.10    75.83286    29.38532    -0.47466
   466  C   4.0   -0.03    3.47    3.10    71.81411    31.39981    -0.03702
   467  C   4.0   -0.03    3.43    3.09    74.75159    27.52665    -1.95231
   468  C   4.0   -0.04    3.43    3.09    70.70949    29.55579    -1.52285
   469  C   4.0    0.07    3.45    3.09    72.16996    27.58541    -2.46550
   470  O   6.0   -0.24    2.12    1.84    71.17053    25.70697    -3.90894
   471  H   1.0    0.09    1.03    1.43    76.67147    37.42219     4.08893
   472  H   1.0    0.05    1.05    1.44    78.78441    34.66579     0.05077
   473  H   1.0    0.04    1.03    1.43    76.82703    32.49108     3.54922
   474  H   1.0    0.06    1.04    1.43    74.00878    34.25581     3.24293
   475  H   1.0    0.05    1.03    1.43    77.82823    29.31957    -0.06663
   476  H   1.0    0.07    1.03    1.43    70.63535    32.89105     0.71814
   477  H   1.0    0.06    1.03    1.43    75.86613    25.99703    -2.70465
   478  H   1.0    0.07    1.03    1.43    68.71297    29.66586    -1.95814
   479  H   1.0    0.13    1.04    1.43    69.36166    25.91853    -4.04621
   480  N   5.0   -0.14    3.49    2.07    73.31818    37.36789    -1.25396
   481  C   4.0    0.04    4.34    4.27    71.63687    38.00196    -3.31782
   482  C   4.0    0.09    3.27    3.05    73.07011    39.52127    -5.31989
   483  O   6.0   -0.29    1.12    1.80    72.95478    39.02190    -7.57856
   484  C   4.0   -0.04    4.36    4.31    69.40612    39.53840    -2.32787
   485  C   4.0   -0.03    4.07    3.74    67.31310    39.67701    -4.29164
   486  S   6.0   -0.04    2.48    3.10    65.12714    42.23757    -3.63654
   487  C   4.0   -0.06    3.89    3.45    64.18137    41.48044    -0.44987
   488  H   1.0    0.11    1.10    1.44    72.65012    37.57517     0.52684
   489  H   1.0    0.06    1.05    1.44    70.92930    36.25971    -4.20702
   490  H   1.0    0.06    1.03    1.43    68.70239    38.61243    -0.62086
   491  H   1.0    0.05    1.04    1.43    70.06316    41.42924    -1.81992
   492  H   1.0    0.06    1.08    1.44    68.08281    40.07671    -6.15843
   493  H   1.0    0.06    1.07    1.44    66.25509    37.90539    -4.35619
   494  H   1.0    0.04    1.04    1.44    62.45378    42.50729    -0.04760
   495  H   1.0    0.05    1.04    1.43    63.85699    39.45591    -0.32608
   496  H   1.0    0.05    1.04    1.43    65.64862    42.04431     0.87374
   497  N   5.0   -0.19    3.21    1.96    77.60933    35.91909    -9.22859
   498  C   4.0    0.04    4.21    4.03    76.36701    34.56478   -11.26092
   499  C   4.0    0.09    3.20    3.04    76.00313    36.27096   -13.57901
   500  O   6.0   -0.28    1.11    1.80    76.49053    35.49267   -15.70506
   501  C   4.0   -0.04    4.26    4.12    73.79692    33.54548   -10.42892
   502  C   4.0   -0.04    4.18    3.95    73.96832    31.54533    -8.32301
   503  C   4.0   -0.01    4.21    4.01    72.76212    29.04162    -9.08489
   504  N   5.0   -0.14    3.40    2.02    74.33393    27.72864   -10.90862
   505  C   4.0    0.10    3.33    3.06    73.57057    25.93820   -12.50521
   506  N   5.0   -0.18    3.25    1.97    71.14432    25.46845   -12.90518
   507  N   5.0   -0.18    3.24    1.97    75.31180    24.56844   -13.70633
   508  H   1.0    0.12    1.05    1.44    76.66261    36.15439    -7.58404
   509  H   1.0    0.05    1.05    1.44    77.60189    33.01642   -11.87979
   510  H   1.0    0.07    1.03    1.43    72.65622    35.13674    -9.78740
   511  H   1.0    0.05    1.03    1.43    72.88202    32.74022   -12.09091
   512  H   1.0    0.05    1.03    1.43    75.93159    31.24436    -7.77505
   513  H   1.0    0.06    1.03    1.43    72.99946    32.22799    -6.63749
   514  H   1.0    0.06    1.03    1.43    72.53208    27.85410    -7.41336
   515  H   1.0    0.05    1.03    1.43    70.90275    29.41715    -9.88472
   516  H   1.0    0.08    1.07    1.44    76.21009    27.85322   -10.55997
   517  H   1.0    0.10    1.05    1.44    69.71335    26.51699   -12.15337
   518  H   1.0    0.09    1.03    1.43    70.64243    24.19829   -14.24373
   519  H   1.0    0.09    1.03    1.43    77.17194    24.87871   -13.44127
   520  H   1.0    0.09    1.03    1.43    74.81628    23.30862   -15.04464
   521  N   5.0   -0.19    3.24    1.97    59.21929    29.17308   -27.69472
   522  C   4.0    0.03    4.28    4.16    56.86350    27.90050   -28.19109
   523  C   4.0    0.25    3.18    3.03    57.23105    25.89447   -30.32899
   524  O   6.0   -0.27    1.18    1.80    59.40450    25.47809   -31.10012
   525  C   4.0   -0.03    4.30    4.19    54.82248    29.79575   -28.98754
   526  C   4.0   -0.02    3.69    3.23    54.30977    31.75655   -27.03391
   527  C   4.0   -0.01    3.62    3.18    55.37952    34.10344   -26.93961
   528  C   4.0    0.01    3.88    3.44    52.62336    31.60075   -24.93256
   529  N   5.0   -0.12    3.49    2.07    54.45119    35.44036   -24.93516
   530  C   4.0    0.04    3.90    3.46    52.75755    33.96506   -23.67309
   531  C   4.0   -0.04    3.40    3.08    51.02213    29.72885   -23.99349
   532  C   4.0   -0.05    3.40    3.08    51.28356    34.49007   -21.56392
   533  C   4.0   -0.03    3.37    3.07    49.59649    30.24898   -21.87819
   534  C   4.0   -0.03    3.38    3.07    49.70544    32.60855   -20.69403
   535  O   6.0   -0.28    1.18    1.80    55.24815    24.85440   -31.11078
   536  H   1.0    0.09    1.03    1.43    59.93090    30.18733   -29.15984
   537  H   1.0    0.05    1.05    1.44    56.30449    26.90348   -26.46189
   538  H   1.0    0.05    1.03    1.43    55.49006    30.71066   -30.71435
   539  H   1.0    0.06    1.03    1.43    53.11482    28.72296   -29.42973
   540  H   1.0    0.05    1.02    1.43    56.76901    34.89706   -28.18327
   541  H   1.0    0.08    1.05    1.44    54.97707    37.20041   -24.44909
   542  H   1.0    0.06    1.03    1.43    50.88786    27.91726   -24.92527
   543  H   1.0    0.05    1.03    1.43    51.35631    36.31558   -20.65654
   544  H   1.0    0.07    1.03    1.43    48.36458    28.81649   -21.10457
   545  H   1.0    0.06    1.03    1.43    48.51066    32.95090   -19.07307
   546  H   1.0    0.09    1.09    1.44    41.58094    31.36909   -16.20296
   547  H   1.0    0.08    1.05    1.44    53.27466    23.72158    24.30193
   548  H   1.0    0.09    1.08    1.44    59.01397    30.26616   -26.40803
   549  H   1.0    0.06    1.04    1.44    53.33460    21.46566   -19.97844
   550  H   1.0    0.10    1.09    1.44    48.44787    21.17599   -16.20296
   551  H   1.0    0.06    1.04    1.43    44.09881    15.29015   -14.43906
   552  H   1.0    0.10    1.07    1.44    42.06749     7.37624    -6.61452
   553  H   1.0    0.06    1.05    1.44    36.25177    13.29815    -1.91589
   554  H   1.0    0.09    1.07    1.44    41.61482    10.85071     4.83896
   555  H   1.0    0.06    1.05    1.44    37.59894    15.51786     6.67770
   556  H   1.0    0.09    1.07    1.44    37.19952     9.94390    13.42502
   557  H   1.0    0.07    1.04    1.44    38.02424    15.86380    15.69284
   558  H   1.0    0.09    1.07    1.44    32.93201    29.25294    -4.19818
   559  H   1.0    0.05    1.05    1.44    35.46256    34.82666    -1.91589
   560  H   1.0    0.09    1.07    1.44    30.66149    31.40585     4.83896
   561  H   1.0    0.06    1.05    1.44    36.10270    36.71615     9.44492
   562  H   1.0    0.10    1.07    1.44    36.17840    30.72667    15.79478
   563  H   1.0    0.07    1.04    1.44    40.27883    35.60444    17.18240
   564  H   1.0    0.10    1.07    1.44    73.20405    35.41131    10.54668
   565  H   1.0    0.05    1.05    1.44    71.14721    40.19403     6.25520
   566  H   1.0    0.09    1.07    1.44    78.93248    37.95108     2.37110
   567  H   1.0    0.06    1.05    1.44    74.15076    40.98269    -4.80268
   568  H   1.0    0.10    1.07    1.44    79.03980    35.10697    -8.79640
   569  H   1.0    0.07    1.04    1.43    75.36281    38.03563   -13.36219

  Z AO/shell   Hii/eV     exponent
  1     Wed Apr 25 08:07:45 CEST 2018   EN: 2.200 GM2: 0.406  GM3: 0.0800  RAES: 1.40
     1s    -10.707211    1.230000
  6     Wed Apr 25 08:07:45 CEST 2018   EN: 2.550 GM2: 0.538  GM3: 0.1500  RAES: 3.00
     2s    -13.970922    2.096432
     2p    -10.063292    1.800000
  7     Wed Apr 25 08:07:45 CEST 2018   EN: 3.040 GM2: 0.461  GM3:-0.0640  RAES: 1.90
     2s    -16.686243    2.339881
     2p    -12.523956    2.014332
  8     Wed Apr 25 08:07:45 CEST 2018   EN: 3.440 GM2: 0.452  GM3:-0.0517  RAES: 1.80
     2s    -20.229985    2.439742
     2p    -15.503117    2.137023
 16     Tue Apr 24 11:44:34 CEST 2018   EN: 2.580 GM2: 0.340  GM3:-0.0502  RAES: 3.10
     3s    -20.029654    1.981333
     3p    -11.377694    2.025643
     3d     -0.420282    1.702555
 no old-style atom pair restraining (fixing) potential

molecular fragmentation (1/2 indicates fragments):
111111111111111111111111111111111111111111111111111111111111111111111111
111111111111111111111111111111111111111111111111111111111111111111111111
111111111111111111111111111111111111111111111111111111111111111111111111
111111111111111111111111111111111111111222222222222222222222222222222222
222222222222222222222222222222222222222222222222222222222222222222222222
222222222222222222222222222222222222222222222222222222222222222222222222
222222222222222222222222222222222222222222222222222222222222222222222222
22222222222222222222222222222222222222222112222222222222222222222
# atoms in fragment 1/2:   257   312
 fragment masses (1/2) :     1812.11     2079.56
CMA distance (Bohr)    :   7.357
constraining FC (au)   :  0.0500
           ------------------------------------------------- 
          |        Self-Consistent Charge Iterations        |
           ------------------------------------------------- 

 Ncao       : 1397
 Nao        : 1395
 Nshell     : 843
 Nel        : 1532
 T(el)      :   500.0
 intcut     :    35.0
 scfconv/Eh :  0.100E-06
   qconv/e  :  0.100E-04
 intneglect :  0.100E-08
 broydamp   :      0.400
 iter      E             dE          RMSdq      gap      omega  full diag
   1   -874.7011610 -0.874701E+03  0.467E+00    2.66       0.0  T
   2   -876.6449838 -0.194382E+01  0.224E+00    1.55       1.0  T
   3   -876.7601832 -0.115199E+00  0.125E+00    1.68       1.0  T
   4   -876.9205896 -0.160406E+00  0.281E-01    0.87       1.0  T
   5   -876.9284144 -0.782481E-02  0.151E-01    0.98       1.0  T
   6   -876.9312923 -0.287788E-02  0.729E-02    0.99       1.0  T
   7   -876.9321526 -0.860316E-03  0.341E-02    0.99       1.0  T
   8   -876.9322892 -0.136573E-03  0.170E-02    0.99       1.0  T
   9   -876.9323278 -0.386630E-04  0.819E-03    1.00       1.0  T
  10   -876.9323357 -0.789050E-05  0.418E-03    0.99       1.0  T
  11   -876.9323384 -0.270126E-05  0.197E-03    0.99       2.1  T
  12   -876.9323390 -0.537493E-06  0.923E-04    0.99       4.5  T
  13   -876.9323391 -0.103554E-06  0.410E-04    0.99      10.2  T
  14   -876.9323391 -0.143608E-07  0.188E-04    0.99      22.4  T
  15   -876.9323391 -0.553393E-08  0.761E-05    0.99      55.1  T
  16   -876.9323391 -0.718501E-09  0.384E-05    0.99     109.1  T
speedup  8.55
cpu  time for SCC   53.83 s
wall time for SCC    6.30 s

   *** convergence criteria satisfied after 16 iterations ***

          eigenvalues
 #    :         754        755        756        757        758        759        760        761
 occ. :        2.000      2.000      2.000      2.000      2.000      2.000      2.000      2.000
 eps  :       -10.138    -10.128    -10.030    -10.025    -10.017     -9.985     -9.885     -9.714
 #    :         762        763        764        765        766        767        768        769
 occ. :        2.000      2.000      2.000      2.000      2.000      0.000      0.000      0.000
 eps  :        -9.701     -9.659     -9.559     -9.410     -9.329     -8.337     -8.270     -8.198
 #    :         770        771        772        773        774        775        776        777
 occ. :        0.000      0.000      0.000      0.000      0.000      0.000      0.000      0.000
 eps  :        -8.016     -8.006     -7.951     -7.646     -7.565     -7.519     -7.461     -7.345


   #   Z            q   n(s)   n(p)   n(d)      C6AA      α(0)
   1   7 N     -0.396  1.324  4.072  0.000    30.257     8.169
   2   6 C      0.036  1.060  2.904  0.000    19.984     6.366
   3   6 C      0.278  1.046  2.677  0.000    22.299     7.733
   4   8 O     -0.503  1.744  4.759  0.000    23.858     6.549
   5   6 C     -0.015  1.062  2.953  0.000    20.806     6.488
   6   6 C     -0.098  1.036  3.062  0.000    22.420     6.751
   7   6 C     -0.111  1.039  3.071  0.000    22.669     6.789
   8   1 H      0.156  0.844  0.000  0.000     1.362     1.828
   9   1 H      0.028  0.972  0.000  0.000     2.620     2.531
  10   1 H      0.029  0.971  0.000  0.000     2.608     2.525
  11   1 H      0.045  0.955  0.000  0.000     2.380     2.412
  12   1 H      0.018  0.982  0.000  0.000     2.761     2.598
  13   1 H      0.026  0.974  0.000  0.000     2.651     2.546
  14   1 H      0.052  0.948  0.000  0.000     2.299     2.371
  15   1 H      0.038  0.962  0.000  0.000     2.471     2.458
  16   1 H      0.044  0.956  0.000  0.000     2.395     2.420
  17   7 N     -0.207  1.264  3.943  0.000    25.509     7.501
  18   6 C      0.024  1.055  2.920  0.000    20.169     6.395
  19   6 C      0.274  1.046  2.680  0.000    22.368     7.745
  20   8 O     -0.503  1.742  4.761  0.000    23.843     6.547
  21   6 C      0.066  1.041  2.892  0.000    19.673     6.352
  22   8 O     -0.477  1.707  4.770  0.000    22.398     6.389
  23   1 H      0.227  0.773  0.000  0.000     0.979     1.550
  24   1 H      0.079  0.921  0.000  0.000     1.988     2.205
  25   1 H      0.057  0.943  0.000  0.000     2.235     2.338
  26   1 H      0.041  0.959  0.000  0.000     2.436     2.441
  27   1 H      0.369  0.631  0.000  0.000     0.546     1.161
  28   7 N     -0.168  1.249  3.920  0.000    24.646     7.373
  29   6 C     -0.042  1.053  2.989  0.000    21.391     6.596
  30   6 C      0.288  1.039  2.673  0.000    22.127     7.703
  31   8 O     -0.485  1.736  4.749  0.000    23.465     6.495
  32   1 H      0.238  0.762  0.000  0.000     0.930     1.511
  33   1 H      0.074  0.926  0.000  0.000     2.045     2.236
  34   1 H      0.145  0.855  0.000  0.000     1.429     1.870
  35   7 N     -0.195  1.254  3.940  0.000    25.222     7.459
  36   6 C      0.023  1.058  2.919  0.000    20.191     6.398
  37   6 C      0.288  1.043  2.670  0.000    22.120     7.702
  38   8 O     -0.503  1.745  4.758  0.000    23.851     6.548
  39   6 C     -0.078  1.059  3.018  0.000    21.980     6.674
  40   6 C     -0.086  1.060  3.026  0.000    22.153     6.702
  41   6 C      0.370  1.025  2.605  0.000    20.724     7.450
  42   8 O     -0.610  1.743  4.867  0.000    26.364     6.884
  43   8 O     -0.647  1.782  4.865  0.000    27.301     7.005
  44   1 H      0.219  0.781  0.000  0.000     1.015     1.578
  45   1 H      0.090  0.910  0.000  0.000     1.882     2.145
  46   1 H      0.091  0.909  0.000  0.000     1.865     2.135
  47   1 H      0.050  0.950  0.000  0.000     2.320     2.382
  48   1 H      0.034  0.966  0.000  0.000     2.532     2.489
  49   1 H     -0.006  1.006  0.000  0.000     3.171     2.785
  50   7 N     -0.191  1.249  3.942  0.000    25.140     7.447
  51   6 C      0.036  1.058  2.906  0.000    19.965     6.362
  52   6 C      0.277  1.042  2.681  0.000    22.321     7.737
  53   8 O     -0.483  1.728  4.755  0.000    23.402     6.486
  54   6 C     -0.049  1.050  3.000  0.000    21.456     6.594
  55   6 C     -0.099  1.063  3.036  0.000    22.395     6.738
  56   6 C      0.371  1.023  2.605  0.000    20.710     7.447
  57   8 O     -0.615  1.769  4.846  0.000    26.499     6.902
  58   8 O     -0.630  1.765  4.865  0.000    26.868     6.950
  59   1 H      0.206  0.794  0.000  0.000     1.074     1.623
  60   1 H      0.056  0.944  0.000  0.000     2.249     2.345
  61   1 H      0.055  0.945  0.000  0.000     2.259     2.350
  62   1 H      0.037  0.963  0.000  0.000     2.485     2.465
  63   1 H      0.038  0.962  0.000  0.000     2.475     2.460
  64   1 H      0.019  0.981  0.000  0.000     2.751     2.594
  65   7 N     -0.184  1.249  3.936  0.000    24.992     7.425
  66   6 C      0.034  1.060  2.907  0.000    20.004     6.368
  67   6 C      0.278  1.042  2.680  0.000    22.296     7.732
  68   8 O     -0.491  1.726  4.766  0.000    23.596     6.513
  69   6 C     -0.068  1.052  3.016  0.000    21.798     6.645
  70   6 C      0.007  1.078  2.915  0.000    27.869     8.659
  71   6 C     -0.043  1.077  2.966  0.000    29.070     8.842
  72   6 C     -0.035  1.080  2.955  0.000    28.862     8.810
  73   6 C     -0.031  1.078  2.953  0.000    28.783     8.798
  74   6 C     -0.019  1.080  2.938  0.000    28.477     8.751
  75   6 C     -0.029  1.079  2.950  0.000    28.720     8.788
  76   1 H      0.212  0.788  0.000  0.000     1.047     1.603
  77   1 H      0.076  0.924  0.000  0.000     2.017     2.221
  78   1 H      0.052  0.948  0.000  0.000     2.297     2.370
  79   1 H      0.047  0.953  0.000  0.000     2.360     2.402
  80   1 H      0.037  0.963  0.000  0.000     2.491     2.468
  81   1 H      0.022  0.978  0.000  0.000     2.698     2.569
  82   1 H      0.049  0.951  0.000  0.000     2.338     2.391
  83   1 H      0.038  0.962  0.000  0.000     2.471     2.458
  84   1 H      0.045  0.955  0.000  0.000     2.388     2.417
  85   7 N     -0.187  1.253  3.934  0.000    25.051     7.434
  86   6 C      0.029  1.062  2.909  0.000    20.086     6.382
  87   6 C      0.282  1.040  2.678  0.000    22.218     7.719
  88   8 O     -0.473  1.726  4.747  0.000    23.193     6.457
  89   6 C     -0.078  1.055  3.023  0.000    21.974     6.672
  90   6 C     -0.004  1.075  2.928  0.000    28.116     8.697
  91   6 C     -0.044  1.083  2.961  0.000    29.096     8.846
  92   6 C     -0.032  1.078  2.954  0.000    28.797     8.800
  93   6 C     -0.063  1.076  2.987  0.000    29.571     8.917
  94   6 C     -0.065  1.074  2.990  0.000    29.606     8.923
  95   6 C      0.143  1.044  2.813  0.000    24.885     8.176
  96   8 O     -0.399  1.695  4.704  0.000    20.821     6.160
  97   1 H      0.228  0.772  0.000  0.000     0.973     1.545
  98   1 H      0.076  0.924  0.000  0.000     2.018     2.221
  99   1 H      0.072  0.928  0.000  0.000     2.061     2.245
 100   1 H      0.053  0.947  0.000  0.000     2.288     2.366
 101   1 H      0.064  0.936  0.000  0.000     2.154     2.295
 102   1 H      0.001  0.999  0.000  0.000     3.046     2.729
 103   1 H      0.088  0.912  0.000  0.000     1.894     2.152
 104   1 H      0.019  0.981  0.000  0.000     2.754     2.595
 105   1 H      0.328  0.672  0.000  0.000     0.643     1.260
 106   7 N     -0.192  1.254  3.939  0.000    25.174     7.452
 107   6 C      0.041  1.054  2.904  0.000    19.877     6.347
 108   6 C      0.275  1.040  2.685  0.000    22.355     7.743
 109   8 O     -0.479  1.726  4.753  0.000    23.332     6.476
 110   6 C     -0.051  1.047  3.004  0.000    21.453     6.589
 111   6 C     -0.011  1.064  2.948  0.000    20.782     6.491
 112  16 S     -0.184  1.893  4.244  0.047   148.858    20.535
 113   6 C     -0.042  1.046  2.997  0.000    21.399     6.599
 114   1 H      0.209  0.791  0.000  0.000     1.060     1.613
 115   1 H      0.047  0.953  0.000  0.000     2.359     2.402
 116   1 H      0.030  0.970  0.000  0.000     2.586     2.515
 117   1 H      0.058  0.942  0.000  0.000     2.217     2.328
 118   1 H      0.070  0.930  0.000  0.000     2.081     2.256
 119   1 H      0.047  0.953  0.000  0.000     2.361     2.403
 120   1 H      0.067  0.933  0.000  0.000     2.115     2.274
 121   1 H      0.028  0.972  0.000  0.000     2.616     2.529
 122   1 H      0.033  0.967  0.000  0.000     2.541     2.493
 123   7 N     -0.177  1.246  3.931  0.000    24.839     7.402
 124   6 C      0.019  1.063  2.919  0.000    20.261     6.409
 125   6 C      0.274  1.042  2.685  0.000    22.372     7.746
 126   8 O     -0.477  1.725  4.752  0.000    23.285     6.470
 127   6 C     -0.075  1.058  3.016  0.000    21.919     6.664
 128   6 C     -0.012  1.055  2.956  0.000    20.749     6.479
 129   6 C     -0.131  1.044  3.087  0.000    23.075     6.849
 130   6 C     -0.115  1.040  3.075  0.000    22.753     6.801
 131   1 H      0.212  0.788  0.000  0.000     1.045     1.601
 132   1 H      0.090  0.910  0.000  0.000     1.880     2.144
 133   1 H      0.060  0.940  0.000  0.000     2.202     2.321
 134   1 H      0.042  0.958  0.000  0.000     2.424     2.435
 135   1 H      0.036  0.964  0.000  0.000     2.498     2.471
 136   1 H      0.056  0.944  0.000  0.000     2.251     2.346
 137   1 H      0.050  0.950  0.000  0.000     2.325     2.385
 138   1 H      0.060  0.940  0.000  0.000     2.202     2.320
 139   1 H      0.046  0.954  0.000  0.000     2.366     2.405
 140   1 H      0.046  0.954  0.000  0.000     2.364     2.404
 141   1 H      0.031  0.969  0.000  0.000     2.578     2.511
 142   7 N     -0.181  1.244  3.938  0.000    24.929     7.415
 143   6 C      0.004  1.070  2.926  0.000    20.512     6.449
 144   6 C      0.266  1.043  2.691  0.000    22.511     7.770
 145   8 O     -0.468  1.721  4.748  0.000    23.095     6.443
 146   6 C      0.113  1.046  2.841  0.000    18.824     6.195
 147   8 O     -0.457  1.707  4.750  0.000    21.995     6.331
 148   6 C     -0.144  1.045  3.099  0.000    23.336     6.888
 149   1 H      0.210  0.790  0.000  0.000     1.057     1.611
 150   1 H      0.090  0.910  0.000  0.000     1.876     2.142
 151   1 H      0.026  0.974  0.000  0.000     2.649     2.545
 152   1 H      0.298  0.702  0.000  0.000     0.726     1.338
 153   1 H      0.076  0.924  0.000  0.000     2.019     2.222
 154   1 H      0.068  0.932  0.000  0.000     2.110     2.272
 155   1 H      0.083  0.917  0.000  0.000     1.953     2.185
 156   7 N     -0.172  1.241  3.931  0.000    24.719     7.384
 157   6 C      0.011  1.066  2.923  0.000    20.398     6.431
 158   6 C      0.269  1.042  2.689  0.000    22.455     7.760
 159   8 O     -0.481  1.734  4.747  0.000    23.361     6.480
 160   6 C     -0.086  1.057  3.030  0.000    22.141     6.698
 161   6 C     -0.074  1.050  3.024  0.000    21.910     6.664
 162   6 C     -0.026  1.052  2.974  0.000    21.114     6.557
 163   7 N     -0.145  1.217  3.928  0.000    24.130     7.296
 164   6 C      0.232  1.018  2.750  0.000    23.136     7.875
 165   7 N     -0.249  1.234  4.014  0.000    26.475     7.642
 166   7 N     -0.253  1.230  4.024  0.000    26.588     7.658
 167   1 H      0.213  0.787  0.000  0.000     1.044     1.600
 168   1 H      0.095  0.905  0.000  0.000     1.832     2.117
 169   1 H      0.062  0.938  0.000  0.000     2.180     2.309
 170   1 H      0.081  0.919  0.000  0.000     1.973     2.197
 171   1 H      0.072  0.928  0.000  0.000     2.061     2.245
 172   1 H      0.039  0.961  0.000  0.000     2.462     2.454
 173   1 H      0.080  0.920  0.000  0.000     1.984     2.203
 174   1 H      0.083  0.917  0.000  0.000     1.943     2.180
 175   1 H      0.230  0.770  0.000  0.000     0.964     1.538
 176   1 H      0.244  0.756  0.000  0.000     0.905     1.490
 177   1 H      0.249  0.751  0.000  0.000     0.886     1.474
 178   1 H      0.242  0.758  0.000  0.000     0.914     1.498
 179   1 H      0.254  0.746  0.000  0.000     0.868     1.459
 180   7 N     -0.172  1.245  3.927  0.000    24.724     7.385
 181   6 C      0.014  1.065  2.921  0.000    20.347     6.422
 182   6 C      0.276  1.039  2.685  0.000    22.336     7.739
 183   8 O     -0.506  1.756  4.750  0.000    23.915     6.557
 184   6 C     -0.090  1.058  3.032  0.000    22.219     6.710
 185   6 C     -0.086  1.053  3.033  0.000    22.137     6.698
 186   6 C     -0.028  1.053  2.976  0.000    21.153     6.562
 187   7 N     -0.138  1.210  3.927  0.000    23.979     7.273
 188   6 C      0.226  1.019  2.755  0.000    23.242     7.893
 189   7 N     -0.253  1.234  4.019  0.000    26.575     7.656
 190   7 N     -0.251  1.233  4.018  0.000    26.526     7.649
 191   1 H      0.219  0.781  0.000  0.000     1.012     1.576
 192   1 H      0.078  0.922  0.000  0.000     1.997     2.210
 193   1 H      0.080  0.920  0.000  0.000     1.977     2.199
 194   1 H      0.071  0.929  0.000  0.000     2.075     2.253
 195   1 H      0.074  0.926  0.000  0.000     2.043     2.235
 196   1 H      0.067  0.933  0.000  0.000     2.120     2.277
 197   1 H      0.085  0.915  0.000  0.000     1.930     2.172
 198   1 H      0.084  0.916  0.000  0.000     1.939     2.178
 199   1 H      0.225  0.775  0.000  0.000     0.987     1.556
 200   1 H      0.256  0.744  0.000  0.000     0.859     1.452
 201   1 H      0.234  0.766  0.000  0.000     0.946     1.524
 202   1 H      0.237  0.763  0.000  0.000     0.936     1.516
 203   1 H      0.246  0.754  0.000  0.000     0.898     1.484
 204   7 N     -0.183  1.248  3.935  0.000    24.972     7.422
 205   6 C      0.018  1.067  2.915  0.000    20.267     6.410
 206   6 C      0.282  1.040  2.679  0.000    22.233     7.721
 207   8 O     -0.518  1.763  4.755  0.000    24.187     6.594
 208   6 C     -0.028  1.065  2.964  0.000    21.046     6.525
 209   6 C     -0.123  1.040  3.082  0.000    22.909     6.824
 210   6 C     -0.124  1.041  3.083  0.000    22.928     6.827
 211   1 H      0.229  0.771  0.000  0.000     0.970     1.543
 212   1 H      0.061  0.939  0.000  0.000     2.190     2.314
 213   1 H      0.062  0.938  0.000  0.000     2.173     2.305
 214   1 H      0.070  0.930  0.000  0.000     2.091     2.261
 215   1 H      0.039  0.961  0.000  0.000     2.465     2.455
 216   1 H      0.041  0.959  0.000  0.000     2.430     2.438
 217   1 H      0.058  0.942  0.000  0.000     2.226     2.333
 218   1 H      0.043  0.957  0.000  0.000     2.405     2.425
 219   1 H      0.054  0.946  0.000  0.000     2.269     2.355
 220   7 N     -0.191  1.252  3.940  0.000    25.149     7.448
 221   6 C      0.022  1.062  2.916  0.000    20.215     6.402
 222   6 C      0.288  1.039  2.674  0.000    22.122     7.702
 223   8 O     -0.523  1.762  4.761  0.000    24.293     6.608
 224   6 C     -0.096  1.066  3.030  0.000    22.312     6.723
 225   6 C     -0.012  1.054  2.958  0.000    20.755     6.480
 226   6 C     -0.124  1.043  3.082  0.000    22.938     6.829
 227   6 C     -0.136  1.047  3.089  0.000    23.161     6.862
 228   1 H      0.239  0.761  0.000  0.000     0.926     1.508
 229   1 H      0.066  0.934  0.000  0.000     2.130     2.282
 230   1 H      0.076  0.924  0.000  0.000     2.016     2.220
 231   1 H      0.070  0.930  0.000  0.000     2.085     2.258
 232   1 H      0.022  0.978  0.000  0.000     2.708     2.573
 233   1 H      0.043  0.957  0.000  0.000     2.407     2.426
 234   1 H      0.034  0.966  0.000  0.000     2.535     2.490
 235   1 H      0.060  0.940  0.000  0.000     2.200     2.319
 236   1 H      0.055  0.945  0.000  0.000     2.261     2.352
 237   1 H      0.059  0.941  0.000  0.000     2.215     2.327
 238   1 H      0.051  0.949  0.000  0.000     2.307     2.375
 239   7 N     -0.179  1.248  3.931  0.000    24.874     7.407
 240   6 C      0.039  1.054  2.908  0.000    19.926     6.356
 241   6 C      0.215  1.085  2.700  0.000    23.453     7.931
 242   8 O     -0.381  1.757  4.624  0.000    21.299     6.188
 243   6 C     -0.068  1.051  3.017  0.000    21.802     6.647
 244   6 C     -0.104  1.057  3.047  0.000    22.475     6.748
 245   6 C      0.289  1.038  2.674  0.000    22.105     7.698
 246   8 O     -0.497  1.751  4.747  0.000    23.718     6.530
 247   7 N     -0.291  1.268  4.023  0.000    27.516     7.791
 248   1 H      0.233  0.767  0.000  0.000     0.952     1.528
 249   1 H      0.080  0.920  0.000  0.000     1.975     2.198
 250   1 H      0.088  0.912  0.000  0.000     1.900     2.155
 251   1 H      0.070  0.930  0.000  0.000     2.091     2.261
 252   1 H      0.089  0.911  0.000  0.000     1.887     2.148
 253   1 H      0.060  0.940  0.000  0.000     2.202     2.321
 254   1 H      0.226  0.774  0.000  0.000     0.984     1.554
 255   1 H      0.232  0.768  0.000  0.000     0.955     1.531
 256   8 O     -0.597  1.731  4.865  0.000    25.106     6.763
 257   1 H      0.305  0.695  0.000  0.000     0.706     1.319
 258   1 H      0.322  0.678  0.000  0.000     0.659     1.275
 259   8 O     -0.626  1.749  4.878  0.000    25.826     6.859
 260   1 H      0.322  0.678  0.000  0.000     0.657     1.274
 261   1 H      0.307  0.693  0.000  0.000     0.701     1.315
 262   8 O     -0.622  1.739  4.883  0.000    25.722     6.845
 263   1 H      0.321  0.679  0.000  0.000     0.660     1.276
 264   1 H      0.306  0.694  0.000  0.000     0.705     1.319
 265   7 N     -0.124  1.214  3.910  0.000    23.677     7.227
 266   6 C     -0.097  1.066  3.031  0.000    22.441     6.761
 267   6 C      0.267  1.030  2.704  0.000    22.499     7.767
 268   8 O     -0.456  1.739  4.717  0.000    22.825     6.405
 269   1 H      0.295  0.705  0.000  0.000     0.728     1.336
 270   1 H      0.315  0.685  0.000  0.000     0.671     1.284
 271   1 H      0.279  0.721  0.000  0.000     0.780     1.383
 272   1 H      0.139  0.861  0.000  0.000     1.467     1.894
 273   1 H      0.175  0.825  0.000  0.000     1.232     1.736
 274   7 N     -0.133  1.225  3.908  0.000    23.880     7.258
 275   6 C     -0.042  1.053  2.990  0.000    21.407     6.600
 276   6 C      0.200  1.088  2.712  0.000    23.739     7.979
 277   8 O     -0.363  1.742  4.621  0.000    20.954     6.137
 278   1 H      0.220  0.780  0.000  0.000     1.011     1.575
 279   1 H      0.113  0.887  0.000  0.000     1.667     2.019
 280   1 H      0.148  0.852  0.000  0.000     1.407     1.855
 281   7 N     -0.385  1.319  4.066  0.000    29.962     8.130
 282   6 C      0.041  1.057  2.902  0.000    19.906     6.355
 283   6 C      0.210  1.087  2.703  0.000    23.546     7.947
 284   8 O     -0.370  1.750  4.620  0.000    21.098     6.158
 285   6 C     -0.009  1.062  2.947  0.000    20.699     6.471
 286   6 C     -0.102  1.038  3.065  0.000    22.507     6.764
 287   6 C     -0.100  1.035  3.065  0.000    22.473     6.759
 288   1 H      0.162  0.838  0.000  0.000     1.323     1.801
 289   1 H      0.049  0.951  0.000  0.000     2.334     2.389
 290   1 H      0.035  0.965  0.000  0.000     2.519     2.482
 291   1 H      0.052  0.948  0.000  0.000     2.300     2.372
 292   1 H      0.027  0.973  0.000  0.000     2.632     2.537
 293   1 H      0.030  0.970  0.000  0.000     2.581     2.512
 294   1 H      0.042  0.958  0.000  0.000     2.417     2.431
 295   1 H      0.032  0.968  0.000  0.000     2.559     2.502
 296   1 H      0.043  0.957  0.000  0.000     2.409     2.427
 297   7 N     -0.394  1.310  4.084  0.000    30.198     8.161
 298   6 C      0.030  1.061  2.910  0.000    20.093     6.385
 299   6 C      0.271  1.048  2.681  0.000    22.421     7.754
 300   8 O     -0.481  1.735  4.746  0.000    23.367     6.481
 301   6 C     -0.044  1.050  2.994  0.000    21.363     6.580
 302   6 C     -0.087  1.063  3.024  0.000    22.157     6.702
 303   6 C      0.370  1.025  2.606  0.000    20.733     7.452
 304   8 O     -0.634  1.767  4.868  0.000    26.976     6.963
 305   8 O     -0.663  1.779  4.884  0.000    27.709     7.057
 306   1 H      0.149  0.851  0.000  0.000     1.406     1.857
 307   1 H      0.055  0.945  0.000  0.000     2.264     2.353
 308   1 H      0.036  0.964  0.000  0.000     2.506     2.476
 309   1 H      0.021  0.979  0.000  0.000     2.713     2.576
 310   1 H      0.007  0.993  0.000  0.000     2.935     2.679
 311   1 H      0.015  0.985  0.000  0.000     2.814     2.623
 312   7 N     -0.167  1.241  3.926  0.000    24.615     7.369
 313   6 C      0.034  1.059  2.907  0.000    19.999     6.368
 314   6 C      0.204  1.084  2.712  0.000    23.669     7.967
 315   8 O     -0.340  1.752  4.587  0.000    20.510     6.072
 316   6 C     -0.075  1.055  3.021  0.000    21.932     6.666
 317   6 C      0.010  1.080  2.910  0.000    27.781     8.646
 318   6 C     -0.039  1.079  2.960  0.000    28.963     8.826
 319   6 C     -0.040  1.082  2.958  0.000    28.997     8.831
 320   6 C     -0.031  1.078  2.953  0.000    28.778     8.797
 321   6 C     -0.032  1.081  2.951  0.000    28.807     8.801
 322   6 C     -0.034  1.078  2.956  0.000    28.845     8.807
 323   1 H      0.202  0.798  0.000  0.000     1.096     1.640
 324   1 H      0.083  0.917  0.000  0.000     1.944     2.181
 325   1 H      0.061  0.939  0.000  0.000     2.185     2.312
 326   1 H      0.063  0.937  0.000  0.000     2.168     2.303
 327   1 H      0.036  0.964  0.000  0.000     2.505     2.475
 328   1 H      0.037  0.963  0.000  0.000     2.490     2.468
 329   1 H      0.044  0.956  0.000  0.000     2.401     2.423
 330   1 H      0.044  0.956  0.000  0.000     2.402     2.424
 331   1 H      0.038  0.962  0.000  0.000     2.479     2.462
 332   7 N     -0.404  1.314  4.089  0.000    30.477     8.199
 333   6 C      0.044  1.056  2.900  0.000    19.861     6.348
 334   6 C      0.198  1.093  2.710  0.000    23.788     7.988
 335   8 O     -0.363  1.748  4.615  0.000    20.965     6.139
 336   6 C     -0.067  1.060  3.007  0.000    21.778     6.643
 337   6 C     -0.013  1.056  2.957  0.000    20.770     6.482
 338   6 C     -0.126  1.043  3.083  0.000    22.980     6.835
 339   6 C     -0.111  1.040  3.072  0.000    22.683     6.790
 340   1 H      0.166  0.834  0.000  0.000     1.295     1.783
 341   1 H      0.050  0.950  0.000  0.000     2.316     2.380
 342   1 H      0.052  0.948  0.000  0.000     2.290     2.366
 343   1 H      0.038  0.962  0.000  0.000     2.481     2.463
 344   1 H      0.028  0.972  0.000  0.000     2.619     2.531
 345   1 H      0.050  0.950  0.000  0.000     2.323     2.384
 346   1 H      0.047  0.953  0.000  0.000     2.358     2.401
 347   1 H      0.055  0.945  0.000  0.000     2.261     2.352
 348   1 H      0.040  0.960  0.000  0.000     2.448     2.447
 349   1 H      0.040  0.960  0.000  0.000     2.445     2.445
 350   1 H      0.027  0.973  0.000  0.000     2.625     2.534
 351   7 N     -0.385  1.314  4.071  0.000    29.957     8.129
 352   6 C      0.041  1.056  2.903  0.000    19.910     6.356
 353   6 C      0.202  1.095  2.704  0.000    23.710     7.974
 354   8 O     -0.393  1.764  4.628  0.000    21.535     6.222
 355   6 C     -0.081  1.057  3.024  0.000    22.042     6.684
 356   6 C     -0.079  1.051  3.028  0.000    22.010     6.679
 357   6 C     -0.023  1.051  2.972  0.000    21.066     6.548
 358   7 N     -0.134  1.210  3.923  0.000    23.895     7.260
 359   6 C      0.226  1.018  2.756  0.000    23.241     7.893
 360   7 N     -0.236  1.222  4.015  0.000    26.186     7.600
 361   7 N     -0.233  1.226  4.008  0.000    26.110     7.589
 362   1 H      0.162  0.838  0.000  0.000     1.323     1.802
 363   1 H      0.050  0.950  0.000  0.000     2.317     2.380
 364   1 H      0.080  0.920  0.000  0.000     1.977     2.199
 365   1 H      0.054  0.946  0.000  0.000     2.274     2.358
 366   1 H      0.069  0.931  0.000  0.000     2.093     2.262
 367   1 H      0.067  0.933  0.000  0.000     2.119     2.276
 368   1 H      0.089  0.911  0.000  0.000     1.885     2.147
 369   1 H      0.074  0.926  0.000  0.000     2.047     2.238
 370   1 H      0.226  0.774  0.000  0.000     0.981     1.551
 371   1 H      0.244  0.756  0.000  0.000     0.908     1.493
 372   1 H      0.247  0.753  0.000  0.000     0.896     1.483
 373   1 H      0.228  0.772  0.000  0.000     0.972     1.545
 374   1 H      0.243  0.757  0.000  0.000     0.910     1.494
 375   7 N     -0.385  1.307  4.078  0.000    29.952     8.128
 376   6 C      0.044  1.055  2.901  0.000    19.855     6.347
 377   6 C      0.201  1.099  2.701  0.000    23.727     7.977
 378   8 O     -0.368  1.738  4.630  0.000    21.048     6.151
 379   6 C     -0.070  1.056  3.013  0.000    21.823     6.649
 380   6 C      0.006  1.082  2.912  0.000    27.893     8.663
 381   6 C     -0.044  1.078  2.965  0.000    29.084     8.844
 382   6 C     -0.037  1.081  2.956  0.000    28.916     8.818
 383   6 C     -0.034  1.078  2.956  0.000    28.843     8.807
 384   6 C     -0.021  1.080  2.941  0.000    28.538     8.760
 385   6 C     -0.033  1.077  2.955  0.000    28.819     8.803
 386   1 H      0.169  0.831  0.000  0.000     1.277     1.770
 387   1 H      0.059  0.941  0.000  0.000     2.214     2.327
 388   1 H      0.058  0.942  0.000  0.000     2.222     2.331
 389   1 H      0.050  0.950  0.000  0.000     2.321     2.382
 390   1 H      0.042  0.958  0.000  0.000     2.426     2.436
 391   1 H      0.024  0.976  0.000  0.000     2.673     2.557
 392   1 H      0.037  0.963  0.000  0.000     2.490     2.468
 393   1 H      0.030  0.970  0.000  0.000     2.579     2.511
 394   1 H      0.031  0.969  0.000  0.000     2.578     2.511
 395   7 N     -0.397  1.312  4.085  0.000    30.282     8.173
 396   6 C      0.033  1.057  2.910  0.000    20.035     6.375
 397   6 C      0.270  1.048  2.682  0.000    22.440     7.757
 398   8 O     -0.498  1.744  4.755  0.000    23.750     6.534
 399   6 C     -0.070  1.061  3.009  0.000    21.828     6.650
 400   6 C     -0.009  1.056  2.953  0.000    20.701     6.472
 401   6 C     -0.113  1.039  3.073  0.000    22.710     6.795
 402   6 C     -0.110  1.040  3.070  0.000    22.660     6.787
 403   1 H      0.152  0.848  0.000  0.000     1.387     1.845
 404   1 H      0.037  0.963  0.000  0.000     2.495     2.470
 405   1 H      0.041  0.959  0.000  0.000     2.442     2.444
 406   1 H      0.043  0.957  0.000  0.000     2.404     2.425
 407   1 H      0.030  0.970  0.000  0.000     2.584     2.514
 408   1 H      0.044  0.956  0.000  0.000     2.397     2.421
 409   1 H      0.033  0.967  0.000  0.000     2.545     2.495
 410   1 H      0.039  0.961  0.000  0.000     2.462     2.454
 411   1 H      0.042  0.958  0.000  0.000     2.423     2.434
 412   1 H      0.036  0.964  0.000  0.000     2.497     2.471
 413   1 H      0.038  0.962  0.000  0.000     2.482     2.464
 414   7 N     -0.174  1.241  3.933  0.000    24.775     7.392
 415   6 C      0.010  1.067  2.923  0.000    20.408     6.433
 416   6 C      0.199  1.083  2.718  0.000    23.763     7.983
 417   8 O     -0.341  1.744  4.598  0.000    20.545     6.077
 418   6 C      0.117  1.046  2.837  0.000    18.764     6.185
 419   8 O     -0.451  1.710  4.741  0.000    21.860     6.312
 420   6 C     -0.142  1.044  3.098  0.000    23.293     6.882
 421   1 H      0.228  0.772  0.000  0.000     0.976     1.547
 422   1 H      0.098  0.902  0.000  0.000     1.805     2.101
 423   1 H      0.028  0.972  0.000  0.000     2.617     2.530
 424   1 H      0.309  0.691  0.000  0.000     0.696     1.310
 425   1 H      0.076  0.924  0.000  0.000     2.023     2.224
 426   1 H      0.060  0.940  0.000  0.000     2.197     2.318
 427   1 H      0.085  0.915  0.000  0.000     1.925     2.169
 428   7 N     -0.399  1.313  4.086  0.000    30.335     8.180
 429   6 C      0.041  1.059  2.900  0.000    19.902     6.354
 430   6 C      0.201  1.096  2.703  0.000    23.725     7.977
 431   8 O     -0.393  1.762  4.631  0.000    21.542     6.223
 432   6 C     -0.020  1.065  2.955  0.000    20.900     6.502
 433   6 C     -0.123  1.042  3.081  0.000    22.920     6.826
 434   6 C     -0.113  1.038  3.074  0.000    22.707     6.794
 435   1 H      0.179  0.821  0.000  0.000     1.221     1.731
 436   1 H      0.033  0.967  0.000  0.000     2.549     2.497
 437   1 H      0.059  0.941  0.000  0.000     2.214     2.327
 438   1 H      0.063  0.937  0.000  0.000     2.166     2.301
 439   1 H      0.038  0.962  0.000  0.000     2.478     2.462
 440   1 H      0.038  0.962  0.000  0.000     2.475     2.460
 441   1 H      0.052  0.948  0.000  0.000     2.293     2.368
 442   1 H      0.034  0.966  0.000  0.000     2.537     2.491
 443   1 H      0.046  0.954  0.000  0.000     2.375     2.410
 444   7 N     -0.395  1.317  4.078  0.000    30.245     8.168
 445   6 C      0.046  1.050  2.904  0.000    19.819     6.342
 446   6 C      0.203  1.094  2.702  0.000    23.679     7.969
 447   8 O     -0.393  1.753  4.640  0.000    21.532     6.221
 448   6 C     -0.058  1.056  3.002  0.000    21.618     6.619
 449   6 C     -0.087  1.063  3.024  0.000    22.163     6.703
 450   6 C      0.372  1.026  2.603  0.000    20.701     7.446
 451   8 O     -0.616  1.748  4.868  0.000    26.522     6.905
 452   8 O     -0.652  1.780  4.871  0.000    27.430     7.022
 453   1 H      0.174  0.826  0.000  0.000     1.246     1.749
 454   1 H      0.054  0.946  0.000  0.000     2.272     2.357
[...]
   227  C   3.993    C  225 1.006    H  236 0.985    H  237 0.985    H  238 0.984
   228  H   0.943    N  220 0.879
   229  H   0.995    C  221 0.949
   230  H   0.994    C  224 0.967
   231  H   0.995    C  224 0.965
   232  H   0.999    C  225 0.968
   233  H   0.998    C  226 0.986
   234  H   0.999    C  226 0.983
   235  H   0.996    C  226 0.984
   236  H   0.997    C  227 0.985
   237  H   0.996    C  227 0.985
   238  H   0.997    C  227 0.984
   239  N   3.475    C  222 1.315    C  240 0.980    H  248 0.884    O  223 0.194
   240  C   3.968    N  239 0.980    C  241 0.975    C  243 0.969    H  249 0.947    O  242 0.054
   241  C   3.894    O  242 1.887    C  240 0.975    H  547 0.956
   242  O   2.026    C  241 1.887    C  240 0.054
   243  C   3.985    C  244 1.010    H  251 0.971    C  240 0.969    H  250 0.964
   244  C   3.995    C  243 1.010    C  245 0.970    H  253 0.963    H  252 0.951    O  246 0.055
   245  C   3.946    O  246 1.640    N  247 1.307    C  244 0.970
   246  O   1.944    C  245 1.640    N  247 0.197    C  244 0.055
   247  N   3.391    C  245 1.307    H  254 0.930    H  255 0.924    O  246 0.197
   248  H   0.946    N  239 0.884
   249  H   0.993    C  240 0.947
   250  H   0.992    C  243 0.964
   251  H   0.995    C  243 0.971
   252  H   0.992    C  244 0.951
   253  H   0.996    C  244 0.963
   254  H   0.949    N  247 0.930
   255  H   0.946    N  247 0.924
   256  O   1.871    H  258 0.893    H  257 0.891
   257  H   0.907    O  256 0.891
   258  H   0.896    O  256 0.893
   259  O   1.836    H  260 0.895    H  261 0.870
   260  H   0.896    O  259 0.895
   261  H   0.906    O  259 0.870
   262  O   1.840    H  263 0.896    H  264 0.872
   263  H   0.897    O  262 0.896
   264  H   0.907    O  262 0.872
   265  N   3.672    C  266 0.975    H  271 0.896    H  270 0.888    H  269 0.882
   266  C   3.912    N  265 0.975    H  272 0.955    C  267 0.953    H  273 0.933    O  268 0.062
   267  C   3.958    O  268 1.634    N  274 1.310    C  266 0.953
   268  O   1.995    C  267 1.634    N  274 0.200    C  266 0.062
   269  H   0.913    N  265 0.882
   270  H   0.901    N  265 0.888
   271  H   0.922    N  265 0.896
   272  H   0.980    C  266 0.955
   273  H   0.969    C  266 0.933
   274  N   3.497    C  267 1.310    C  275 1.009    H  278 0.922    O  268 0.200
   275  C   3.966    N  274 1.009    C  276 0.995    H  279 0.949    H  280 0.912    O  277 0.071
   276  C   3.895    O  277 1.873    C  275 0.995    H  549 0.953
   277  O   2.062    C  276 1.873    C  275 0.071
   278  H   0.952    N  274 0.922
   279  H   0.987    C  275 0.949
   280  H   0.978    C  275 0.912
   281  N   2.994    C  282 1.013    H  288 0.956    H  550 0.945
   282  C   3.984    N  281 1.013    C  283 0.985    H  289 0.960    C  285 0.938    O  284 0.058
   283  C   3.897    O  284 1.893    C  282 0.985    H  551 0.957
   284  O   2.035    C  283 1.893    C  282 0.058
   285  C   3.994    C  286 1.009    C  287 1.008    H  290 0.968    C  282 0.938
   286  C   3.996    C  285 1.009    H  293 0.985    H  292 0.984    H  291 0.984
   287  C   3.996    C  285 1.008    H  295 0.986    H  296 0.978    H  294 0.977
   288  H   0.974    N  281 0.956
   289  H   0.998    C  282 0.960
   290  H   0.999    C  285 0.968
   291  H   0.997    C  286 0.984
   292  H   0.999    C  286 0.984
   293  H   0.999    C  286 0.985
   294  H   0.998    C  287 0.977
   295  H   0.999    C  287 0.986
   296  H   0.998    C  287 0.978
   297  N   2.993    C  298 1.016    H  306 0.956    H  552 0.953
   298  C   3.984    N  297 1.016    C  301 0.966    H  307 0.960    C  299 0.945
   299  C   3.946    O  300 1.622    N  312 1.299    C  298 0.945
   300  O   1.956    C  299 1.622    N  312 0.192
   301  C   3.995    C  302 1.003    H  308 0.977    H  309 0.974    C  298 0.966
   302  C   3.991    C  301 1.003    H  310 0.975    H  311 0.971    C  303 0.911    O  304 0.054    O  305 0.050
   303  C   3.934    O  304 1.516    O  305 1.485    C  302 0.911
   304  O   1.808    C  303 1.516    O  305 0.218    C  302 0.054
   305  O   1.776    C  303 1.485    O  304 0.218    C  302 0.050
   306  H   0.978    N  297 0.956
   307  H   0.996    C  298 0.960
   308  H   0.999    C  301 0.977
   309  H   0.999    C  301 0.974
   310  H   1.000    C  302 0.975
   311  H   1.000    C  302 0.971
   312  N   3.471    C  299 1.299    C  313 0.973    H  323 0.922    O  300 0.192
   313  C   3.963    N  312 0.973    C  314 0.969    C  316 0.959    H  324 0.946    O  315 0.054
   314  C   3.906    O  315 1.917    C  313 0.969    H  553 0.953
   315  O   2.055    C  314 1.917    C  313 0.054
   316  C   3.987    C  317 1.006    H  326 0.971    H  325 0.962    C  313 0.959
   317  C   3.987    C  319 1.420    C  318 1.410    C  316 1.006    C  322 0.110
   318  C   3.991    C  320 1.449    C  317 1.410    H  327 0.966    C  321 0.112
   319  C   3.991    C  321 1.440    C  317 1.420    H  328 0.968    C  320 0.110
   320  C   3.992    C  318 1.449    C  322 1.434    H  329 0.964    C  319 0.110
   321  C   3.991    C  322 1.442    C  319 1.440    H  330 0.970    C  318 0.112
   322  C   3.992    C  321 1.442    C  320 1.434    H  331 0.968    C  317 0.110
   323  H   0.959    N  312 0.922
   324  H   0.993    C  313 0.946
   325  H   0.996    C  316 0.962
   326  H   0.996    C  316 0.971
   327  H   0.999    C  318 0.966
   328  H   0.999    C  319 0.968
   329  H   0.998    C  320 0.964
   330  H   0.998    C  321 0.970
   331  H   0.998    C  322 0.968
   332  N   2.994    C  333 1.011    H  554 0.955    H  340 0.935
   333  C   3.985    N  332 1.011    C  334 0.978    C  336 0.962    H  341 0.950    O  335 0.056
   334  C   3.896    O  335 1.889    C  333 0.978    H  555 0.956
   335  O   2.040    C  334 1.889    C  333 0.056
   336  C   3.990    C  337 0.994    H  343 0.973    H  342 0.965    C  333 0.962
   337  C   3.995    C  338 1.010    C  339 1.008    C  336 0.994    H  344 0.968
   338  C   3.994    C  337 1.010    H  347 0.983    H  346 0.978    H  345 0.977
   339  C   3.995    C  337 1.008    H  350 0.985    H  348 0.985    H  349 0.984
   340  H   0.972    N  332 0.935
   341  H   0.997    C  333 0.950
   342  H   0.997    C  336 0.965
   343  H   0.998    C  336 0.973
   344  H   0.999    C  337 0.968
   345  H   0.997    C  338 0.977
   346  H   0.998    C  338 0.978
   347  H   0.997    C  338 0.983
   348  H   0.998    C  339 0.985
   349  H   0.998    C  339 0.984
   350  H   0.999    C  339 0.985
   351  N   3.005    C  352 1.012    H  556 0.957    H  362 0.951
   352  C   3.983    N  351 1.012    C  353 0.974    C  355 0.964    H  363 0.958    O  354 0.056
   353  C   3.883    O  354 1.886    C  352 0.974    H  557 0.954
   354  O   2.020    C  353 1.886    C  352 0.056
   355  C   3.987    C  356 1.004    H  365 0.973    C  352 0.964    H  364 0.963
   356  C   3.990    C  357 1.009    C  355 1.004    H  366 0.972    H  367 0.968
   357  C   3.956    C  356 1.009    N  358 0.983    H  368 0.958    H  369 0.954
   358  N   3.474    C  359 1.321    C  357 0.983    H  370 0.913    N  361 0.102    N  360 0.102
   359  C   3.978    N  358 1.321    N  360 1.318    N  361 1.310
   360  N   3.403    C  359 1.318    H  372 0.919    H  371 0.917    N  358 0.102    N  361 0.101
   361  N   3.398    C  359 1.310    H  373 0.925    H  374 0.920    N  358 0.102    N  360 0.101
   362  H   0.974    N  351 0.951
   363  H   0.997    C  352 0.958
   364  H   0.994    C  355 0.963
   365  H   0.997    C  355 0.973
   366  H   0.995    C  356 0.972
   367  H   0.995    C  356 0.968
   368  H   0.991    C  357 0.958
   369  H   0.995    C  357 0.954
   370  H   0.949    N  358 0.913
   371  H   0.941    N  360 0.917
   372  H   0.939    N  360 0.919
   373  H   0.948    N  361 0.925
   374  H   0.940    N  361 0.920
   375  N   3.001    C  376 1.011    H  558 0.954    H  386 0.953
   376  C   3.984    N  375 1.011    C  377 0.978    H  387 0.956    C  379 0.949    O  378 0.052
   377  C   3.882    O  378 1.861    C  376 0.978    H  559 0.953
   378  O   2.054    C  377 1.861    C  376 0.052
   379  C   3.993    C  380 1.009    H  389 0.973    H  388 0.959    C  376 0.949
   380  C   3.989    C  382 1.419    C  381 1.408    C  379 1.009    C  385 0.109
   381  C   3.991    C  383 1.449    C  380 1.408    H  390 0.966    C  384 0.112
   382  C   3.992    C  384 1.439    C  380 1.419    H  391 0.969    C  383 0.110
   383  C   3.992    C  381 1.449    C  385 1.433    H  392 0.964    C  382 0.110
   384  C   3.992    C  385 1.441    C  382 1.439    H  393 0.971    C  381 0.112
   385  C   3.991    C  384 1.441    C  383 1.433    H  394 0.968    C  380 0.109
   386  H   0.971    N  375 0.953
   387  H   0.997    C  376 0.956
   388  H   0.996    C  379 0.959
   389  H   0.997    C  379 0.973
   390  H   0.998    C  381 0.966
   391  H   0.999    C  382 0.969
   392  H   0.998    C  383 0.964
   393  H   0.999    C  384 0.971
   394  H   0.998    C  385 0.968
   395  N   2.992    C  396 1.009    H  403 0.957    H  560 0.957
   396  C   3.982    N  395 1.009    C  399 0.978    H  404 0.959    C  397 0.940
   397  C   3.944    O  398 1.606    N  414 1.316    C  396 0.940
   398  O   1.956    C  397 1.606    N  414 0.195
   399  C   3.993    C  400 0.994    C  396 0.978    H  406 0.973    H  405 0.969
   400  C   3.996    C  401 1.010    C  402 1.008    C  399 0.994    H  407 0.967
   401  C   3.996    C  400 1.010    H  410 0.986    H  408 0.985    H  409 0.982
   402  C   3.996    C  400 1.008    H  412 0.985    H  411 0.985    H  413 0.984
   403  H   0.977    N  395 0.957
   404  H   0.998    C  396 0.959
   405  H   0.998    C  399 0.969
   406  H   0.998    C  399 0.973
   407  H   0.999    C  400 0.967
   408  H   0.998    C  401 0.985
   409  H   0.999    C  401 0.982
   410  H   0.998    C  401 0.986
   411  H   0.998    C  402 0.985
   412  H   0.999    C  402 0.985
   413  H   0.999    C  402 0.984
   414  N   3.476    C  397 1.316    C  415 0.982    H  421 0.889    O  398 0.195
   415  C   3.964    N  414 0.982    C  416 0.980    H  422 0.937    C  418 0.933    O  417 0.058
   416  C   3.913    O  417 1.894    C  415 0.980    H  561 0.955
   417  O   2.052    C  416 1.894    C  415 0.058
   418  C   3.953    C  420 1.003    O  419 1.000    H  423 0.961    C  415 0.933
   419  O   1.972    C  418 1.000    H  424 0.867
   420  C   3.983    C  418 1.003    H  426 0.983    H  425 0.981    H  427 0.977
   421  H   0.948    N  414 0.889
   422  H   0.990    C  415 0.937
   423  H   0.999    C  418 0.961
   424  H   0.905    O  419 0.867
   425  H   0.994    C  420 0.981
   426  H   0.996    C  420 0.983
   427  H   0.993    C  420 0.977
   428  N   2.999    C  429 1.009    H  562 0.959    H  435 0.928
   429  C   3.983    N  428 1.009    C  430 0.975    H  436 0.962    C  432 0.951    O  431 0.054
   430  C   3.885    O  431 1.881    C  429 0.975    H  563 0.953
   431  O   2.018    C  430 1.881    C  429 0.054
   432  C   3.990    C  433 1.008    C  434 1.007    H  437 0.958    C  429 0.951
   433  C   3.994    C  432 1.008    H  440 0.986    H  439 0.982    H  438 0.982
   434  C   3.995    C  432 1.007    H  442 0.986    H  441 0.979    H  443 0.977
   435  H   0.968    N  428 0.928
   436  H   0.999    C  429 0.962
   437  H   0.997    C  432 0.958
   438  H   0.996    C  433 0.982
   439  H   0.999    C  433 0.982
   440  H   0.998    C  433 0.986
   441  H   0.996    C  434 0.979
   442  H   0.999    C  434 0.986
   443  H   0.998    C  434 0.977
   444  N   2.989    C  445 1.011    H  453 0.952    H  564 0.951
   445  C   3.985    N  444 1.011    C  446 0.984    H  454 0.959    C  448 0.956    O  447 0.053
   446  C   3.879    O  447 1.858    C  445 0.984    H  565 0.953
   447  O   2.038    C  446 1.858    C  445 0.053
   448  C   3.994    C  449 1.011    H  456 0.974    H  455 0.969    C  445 0.956
   449  C   3.986    C  448 1.011    H  458 0.972    H  457 0.966    C  450 0.911    O  451 0.055    O  452 0.053
   450  C   3.933    O  452 1.505    O  451 1.484    C  449 0.911
   451  O   1.817    C  450 1.484    O  452 0.210    C  449 0.055
   452  O   1.805    C  450 1.505    O  451 0.210    C  449 0.053
   453  H   0.970    N  444 0.952
   454  H   0.997    C  445 0.959
   455  H   0.996    C  448 0.969
   456  H   0.998    C  448 0.974
   457  H   0.999    C  449 0.966
   458  H   1.000    C  449 0.972
   459  N   2.993    C  460 1.013    H  471 0.955    H  566 0.953
   460  C   3.984    N  459 1.013    H  472 0.965    C  463 0.965    C  461 0.935
   461  C   3.938    O  462 1.624    N  480 1.302    C  460 0.935
   462  O   1.965    C  461 1.624    N  480 0.192
   463  C   3.993    C  464 1.008    H  473 0.967    H  474 0.966    C  460 0.965
   464  C   3.988    C  466 1.411    C  465 1.403    C  463 1.008    C  469 0.095
   465  C   3.990    C  467 1.460    C  464 1.403    H  475 0.967    C  468 0.106
   466  C   3.992    C  468 1.448    C  464 1.411    H  476 0.970    C  467 0.107
   467  C   3.984    C  465 1.460    C  469 1.362    H  477 0.965    C  466 0.107
   468  C   3.989    C  466 1.448    C  469 1.376    H  478 0.966    C  465 0.106    O  470 0.060
   469  C   3.943    C  468 1.376    C  467 1.362    O  470 1.072    C  464 0.095
   470  O   2.111    C  469 1.072    H  479 0.872    C  468 0.060
   471  H   0.974    N  459 0.955
   472  H   0.997    C  460 0.965
   473  H   0.995    C  463 0.967
   474  H   0.998    C  463 0.966
   475  H   0.997    C  465 0.967
   476  H   1.000    C  466 0.970
   477  H   0.994    C  467 0.965
   478  H   1.000    C  468 0.966
   479  H   0.893    O  470 0.872
   480  N   3.463    C  461 1.302    C  481 0.981    H  488 0.891    O  462 0.192
   481  C   3.975    N  480 0.981    C  482 0.973    C  484 0.966    H  489 0.951    O  483 0.054
   482  C   3.906    O  483 1.896    C  481 0.973    H  567 0.953
   483  O   2.049    C  482 1.896    C  481 0.054
   484  C   3.991    C  485 1.012    H  491 0.973    H  490 0.967    C  481 0.966
   485  C   3.980    C  484 1.012    S  486 0.991    H  492 0.970    H  493 0.968
   486  S   2.082    C  487 1.011    C  485 0.991
   487  C   3.980    S  486 1.011    H  496 0.985    H  495 0.983    H  494 0.979
   488  H   0.949    N  480 0.891
   489  H   0.997    C  481 0.951
   490  H   0.997    C  484 0.967
   491  H   0.996    C  484 0.973
   492  H   0.997    C  485 0.970
   493  H   0.998    C  485 0.968
   494  H   0.995    C  487 0.979
   495  H   0.999    C  487 0.983
   496  H   0.997    C  487 0.985
   497  N   3.002    C  498 1.015    H  568 0.955    H  508 0.938
   498  C   3.984    N  497 1.015    C  499 0.971    C  501 0.965    H  509 0.958    O  500 0.056
   499  C   3.889    O  500 1.892    C  498 0.971    H  569 0.956
   500  O   2.028    C  499 1.892    C  498 0.056
   501  C   3.991    C  502 0.996    H  510 0.973    H  511 0.972    C  498 0.965
   502  C   3.993    C  503 1.008    C  501 0.996    H  513 0.975    H  512 0.969
   503  C   3.961    C  502 1.008    N  504 0.986    H  515 0.957    H  514 0.953
   504  N   3.459    C  505 1.302    C  503 0.986    H  516 0.916    N  506 0.103    N  507 0.096
   505  C   3.977    N  506 1.341    N  507 1.304    N  504 1.302
   506  N   3.405    C  505 1.341    H  518 0.915    H  517 0.882    N  507 0.104    N  504 0.103
   507  N   3.379    C  505 1.304    H  519 0.921    H  520 0.915    N  506 0.104    N  504 0.096
   508  H   0.972    N  497 0.938
   509  H   0.996    C  498 0.958
   510  H   0.997    C  501 0.973
   511  H   0.996    C  501 0.972
   512  H   0.996    C  502 0.969
   513  H   0.998    C  502 0.975
   514  H   0.993    C  503 0.953
   515  H   0.992    C  503 0.957
   516  H   0.951    N  504 0.916
   517  H   0.937    N  506 0.882
   518  H   0.935    N  506 0.915
   519  H   0.940    N  507 0.921
   520  H   0.935    N  507 0.915
   521  N   2.999    C  522 1.025    H  536 0.964    H  548 0.952
   522  C   3.978    N  521 1.025    C  525 0.960    H  537 0.959    C  523 0.898    O  524 0.055
   523  C   3.930    O  524 1.521    O  535 1.476    C  522 0.898
   524  O   1.815    C  523 1.521    O  535 0.217    C  522 0.055
   525  C   3.995    C  526 1.018    H  538 0.974    H  539 0.968    C  522 0.960
   526  C   3.979    C  527 1.576    C  528 1.208    C  525 1.018    N  529 0.080
   527  C   3.951    C  526 1.576    N  529 1.198    H  540 0.969    C  530 0.060
   528  C   3.985    C  531 1.332    C  530 1.241    C  526 1.208    C  534 0.076
   529  N   3.542    C  527 1.198    C  530 1.187    H  541 0.930    C  526 0.080
   530  C   3.963    C  532 1.337    C  528 1.241    N  529 1.187    C  533 0.072    C  527 0.060
   531  C   3.993    C  533 1.504    C  528 1.332    H  542 0.970    C  532 0.112
   532  C   3.987    C  534 1.491    C  530 1.337    H  543 0.967    C  531 0.112
   533  C   3.991    C  531 1.504    C  534 1.370    H  544 0.971    C  530 0.072
   534  C   3.992    C  532 1.491    C  533 1.370    H  545 0.971    C  528 0.076
   535  O   1.766    C  523 1.476    O  524 0.217
   536  H   0.981    N  521 0.964
   537  H   1.000    C  522 0.959
   538  H   0.999    C  525 0.974
   539  H   0.999    C  525 0.968
   540  H   0.998    C  527 0.969
   541  H   0.957    N  529 0.930
   542  H   0.999    C  531 0.970
   543  H   0.998    C  532 0.967
   544  H   0.999    C  533 0.971
   545  H   0.999    C  534 0.971
   546  H   0.964    N    1 0.944
   547  H   0.996    C  241 0.956
   548  H   0.966    N  521 0.952
   549  H   0.993    C  276 0.953
   550  H   0.967    N  281 0.945
   551  H   0.997    C  283 0.957
   552  H   0.965    N  297 0.953
   553  H   0.994    C  314 0.953
   554  H   0.966    N  332 0.955
   555  H   0.996    C  334 0.956
   556  H   0.968    N  351 0.957
   557  H   0.994    C  353 0.954
   558  H   0.966    N  375 0.954
   559  H   0.993    C  377 0.953
   560  H   0.967    N  395 0.957
   561  H   0.995    C  416 0.955
   562  H   0.971    N  428 0.959
   563  H   0.994    C  430 0.953
   564  H   0.962    N  444 0.951
   565  H   0.994    C  446 0.953
   566  H   0.963    N  459 0.953
   567  H   0.993    C  482 0.953
   568  H   0.967    N  497 0.955
   569  H   0.996    C  499 0.956
 
molecular dipole:
                 x           y           z       tot (Debye)
 q only:       17.426      -5.822      31.580
   full:       16.132      -4.710      26.918      80.660
molecular quadrupole (traceless):
                xx          xy          yy          xz          yz          zz
 q only:     2669.010     -55.778    -957.830    2472.198    1164.819   -1711.180
  q+dip:     2521.063      12.319    -793.056    2188.165     996.994   -1728.007
   full:     2524.496      14.585    -798.037    2187.313     994.345   -1726.459
speedup  8.80
cpu  time for grad   59.95 s
wall time for grad    6.81 s

SCC energy    :    -876.9616626
rep           :      10.9817072
ES            :       2.7319989
AES           :      -0.1827726
AXC           :       0.3165881
disp          :      -0.7530737
XB            :       0.0000000
fix           :       0.0000000
Gborn         :       0.0000000
Gsasa         :       0.0000000
Ghb           :       0.0000000
Gshift        :       0.0000000
Gsolv         :      -0.7224251     -453.33
Etot ala COSMO:    -876.9616626
grad norm     :       0.7713585
total E       :    -865.9025466
atomizationE  :     158.7178082    99596.93
(atE without considering molecular charge,
 total energy contains solvation terms)
H-L gap (eV)  :          0.9920

------------------------------------------------------------------------
 * finished run on 2019/02/18 at 08:32:45.128     
------------------------------------------------------------------------
 total:
 * wall-time:     0 d,  0 h,  0 min,  7.536 sec
 *  cpu-time:     0 d,  0 h,  1 min,  5.444 sec
 * ratio c/w:     8.685 speedup
 SCF:
 * wall-time:     0 d,  0 h,  0 min,  7.206 sec
 *  cpu-time:     0 d,  0 h,  1 min,  3.447 sec
 * ratio c/w:     8.804 speedup

