      -----------------------------------------------------------      
     |                   =====================                   |     
     |                           x T B                           |     
     |                   =====================                   |     
     |                         S. Grimme                         |     
     |          Mulliken Center for Theoretical Chemistry        |     
     |                    University of Bonn                     |     
     |                 Version 6.0.1 (SAW181210)                 |     
      -----------------------------------------------------------      

   This program is distributed in the hope that it will be useful,
   but WITHOUT ANY WARRANTY; without even the implied warranty of
   MERCHANTABILITY or FITNESS FOR A PARTICULAR PURPOSE.
   
   FOR NON-COMMERCIAL, ACADEMIA USE ONLY.
   
   Cite this work as:
   S. Grimme, C. Bannwarth, P. Shushkov, J. Comput. Theory Chem., 2017,
   13, 1989-2009.
   C. Bannwarth, S. Ehlert and S. Grimme., ChemRxiv, 2018, preprint.
   http://doi.org/10.26434/chemrxiv.7246238.v1
   
   for sTDA-xTB:
   S. Grimme and C. Bannwarth, J. Chem. Phys., 2016, 145, 054103.
   
   in the mass-spec context:
   V. Asgeirsson, C. Bauer and S. Grimme, Chem. Sci., 2017, 8, 4879.
   
   if GBSA is used:
   P. Shushkov, F. März and S. Grimme, unpublished.
   
   for ANC optimizer:
   S. Grimme, unpublished.
   Rational Function algorithm used in ANCopt:
   F. Eckert, P. Pulay, H.-J. Werner, J. Comput. Chem., 1997, 18, 1473.
   
   with help from (in alphabetical order)
   C. Bannwarth, F. Bohle, G. Brandenburg, E. Caldeweyher, M. Checinski,
   S. Dohm, S. Ehlert, S. Ehrlich, F. März, H. Neugebauer, J. Pisarek,
   P. Pracht, P. Shushkov, and S. Spicher.
   
 * started run on 2019/05/04 at 20:22:40.646     
========================================================================
 # omp threads = 2
========================================================================
number of atoms            : 1610
number of electrons        : 4408
charge                     : -6
spin                       : .0
first test random number   : .5613

########################################################################
# WARNING! Please study the warnings concerning your input carefully
#  - Process number higher than OMP_NUM_THREADS, I hope you know what you are doing.
########################################################################

           ------------------------------------------------- 
          |                 G F N 2 - x T B                 |
          | Geometry, Frequencies, Noncovalent interactions |
          |            JCTC 2018 parametrisation            |
           ------------------------------------------------- 
 
      method parameters     
 k(s)        :  1.8500
 k(p)        :  2.2300
 k(d)        :  2.2300
 k(f)        :  2.0000
 kEN (H0ij)  : -2.0000
 D4 a1       :  0.5200
 D4 a2       :  5.0000
 D4 s6       :  1.0000
 D4 s8       :  2.7000
 D4 s9       :  5.0000
 alphaj      :  2.0000

 Solvent             : h2o
 Using internal parameter file: .param_gbsa2_h2o
 Gsolv ref. state (COSMO-RS): gsolv [1 M gas/solution]
 temperature (mdtemp)       :    298.150000000000     
 dielectric constant        :    80.2000000000000     
 rho                        :    1.00000000000000     
 mass                       :    18.0000000000000     
 surface tension            :    15.5689454083859     
 probe radius               :   0.975313790000000     
 vdW radii scaling          :    1.00000000000000     
 Gshift (Eh)                :   1.857443126794793E-003
 c1                         :    1.55243817000000     
 soset                      :   0.130326360000000     
 HB correction              :  T

            Z     q(EN)     CN     RAES       Cart. coordinates
     1  N   5.0   -0.12    4.08    3.08    14.81356   183.25428    -5.40273
     2  C   4.0    0.01    4.31    4.22    12.22464   182.15446    -5.60115
     3  C   4.0    0.15    3.42    3.08    10.60136   182.85933    -3.33537
     4  O   6.0   -0.32    1.24    1.80    11.51977   183.11633    -1.20942
     5  C   4.0    0.03    4.14    3.89    12.32857   179.27452    -5.86949
     6  O   6.0   -0.25    2.06    1.83     9.85681   178.29375    -6.18129
     7  H   1.0    0.05    1.02    1.43    16.14204   181.80675    -5.39895
     8  H   1.0    0.05    1.01    1.43    15.14048   184.43914    -6.93529
     9  H   1.0    0.06    1.03    1.43    14.96285   184.28418    -3.73599
    10  H   1.0    0.05    1.06    1.44    11.33458   182.92169    -7.29245
    11  H   1.0    0.04    1.01    1.43    13.46430   178.78886    -7.51733
    12  H   1.0    0.04    1.01    1.43    13.16950   178.46572    -4.17251
    13  H   1.0    0.15    1.04    1.43     9.49020   178.06321    -7.98220
    14  N   5.0   -0.13    3.55    2.12     8.16740   183.14657    -3.82858
    15  C   4.0    0.03    4.41    4.40     6.37405   183.95537    -1.91618
    16  C   4.0    0.14    3.39    3.07     4.92274   181.71038    -0.79935
    17  O   6.0   -0.32    1.22    1.80     4.25755   181.69148     1.44753
    18  C   4.0   -0.05    4.27    4.14     4.55424   185.90557    -3.04435
    19  C   4.0   -0.04    4.24    4.08     4.02323   185.57109    -5.86382
    20  C   4.0    0.24    3.13    3.03     5.72965   187.17925    -7.51733
    21  O   6.0   -0.31    1.17    1.80     4.70164   188.73827    -8.95919
    22  O   6.0   -0.30    1.20    1.80     8.07669   186.89579    -7.37749
    23  H   1.0    0.09    1.09    1.44     7.37182   182.82910    -5.55579
    24  H   1.0    0.05    1.06    1.44     7.33970   184.90024    -0.36094
    25  H   1.0    0.04    1.03    1.43     2.75333   185.76951    -2.05413
    26  H   1.0    0.04    1.03    1.43     5.36304   187.78207    -2.78357
    27  H   1.0    0.04    1.04    1.43     4.31991   183.59821    -6.37216
    28  H   1.0    0.04    1.03    1.43     2.07303   186.11155    -6.24743
    29  N   5.0   -0.14    3.47    2.06     4.46731   179.82065    -2.39428
    30  C   4.0    0.03    4.35    4.29     3.01978   177.58889    -1.67997
    31  C   4.0    0.15    3.42    3.09     4.61849   175.75774    -0.13606
    32  O   6.0   -0.32    1.29    1.80     4.03456   175.17760     2.03523
    33  C   4.0   -0.08    4.12    3.85     2.00311   176.29253    -4.04023
    34  H   1.0    0.08    1.07    1.44     5.08336   179.77908    -4.21976
    35  H   1.0    0.05    1.06    1.44     1.42107   178.17470    -0.51967
    36  H   1.0    0.04    1.00    1.43     0.92597   174.62957    -3.48088
    37  H   1.0    0.04    1.00    1.43     0.78613   177.60778    -5.05691
    38  H   1.0    0.05    1.00    1.43     3.58670   175.73506    -5.23454
    39  N   5.0   -0.15    3.49    2.07     6.64617   174.85445    -1.30202
    40  C   4.0    0.03    4.37    4.33     8.42062   173.11401    -0.10960
    41  C   4.0    0.15    3.46    3.10     9.35036   174.16659     2.43019
    42  O   6.0   -0.30    1.28    1.80     9.51666   172.77575     4.30480
    43  C   4.0   -0.05    4.32    4.23    10.63727   172.60001    -1.92563
    44  C   4.0   -0.03    4.14    3.88    10.46341   170.74430    -4.18196
    45  C   4.0   -0.08    4.07    3.75     7.77811   170.12258    -5.11927
    46  C   4.0   -0.07    4.09    3.79    12.06023   171.75152    -6.37405
    47  H   1.0    0.08    1.07    1.44     7.12994   175.29854    -3.11427
    48  H   1.0    0.05    1.06    1.44     7.49276   171.31500     0.26834
    49  H   1.0    0.05    1.05    1.44    11.14182   174.41604    -2.75522
    50  H   1.0    0.04    1.04    1.43    12.18873   171.89892    -0.76534
    51  H   1.0    0.04    1.06    1.44    11.18340   168.94528    -3.48465
    52  H   1.0    0.04    1.00    1.43     7.90661   168.80733    -6.69908
    53  H   1.0    0.04    1.00    1.43     6.71231   169.26653    -3.57914
    54  H   1.0    0.05    1.00    1.43     6.85971   171.86302    -5.72587
    55  H   1.0    0.06    1.00    1.43    11.92984   170.44005    -7.95575
    56  H   1.0    0.05    1.00    1.43    11.34214   173.59967    -6.93340
    57  H   1.0    0.04    1.00    1.43    14.01799   171.91593    -5.75611
    58  N   5.0   -0.14    3.47    2.06     9.92673   176.62513     2.44908
    59  C   4.0    0.03    4.39    4.36    10.31979   178.11423     4.74699
    60  C   4.0    0.16    3.49    3.11     9.09147   176.81599     7.01466
    61  O   6.0   -0.30    1.20    1.80    10.33302   176.16781     8.88171
    62  C   4.0   -0.04    4.31    4.22     9.10848   180.72772     4.37283
    63  C   4.0   -0.05    4.17    3.94    10.05523   182.82343     6.08870
    64  C   4.0   -0.05    4.18    3.97    12.22464   184.25017     4.83014
    65  C   4.0   -0.05    4.12    3.84    13.19407   186.40824     6.47231
    66  N   5.0   -0.13    3.99    2.83    15.34457   187.79530     5.26478
    67  H   1.0    0.08    1.06    1.44    10.14216   177.67392     0.84660
    68  H   1.0    0.05    1.05    1.44    12.33424   178.31454     5.12305
    69  H   1.0    0.06    1.04    1.44     9.46186   181.32676     2.43397
    70  H   1.0    0.06    1.05    1.44     7.08269   180.54820     4.69786
    71  H   1.0    0.03    1.03    1.43     8.52644   184.15190     6.46664
    72  H   1.0    0.04    1.03    1.43    10.73742   182.01462     7.85559
    73  H   1.0    0.04    1.03    1.43    13.78555   182.95004     4.49188
    74  H   1.0    0.05    1.03    1.43    11.56890   185.04385     3.04624
    75  H   1.0    0.03    1.02    1.43    11.66528   187.75183     6.79356
    76  H   1.0    0.03    1.02    1.43    13.85169   185.64668     8.26944
    77  H   1.0    0.03    1.01    1.43    15.95118   189.24849     6.44019
    78  H   1.0    0.04    1.01    1.43    16.84313   186.56508     4.94730
    79  H   1.0    0.04    1.01    1.43    14.77199   188.56063     3.54702
    80  N   5.0   -0.14    3.59    2.15     6.63483   176.38324     6.74821
    81  C   4.0    0.04    4.47    4.49     4.97565   175.62168     8.80612
    82  C   4.0    0.15    3.50    3.12     4.71865   172.76819     9.01777
    83  O   6.0   -0.30    1.32    1.80     4.44464   171.74774    11.10403
    84  C   4.0   -0.02    4.30    4.20     2.31680   176.83489     8.47164
    85  C   4.0   -0.04    4.23    4.06     0.64251   175.30799     6.63105
    86  C   4.0   -0.08    4.09    3.79     2.57381   179.63168     7.60237
    87  C   4.0   -0.08    4.02    3.65    -1.07714   173.39369     7.84803
    88  H   1.0    0.10    1.10    1.44     5.70130   176.54954     5.07013
    89  H   1.0    0.06    1.06    1.44     5.80902   176.30576    10.55979
    90  H   1.0    0.04    1.06    1.44     1.37950   176.79520    10.30468
    91  H   1.0    0.04    1.04    1.43    -0.54802   176.62702     5.58981
    92  H   1.0    0.06    1.07    1.44     1.87083   174.28942     5.32903
    93  H   1.0    0.04    1.00    1.43     0.69164   180.44048     7.37938
    94  H   1.0    0.04    1.00    1.43     3.62638   180.68237     9.02722
    95  H   1.0    0.06    1.01    1.43     3.57914   179.68648     5.80524
    96  H   1.0    0.03    1.00    1.43    -2.15996   172.43749     6.37971
    97  H   1.0    0.05    1.01    1.43     0.06614   172.02742     8.88171
    98  H   1.0    0.04    1.00    1.43    -2.35271   174.36501     9.14249
    99  N   5.0   -0.14    3.57    2.13     4.77912   171.49452     6.85215
   100  C   4.0    0.04    4.44    4.45     4.45597   168.77520     6.81813
   101  C   4.0    0.15    3.44    3.09     6.75955   167.46751     7.93874
   102  O   6.0   -0.31    1.23    1.80     6.82191   165.14504     8.09748
   103  C   4.0   -0.04    4.38    4.35     3.96465   167.79822     4.14795
   104  C   4.0   -0.03    4.21    4.01     1.83114   165.84424     4.03079
   105  C   4.0   -0.09    4.13    3.86    -0.40440   167.13303     2.78546
   106  C   4.0   -0.08    4.09    3.79     2.56625   163.44807     2.60593
   107  H   1.0    0.10    1.07    1.44     5.04557   172.29198     5.11738
   108  H   1.0    0.04    1.07    1.44     2.77979   168.28199     7.90850
   109  H   1.0    0.04    1.05    1.44     3.44119   169.38559     2.94230
   110  H   1.0    0.05    1.04    1.43     5.68241   166.91004     3.43741
   111  H   1.0    0.04    1.07    1.44     1.36249   165.20173     5.92996
   112  H   1.0    0.03    1.00    1.43    -1.96909   165.79700     2.66829
   113  H   1.0    0.03    1.00    1.43    -0.95620   168.76198     3.91929
   114  H   1.0    0.03    1.00    1.43     0.14173   167.74341     0.89573
   115  H   1.0    0.03    1.00    1.43     0.96376   162.15360     2.60026
   116  H   1.0    0.03    1.00    1.43     3.07458   163.94695     0.67274
   117  H   1.0    0.05    1.00    1.43     4.17440   162.57312     3.55080
   118  N   5.0   -0.13    3.55    2.11     8.65306   168.95095     8.67951
   119  C   4.0    0.04    4.47    4.49    10.73175   167.94939    10.14405
   120  C   4.0    0.15    3.47    3.10    10.24798   168.10813    12.98242
   121  O   6.0   -0.30    1.31    1.80    11.65583   167.03099    14.48853
   122  C   4.0   -0.03    4.35    4.30    13.18273   169.28354     9.51099
   123  C   4.0    0.16    3.30    3.05    15.34646   168.30466    11.06435
   124  O   6.0   -0.27    1.24    1.80    15.57134   166.02376    11.47064
   125  N   5.0   -0.18    3.18    1.95    16.92817   170.01297    11.99598
   126  H   1.0    0.11    1.08    1.44     8.78345   170.83501     8.29023
   127  H   1.0    0.07    1.07    1.44    10.99254   165.97085     9.63760
   128  H   1.0    0.05    1.03    1.43    13.62681   168.98118     7.52300
   129  H   1.0    0.05    1.04    1.43    12.97675   171.29799     9.88894
   130  H   1.0    0.10    1.02    1.43    18.43050   169.45362    13.06557
   131  H   1.0    0.08    1.03    1.43    16.64093   171.88569    11.64260
   132  N   5.0   -0.14    3.49    2.07     8.25621   169.42716    13.73264
   133  C   4.0    0.05    4.52    4.56     7.86693   169.79755    16.41038
   134  C   4.0    0.15    3.47    3.10     5.44808   168.77142    17.50453
   135  O   6.0   -0.31    1.64    1.81     3.36749   169.58401    16.85069
   136  C   4.0   -0.03    4.35    4.29     8.19952   172.54332    17.13226
   137  C   4.0    0.14    3.25    3.04     8.82691   172.83811    19.88370
   138  O   6.0   -0.31    1.22    1.80     7.34725   172.09923    21.53343
   139  N   5.0   -0.19    3.18    1.95    11.05679   173.87179    20.41471
   140  H   1.0    0.12    1.13    1.45     6.94096   170.22462    12.57046
   141  H   1.0    0.06    1.12    1.45     9.29934   168.59946    17.27965
   142  H   1.0    0.05    1.04    1.43     9.73776   173.35401    16.02866
   143  H   1.0    0.07    1.05    1.44     6.44963   173.56188    16.75620
   144  H   1.0    0.09    1.02    1.43    11.58969   174.12124    22.24963
   145  H   1.0    0.07    1.03    1.43    12.23220   174.41415    18.98608
   146  N   5.0   -0.14    3.50    2.08     5.80524   166.99319    19.24308
   147  C   4.0    0.03    4.51    4.56     3.75111   165.53810    20.32589
   148  C   4.0    0.15    3.52    3.12     1.66863   167.23130    21.30099
   149  O   6.0   -0.32    1.46    1.80    -0.32125   167.40893    20.14070
   150  C   4.0   -0.03    4.36    4.30     4.66951   163.68617    22.39703
   151  C   4.0   -0.05    4.25    4.11     6.95797   164.75387    23.81622
   152  C   4.0   -0.08    4.13    3.86     5.34603   161.17851    21.21973
   153  C   4.0   -0.07    4.00    3.62     7.67418   163.27421    26.19538
   154  H   1.0    0.07    1.09    1.44     7.53434   166.51320    19.94795
   155  H   1.0    0.05    1.07    1.44     2.94608   164.42694    18.78955
   156  H   1.0    0.04    1.06    1.44     3.13695   163.42917    23.74819
   157  H   1.0    0.04    1.04    1.43     8.58502   164.73119    22.55388
   158  H   1.0    0.04    1.04    1.43     6.53467   166.68706    24.38691
   159  H   1.0    0.05    1.00    1.43     5.98854   159.89538    22.69750
   160  H   1.0    0.04    1.00    1.43     3.67930   160.40183    20.29188
   161  H   1.0    0.04    1.00    1.43     6.84648   161.46952    19.84023
   162  H   1.0    0.05    1.00    1.43     9.31068   164.16616    27.07221
   163  H   1.0    0.05    1.00    1.43     6.08114   163.29122    27.50118
   164  H   1.0    0.05    1.00    1.43     8.12960   161.33535    25.66815
   165  N   5.0   -0.15    3.51    2.09     2.16185   168.53143    23.38725
   166  C   4.0    0.03    4.45    4.46     0.22866   170.04510    24.60801
   167  C   4.0    0.16    3.52    3.13    -1.17919   171.60601    22.67671
   168  O   6.0   -0.31    1.24    1.80    -3.48088   171.85357    22.81277
   169  C   4.0   -0.06    4.30    4.21     1.37572   171.77609    26.59978
   170  C   4.0   -0.06    4.17    3.94     2.05413   170.48352    29.06965
   171  C   4.0   -0.02    4.21    4.02     2.98010   172.42615    31.00284
   172  N   5.0   -0.15    3.38    2.01     4.30291   171.26775    33.14201
   173  C   4.0    0.08    3.33    3.06     5.54068   172.54521    34.92591
   174  N   5.0   -0.20    3.25    1.97     5.64839   175.06421    34.87111
   175  N   5.0   -0.19    3.23    1.96     6.67829   171.29610    36.77974
   176  H   1.0    0.08    1.07    1.44     3.87394   168.57489    24.27353
   177  H   1.0    0.04    1.06    1.44    -1.08470   168.77898    25.56421
   178  H   1.0    0.05    1.03    1.43     3.10293   172.59812    25.83633
   179  H   1.0    0.04    1.04    1.43     0.01890   173.26519    27.03253
   180  H   1.0    0.04    1.03    1.43     0.39117   169.53676    29.83310
   181  H   1.0    0.04    1.03    1.43     3.55646   169.11346    28.74273
   182  H   1.0    0.04    1.03    1.43     4.28401   173.72440    30.07688
   183  H   1.0    0.03    1.03    1.43     1.36060   173.46172    31.74173
   184  H   1.0    0.07    1.06    1.44     4.27456   169.34590    33.27618
   185  H   1.0    0.07    1.03    1.43     4.77723   176.03553    33.45193
   186  H   1.0    0.07    1.02    1.43     6.60270   176.01852    36.24872
   187  H   1.0    0.08    1.02    1.43     6.60270   169.37047    36.83265
   188  H   1.0    0.07    1.02    1.43     7.62882   172.26175    38.15168
   189  N   5.0   -0.14    3.59    2.15     0.22110   172.63024    20.86068
   190  C   4.0    0.03    4.49    4.52    -0.88817   174.24029    18.93127
   191  C   4.0    0.17    3.51    3.12    -2.56625   172.59812    17.30422
   192  O   6.0   -0.31    1.28    1.80    -4.61849   173.34267    16.50487
   193  C   4.0    0.04    4.21    4.02     1.14328   175.58389    17.29477
   194  O   6.0   -0.24    2.19    1.86     2.60971   173.74896    15.95307
   195  C   4.0   -0.08    4.07    3.74     2.88561   177.20527    18.92938
   196  H   1.0    0.09    1.07    1.44     2.12405   172.38080    20.67549
   197  H   1.0    0.04    1.06    1.44    -1.95587   175.76152    19.81945
   198  H   1.0    0.04    1.04    1.43     0.20220   176.82166    15.94362
   199  H   1.0    0.17    1.31    1.50     2.55680   172.12380    16.84124
   200  H   1.0    0.04    1.00    1.43     4.29724   178.13313    17.75020
   201  H   1.0    0.03    1.00    1.43     1.78957   178.64335    19.91582
   202  H   1.0    0.05    1.00    1.43     3.84559   176.02608    20.31833
   203  N   5.0   -0.12    3.64    2.20    -1.69130   170.30588    16.86580
   204  C   4.0    0.04    4.52    4.56    -3.12939   168.61458    15.32379
   205  C   4.0    0.16    3.54    3.13    -5.57847   167.98341    16.66549
   206  O   6.0   -0.30    1.44    1.80    -7.57024   168.90560    15.88882
   207  C   4.0   -0.04    4.37    4.32    -1.60627   166.25998    14.65860
   208  C   4.0   -0.03    4.17    3.94    -2.48688   164.82946    12.28700
   209  C   4.0   -0.08    4.12    3.84    -4.62038   166.15982    10.79222
   210  C   4.0   -0.08    4.11    3.82    -0.24566   164.34758    10.55223
   211  H   1.0    0.13    1.17    1.46    -0.03024   169.59912    17.54422
   212  H   1.0    0.05    1.08    1.44    -3.59237   169.50086    13.52288
   213  H   1.0    0.06    1.04    1.43     0.34960   166.82312    14.34491
   214  H   1.0    0.05    1.04    1.43    -1.71776   164.94851    16.24408
   215  H   1.0    0.03    1.06    1.44    -3.29379   163.05122    12.94462
   216  H   1.0    0.03    1.00    1.43    -5.11171   165.00898     9.15572
   217  H   1.0    0.05    1.00    1.43    -6.26255   166.37525    12.01677
   218  H   1.0    0.04    1.00    1.43    -3.95520   168.00986    10.17617
   219  H   1.0    0.03    1.00    1.43    -0.89762   163.33468     8.88171
   220  H   1.0    0.04    1.00    1.43     0.57826   166.15415    10.00232
   221  H   1.0    0.05    1.00    1.43     1.15084   163.21752    11.55945
   222  N   5.0   -0.14    3.53    2.10    -5.39517   166.46407    18.68183
   223  C   4.0    0.03    4.45    4.46    -7.56079   165.60424    20.18794
   224  C   4.0    0.16    3.56    3.14    -9.63004   167.51476    19.97251
   225  O   6.0   -0.32    1.28    1.80   -11.80890   166.83635    19.57945
   226  C   4.0   -0.05    4.34    4.26    -6.85404   165.31512    22.96395
   227  C   4.0   -0.04    4.28    4.16    -4.57314   163.72775    23.34189
   228  C   4.0   -0.01    4.24    4.07    -3.93819   163.38382    26.08389
   229  N   5.0   -0.13    3.41    2.03    -1.82170   161.62448    26.29554
   230  C   4.0    0.11    3.35    3.07    -1.41163   160.06357    28.22873
   231  N   5.0   -0.16    3.27    1.97    -2.97821   159.96530    30.19782
   232  N   5.0   -0.16    3.25    1.97     0.58204   158.55746    28.18148
   233  H   1.0    0.09    1.09    1.44    -3.71898   165.77432    19.33946
   234  H   1.0    0.04    1.06    1.44    -8.18440   163.76743    19.49630
   235  H   1.0    0.05    1.04    1.43    -6.47420   167.17839    23.75574
   236  H   1.0    0.04    1.03    1.43    -8.42062   164.42883    23.96550
   237  H   1.0    0.06    1.05    1.44    -4.90384   161.86637    22.52364
   238  H   1.0    0.05    1.05    1.44    -2.96498   164.62726    22.42160
   239  H   1.0    0.04    1.03    1.43    -3.39584   165.19039    26.91159
   240  H   1.0    0.05    1.03    1.43    -5.55957   162.60714    27.08922
   241  H   1.0    0.07    1.06    1.44    -0.55369   161.58858    24.84423
   242  H   1.0    0.08    1.03    1.43    -4.53345   161.10103    30.24884
   243  H   1.0    0.09    1.02    1.43    -2.62105   158.75399    31.65291
   244  H   1.0    0.09    1.03    1.43     1.78579   158.59903    26.67726
   245  H   1.0    0.11    1.03    1.43     0.91652   157.35370    29.64980
   246  N   5.0   -0.12    3.61    2.16    -8.88549   169.91471    20.19739
   247  C   4.0    0.04    4.36    4.31   -10.57302   172.06711    19.95929
   248  C   4.0    0.16    3.62    3.18   -11.81268   172.04443    17.39115
   249  O   6.0   -0.31    1.41    1.80   -14.00665   171.33956    17.12848
   250  C   4.0   -0.07    4.15    3.90    -9.12549   174.51430    20.35991
   251  H   1.0    0.10    1.08    1.44    -7.06380   170.43438    20.55644
   252  H   1.0    0.05    1.06    1.44   -12.04511   171.96506    21.39737
   253  H   1.0    0.04    1.00    1.43   -10.42562   176.10167    20.17471
   254  H   1.0    0.05    1.00    1.43    -8.29779   174.50296    22.24585
   255  H   1.0    0.07    1.02    1.43    -7.64016   174.65414    18.94072
   256  N   5.0   -0.13    3.63    2.19   -10.38215   172.72473    15.46363
   257  C   4.0    0.04    4.50    4.54   -11.51599   172.96284    13.00509
   258  C   4.0    0.16    3.49    3.11   -12.85203   170.52320    12.30212
   259  O   6.0   -0.32    1.27    1.80   -14.22775   170.41738    10.44452
   260  C   4.0   -0.04    4.27    4.13    -9.56768   173.85101    11.07946
   261  C   4.0   -0.04    4.21    4.03   -10.57491   175.94671     9.38060
   262  C   4.0    0.14    3.21    3.04   -11.28355   178.36934    10.81301
   263  O   6.0   -0.31    1.21    1.80   -13.09202   178.40525    12.28889
   264  N   5.0   -0.20    3.16    1.95    -9.86815   180.39702    10.35381
   265  H   1.0    0.11    1.09    1.44    -8.49621   173.10835    15.55244
   266  H   1.0    0.07    1.09    1.44   -12.97108   174.42171    12.99565
   267  H   1.0    0.05    1.04    1.43    -7.91606   174.57288    12.07724
   268  H   1.0    0.04    1.03    1.43    -9.02911   172.26175     9.88516
   269  H   1.0    0.03    1.03    1.43    -9.12738   176.43426     7.99921
   270  H   1.0    0.05    1.03    1.43   -12.26621   175.26641     8.42062
   271  H   1.0    0.07    1.02    1.43    -8.40361   180.28741     9.10659
   272  H   1.0    0.08    1.02    1.43   -10.24798   182.05998    11.24954
   273  N   5.0   -0.12    3.69    2.26   -12.47408   168.58245    13.84980
   274  C   4.0    0.04    4.40    4.39   -13.52666   166.10691    13.34713
   275  C   4.0    0.15    3.61    3.17   -16.23842   166.05211    14.16539
   276  O   6.0   -0.31    1.38    1.80   -17.87681   165.16583    12.78211
   277  C   4.0   -0.07    4.15    3.90   -12.03944   164.09813    14.70396
   278  H   1.0    0.12    1.16    1.46   -11.44040   168.67316    15.47497
   279  H   1.0    0.05    1.06    1.44   -13.40572   165.69684    11.33269
   280  H   1.0    0.04    1.00    1.43   -12.86903   162.25754    14.29389
   281  H   1.0    0.04    1.00    1.43   -10.08736   164.15104    14.04822
   282  H   1.0    0.07    1.03    1.43   -12.10936   164.46474    16.72974
   283  N   5.0   -0.14    3.61    2.17   -16.69006   167.02154    16.43306
   284  C   4.0    0.04    4.43    4.44   -19.21851   167.21996    17.46674
   285  C   4.0    0.16    3.52    3.12   -20.95139   168.17238    15.39938
   286  O   6.0   -0.29    1.23    1.80   -23.23985   167.85302    15.50331
   287  C   4.0   -0.05    4.30    4.19   -19.26954   169.08134    19.69094
   288  C   4.0   -0.05    4.18    3.95   -18.02043   168.20262    22.14003
   289  C   4.0   -0.01    4.24    4.08   -19.36780   165.93306    23.19261
   290  N   5.0   -0.15    3.38    2.01   -20.07834   166.24864    25.84956
   291  C   4.0    0.08    3.33    3.06   -19.38670   164.71607    27.73740
   292  N   5.0   -0.19    3.25    1.97   -17.91460   162.71674    27.29331
   293  N   5.0   -0.20    3.22    1.96   -20.17660   165.18095    30.09389
   294  H   1.0    0.11    1.10    1.44   -15.32001   167.69428    17.61225
   295  H   1.0    0.05    1.05    1.44   -19.85157   165.38693    18.16216
   296  H   1.0    0.06    1.03    1.43   -18.30200   170.80288    19.10513
   297  H   1.0    0.04    1.03    1.43   -21.23863   169.49519    20.13314
   298  H   1.0    0.06    1.03    1.43   -16.06078   167.68672    21.76775
   299  H   1.0    0.04    1.03    1.43   -18.09791   169.71629    23.53465
   300  H   1.0    0.04    1.04    1.43   -21.08745   165.60991    22.10790
   301  H   1.0    0.04    1.05    1.44   -18.13003   164.29277    23.05466
   302  H   1.0    0.06    1.06    1.44   -21.18950   167.75853    26.29554
   303  H   1.0    0.08    1.04    1.43   -17.30611   162.34636    25.50185
   304  H   1.0    0.08    1.02    1.43   -17.39682   161.55834    28.74462
   305  H   1.0    0.07    1.02    1.43   -21.30477   166.70217    30.44915
   306  H   1.0    0.07    1.02    1.43   -19.65126   164.01309    31.53386
   307  N   5.0   -0.13    3.65    2.21   -19.81378   169.32700    13.48886
   308  C   4.0    0.04    4.40    4.38   -21.24052   170.61391    11.52544
   309  C   4.0    0.16    3.47    3.10   -22.84112   168.79599     9.95508
   310  O   6.0   -0.29    1.23    1.80   -24.97462   169.42716     9.23509
   311  C   4.0   -0.03    4.27    4.14   -19.46796   172.19939     9.85303
   312  C   4.0   -0.02    4.20    4.00   -18.79521   171.09579     7.24710
   313  C   4.0    0.24    3.11    3.03   -20.08212   172.53576     5.09848
   314  O   6.0   -0.29    1.17    1.80   -22.38002   173.13669     5.36115
   315  O   6.0   -0.31    1.17    1.80   -18.78766   173.08756     3.16718
   316  H   1.0    0.10    1.14    1.45   -17.90326   169.40637    13.24509
   317  H   1.0    0.06    1.06    1.44   -22.55199   171.91404    12.43818
   318  H   1.0    0.06    1.04    1.43   -20.36747   174.02297     9.52044
   319  H   1.0    0.07    1.05    1.44   -17.69728   172.46206    10.87159
   320  H   1.0    0.06    1.03    1.43   -16.75809   171.20917     6.96931
   321  H   1.0    0.05    1.06    1.44   -19.40938   169.13047     7.16395
   322  N   5.0   -0.13    3.51    2.09   -21.83578   166.54155     9.46942
   323  C   4.0    0.04    4.34    4.27   -23.02442   164.88615     7.64772
   324  C   4.0    0.07    3.24    3.04   -23.66315   162.33124     8.74754
   325  O   6.0   -0.29    1.63    1.81   -22.52553   161.50354    10.59380
   326  C   4.0    0.03    4.17    3.93   -21.33312   164.60647     5.33659
   327  O   6.0   -0.28    2.12    1.84   -22.68805   163.43673     3.36938
   328  H   1.0    0.12    1.10    1.44   -20.24085   165.84424    10.29523
   329  H   1.0    0.06    1.08    1.44   -24.83100   165.69873     7.08647
   330  H   1.0    0.04    1.02    1.43   -20.71140   166.46974     4.71865
   331  H   1.0    0.04    1.03    1.43   -19.70228   163.44618     5.82414
   332  H   1.0    0.11    1.01    1.43   -22.75986   164.55734     1.89728
   333  N   5.0   -0.22    3.22    1.96   -23.59890   155.07091     9.39194
   334  C   4.0    0.02    4.24    4.08   -21.94728   152.96576     8.84959
   335  C   4.0    0.07    3.28    3.05   -21.98129   152.41207     6.05468
   336  O   6.0   -0.31    1.28    1.80   -20.06511   152.69175     4.79046
   337  C   4.0   -0.05    4.36    4.32   -22.85435   150.59415    10.22342
   338  C   4.0   -0.03    4.19    3.97   -21.07044   148.31514     9.98531
   339  C   4.0   -0.08    4.08    3.76   -19.54733   147.95798    12.45140
   340  C   4.0   -0.08    4.09    3.78   -22.49908   145.90952     9.29745
   341  H   1.0    0.08    1.03    1.43   -24.31699   155.05957    11.18151
   342  H   1.0    0.04    1.05    1.44   -20.04054   153.43819     9.47131
   343  H   1.0    0.04    1.04    1.43   -23.04710   151.03068    12.22653
   344  H   1.0    0.03    1.04    1.43   -24.67982   150.04235     9.44485
   345  H   1.0    0.04    1.06    1.44   -19.74575   148.68175     8.45085
   346  H   1.0    0.04    1.00    1.43   -18.29822   146.33471    12.23787
   347  H   1.0    0.04    1.00    1.43   -18.43806   149.65685    12.80667
   348  H   1.0    0.04    1.00    1.43   -20.85691   147.63673    14.00854
   349  H   1.0    0.05    1.00    1.43   -21.15926   144.35239     9.15005
   350  H   1.0    0.04    1.00    1.43   -23.88425   145.50890    10.76766
   351  H   1.0    0.04    1.00    1.43   -23.45150   146.18920     7.49276
   352  N   5.0   -0.18    3.31    1.99   -22.38002   154.49454     0.98455
   353  C   4.0    0.03    4.43    4.43   -20.61502   155.97231    -0.49889
   354  C   4.0    0.15    3.52    3.12   -17.94484   155.27122     0.13984
   355  O   6.0   -0.33    1.43    1.80   -16.58046   154.21487    -1.41729
   356  C   4.0    0.05    4.33    4.25   -20.86257   158.76344     0.12850
   357  O   6.0   -0.26    2.12    1.84   -23.49118   159.41917     0.35905
   358  C   4.0   -0.07    4.08    3.76   -19.56433   160.35459    -1.89162
   359  H   1.0    0.09    1.04    1.43   -23.44961   155.56791     2.17507
   360  H   1.0    0.05    1.06    1.44   -21.02509   155.62082    -2.48688
   361  H   1.0    0.04    1.07    1.44   -19.94228   159.17918     1.92374
   362  H   1.0    0.13    1.06    1.44   -23.67827   160.91394     1.43808
   363  H   1.0    0.04    1.00    1.43   -19.74386   162.35580    -1.43619
   364  H   1.0    0.04    1.00    1.43   -17.56500   159.86893    -1.99366
   365  H   1.0    0.05    1.00    1.43   -20.43172   160.00688    -3.72843
   366  N   5.0   -0.13    3.66    2.22   -17.24186   155.88916     2.46798
   367  C   4.0    0.03    4.46    4.48   -14.71152   155.50933     3.42229
   368  C   4.0    0.16    3.53    3.13   -13.86870   152.89395     2.68341
   369  O   6.0   -0.33    1.41    1.80   -12.05078   152.60482     1.27368
   370  C   4.0   -0.05    4.38    4.35   -14.65294   155.85137     6.28523
   371  C   4.0   -0.02    4.25    4.10   -16.46518   157.84314     7.36237
   372  C   4.0   -0.08    4.10    3.81   -16.09858   158.30423    10.17239
   373  C   4.0   -0.08    4.16    3.93   -16.20818   160.30923     5.96209
   374  H   1.0    0.08    1.11    1.45   -18.42294   156.67907     3.77000
   375  H   1.0    0.04    1.06    1.44   -13.42461   156.91339     2.63995
   376  H   1.0    0.04    1.04    1.43   -15.13859   154.05046     7.15828
   377  H   1.0    0.03    1.03    1.43   -12.74431   156.40506     6.82758
   378  H   1.0    0.05    1.07    1.44   -18.36814   157.09670     7.11104
   379  H   1.0    0.05    1.00    1.43   -17.44406   159.73287    10.79789
   380  H   1.0    0.04    1.00    1.43   -16.42172   156.54301    11.18907
   381  H   1.0    0.04    1.00    1.43   -14.17294   158.95997    10.49932
   382  H   1.0    0.04    1.01    1.43   -17.51776   161.67928     6.77089
   383  H   1.0    0.04    1.00    1.43   -14.27310   160.98953     6.15295
   384  H   1.0    0.04    1.02    1.43   -16.65227   160.00121     3.97409
   385  N   5.0   -0.14    3.53    2.10   -15.28032   151.00800     3.54324
   386  C   4.0    0.03    4.41    4.40   -14.71152   148.37183     3.01222
   387  C   4.0    0.16    3.50    3.12   -14.19373   147.96743     0.22299
   388  O   6.0   -0.31    1.24    1.80   -12.36637   146.69565    -0.46676
   389  C   4.0   -0.05    4.25    4.10   -16.90927   146.68809     3.86071
   390  C   4.0   -0.03    4.14    3.88   -16.59935   143.81570     3.36182
   391  C   4.0    0.23    3.09    3.02   -16.22519   142.19243     5.76933
   392  O   6.0   -0.30    1.15    1.80   -17.98830   140.65608     6.35515
   393  O   6.0   -0.31    1.17    1.80   -14.18428   142.43431     7.02033
   394  H   1.0    0.10    1.10    1.44   -16.85447   151.24611     4.62983
   395  H   1.0    0.05    1.06    1.44   -13.03155   147.84082     4.07803
   396  H   1.0    0.04    1.03    1.43   -17.15682   146.92808     5.89217
   397  H   1.0    0.05    1.03    1.43   -18.60813   147.29847     2.86671
   398  H   1.0    0.05    1.03    1.43   -18.29066   143.12973     2.40751
   399  H   1.0    0.06    1.03    1.43   -14.94962   143.53224     2.16185
   400  N   5.0   -0.13    3.56    2.12   -15.79244   149.05780    -1.37761
   401  C   4.0    0.04    4.48    4.51   -15.59213   148.55514    -4.07236
   402  C   4.0    0.16    3.52    3.12   -13.38115   149.97432    -5.06636
   403  O   6.0   -0.31    1.27    1.80   -12.00165   149.05213    -6.64995
   404  C   4.0   -0.04    4.28    4.16   -17.97885   149.29780    -5.53690
   405  C   4.0   -0.03    4.18    3.96   -18.76120   147.29658    -7.50977
   406  C   4.0    0.24    3.11    3.03   -20.02354   148.40963    -9.83224
   407  O   6.0   -0.29    1.19    1.80   -20.54699   150.72265    -9.86248
   408  O   6.0   -0.29    1.17    1.80   -20.48463   146.96021   -11.64449
   409  H   1.0    0.10    1.07    1.44   -17.20973   150.26534    -0.87872
   410  H   1.0    0.06    1.07    1.44   -15.38615   146.52557    -4.36338
   411  H   1.0    0.05    1.03    1.43   -19.53599   149.52646    -4.20842
   412  H   1.0    0.06    1.04    1.43   -17.63303   151.07036    -6.52900
   413  H   1.0    0.07    1.03    1.43   -17.07934   146.28369    -8.13149
   414  H   1.0    0.05    1.03    1.43   -20.08968   145.98700    -6.63672
   415  N   5.0   -0.14    3.66    2.22   -13.02399   152.21365    -4.05724
   416  C   4.0    0.04    4.51    4.56   -11.09836   153.84637    -4.98888
   417  C   4.0    0.16    3.57    3.15    -8.48109   153.09237    -4.00055
   418  O   6.0   -0.32    1.34    1.80    -6.55735   153.70086    -5.14005
   419  C   4.0   -0.04    4.50    4.53   -11.77677   156.51277    -4.27645
   420  C   4.0   -0.04    4.18    3.96   -10.70341   157.26866    -1.79713
   421  S   6.0   -0.02    2.73    3.11    -7.76299   158.79178    -2.44342
   422  C   4.0   -0.07    3.95    3.54    -8.96486   161.82479    -3.35426
   423  H   1.0    0.13    1.19    1.46   -14.04822   152.93552    -2.59270
   424  H   1.0    0.05    1.07    1.44   -11.00009   153.77834    -7.04490
   425  H   1.0    0.05    1.09    1.44   -11.04545   157.79779    -5.70886
   426  H   1.0    0.05    1.04    1.44   -13.82712   156.67718    -4.16307
   427  H   1.0    0.04    1.07    1.44   -11.96574   158.58202    -0.83526
   428  H   1.0    0.07    1.11    1.45   -10.37837   155.61137    -0.61794
   429  H   1.0    0.04    1.09    1.44    -7.38505   163.05500    -3.83425
   430  H   1.0    0.05    1.04    1.43   -10.19696   161.59425    -4.98888
   431  H   1.0    0.03    1.09    1.44   -10.02689   162.62604    -1.78012
   432  N   5.0   -0.14    3.56    2.12    -8.39227   151.76200    -1.89351
   433  C   4.0    0.04    4.46    4.47    -6.03389   150.60738    -1.12628
   434  C   4.0    0.16    3.60    3.17    -5.20808   148.67986    -3.06891
   435  O   6.0   -0.31    1.44    1.80    -3.14639   148.88584    -4.09504
   436  C   4.0   -0.05    4.39    4.36    -6.31357   149.31859     1.42296
   437  C   4.0   -0.02    4.22    4.05    -5.15895   146.68620     1.80847
   438  C   4.0   -0.08    4.06    3.72    -2.22232   146.51423     1.56658
   439  C   4.0   -0.07    4.11    3.82    -6.05468   145.75078     4.35771
   440  H   1.0    0.12    1.15    1.45    -9.87949   151.45587    -0.70676
   441  H   1.0    0.05    1.06    1.44    -4.61282   152.08892    -0.95053
   442  H   1.0    0.03    1.05    1.44    -5.44619   150.54502     2.83270
   443  H   1.0    0.06    1.05    1.44    -8.32991   149.12961     1.79902
   444  H   1.0    0.05    1.09    1.44    -5.79579   145.47488     0.26834
   445  H   1.0    0.05    1.00    1.43    -1.63650   144.56404     1.87650
   446  H   1.0    0.05    1.01    1.43    -1.66863   147.12083    -0.32125
   447  H   1.0    0.04    1.00    1.43    -1.36060   147.74066     2.98010
   448  H   1.0    0.05    1.00    1.43    -5.26856   143.87806     4.69786
   449  H   1.0    0.04    1.00    1.43    -5.41218   147.05847     5.81469
   450  H   1.0    0.05    1.00    1.43    -8.11259   145.65819     4.35393
   451  N   5.0   -0.14    3.58    2.14    -6.82380   146.79391    -3.51678
   452  C   4.0    0.03    4.44    4.44    -6.35704   144.85505    -5.38761
   453  C   4.0    0.17    3.58    3.16    -4.92652   146.09093    -7.53056
   454  O   6.0   -0.31    1.28    1.80    -2.94230   145.20276    -8.33369
   455  C   4.0   -0.04    4.36    4.31    -8.84959   143.88940    -6.43263
   456  C   4.0   -0.03    4.16    3.91   -10.44074   142.21511    -4.73565
   457  C   4.0    0.24    3.11    3.02   -12.90305   141.40252    -6.07925
   458  O   6.0   -0.29    1.19    1.80   -13.43973   142.40219    -8.17495
   459  O   6.0   -0.29    1.15    1.80   -14.32412   139.77925    -5.05880
   460  H   1.0    0.10    1.07    1.44    -8.49810   146.56903    -2.58703
   461  H   1.0    0.04    1.05    1.44    -5.31580   143.27524    -4.57314
   462  H   1.0    0.08    1.05    1.44   -10.00799   145.52402    -6.90884
   463  H   1.0    0.05    1.04    1.43    -8.43952   142.79714    -8.12960
   464  H   1.0    0.05    1.03    1.43    -9.37304   140.52191    -4.24810
   465  H   1.0    0.06    1.03    1.43   -10.94151   143.24879    -3.02545
   466  N   5.0   -0.13    3.56    2.12    -5.98098   148.19609    -8.40550
   467  C   4.0    0.03    4.41    4.39    -4.84526   149.78535   -10.32357
   468  C   4.0    0.16    3.56    3.14    -2.14484   150.39762    -9.62626
   469  O   6.0   -0.31    1.42    1.80    -0.37039   149.56614   -10.88860
   470  C   4.0   -0.05    4.28    4.15    -6.35326   152.24010   -10.69207
   471  C   4.0   -0.05    4.16    3.91    -8.97998   151.91318   -11.89960
   472  C   4.0   -0.04    4.15    3.89   -10.52577   154.37927   -11.95819
   473  C   4.0   -0.02    4.11    3.83   -13.36603   153.88794   -12.13771
   474  N   5.0   -0.11    3.99    2.84   -14.14271   152.84103   -14.64916
   475  H   1.0    0.10    1.07    1.44    -7.68174   148.86694    -7.79512
   476  H   1.0    0.05    1.06    1.44    -4.86415   148.76868   -12.11503
   477  H   1.0    0.07    1.06    1.44    -6.62916   153.11693    -8.84770
   478  H   1.0    0.04    1.03    1.43    -5.26667   153.49299   -11.91283
   479  H   1.0    0.04    1.03    1.43    -8.74754   151.26500   -13.84035
   480  H   1.0    0.06    1.03    1.43   -10.04578   150.52423   -10.81679
   481  H   1.0    0.05    1.03    1.43   -10.16862   155.44319   -10.23098
   482  H   1.0    0.06    1.03    1.43    -9.96264   155.49043   -13.59847
   483  H   1.0    0.05    1.02    1.43   -13.90460   152.52734   -10.68829
   484  H   1.0    0.06    1.02    1.43   -14.37326   155.66051   -11.84858
   485  H   1.0    0.07    1.01    1.43   -16.08535   152.53868   -14.67939
   486  H   1.0    0.07    1.02    1.43   -13.67028   154.10337   -16.07968
   487  H   1.0    0.05    1.01    1.43   -13.22619   151.13272   -14.97797
   488  N   5.0   -0.13    3.60    2.16    -1.78390   151.80735    -7.59481
   489  C   4.0    0.04    4.65    4.71     0.76723   152.47632    -6.97120
   490  C   4.0    0.17    3.71    3.25     2.34326   150.17463    -7.18663
   491  O   6.0   -0.31    1.37    1.80     4.03268   150.00456    -8.73998
   492  C   4.0   -0.05    4.49    4.52     0.98077   153.32291    -4.28590
   493  C   4.0   -0.03    4.25    4.10     3.55457   154.60415    -4.03456
   494  C   4.0   -0.08    4.15    3.90     3.59237   156.93796    -5.73343
   495  C   4.0   -0.08    4.07    3.74     4.17818   155.33169    -1.26990
   496  H   1.0    0.11    1.09    1.44    -3.15773   152.47254    -6.41562
   497  H   1.0    0.04    1.09    1.44     1.36249   154.00511    -8.21653
   498  H   1.0    0.04    1.03    1.43    -0.51212   154.66840    -3.83425
   499  H   1.0    0.04    1.05    1.44     0.88250   151.70720    -3.01222
   500  H   1.0    0.04    1.06    1.44     5.02100   153.28134    -4.61849
   501  H   1.0    0.03    1.00    1.43     5.42540   157.86204    -5.56335
   502  H   1.0    0.03    1.02    1.43     3.27867   156.35215    -7.68363
   503  H   1.0    0.03    1.00    1.43     2.09949   158.22486    -5.13816
   504  H   1.0    0.04    1.00    1.43     6.02823   156.23498    -1.21509
   505  H   1.0    0.04    1.00    1.43     2.74010   156.63560    -0.57826
   506  H   1.0    0.03    1.00    1.43     4.19330   153.62716    -0.11527
   507  N   5.0   -0.14    3.59    2.15     1.71587   148.38506    -5.57091
   508  C   4.0    0.04    4.42    4.41     2.97821   145.97188    -5.45186
   509  C   4.0    0.17    3.54    3.13     3.92685   144.97600    -7.99921
   510  O   6.0   -0.28    1.30    1.80     6.05657   144.05759    -8.19385
   511  C   4.0   -0.04    4.25    4.10     1.26801   144.04436    -4.11015
   512  C   4.0   -0.03    4.17    3.93     2.31680   141.33827    -3.95520
   513  C   4.0    0.25    3.12    3.03     5.12116   141.20221    -3.20875
   514  O   6.0   -0.25    1.17    1.80     6.62916   140.05704    -4.64495
   515  O   6.0   -0.30    1.17    1.80     5.81280   142.25857    -1.20565
   516  H   1.0    0.10    1.12    1.45     0.29480   148.55892    -4.28023
   517  H   1.0    0.05    1.07    1.44     4.70164   146.23077    -4.35204
   518  H   1.0    0.04    1.03    1.43     0.95242   144.69065    -2.18074
   519  H   1.0    0.07    1.04    1.43    -0.52345   143.95176    -5.12305
   520  H   1.0    0.05    1.03    1.43     1.24155   140.29136    -2.54357
   521  H   1.0    0.06    1.03    1.43     2.11649   140.44443    -5.79957
   522  N   5.0   -0.12    3.56    2.13     2.41885   145.15174    -9.97208
   523  C   4.0    0.04    4.63    4.70     3.44119   144.18987   -12.31345
   524  C   4.0    0.16    3.59    3.16     5.52745   145.90952   -13.24131
   525  O   6.0   -0.31    1.41    1.80     7.61560   145.05158   -13.81390
   526  C   4.0   -0.03    4.33    4.25     1.47399   143.76090   -14.37137
   527  C   4.0   -0.07    4.16    3.92    -0.71054   142.28125   -13.34524
   528  C   4.0   -0.07    4.22    4.05     0.62361   146.24022   -15.45607
   529  H   1.0    0.12    1.09    1.44     0.63684   145.88495   -10.00799
   530  H   1.0    0.06    1.08    1.44     4.19708   142.32471   -11.87693
   531  H   1.0    0.04    1.06    1.44     2.31302   142.66486   -15.90015
   532  H   1.0    0.04    1.00    1.43    -2.09193   141.99779   -14.84569
   533  H   1.0    0.04    1.00    1.43    -0.02835   140.45955   -12.66683
   534  H   1.0    0.07    1.02    1.43    -1.56469   143.33382   -11.79378
   535  H   1.0    0.04    1.00    1.43    -0.78046   145.88495   -16.92061
   536  H   1.0    0.07    1.03    1.43    -0.20220   147.38162   -13.95374
   537  H   1.0    0.05    1.03    1.43     2.25066   147.21154   -16.26298
   538  N   5.0   -0.13    3.62    2.18     4.98321   148.34349   -13.35091
   539  C   4.0    0.04    4.62    4.69     6.91829   150.07448   -14.14082
   540  C   4.0    0.17    3.71    3.24     9.40328   149.29969   -12.92195
   541  O   6.0   -0.30    1.47    1.80    11.20796   148.66474   -14.22208
   542  C   4.0   -0.02    4.37    4.32     6.26444   152.74466   -13.43973
   543  C   4.0   -0.08    4.19    3.98     8.60581   154.38494   -13.50209
   544  C   4.0   -0.08    4.16    3.92     4.32180   153.71598   -15.26332
   545  H   1.0    0.10    1.08    1.44     3.27678   149.12961   -12.91817
   546  H   1.0    0.05    1.07    1.44     7.11104   149.97243   -16.18928
   547  H   1.0    0.06    1.07    1.44     5.49910   152.81080   -11.52922
   548  H   1.0    0.03    1.00    1.43     8.08803   156.31057   -12.98809
   549  H   1.0    0.04    1.02    1.43     9.97964   153.64417   -12.15850
   550  H   1.0    0.04    1.00    1.43     9.39572   154.35282   -15.40316
   551  H   1.0    0.04    1.00    1.43     3.83992   155.65484   -14.76065
   552  H   1.0    0.04    1.00    1.43     5.10226   153.65740   -17.16816
   553  H   1.0    0.05    1.00    1.43     2.64562   152.52545   -15.15371
   554  N   5.0   -0.14    3.57    2.13     9.48076   149.31103   -10.43129
   555  C   4.0    0.04    4.62    4.68    11.63504   148.31703    -9.15572
   556  C   4.0    0.17    3.66    3.21    12.77077   146.11928   -10.60325
   557  O   6.0   -0.33    1.59    1.81    14.62459   146.49911   -11.88071
   558  C   4.0   -0.02    4.36    4.31    10.95474   147.58193    -6.52333
   559  C   4.0   -0.07    4.14    3.89    13.20163   146.34794    -5.19864
   560  C   4.0   -0.08    4.15    3.90    10.03822   149.92519    -5.11360
   561  H   1.0    0.09    1.09    1.44     8.08992   149.99133    -9.28422
   562  H   1.0    0.04    1.07    1.44    13.08824   149.77590    -9.09525
   563  H   1.0    0.07    1.07    1.44     9.43918   146.18731    -6.53845
   564  H   1.0    0.05    1.00    1.43    12.64983   145.83204    -3.28245
   565  H   1.0    0.05    1.02    1.43    13.75532   144.66419    -6.24743
   566  H   1.0    0.04    1.00    1.43    14.76632   147.68775    -5.14383
   567  H   1.0    0.04    1.00    1.43     9.53934   149.39606    -3.18608
   568  H   1.0    0.04    1.00    1.43    11.54812   151.32547    -5.08903
   569  H   1.0    0.04    1.01    1.43     8.38849   150.68864    -6.08303
   570  N   5.0   -0.13    3.50    2.08    11.71819   143.85728   -10.50877
   571  C   4.0    0.05    4.58    4.64    12.95785   141.81448   -11.89205
   572  C   4.0    0.16    3.61    3.17    13.91594   142.50612   -14.47152
   573  O   6.0   -0.29    1.30    1.80    16.01732   141.80692   -15.20851
   574  C   4.0   -0.03    4.41    4.41    11.27033   139.55059   -12.16984
   575  C   4.0    0.16    3.29    3.05    11.78433   137.67598   -10.21019
   576  O   6.0   -0.30    1.29    1.80    12.44385   138.36573    -8.07102
   577  N   5.0   -0.17    3.21    1.96    11.54812   135.27225   -10.87537
   578  H   1.0    0.11    1.06    1.44    10.10814   143.39618    -9.55445
   579  H   1.0    0.05    1.11    1.45    14.60002   141.35717   -10.73553
   580  H   1.0    0.06    1.04    1.43     9.30312   140.14019   -12.00732
   581  H   1.0    0.04    1.05    1.44    11.59536   138.67754   -14.00665
   582  H   1.0    0.09    1.03    1.43    11.88260   133.87763    -9.58658
   583  H   1.0    0.08    1.03    1.43    11.03222   134.81683   -12.67628
   584  N   5.0   -0.13    3.62    2.18    12.31345   143.86673   -15.83590
   585  C   4.0    0.04    4.47    4.49    12.93517   144.77757   -18.31900
   586  C   4.0    0.17    3.52    3.12    15.62236   145.77535   -18.33412
   587  O   6.0   -0.29    1.24    1.80    16.99431   145.49756   -20.17660
   588  C   4.0   -0.04    4.34    4.28    11.04923   146.79391   -19.11458
   589  C   4.0   -0.03    4.22    4.04     8.55101   145.70543   -19.90826
   590  C   4.0    0.24    3.14    3.03     7.71197   146.74289   -22.44239
   591  O   6.0   -0.30    1.18    1.80     6.43263   148.72143   -22.44428
   592  O   6.0   -0.30    1.17    1.80     8.33936   145.60716   -24.43416
   593  H   1.0    0.12    1.13    1.45    10.54656   144.36750   -15.24820
   594  H   1.0    0.05    1.06    1.44    12.82368   143.25634   -19.70228
   595  H   1.0    0.08    1.09    1.44    10.71664   148.06381   -17.52721
   596  H   1.0    0.05    1.04    1.43    11.82213   147.84460   -20.70762
   597  H   1.0    0.05    1.04    1.43     8.71920   143.65886   -20.06889
   598  H   1.0    0.06    1.03    1.43     7.12238   146.18542   -18.50609
   599  N   5.0   -0.13    3.68    2.25    16.38392   146.87517   -16.22897
   600  C   4.0    0.04    4.49    4.53    18.95206   147.66697   -15.92661
   601  C   4.0    0.16    3.49    3.11    20.53376   145.49945   -14.96663
   602  O   6.0   -0.30    1.29    1.80    22.37436   144.79836   -16.16661
   603  C   4.0   -0.05    4.33    4.26    19.08812   149.88928   -14.12759
   604  C   4.0   -0.05    4.19    3.99    17.33068   152.03601   -14.82112
   605  C   4.0   -0.02    4.18    3.96    18.32845   153.77078   -16.91116
   606  N   5.0   -0.15    3.38    2.01    20.97407   154.56258   -16.58612
   607  C   4.0    0.09    3.32    3.06    21.78854   156.66962   -15.44473
   608  N   5.0   -0.18    3.24    1.97    20.18416   158.31935   -14.40916
   609  N   5.0   -0.19    3.23    1.96    24.26597   157.12882   -15.33324
   610  H   1.0    0.13    1.20    1.47    15.25198   147.23422   -14.71152
   611  H   1.0    0.06    1.07    1.44    19.70039   148.29246   -17.74075
   612  H   1.0    0.05    1.04    1.43    18.57979   149.24489   -12.23787
   613  H   1.0    0.04    1.04    1.43    21.01186   150.62439   -14.12759
   614  H   1.0    0.05    1.04    1.43    15.54489   151.24044   -15.47308
   615  H   1.0    0.04    1.03    1.43    17.01698   153.19630   -13.14871
   616  H   1.0    0.04    1.03    1.43    18.19428   152.77678   -18.71018
   617  H   1.0    0.04    1.03    1.43    17.17194   155.47531   -16.96029
   618  H   1.0    0.07    1.06    1.44    22.32333   153.38717   -17.30233
   619  H   1.0    0.08    1.03    1.43    18.28688   157.98865   -14.47530
   620  H   1.0    0.12    1.06    1.44    20.85691   159.90861   -13.55122
   621  H   1.0    0.07    1.02    1.43    25.51319   155.88160   -16.11180
   622  H   1.0    0.08    1.02    1.43    24.91226   158.72564   -14.46963
   623  N   5.0   -0.14    3.53    2.10    19.80055   144.42042   -12.82935
   624  C   4.0    0.04    4.33    4.26    21.17627   142.32282   -11.72008
   625  C   4.0    0.11    3.36    3.07    21.93972   140.59372   -13.83846
   626  O   6.0   -0.30    1.12    1.80    23.61402   139.02336   -13.55878
   627  C   4.0   -0.04    4.27    4.14    19.54355   140.81104    -9.86626
   628  C   4.0   -0.05    4.20    3.99    17.87303   142.35117    -8.06724
   629  C   4.0    0.00    4.23    4.06    16.51998   140.74868    -6.05279
   630  N   5.0   -0.14    3.41    2.03    17.93539   140.64096    -3.67741
   631  C   4.0    0.09    3.34    3.06    18.77254   138.52636    -2.56436
   632  N   5.0   -0.19    3.24    1.97    18.30955   136.23979    -3.53946
   633  N   5.0   -0.19    3.24    1.97    20.05755   138.69833    -0.41196
   634  H   1.0    0.09    1.09    1.44    18.25286   144.96088   -11.81646
   635  H   1.0    0.04    1.05    1.44    22.79765   143.04281   -10.67128
   636  H   1.0    0.05    1.04    1.43    18.29255   139.59406   -10.96041
   637  H   1.0    0.05    1.03    1.43    20.79454   139.66587    -8.69841
   638  H   1.0    0.04    1.04    1.43    19.05033   143.72689    -7.08458
   639  H   1.0    0.05    1.05    1.44    16.42739   143.31871    -9.17084
   640  H   1.0    0.06    1.05    1.44    14.67372   141.57260    -5.66162
   641  H   1.0    0.06    1.05    1.44    16.29889   138.82494    -6.75577
   642  H   1.0    0.12    1.15    1.45    18.31522   142.31337    -2.79679
   643  H   1.0    0.08    1.03    1.43    17.29666   136.07539    -5.17029
   644  H   1.0    0.07    1.02    1.43    18.97096   134.66187    -2.65129
   645  H   1.0    0.08    1.03    1.43    20.39581   140.42554     0.37228
   646  H   1.0    0.07    1.03    1.43    20.70573   137.10340     0.45353
   647  N   5.0   -0.12    4.08    3.08   -20.89659   177.41692    -3.53001
   648  C   4.0    0.00    4.20    3.99   -18.25664   177.81565    -2.60971
   649  C   4.0    0.07    3.21    3.04   -16.65604   179.23673    -4.53345
   650  O   6.0   -0.32    1.16    1.80   -17.02265   178.99484    -6.82758
   651  C   4.0    0.03    4.15    3.89   -16.99620   175.27775    -2.00878
   652  O   6.0   -0.25    2.05    1.83   -14.59624   175.65003    -0.87305
   653  H   1.0    0.05    1.02    1.43   -21.27642   175.49129    -3.61694
   654  H   1.0    0.05    1.01    1.43   -22.15893   178.27675    -2.29413
   655  H   1.0    0.06    1.03    1.43   -21.09312   178.20494    -5.31958
   656  H   1.0    0.04    1.05    1.44   -18.34168   178.94382    -0.88817
   657  H   1.0    0.06    1.03    1.43   -18.19617   174.22328    -0.70865
   658  H   1.0    0.04    1.02    1.43   -16.75242   174.21950    -3.75866
   659  H   1.0    0.12    1.01    1.43   -14.21452   174.24785     0.27401
   660  N   5.0   -0.20    3.20    1.95   -10.11948   178.86634    -3.12750
   661  C   4.0    0.03    4.25    4.10    -8.25621   176.88213    -2.82136
   662  C   4.0    0.15    3.41    3.08    -9.14627   174.37635    -3.95142
   663  O   6.0   -0.33    1.30    1.80    -8.93840   173.96628    -6.23043
   664  C   4.0   -0.08    4.14    3.89    -7.59292   176.60056    -0.01323
   665  H   1.0    0.08    1.03    1.43   -10.69207   179.60144    -1.43997
   666  H   1.0    0.04    1.06    1.44    -6.54601   177.39613    -3.84748
   667  H   1.0    0.03    1.00    1.43    -6.19263   175.10579     0.19842
   668  H   1.0    0.03    1.00    1.43    -6.82758   178.38446     0.67652
   669  H   1.0    0.04    1.00    1.43    -9.29934   176.11679     1.03368
   670  N   5.0   -0.15    3.49    2.07   -10.20074   172.75308    -2.35271
   671  C   4.0    0.03    4.40    4.37   -10.82624   170.15470    -3.04057
   672  C   4.0    0.15    3.46    3.10   -12.12826   169.85235    -5.59737
   673  O   6.0   -0.31    1.28    1.80   -11.79189   167.91727    -6.85593
   674  C   4.0   -0.05    4.33    4.25   -12.42306   168.92449    -0.95431
   675  C   4.0   -0.03    4.16    3.91   -11.27977   167.82656     1.49855
   676  C   4.0   -0.08    4.11    3.83   -11.60103   164.97119     1.65918
   677  C   4.0   -0.08    4.11    3.82    -8.51133   168.53143     1.87461
   678  H   1.0    0.07    1.08    1.44   -10.65616   173.18204    -0.52912
   679  H   1.0    0.04    1.08    1.44    -9.03478   169.15126    -3.20498
   680  H   1.0    0.04    1.04    1.43   -13.76854   170.35501    -0.33259
   681  H   1.0    0.04    1.05    1.44   -13.42272   167.35413    -1.83681
   682  H   1.0    0.04    1.06    1.44   -12.33802   168.68450     3.04246
   683  H   1.0    0.03    1.00    1.43   -10.76388   164.30033     3.41662
   684  H   1.0    0.04    1.00    1.43   -13.60981   164.51954     1.61950
   685  H   1.0    0.03    1.05    1.44   -10.65427   164.09813     0.05291
   686  H   1.0    0.03    1.00    1.43    -7.83858   167.69428     3.63205
   687  H   1.0    0.03    1.00    1.43    -7.41339   167.80955     0.28913
   688  H   1.0    0.04    1.00    1.43    -8.34881   170.58367     1.96531
   689  N   5.0   -0.14    3.50    2.08   -13.55878   171.77231    -6.38349
   690  C   4.0    0.03    4.43    4.42   -15.11781   171.58712    -8.66061
   691  C   4.0    0.16    3.43    3.09   -13.66839   170.66871   -10.99065
   692  O   6.0   -0.31    1.22    1.80   -14.76065   169.57267   -12.72730
   693  C   4.0   -0.04    4.28    4.16   -16.41794   174.10612    -9.21052
   694  C   4.0   -0.05    4.17    3.94   -19.07300   173.82455   -10.32168
   695  C   4.0   -0.05    4.17    3.94   -20.85313   172.40726    -8.52077
   696  C   4.0   -0.05    4.11    3.83   -23.19450   171.38303    -9.86626
   697  N   5.0   -0.13    3.99    2.84   -25.11446   173.37102   -10.42373
   698  H   1.0    0.09    1.07    1.44   -13.68162   173.47684    -5.49154
   699  H   1.0    0.05    1.07    1.44   -16.57479   170.18116    -8.28078
   700  H   1.0    0.06    1.06    1.44   -16.58046   175.16626    -7.45119
   701  H   1.0    0.05    1.03    1.43   -15.27654   175.15870   -10.56357
   702  H   1.0    0.04    1.03    1.43   -19.86480   175.69349   -10.67128
   703  H   1.0    0.05    1.03    1.43   -18.96340   172.76442   -12.08480
   704  H   1.0    0.04    1.04    1.43   -19.84590   170.81422    -7.69118
   705  H   1.0    0.03    1.03    1.43   -21.47863   173.69416    -7.03923
   706  H   1.0    0.04    1.02    1.43   -22.62002   170.53832   -11.65583
   707  H   1.0    0.03    1.02    1.43   -24.08456   169.96195    -8.67006
   708  H   1.0    0.04    1.01    1.43   -26.66214   172.57355   -11.33647
   709  H   1.0    0.04    1.01    1.43   -25.72106   174.20628    -8.75132
   710  H   1.0    0.04    1.01    1.43   -24.33400   174.75430   -11.58213
   711  N   5.0   -0.14    3.62    2.18   -11.20041   171.09201   -10.97553
   712  C   4.0    0.03    4.51    4.56    -9.59036   170.44950   -13.10336
   713  C   4.0    0.14    3.66    3.20    -8.49432   167.81522   -12.79344
   714  O   6.0   -0.32    1.34    1.80    -8.23732   166.37336   -14.61703
   715  C   4.0   -0.03    4.32    4.24    -7.42473   172.36379   -13.31123
   716  C   4.0   -0.05    4.25    4.10    -4.94163   171.30933   -12.16795
   717  C   4.0   -0.08    4.15    3.89    -8.28078   174.96217   -12.20196
   718  C   4.0   -0.08    4.08    3.77    -4.09315   172.49418    -9.67351
   719  H   1.0    0.10    1.10    1.44   -10.24987   171.88758    -9.49965
   720  H   1.0    0.06    1.06    1.44   -10.73175   170.52320   -14.81734
   721  H   1.0    0.03    1.06    1.44    -6.97876   172.68883   -15.29544
   722  H   1.0    0.05    1.15    1.45    -5.19486   169.29299   -11.82968
   723  H   1.0    0.04    1.03    1.43    -3.42607   171.60979   -13.53044
   724  H   1.0    0.03    1.00    1.43    -6.72553   176.30387   -12.36070
   725  H   1.0    0.04    1.00    1.43    -9.90783   175.64247   -13.26588
   726  H   1.0    0.06    1.03    1.43    -8.79289   174.71083   -10.22342
   727  H   1.0    0.03    1.00    1.43    -2.33948   171.60034    -9.06879
   728  H   1.0    0.04    1.00    1.43    -3.79079   174.51241    -9.95886
   729  H   1.0    0.05    1.06    1.44    -5.55768   172.19561    -8.25621
   730  N   5.0   -0.14    3.67    2.23    -7.85559   167.22185   -10.44074
   731  C   4.0    0.03    4.40    4.38    -6.72553   164.83135    -9.76043
   732  C   4.0    0.15    3.43    3.09    -8.59636   162.68273   -10.23287
   733  O   6.0   -0.32    1.24    1.80    -8.27700   160.57379    -9.32202
   734  C   4.0   -0.05    4.44    4.45    -5.91295   164.90882    -6.99199
   735  C   4.0   -0.03    4.18    3.96    -3.82292   166.69084    -6.06980
   736  C   4.0   -0.08    4.18    3.96    -4.84715   169.24386    -5.29879
   737  C   4.0   -0.09    4.12    3.83    -2.47932   165.48330    -3.81914
   738  H   1.0    0.09    1.09    1.44    -8.10881   168.39537    -8.93273
   739  H   1.0    0.04    1.06    1.44    -5.05313   164.47230   -10.90939
   740  H   1.0    0.05    1.06    1.44    -7.58536   165.39826    -5.89406
   741  H   1.0    0.05    1.05    1.44    -5.28178   163.00965    -6.50444
   742  H   1.0    0.03    1.06    1.44    -2.50011   167.00075    -7.61938
   743  H   1.0    0.03    1.00    1.43    -3.28623   170.42871    -4.66195
   744  H   1.0    0.04    1.07    1.44    -5.77311   170.11313    -6.92018
   745  H   1.0    0.04    1.02    1.43    -6.20397   168.98874    -3.77000
   746  H   1.0    0.03    1.00    1.43    -0.99400   166.75131    -3.16529
   747  H   1.0    0.03    1.00    1.43    -3.84748   165.16772    -2.31113
   748  H   1.0    0.03    1.00    1.43    -1.66107   163.68806    -4.41062
   749  N   5.0   -0.13    3.68    2.24   -10.56735   163.25531   -11.66339
   750  C   4.0    0.04    4.46    4.48   -12.38148   161.38260   -12.42117
   751  C   4.0    0.16    3.45    3.09   -11.70496   160.44340   -15.05545
   752  O   6.0   -0.29    1.25    1.80   -12.72919   158.56879   -15.96440
   753  C   4.0   -0.02    4.34    4.27   -15.03277   162.52210   -12.37393
   754  C   4.0    0.15    3.24    3.04   -17.01887   160.60970   -11.68795
   755  O   6.0   -0.28    1.20    1.80   -18.52498   159.83113   -13.28477
   756  N   5.0   -0.19    3.18    1.95   -17.01320   159.79712    -9.31068
   757  H   1.0    0.11    1.16    1.46   -10.94718   165.02599   -12.32479
   758  H   1.0    0.05    1.07    1.44   -12.44574   159.78389   -11.12293
   759  H   1.0    0.06    1.04    1.43   -15.09135   164.03577   -10.97742
   760  H   1.0    0.07    1.04    1.43   -15.48063   163.26854   -14.24097
   761  H   1.0    0.09    1.02    1.43   -18.31522   158.49887    -8.73242
   762  H   1.0    0.08    1.03    1.43   -15.70551   160.47175    -8.06535
   763  N   5.0   -0.13    3.54    2.11    -9.94752   161.73597   -16.28188
   764  C   4.0    0.05    4.44    4.44    -9.40139   161.14449   -18.89159
   765  C   4.0    0.07    3.25    3.04    -6.76333   160.32057   -19.29599
   766  O   6.0   -0.32    1.23    1.80    -5.06069   161.82290   -19.70417
   767  C   4.0   -0.02    4.38    4.34   -10.09492   163.32523   -20.59234
   768  C   4.0    0.15    3.26    3.04   -12.88226   163.62381   -20.84935
   769  O   6.0   -0.28    1.24    1.80   -14.31089   161.83424   -20.44495
   770  N   5.0   -0.19    3.18    1.95   -13.70240   165.90471   -21.51831
   771  H   1.0    0.12    1.12    1.45    -8.90250   163.16839   -15.52599
   772  H   1.0    0.07    1.10    1.44   -10.54089   159.48720   -19.33757
   773  H   1.0    0.06    1.04    1.43    -9.33147   165.06756   -19.80244
   774  H   1.0    0.04    1.04    1.43    -9.30879   162.99831   -22.46695
   775  H   1.0    0.09    1.02    1.43   -15.59213   166.22785   -21.72429
   776  H   1.0    0.07    1.03    1.43   -12.44196   167.33145   -21.82444
   777  N   5.0   -0.21    3.26    1.97    -0.34960   163.51610   -18.82545
   778  C   4.0    0.03    4.30    4.19     1.13573   162.81690   -16.68250
   779  C   4.0    0.07    3.24    3.04     3.73410   162.07613   -17.64059
   780  O   6.0   -0.31    1.14    1.80     5.58981   163.39515   -17.20973
   781  C   4.0   -0.05    4.38    4.35    -0.13417   160.66450   -15.26143
   782  C   4.0   -0.03    4.23    4.06     1.12439   160.13727   -12.72164
   783  C   4.0   -0.08    4.16    3.92     1.75745   162.56556   -11.33080
   784  C   4.0   -0.08    4.12    3.84    -0.50267   158.46297   -11.09458
   785  H   1.0    0.12    1.09    1.44    -1.79902   162.31990   -19.25253
   786  H   1.0    0.04    1.08    1.44     1.32470   164.36458   -15.33702
   787  H   1.0    0.05    1.03    1.43    -2.10326   161.15772   -14.91372
   788  H   1.0    0.04    1.03    1.43    -0.02835   158.95052   -16.40093
   789  H   1.0    0.04    1.06    1.44     2.89317   159.14894   -13.09391
   790  H   1.0    0.03    1.00    1.43     2.64940   162.09691    -9.53367
   791  H   1.0    0.05    1.01    1.43     3.04624   163.68239   -12.48542
   792  H   1.0    0.04    1.00    1.43     0.01890   163.62003   -10.99821
   793  H   1.0    0.03    1.01    1.43     0.45731   158.13038    -9.30312
   794  H   1.0    0.05    1.00    1.43    -2.30736   159.40027   -10.76199
   795  H   1.0    0.04    1.00    1.43    -0.80880   156.67529   -12.06968
   796  N   5.0   -0.20    3.25    1.97     7.30568   168.65993   -18.40026
   797  C   4.0    0.02    4.26    4.13     8.47353   170.04888   -16.28188
   798  C   4.0    0.15    3.37    3.07     9.94941   168.15915   -14.65482
   799  O   6.0   -0.31    1.22    1.80    10.76388   168.73363   -12.55156
   800  C   4.0   -0.05    4.19    3.98     6.58947   171.64192   -14.69262
   801  C   4.0   -0.03    4.12    3.84     7.83858   173.63747   -12.86336
   802  C   4.0    0.15    3.15    3.03     5.99421   175.56688   -11.58024
   803  O   6.0   -0.31    1.23    1.80     6.61782   176.72717    -9.66406
   804  N   5.0   -0.19    3.16    1.95     3.73221   175.91459   -12.69896
   805  H   1.0    0.08    1.02    1.43     5.38572   168.81111   -18.49853
   806  H   1.0    0.04    1.06    1.44     9.75288   171.46995   -17.04911
   807  H   1.0    0.03    1.03    1.43     5.36115   172.67560   -15.98330
   808  H   1.0    0.05    1.02    1.43     5.47076   170.35879   -13.53233
   809  H   1.0    0.06    1.03    1.43     8.79289   172.61513   -11.35158
   810  H   1.0    0.06    1.02    1.43     9.20674   174.73351   -13.94429
   811  H   1.0    0.07    1.03    1.43     3.29190   174.94327   -14.30334
   812  H   1.0    0.09    1.02    1.43     2.46231   177.15047   -11.94118
   813  N   5.0   -0.14    3.49    2.07    10.30279   165.90282   -15.71685
   814  C   4.0    0.03    4.25    4.10    11.70685   163.85436   -14.53010
   815  C   4.0    0.07    3.27    3.05    14.42806   163.85625   -15.42961
   816  O   6.0   -0.29    1.19    1.80    16.16283   163.84113   -13.87437
   817  C   4.0   -0.07    4.10    3.81    10.46152   161.31268   -15.06301
   818  H   1.0    0.09    1.09    1.44     9.61493   165.42850   -17.45351
   819  H   1.0    0.06    1.06    1.44    11.67662   164.08301   -12.48353
   820  H   1.0    0.04    1.00    1.43    11.55567   159.82546   -14.15027
   821  H   1.0    0.05    1.00    1.43     8.54345   161.33535   -14.31278
   822  H   1.0    0.05    1.00    1.43    10.41617   161.00276   -17.09824
   823  N   5.0   -0.19    3.31    1.99    17.64815   167.73963   -16.56534
   824  C   4.0    0.03    4.32    4.23    18.87080   169.76542   -15.24253
   825  C   4.0    0.15    3.43    3.09    20.39770   168.77898   -13.01832
   826  O   6.0   -0.31    1.25    1.80    22.67671   169.31756   -12.86147
   827  C   4.0   -0.04    4.25    4.10    16.95840   171.80254   -14.47530
   828  C   4.0   -0.04    4.14    3.89    16.24408   173.59778   -16.67872
   829  C   4.0    0.23    3.09    3.02    14.80978   175.99774   -15.85669
   830  O   6.0   -0.31    1.16    1.80    14.44129   177.67392   -17.51209
   831  O   6.0   -0.30    1.17    1.80    14.04633   176.23584   -13.60225
   832  H   1.0    0.08    1.05    1.44    15.73953   167.96451   -16.71085
   833  H   1.0    0.04    1.07    1.44    20.19928   170.68950   -16.51620
   834  H   1.0    0.06    1.03    1.43    15.23497   170.88603   -13.81957
   835  H   1.0    0.05    1.03    1.43    17.76909   172.94394   -12.96352
   836  H   1.0    0.04    1.03    1.43    17.97318   174.19872   -17.62547
   837  H   1.0    0.04    1.03    1.43    15.03844   172.57355   -17.99775
   838  N   5.0   -0.13    3.44    2.04    19.25442   167.23886   -11.38182
   839  C   4.0    0.04    4.45    4.47    20.72462   166.41305    -9.21997
   840  C   4.0    0.15    3.40    3.08    22.14192   163.89404    -9.39761
   841  O   6.0   -0.31    1.27    1.80    21.82822   162.38037   -11.13993
   842  C   4.0    0.03    4.16    3.93    19.21095   166.64170    -6.78979
   843  O   6.0   -0.26    2.15    1.85    20.83423   166.34313    -4.69786
   844  H   1.0    0.10    1.07    1.44    17.44406   166.58690   -11.50654
   845  H   1.0    0.06    1.11    1.45    22.30066   167.73963    -9.18407
   846  H   1.0    0.04    1.02    1.43    18.32845   168.50119    -6.70853
   847  H   1.0    0.04    1.03    1.43    17.76531   165.17528    -6.74632
   848  H   1.0    0.15    1.21    1.47    20.30888   164.88048    -3.69252
   849  N   5.0   -0.13    3.63    2.18    23.76141   163.52932    -7.53434
   850  C   4.0    0.03    4.53    4.58    25.36201   161.34858    -7.39261
   851  C   4.0    0.16    3.61    3.17    23.79543   159.36248    -6.12838
   852  O   6.0   -0.32    1.73    1.81    22.69939   159.85759    -4.15929
   853  C   4.0    0.04    4.29    4.17    27.61079   161.89471    -5.67296
   854  O   6.0   -0.26    2.19    1.86    26.72261   162.22352    -3.13317
   855  C   4.0   -0.08    4.11    3.83    28.95438   164.29655    -6.49877
   856  H   1.0    0.09    1.10    1.44    24.00141   164.75387    -6.06413
   857  H   1.0    0.04    1.05    1.44    26.04798   160.77599    -9.24832
   858  H   1.0    0.03    1.04    1.43    28.94682   160.33002    -5.76366
   859  H   1.0    0.10    1.02    1.43    27.86779   163.34224    -2.20153
   860  H   1.0    0.03    1.00    1.43    30.55687   164.66883    -5.25911
   861  H   1.0    0.03    1.00    1.43    29.63657   164.09246    -8.43196
   862  H   1.0    0.04    1.00    1.43    27.65803   165.89526    -6.41373
   863  N   5.0   -0.15    3.46    2.05    23.67638   157.10048    -7.21308
   864  C   4.0    0.02    4.33    4.26    22.26853   155.09548    -5.95075
   865  C   4.0    0.16    3.62    3.18    23.03009   155.17485    -3.16151
   866  O   6.0   -0.30    1.56    1.80    21.38792   155.29012    -1.54202
   867  C   4.0   -0.06    4.22    4.04    23.48551   152.38561    -7.15261
   868  C   4.0   -0.02    4.19    3.98    22.14381   150.34849    -5.64083
   869  C   4.0   -0.08    4.12    3.84    21.16493   148.41341    -7.54379
   870  C   4.0   -0.08    4.05    3.70    23.91637   148.91796    -3.69252
   871  H   1.0    0.07    1.05    1.44    24.49652   156.61671    -8.88927
   872  H   1.0    0.04    1.04    1.43    20.22763   155.23532    -6.19263
   873  H   1.0    0.04    1.02    1.43    23.05655   152.19853    -9.15761
   874  H   1.0    0.03    1.01    1.43    25.52075   152.28546    -6.85593
   875  H   1.0    0.04    1.07    1.44    20.65470   151.23477    -4.52778
   876  H   1.0    0.04    1.00    1.43    20.18605   146.91107    -6.52900
   877  H   1.0    0.04    1.00    1.43    19.86669   149.34693    -8.84203
   878  H   1.0    0.04    1.00    1.43    22.75986   147.63106    -8.58691
   879  H   1.0    0.04    0.99    1.43    22.80710   147.49689    -2.69475
   880  H   1.0    0.03    0.99    1.43    25.45272   148.01278    -4.72243
   881  H   1.0    0.04    1.00    1.43    24.67793   150.28235    -2.35082
   882  N   5.0   -0.14    3.48    2.07    25.49240   155.16540    -2.60593
   883  C   4.0    0.03    4.39    4.36    26.38246   155.70775    -0.04346
   884  C   4.0    0.18    3.61    3.17    24.19794   156.81702     1.49855
   885  O   6.0   -0.28    1.23    1.80    23.18883   155.59814     3.22198
   886  C   4.0   -0.05    4.27    4.13    28.66525   157.51622    -0.18519
   887  C   4.0   -0.03    4.22    4.04    28.96005   159.45319     1.94642
   888  C   4.0    0.24    3.13    3.03    29.99184   158.32502     4.35960
   889  O   6.0   -0.30    1.17    1.80    32.33321   158.03778     4.58636
   890  O   6.0   -0.27    1.18    1.80    28.44793   157.75243     6.04523
   891  H   1.0    0.06    1.05    1.44    26.89647   154.79312    -3.87205
   892  H   1.0    0.05    1.05    1.44    27.02119   154.00133     0.91841
   893  H   1.0    0.04    1.03    1.43    30.37923   156.37293    -0.19275
   894  H   1.0    0.05    1.05    1.44    28.52163   158.58013    -1.94264
   895  H   1.0    0.04    1.03    1.43    30.25829   160.92906     1.33226
   896  H   1.0    0.05    1.06    1.44    27.11568   160.26766     2.36783
   897  N   5.0   -0.13    3.67    2.24    23.43071   159.09792     0.76912
   898  C   4.0    0.04    4.54    4.60    21.46918   160.49631     2.05224
   899  C   4.0    0.18    3.61    3.18    19.05600   159.15650     1.55902
   900  O   6.0   -0.31    1.55    1.80    17.86358   158.22864     3.28056
   901  C   4.0    0.05    4.31    4.22    21.18005   163.15327     0.96943
   902  O   6.0   -0.28    2.51    1.99    20.78888   162.98697    -1.70264
   903  C   4.0   -0.07    4.09    3.78    23.53465   164.71607     1.48721
   904  H   1.0    0.10    1.11    1.45    24.15826   160.04089    -0.74644
   905  H   1.0    0.07    1.06    1.44    21.94350   160.65316     4.04968
   906  H   1.0    0.05    1.04    1.43    19.57378   164.09246     1.85382
   907  H   1.0    0.17    1.24    1.48    22.14759   162.00054    -2.48121
   908  H   1.0    0.05    1.00    1.43    23.30977   166.60958     0.70676
   909  H   1.0    0.05    1.00    1.43    23.85023   164.86347     3.51678
   910  H   1.0    0.05    1.01    1.43    25.17682   163.82601     0.61794
   911  N   5.0   -0.12    3.72    2.30    18.35491   159.04312    -0.83904
   912  C   4.0    0.03    4.53    4.58    15.97007   157.96219    -1.59304
   913  C   4.0    0.17    3.64    3.19    15.53355   155.64728    -0.03024
   914  O   6.0   -0.32    1.48    1.80    13.88949   155.62082     1.58359
   915  C   4.0   -0.05    4.41    4.40    16.04188   157.34425    -4.37661
   916  C   4.0   -0.02    4.27    4.14    16.82423   159.71964    -5.82980
   917  C   4.0   -0.07    4.08    3.77    17.53288   159.22642    -8.59447
   918  C   4.0   -0.08    4.13    3.86    14.74931   161.70385    -5.62949
   919  H   1.0    0.11    1.16    1.45    19.41504   159.69318    -2.31113
   920  H   1.0    0.04    1.07    1.44    14.40727   159.27177    -1.30391
   921  H   1.0    0.04    1.04    1.43    17.41760   155.85137    -4.72998
   922  H   1.0    0.03    1.03    1.43    14.17672   156.74710    -5.01155
   923  H   1.0    0.06    1.10    1.44    18.54955   160.43395    -4.96053
   924  H   1.0    0.07    1.01    1.43    18.06011   161.01032    -9.48076
   925  H   1.0    0.05    1.00    1.43    19.12025   157.91495    -8.65683
   926  H   1.0    0.04    1.00    1.43    15.90960   158.41195    -9.56768
   927  H   1.0    0.04    1.01    1.43    15.32757   163.38571    -6.66884
   928  H   1.0    0.04    1.00    1.43    13.01265   160.94229    -6.43452
   929  H   1.0    0.04    1.01    1.43    14.45829   162.17061    -3.64528
   930  N   5.0   -0.13    3.58    2.14    17.10391   153.74621    -0.40629
   931  C   4.0    0.04    4.49    4.52    17.05667   151.49933     1.15651
   932  C   4.0    0.17    3.55    3.14    16.26109   152.12483     3.83236
   933  O   6.0   -0.30    1.24    1.80    14.63215   150.90596     4.93785
   934  C   4.0   -0.04    4.30    4.20    19.67961   150.25778     1.21509
   935  C   4.0   -0.03    4.19    3.99    19.63803   147.54791     2.13350
   936  C   4.0    0.23    3.17    3.03    17.48374   146.06637     0.92975
   937  O   6.0   -0.34    1.28    1.80    17.92594   144.92497    -1.10927
   938  O   6.0   -0.30    1.17    1.80    15.34646   146.07582     2.01445
   939  H   1.0    0.10    1.12    1.45    18.44373   153.70464    -1.79146
   940  H   1.0    0.06    1.07    1.44    15.69795   150.17652     0.35338
   941  H   1.0    0.05    1.04    1.43    20.46195   150.26723    -0.68975
   942  H   1.0    0.06    1.03    1.43    20.89659   151.33492     2.48121
   943  H   1.0    0.04    1.03    1.43    21.41437   146.63140     1.63650
   944  H   1.0    0.06    1.03    1.43    19.38103   147.52335     4.17629
   945  N   5.0   -0.12    3.69    2.26    17.44028   154.07125     4.85093
   946  C   4.0    0.05    4.49    4.52    17.19084   154.66651     7.49087
   947  C   4.0    0.16    3.58    3.15    14.72663   155.95530     8.03700
   948  O   6.0   -0.33    1.33    1.80    13.80256   155.82302    10.12137
   949  C   4.0   -0.03    4.33    4.26    19.42827   156.28412     8.32424
   950  C   4.0   -0.02    4.27    4.15    18.77821   158.43084    10.05523
   951  C   4.0    0.25    3.15    3.03    20.15582   160.81190     9.29745
   952  O   6.0   -0.27    1.16    1.80    22.39892   161.11992    10.03444
   953  O   6.0   -0.27    1.17    1.80    18.98419   162.36903     7.93874
   954  H   1.0    0.13    1.18    1.46    18.59112   155.27689     3.88339
   955  H   1.0    0.06    1.07    1.44    17.23430   152.93741     8.60959
   956  H   1.0    0.06    1.03    1.43    20.77187   155.07658     9.31635
   957  H   1.0    0.08    1.06    1.44    20.31077   157.08914     6.64617
   958  H   1.0    0.07    1.08    1.44    16.75242   158.79367     9.96641
   959  H   1.0    0.06    1.03    1.43    19.32434   157.94707    11.98086
   960  N   5.0   -0.13    3.61    2.17    13.64382   157.20252     6.18129
   961  C   4.0    0.04    4.50    4.54    11.34780   158.54990     6.71609
   962  C   4.0    0.15    3.51    3.12     9.02722   156.92284     6.34192
   963  O   6.0   -0.32    1.32    1.80     7.07324   157.37449     7.48709
   964  C   4.0   -0.04    4.40    4.37    11.19285   160.98008     5.21375
   965  C   4.0   -0.04    4.09    3.78    10.48420   160.68151     2.47743
   966  S   6.0   -0.05    2.49    3.10    10.40294   163.72586     0.90707
   967  C   4.0   -0.06    3.88    3.43    13.68917   164.62915     0.87683
   968  H   1.0    0.13    1.15    1.45    14.28822   157.30835     4.36716
   969  H   1.0    0.06    1.08    1.44    11.37615   159.15272     8.68518
   970  H   1.0    0.06    1.05    1.44     9.77366   162.19140     6.08681
   971  H   1.0    0.06    1.05    1.44    13.03533   161.89849     5.27423
   972  H   1.0    0.05    1.07    1.44    11.87693   159.49287     1.53257
   973  H   1.0    0.04    1.07    1.44     8.61715   159.82357     2.33948
   974  H   1.0    0.04    1.04    1.43    13.87248   166.46596    -0.03968
   975  H   1.0    0.05    1.04    1.43    14.37137   164.74064     2.81758
   976  H   1.0    0.04    1.04    1.43    14.76443   163.21374    -0.16441
   977  N   5.0   -0.14    3.59    2.15     9.24454   155.02745     4.73754
   978  C   4.0    0.03    4.50    4.53     7.32647   153.12071     4.62794
   979  C   4.0    0.16    3.69    3.23     7.21686   152.00200     7.21686
   980  O   6.0   -0.31    1.50    1.80     5.21753   151.88483     8.29779
   981  C   4.0   -0.05    4.40    4.37     8.02567   151.09304     2.74388
   982  C   4.0   -0.02    4.20    3.99     7.21497   148.38884     3.36938
   983  C   4.0   -0.07    4.05    3.71     4.49566   147.73311     2.45853
   984  C   4.0   -0.05    4.06    3.73     9.22375   146.51801     2.32247
   985  H   1.0    0.10    1.09    1.44    10.71097   154.77422     3.51111
   986  H   1.0    0.04    1.06    1.44     5.51800   153.89928     4.02134
   987  H   1.0    0.03    1.04    1.43     7.16017   151.57870     0.93919
   988  H   1.0    0.06    1.05    1.44    10.07791   151.07792     2.56058
   989  H   1.0    0.06    1.09    1.44     7.11671   148.19231     5.41784
   990  H   1.0    0.07    1.01    1.43     4.06669   145.78480     2.97443
   991  H   1.0    0.04    1.00    1.43     3.15773   149.01056     3.36560
   992  H   1.0    0.04    1.00    1.43     4.40117   147.95609     0.41385
   993  H   1.0    0.07    1.00    1.43     8.64361   144.59238     2.77034
   994  H   1.0    0.05    1.00    1.43     9.35981   146.75423     0.28157
   995  H   1.0    0.07    1.00    1.43    11.04167   146.92619     3.19931
   996  N   5.0   -0.14    3.57    2.13     9.38438   151.22532     8.22598
   997  C   4.0    0.03    4.45    4.47     9.51099   150.24077    10.78845
   998  C   4.0    0.17    3.66    3.21     7.56646   151.71476    12.21708
   999  O   6.0   -0.30    1.34    1.80     5.63894   150.71698    13.03155
  1000  C   4.0   -0.04    4.35    4.29    12.06968   150.77367    12.02811
  1001  C   4.0   -0.03    4.15    3.90    14.35436   149.36016    11.01521
  1002  C   4.0    0.25    3.10    3.02    16.38581   148.95198    13.08635
[...]
1324   8 O     -0.506  1.748  4.758  0.000    23.909     6.556
1325   6 C     -0.048  1.044  3.004  0.000    21.421     6.587
1326   6 C     -0.083  1.059  3.024  0.000    22.081     6.691
1327   6 C      0.359  1.033  2.608  0.000    20.910     7.483
1328   8 O     -0.646  1.782  4.864  0.000    27.283     7.003
1329   8 O     -0.627  1.753  4.873  0.000    26.783     6.939
1330   1 H      0.207  0.793  0.000  0.000     1.071     1.622
1331   1 H      0.031  0.969  0.000  0.000     2.578     2.511
1332   1 H      0.062  0.938  0.000  0.000     2.177     2.307
1333   1 H      0.013  0.987  0.000  0.000     2.838     2.634
1334   1 H      0.013  0.987  0.000  0.000     2.842     2.636
1335   1 H      0.030  0.970  0.000  0.000     2.592     2.518
1336   7 N     -0.173  1.239  3.934  0.000    24.738     7.387
1337   6 C      0.035  1.050  2.915  0.000    19.994     6.368
1338   6 C      0.212  1.090  2.698  0.000    23.506     7.940
1339   8 O     -0.359  1.744  4.615  0.000    20.882     6.127
1340   6 C     -0.096  1.061  3.034  0.000    22.321     6.726
1341   6 C     -0.078  1.052  3.026  0.000    21.986     6.676
1342   6 C     -0.087  1.056  3.031  0.000    22.156     6.702
1343   6 C     -0.024  1.050  2.974  0.000    21.103     6.558
1344   7 N     -0.139  1.234  3.904  0.000    23.990     7.275
1345   1 H      0.208  0.792  0.000  0.000     1.065     1.617
1346   1 H      0.059  0.941  0.000  0.000     2.207     2.323
1347   1 H      0.106  0.894  0.000  0.000     1.734     2.059
1348   1 H      0.083  0.917  0.000  0.000     1.950     2.184
1349   1 H      0.042  0.958  0.000  0.000     2.424     2.435
1350   1 H      0.042  0.958  0.000  0.000     2.427     2.436
1351   1 H      0.096  0.904  0.000  0.000     1.825     2.113
1352   1 H      0.086  0.914  0.000  0.000     1.916     2.165
1353   1 H      0.081  0.919  0.000  0.000     1.966     2.193
1354   1 H      0.114  0.886  0.000  0.000     1.667     2.019
1355   1 H      0.271  0.729  0.000  0.000     0.806     1.407
1356   1 H      0.310  0.690  0.000  0.000     0.685     1.297
1357   1 H      0.266  0.734  0.000  0.000     0.824     1.422
1358   7 N     -0.411  1.328  4.083  0.000    30.680     8.226
1359   6 C      0.056  1.047  2.897  0.000    19.652     6.314
1360   6 C      0.282  1.044  2.674  0.000    22.231     7.723
1361   8 O     -0.530  1.765  4.765  0.000    24.449     6.629
1362   6 C     -0.045  1.054  2.990  0.000    21.369     6.581
1363   6 C     -0.070  1.060  3.010  0.000    21.847     6.655
1364   6 C      0.372  1.026  2.602  0.000    20.697     7.445
1365   8 O     -0.657  1.795  4.862  0.000    27.563     7.039
1366   8 O     -0.644  1.753  4.891  0.000    27.223     6.995
1367   1 H      0.188  0.812  0.000  0.000     1.172     1.696
1368   1 H      0.004  0.996  0.000  0.000     2.984     2.701
1369   1 H      0.042  0.958  0.000  0.000     2.422     2.434
1370   1 H      0.034  0.966  0.000  0.000     2.535     2.490
1371   1 H      0.009  0.991  0.000  0.000     2.903     2.664
1372   1 H     -0.027  1.027  0.000  0.000     3.581     2.959
1373   7 N     -0.182  1.247  3.935  0.000    24.940     7.417
1374   6 C      0.045  1.047  2.908  0.000    19.796     6.330
1375   6 C      0.281  1.038  2.681  0.000    22.239     7.724
1376   8 O     -0.475  1.737  4.738  0.000    23.237     6.463
1377   6 C     -0.008  1.048  2.960  0.000    20.673     6.466
1378   6 C     -0.102  1.036  3.066  0.000    22.488     6.760
1379   6 C     -0.138  1.043  3.095  0.000    23.208     6.867
1380   1 H      0.232  0.768  0.000  0.000     0.957     1.532
1381   1 H      0.030  0.970  0.000  0.000     2.579     2.512
1382   1 H      0.016  0.984  0.000  0.000     2.794     2.614
1383   1 H      0.031  0.969  0.000  0.000     2.568     2.506
1384   1 H      0.012  0.988  0.000  0.000     2.857     2.643
1385   1 H      0.062  0.938  0.000  0.000     2.176     2.307
1386   1 H      0.036  0.964  0.000  0.000     2.500     2.472
1387   1 H      0.083  0.917  0.000  0.000     1.953     2.185
1388   1 H      0.049  0.951  0.000  0.000     2.338     2.391
1389   7 N     -0.176  1.245  3.931  0.000    24.810     7.398
1390   6 C      0.028  1.052  2.920  0.000    20.078     6.376
1391   6 C      0.216  1.078  2.706  0.000    23.437     7.929
1392   8 O     -0.345  1.742  4.603  0.000    20.613     6.087
1393   6 C     -0.028  1.052  2.976  0.000    21.037     6.523
1394   6 C     -0.127  1.044  3.083  0.000    22.980     6.834
1395   6 C     -0.125  1.043  3.082  0.000    22.942     6.827
1396   1 H      0.232  0.768  0.000  0.000     0.955     1.531
1397   1 H      0.074  0.926  0.000  0.000     2.047     2.238
1398   1 H      0.059  0.941  0.000  0.000     2.211     2.325
1399   1 H      0.083  0.917  0.000  0.000     1.944     2.180
1400   1 H      0.049  0.951  0.000  0.000     2.330     2.387
1401   1 H      0.056  0.944  0.000  0.000     2.245     2.343
1402   1 H      0.077  0.923  0.000  0.000     2.012     2.218
1403   1 H      0.053  0.947  0.000  0.000     2.283     2.363
1404   1 H      0.037  0.963  0.000  0.000     2.496     2.470
1405   7 N     -0.381  1.305  4.075  0.000    29.837     8.113
1406   6 C      0.052  1.043  2.905  0.000    19.701     6.319
1407   6 C      0.269  1.042  2.689  0.000    22.465     7.762
1408   8 O     -0.498  1.740  4.758  0.000    23.735     6.532
1409   6 C     -0.081  1.049  3.031  0.000    22.014     6.676
1410   6 C      0.300  1.025  2.675  0.000    21.914     7.666
1411   8 O     -0.522  1.762  4.760  0.000    24.282     6.607
1412   7 N     -0.266  1.262  4.003  0.000    26.882     7.700
1413   1 H      0.141  0.859  0.000  0.000     1.464     1.895
1414   1 H      0.047  0.953  0.000  0.000     2.352     2.398
1415   1 H      0.055  0.945  0.000  0.000     2.265     2.353
1416   1 H      0.050  0.950  0.000  0.000     2.324     2.384
1417   1 H      0.221  0.779  0.000  0.000     1.004     1.570
1418   1 H      0.216  0.784  0.000  0.000     1.028     1.589
1419   7 N     -0.174  1.251  3.923  0.000    24.766     7.391
1420   6 C      0.035  1.054  2.911  0.000    19.989     6.366
1421   6 C      0.214  1.082  2.704  0.000    23.474     7.935
1422   8 O     -0.367  1.740  4.627  0.000    21.027     6.148
1423   6 C     -0.071  1.050  3.020  0.000    21.843     6.652
1424   6 C     -0.079  1.055  3.024  0.000    21.997     6.677
1425   6 C      0.363  1.026  2.611  0.000    20.842     7.472
1426   8 O     -0.631  1.748  4.883  0.000    26.885     6.952
1427   8 O     -0.665  1.782  4.882  0.000    27.771     7.065
1428   1 H      0.238  0.762  0.000  0.000     0.930     1.511
1429   1 H      0.064  0.936  0.000  0.000     2.152     2.294
1430   1 H      0.102  0.898  0.000  0.000     1.768     2.079
1431   1 H      0.042  0.958  0.000  0.000     2.421     2.433
1432   1 H      0.003  0.997  0.000  0.000     3.000     2.709
1433   1 H      0.006  0.994  0.000  0.000     2.960     2.691
1434   7 N     -0.388  1.322  4.066  0.000    30.033     8.139
1435   6 C      0.023  1.053  2.923  0.000    20.191     6.399
1436   6 C      0.274  1.040  2.686  0.000    22.367     7.745
1437   8 O     -0.512  1.770  4.742  0.000    24.051     6.575
1438   6 C     -0.108  1.063  3.045  0.000    22.551     6.759
1439   6 C      0.289  1.033  2.679  0.000    22.109     7.699
1440   8 O     -0.529  1.779  4.750  0.000    24.434     6.627
1441   7 N     -0.272  1.258  4.014  0.000    27.043     7.723
1442   1 H      0.190  0.810  0.000  0.000     1.159     1.686
1443   1 H      0.053  0.947  0.000  0.000     2.286     2.364
1444   1 H      0.101  0.899  0.000  0.000     1.777     2.084
1445   1 H      0.067  0.933  0.000  0.000     2.119     2.277
1446   1 H      0.211  0.789  0.000  0.000     1.053     1.607
1447   1 H      0.232  0.768  0.000  0.000     0.958     1.533
1448   7 N     -0.169  1.237  3.931  0.000    24.654     7.374
1449   6 C      0.020  1.038  2.942  0.000    20.217     6.398
1450   6 C      0.266  1.032  2.702  0.000    22.511     7.771
1451   8 O     -0.456  1.711  4.745  0.000    22.820     6.405
1452   6 C     -0.111  1.055  3.056  0.000    22.608     6.767
1453   6 C      0.290  1.025  2.684  0.000    22.076     7.693
1454   8 O     -0.532  1.789  4.743  0.000    24.513     6.638
1455   7 N     -0.285  1.269  4.016  0.000    27.351     7.767
1456   1 H      0.248  0.752  0.000  0.000     0.892     1.479
1457   1 H      0.079  0.921  0.000  0.000     1.986     2.204
1458   1 H      0.122  0.878  0.000  0.000     1.600     1.978
1459   1 H      0.083  0.917  0.000  0.000     1.948     2.182
1460   1 H      0.236  0.764  0.000  0.000     0.939     1.518
1461   1 H      0.254  0.746  0.000  0.000     0.869     1.460
1462   7 N     -0.158  1.245  3.913  0.000    24.421     7.340
1463   6 C     -0.003  1.069  2.934  0.000    20.636     6.467
1464   6 C      0.275  1.040  2.685  0.000    22.351     7.742
1465   8 O     -0.444  1.735  4.709  0.000    22.576     6.370
1466   6 C     -0.029  1.067  2.962  0.000    21.061     6.527
1467   6 C     -0.072  1.046  3.026  0.000    21.860     6.655
1468   6 C     -0.101  1.037  3.064  0.000    22.476     6.759
1469   6 C     -0.158  1.044  3.114  0.000    23.621     6.930
1470   1 H      0.207  0.793  0.000  0.000     1.070     1.620
1471   1 H      0.089  0.911  0.000  0.000     1.887     2.148
1472   1 H      0.049  0.951  0.000  0.000     2.328     2.386
1473   1 H      0.046  0.954  0.000  0.000     2.376     2.410
1474   1 H      0.045  0.955  0.000  0.000     2.387     2.416
1475   1 H      0.036  0.964  0.000  0.000     2.505     2.475
1476   1 H      0.048  0.952  0.000  0.000     2.341     2.393
1477   1 H      0.035  0.965  0.000  0.000     2.512     2.478
1478   1 H      0.094  0.906  0.000  0.000     1.843     2.123
1479   1 H      0.062  0.938  0.000  0.000     2.177     2.307
1480   1 H      0.023  0.977  0.000  0.000     2.684     2.562
1481   7 N     -0.176  1.240  3.936  0.000    24.799     7.396
1482   6 C     -0.000  1.062  2.938  0.000    20.572     6.456
1483   6 C      0.285  1.024  2.691  0.000    22.183     7.714
1484   8 O     -0.463  1.743  4.721  0.000    22.984     6.428
1485   6 C     -0.103  1.059  3.044  0.000    22.458     6.745
1486   6 C     -0.093  1.051  3.042  0.000    22.281     6.720
1487   6 C     -0.046  1.063  2.983  0.000    21.485     6.615
1488   7 N     -0.147  1.210  3.937  0.000    24.179     7.303
1489   6 C      0.227  1.023  2.750  0.000    23.226     7.890
1490   7 N     -0.232  1.223  4.009  0.000    26.082     7.585
1491   7 N     -0.226  1.231  3.995  0.000    25.947     7.565
1492   1 H      0.194  0.806  0.000  0.000     1.138     1.671
1493   1 H      0.086  0.914  0.000  0.000     1.914     2.163
1494   1 H      0.082  0.918  0.000  0.000     1.957     2.188
1495   1 H      0.118  0.882  0.000  0.000     1.627     1.995
1496   1 H      0.046  0.954  0.000  0.000     2.370     2.408
1497   1 H      0.094  0.906  0.000  0.000     1.845     2.124
1498   1 H      0.121  0.879  0.000  0.000     1.606     1.982
1499   1 H      0.084  0.916  0.000  0.000     1.938     2.177
1500   1 H      0.209  0.791  0.000  0.000     1.062     1.615
1501   1 H      0.268  0.732  0.000  0.000     0.817     1.416
1502   1 H      0.215  0.785  0.000  0.000     1.032     1.591
1503   1 H      0.219  0.781  0.000  0.000     1.016     1.579
1504   1 H      0.233  0.767  0.000  0.000     0.952     1.529
1505   7 N     -0.180  1.232  3.948  0.000    24.898     7.411
1506   6 C     -0.003  1.063  2.940  0.000    20.628     6.466
1507   6 C      0.287  1.025  2.688  0.000    22.145     7.708
1508   8 O     -0.491  1.740  4.751  0.000    23.591     6.512
1509   6 C      0.099  1.052  2.849  0.000    19.027     6.226
1510   8 O     -0.522  1.729  4.793  0.000    23.369     6.526
1511   6 C     -0.151  1.054  3.097  0.000    23.494     6.913
1512   1 H      0.204  0.796  0.000  0.000     1.086     1.632
1513   1 H      0.090  0.910  0.000  0.000     1.878     2.143
1514   1 H      0.075  0.925  0.000  0.000     2.036     2.231
1515   1 H      0.337  0.663  0.000  0.000     0.620     1.236
1516   1 H      0.079  0.921  0.000  0.000     1.990     2.206
1517   1 H      0.082  0.918  0.000  0.000     1.963     2.191
1518   1 H      0.042  0.958  0.000  0.000     2.420     2.433
1519   7 N     -0.176  1.241  3.934  0.000    24.799     7.396
1520   6 C      0.016  1.054  2.930  0.000    20.295     6.411
1521   6 C      0.281  1.033  2.685  0.000    22.235     7.723
1522   8 O     -0.496  1.753  4.742  0.000    23.687     6.525
1523   6 C     -0.091  1.062  3.029  0.000    22.224     6.710
1524   6 C     -0.014  1.051  2.963  0.000    20.794     6.486
1525   6 C     -0.129  1.046  3.083  0.000    23.032     6.842
1526   6 C     -0.123  1.044  3.079  0.000    22.904     6.823
1527   1 H      0.231  0.769  0.000  0.000     0.962     1.537
1528   1 H      0.094  0.906  0.000  0.000     1.845     2.124
1529   1 H      0.064  0.936  0.000  0.000     2.151     2.294
1530   1 H      0.034  0.966  0.000  0.000     2.530     2.488
1531   1 H      0.017  0.983  0.000  0.000     2.780     2.608
1532   1 H      0.053  0.947  0.000  0.000     2.283     2.363
1533   1 H      0.048  0.952  0.000  0.000     2.340     2.392
1534   1 H      0.062  0.938  0.000  0.000     2.177     2.307
1535   1 H      0.050  0.950  0.000  0.000     2.319     2.381
1536   1 H      0.060  0.940  0.000  0.000     2.195     2.317
1537   1 H      0.020  0.980  0.000  0.000     2.739     2.588
1538   7 N     -0.190  1.245  3.944  0.000    25.109     7.442
1539   6 C      0.020  1.053  2.927  0.000    20.229     6.403
1540   6 C      0.297  1.029  2.674  0.000    21.961     7.675
1541   8 O     -0.510  1.749  4.761  0.000    24.000     6.568
1542   6 C     -0.094  1.059  3.035  0.000    22.278     6.716
1543   6 C     -0.078  1.047  3.030  0.000    21.977     6.674
1544   6 C     -0.029  1.058  2.971  0.000    21.156     6.561
1545   7 N     -0.167  1.231  3.936  0.000    24.603     7.367
1546   6 C      0.238  1.016  2.746  0.000    23.022     7.856
1547   7 N     -0.250  1.228  4.022  0.000    26.501     7.646
1548   7 N     -0.235  1.227  4.008  0.000    26.160     7.596
1549   1 H      0.226  0.774  0.000  0.000     0.983     1.553
1550   1 H      0.054  0.946  0.000  0.000     2.271     2.357
1551   1 H      0.081  0.919  0.000  0.000     1.966     2.193
1552   1 H      0.087  0.913  0.000  0.000     1.910     2.161
1553   1 H      0.073  0.927  0.000  0.000     2.049     2.238
1554   1 H      0.055  0.945  0.000  0.000     2.257     2.349
1555   1 H      0.098  0.902  0.000  0.000     1.805     2.101
1556   1 H      0.089  0.911  0.000  0.000     1.891     2.151
1557   1 H      0.251  0.749  0.000  0.000     0.881     1.470
1558   1 H      0.268  0.732  0.000  0.000     0.817     1.416
1559   1 H      0.224  0.776  0.000  0.000     0.991     1.559
1560   1 H      0.208  0.792  0.000  0.000     1.066     1.617
1561   1 H      0.217  0.783  0.000  0.000     1.022     1.583
1562   7 N     -0.159  1.237  3.922  0.000    24.432     7.341
1563   6 C      0.032  1.054  2.914  0.000    20.048     6.377
1564   6 C      0.210  1.093  2.698  0.000    23.555     7.948
1565   8 O     -0.363  1.761  4.603  0.000    20.963     6.138
1566   6 C     -0.148  1.049  3.100  0.000    23.425     6.901
1567   1 H      0.212  0.788  0.000  0.000     1.046     1.602
1568   1 H      0.074  0.926  0.000  0.000     2.044     2.236
1569   1 H      0.075  0.925  0.000  0.000     2.035     2.231
1570   1 H      0.075  0.925  0.000  0.000     2.031     2.229
1571   1 H      0.088  0.912  0.000  0.000     1.895     2.153
1572   7 N     -0.378  1.312  4.067  0.000    29.779     8.105
1573   6 C      0.034  1.056  2.910  0.000    20.012     6.372
1574   6 C      0.200  1.090  2.709  0.000    23.739     7.979
1575   8 O     -0.350  1.747  4.603  0.000    20.709     6.101
1576   6 C     -0.054  1.052  3.002  0.000    21.536     6.606
1577   6 C     -0.095  1.068  3.026  0.000    22.306     6.724
1578   6 C      0.371  1.018  2.611  0.000    20.710     7.448
1579   8 O     -0.682  1.787  4.896  0.000    28.235     7.124
1580   8 O     -0.653  1.778  4.875  0.000    27.460     7.026
1581   1 H      0.149  0.851  0.000  0.000     1.407     1.858
1582   1 H      0.061  0.939  0.000  0.000     2.183     2.311
1583   1 H      0.024  0.976  0.000  0.000     2.672     2.556
1584   1 H      0.041  0.959  0.000  0.000     2.440     2.443
1585   1 H      0.041  0.959  0.000  0.000     2.440     2.443
1586   1 H      0.035  0.965  0.000  0.000     2.520     2.483
1587   1 H      0.109  0.891  0.000  0.000     1.704     2.041
1588   1 H      0.188  0.812  0.000  0.000     1.168     1.693
1589   1 H      0.085  0.915  0.000  0.000     1.926     2.170
1590   1 H      0.175  0.825  0.000  0.000     1.240     1.744
1591   1 H      0.071  0.929  0.000  0.000     2.074     2.252
1592   1 H      0.113  0.887  0.000  0.000     1.671     2.021
1593   1 H      0.184  0.816  0.000  0.000     1.190     1.709
1594   1 H      0.069  0.931  0.000  0.000     2.094     2.263
1595   1 H      0.194  0.806  0.000  0.000     1.138     1.671
1596   1 H      0.059  0.941  0.000  0.000     2.212     2.326
1597   1 H      0.181  0.819  0.000  0.000     1.210     1.723
1598   1 H      0.089  0.911  0.000  0.000     1.889     2.149
1599   1 H      0.191  0.809  0.000  0.000     1.154     1.682
1600   1 H      0.092  0.908  0.000  0.000     1.856     2.130
1601   1 H      0.175  0.825  0.000  0.000     1.245     1.748
1602   1 H      0.109  0.891  0.000  0.000     1.709     2.044
1603   1 H      0.192  0.808  0.000  0.000     1.147     1.678
1604   1 H      0.068  0.932  0.000  0.000     2.112     2.272
1605   1 H      0.182  0.818  0.000  0.000     1.200     1.716
1606   1 H      0.079  0.921  0.000  0.000     1.992     2.207
1607   1 H      0.201  0.799  0.000  0.000     1.100     1.642
1608   1 H      0.086  0.914  0.000  0.000     1.916     2.165
1609   1 H      0.192  0.808  0.000  0.000     1.149     1.679
1610   1 H      0.073  0.927  0.000  0.000     2.047     2.237

 Mol. C6AA /au·bohr⁶  :   23664646.892630
 Mol. C8AA /au·bohr⁸  :  524056791.318190
 Mol. α(0) /au        :       7229.219349

 
molecular dipole:
                 x           y           z       tot (Debye)
 q only:      -47.366    -741.121     -81.140
   full:      -43.118    -742.801     -75.890    1901.042
molecular quadrupole (traceless):
                xx          xy          yy          xz          yz          zz
 q only:    44842.778  -12871.463  -84259.705    -254.858  -16125.642   39416.926
  q+dip:    44993.612  -11586.691  -84969.741     -33.694  -14890.466   39976.130
   full:    44990.597  -11586.360  -84961.278     -28.748  -14891.541   39970.681
speedup  1.22
cpu  time for grad   14 m 50.9 s
wall time for grad   12 m 12.3 s

SCC energy    :   -2539.3540111
rep           :      29.0407526
ES            :      11.8508343
AES           :      -0.7974414
AXC           :       0.7179328
disp          :      -2.3638280
XB            :       0.0000000
fix           :       0.0000000
Gborn         :       0.0000000
Gsasa         :       0.0000000
Ghb           :       0.0000000
Gshift        :       0.0000000
Gsolv         :      -4.4205948    -2773.97
Etot ala COSMO:   -2539.3540111
grad norm     :       0.9503371
total E       :   -2510.0292941
atomizationE  :     449.8028006   282255.52
(atE without considering molecular charge,
 total energy contains solvation terms)
H-L gap (eV)  :          0.6835

------------------------------------------------------------------------
 * finished run on 2019/05/04 at 20:35:10.643     
------------------------------------------------------------------------
 total:
 * wall-time:     0 d,  0 h, 12 min, 29.995 sec
 *  cpu-time:     0 d,  0 h, 15 min,  0.887 sec
 * ratio c/w:     1.201 speedup
 SCF:
 * wall-time:     0 d,  0 h, 12 min, 19.115 sec
 *  cpu-time:     0 d,  0 h, 14 min, 55.654 sec
 * ratio c/w:     1.212 speedup

