      -----------------------------------------------------------      
     |                   =====================                   |     
     |                           x T B                           |     
     |                   =====================                   |     
     |                         S. Grimme                         |     
     |          Mulliken Center for Theoretical Chemistry        |     
     |                    University of Bonn                     |     
     |                 Version 6.0.1 (SAW181210)                 |     
      -----------------------------------------------------------      

   This program is distributed in the hope that it will be useful,
   but WITHOUT ANY WARRANTY; without even the implied warranty of
   MERCHANTABILITY or FITNESS FOR A PARTICULAR PURPOSE.
   
   FOR NON-COMMERCIAL, ACADEMIA USE ONLY.
   
   Cite this work as:
   S. Grimme, C. Bannwarth, P. Shushkov, J. Comput. Theory Chem., 2017,
   13, 1989-2009.
   C. Bannwarth, S. Ehlert and S. Grimme., ChemRxiv, 2018, preprint.
   http://doi.org/10.26434/chemrxiv.7246238.v1
   
   for sTDA-xTB:
   S. Grimme and C. Bannwarth, J. Chem. Phys., 2016, 145, 054103.
   
   in the mass-spec context:
   V. Asgeirsson, C. Bauer and S. Grimme, Chem. Sci., 2017, 8, 4879.
   
   if GBSA is used:
   P. Shushkov, F. März and S. Grimme, unpublished.
   
   for ANC optimizer:
   S. Grimme, unpublished.
   Rational Function algorithm used in ANCopt:
   F. Eckert, P. Pulay, H.-J. Werner, J. Comput. Chem., 1997, 18, 1473.
   
   with help from (in alphabetical order)
   C. Bannwarth, F. Bohle, G. Brandenburg, E. Caldeweyher, M. Checinski,
   S. Dohm, S. Ehlert, S. Ehrlich, F. März, H. Neugebauer, J. Pisarek,
   P. Pracht, P. Shushkov, and S. Spicher.
   
 * started run on 2019/05/05 at 17:07:23.282     
========================================================================
 # omp threads = 2
========================================================================
number of atoms            : 264
number of electrons        : 748
charge                     : -3
spin                       : .0
first test random number   : .9148

########################################################################
# WARNING! Please study the warnings concerning your input carefully
#  - Process number higher than OMP_NUM_THREADS, I hope you know what you are doing.
########################################################################

           ------------------------------------------------- 
          |                 G F N 2 - x T B                 |
          | Geometry, Frequencies, Noncovalent interactions |
          |            JCTC 2018 parametrisation            |
           ------------------------------------------------- 
 
      method parameters     
 k(s)        :  1.8500
 k(p)        :  2.2300
 k(d)        :  2.2300
 k(f)        :  2.0000
 kEN (H0ij)  : -2.0000
 D4 a1       :  0.5200
 D4 a2       :  5.0000
 D4 s6       :  1.0000
 D4 s8       :  2.7000
 D4 s9       :  5.0000
 alphaj      :  2.0000

 Solvent             : h2o
 Using internal parameter file: .param_gbsa2_h2o
 Gsolv ref. state (COSMO-RS): gsolv [1 M gas/solution]
 temperature (mdtemp)       :    298.150000000000     
 dielectric constant        :    80.2000000000000     
 rho                        :    1.00000000000000     
 mass                       :    18.0000000000000     
 surface tension            :    15.5689454083859     
 probe radius               :   0.975313790000000     
 vdW radii scaling          :    1.00000000000000     
 Gshift (Eh)                :   1.857443126794793E-003
 c1                         :    1.55243817000000     
 soset                      :   0.130326360000000     
 HB correction              :  T

            Z     q(EN)     CN     RAES       Cart. coordinates
     1  N   5.0   -0.23    3.23    1.96    37.29516    35.97789    34.09671
     2  C   4.0    0.03    4.29    4.18    35.48071    35.53649    36.15030
     3  C   4.0    0.14    3.42    3.08    36.68927    33.94559    38.27195
     4  O   6.0   -0.32    1.34    1.80    35.38169    32.74981    39.78917
     5  C   4.0   -0.04    4.32    4.24    33.08692    34.20845    35.15626
     6  C   4.0   -0.02    3.54    3.13    31.50332    35.80943    33.43887
     7  C   4.0   -0.05    3.49    3.11    30.31768    37.95439    34.38497
     8  C   4.0   -0.06    3.44    3.09    31.34274    35.31393    30.86184
     9  C   4.0   -0.05    3.43    3.09    28.90065    39.55124    32.88076
    10  C   4.0   -0.06    3.43    3.09    29.67328    36.72568    29.40294
    11  C   4.0    0.06    3.44    3.09    28.45075    38.83980    30.38455
    12  O   6.0   -0.27    2.12    1.84    26.94422    40.37021    29.00018
    13  H   1.0    0.07    1.02    1.43    37.48625    34.58866    32.79517
    14  H   1.0    0.05    1.05    1.44    35.01583    37.38653    36.95484
    15  H   1.0    0.04    1.03    1.43    33.67614    32.49276    34.16901
    16  H   1.0    0.05    1.03    1.43    31.99266    33.65132    36.81512
    17  H   1.0    0.05    1.03    1.43    30.57229    38.42781    36.35387
    18  H   1.0    0.04    1.03    1.43    32.37083    33.75434    30.04660
    19  H   1.0    0.05    1.03    1.43    28.08846    41.24865    33.65083
    20  H   1.0    0.03    1.03    1.43    29.46867    36.25482    27.42836
    21  H   1.0    0.10    1.03    1.43    26.61887    39.65603    27.34371
    22  N   5.0   -0.15    3.48    2.06    39.18145    34.20784    38.55036
    23  C   4.0    0.03    4.34    4.28    40.53105    32.75673    40.43479
    24  C   4.0    0.16    3.51    3.12    39.35677    33.16172    43.08902
    25  O   6.0   -0.29    1.26    1.80    39.29830    31.37958    44.57431
    26  C   4.0   -0.08    4.12    3.85    43.27684    33.51720    40.60382
    27  H   1.0    0.07    1.07    1.44    40.26195    35.14410    37.27664
    28  H   1.0    0.04    1.05    1.44    40.34088    30.73206    40.02888
    29  H   1.0    0.04    1.00    1.43    44.26817    32.22153    41.84924
    30  H   1.0    0.03    1.00    1.43    44.14420    33.45673    38.74433
    31  H   1.0    0.05    1.00    1.43    43.44137    35.42228    41.35620
    32  N   5.0   -0.14    3.53    2.10    38.49965    35.44022    43.68014
    33  C   4.0    0.05    4.45    4.46    37.57048    35.90448    46.20173
    34  C   4.0    0.15    3.43    3.09    35.14386    34.45789    46.71628
    35  O   6.0   -0.28    1.24    1.80    34.32514    34.19993    48.87092
    36  C   4.0   -0.03    4.25    4.11    37.19302    38.71737    46.74619
    37  C   4.0    0.25    3.09    3.02    39.69299    40.27822    46.79900
    38  O   6.0   -0.31    1.22    1.80    41.73352    39.18286    47.20489
    39  O   6.0   -0.30    1.17    1.80    39.42461    42.59690    46.38161
    40  H   1.0    0.11    1.11    1.45    38.59380    36.91102    42.45239
    41  H   1.0    0.08    1.06    1.44    38.96179    35.17140    47.56168
    42  H   1.0    0.06    1.03    1.43    35.91604    39.54022    45.35829
    43  H   1.0    0.06    1.03    1.43    36.36254    38.87811    48.62773
    44  N   5.0   -0.14    3.56    2.12    33.91733    33.58646    44.70290
    45  C   4.0    0.03    4.42    4.41    31.54622    32.16497    44.92772
    46  C   4.0    0.15    3.44    3.09    31.87224    29.33218    44.48770
    47  O   6.0   -0.32    1.30    1.80    30.02656    27.92393    44.22693
    48  C   4.0   -0.04    4.38    4.35    29.61601    33.14456    43.03947
    49  C   4.0   -0.02    4.19    3.98    29.13894    35.99946    43.24127
    50  C   4.0   -0.08    4.10    3.80    27.23192    36.76344    41.20624
    51  C   4.0   -0.08    4.10    3.81    28.20625    36.73254    45.87384
    52  H   1.0    0.12    1.14    1.45    34.69076    33.61160    42.95012
    53  H   1.0    0.06    1.07    1.44    30.91331    32.42074    46.88265
    54  H   1.0    0.05    1.03    1.43    30.32993    32.71475    41.15071
    55  H   1.0    0.05    1.03    1.43    27.86147    32.09883    43.31716
    56  H   1.0    0.05    1.06    1.44    30.92199    36.97659    42.87194
    57  H   1.0    0.04    1.00    1.43    27.06113    38.80808    41.12459
    58  H   1.0    0.04    1.00    1.43    27.84166    36.09932    39.36161
    59  H   1.0    0.03    1.00    1.43    25.39041    35.95828    41.62163
    60  H   1.0    0.04    1.00    1.43    27.70214    38.72193    45.88651
    61  H   1.0    0.03    1.00    1.43    26.56154    35.61098    46.37394
    62  H   1.0    0.06    1.00    1.43    29.68043    36.42958    47.27192
    63  N   5.0   -0.13    3.48    2.06    34.22767    28.40042    44.44497
    64  C   4.0    0.05    4.44    4.44    34.58672    25.80800    43.71171
    65  C   4.0    0.17    3.48    3.10    33.50734    23.86878    45.54879
    66  O   6.0   -0.30    1.24    1.80    33.02660    21.73050    44.80663
    67  C   4.0    0.03    4.16    3.92    37.39585    25.16068    43.36295
    68  O   6.0   -0.23    2.09    1.84    38.53180    25.40453    45.72229
    69  H   1.0    0.11    1.08    1.44    35.78448    29.48254    44.68635
    70  H   1.0    0.06    1.06    1.44    33.61113    25.45599    41.91039
    71  H   1.0    0.04    1.01    1.43    37.52727    23.21457    42.63666
    72  H   1.0    0.04    1.01    1.43    38.22405    26.44857    41.95796
    73  H   1.0    0.12    1.01    1.43    40.28292    25.97254    45.60351
    74  N   5.0   -0.13    3.48    2.07    32.89998    24.68620    47.90015
    75  C   4.0    0.04    4.36    4.32    31.83486    22.83557    49.66684
    76  C   4.0    0.15    3.44    3.09    28.96471    22.92649    49.61402
    77  O   6.0   -0.32    1.27    1.80    27.68155    21.52982    50.94582
    78  C   4.0   -0.03    4.24    4.08    32.63594    23.32294    52.40924
    79  C   4.0    0.25    3.04    3.02    35.51296    23.85360    53.11454
    80  O   6.0   -0.30    1.17    1.80    35.71708    25.35787    54.95540
    81  O   6.0   -0.29    1.15    1.80    37.24717    22.81895    52.00062
    82  H   1.0    0.10    1.07    1.44    34.05873    26.00341    48.64228
    83  H   1.0    0.06    1.06    1.44    32.45244    20.94417    49.08552
    84  H   1.0    0.05    1.03    1.43    31.59633    24.95585    53.13556
    85  H   1.0    0.05    1.03    1.43    32.09988    21.67065    53.52525
    86  N   5.0   -0.13    3.47    2.06    27.75561    24.65322    48.16280
    87  C   4.0    0.04    4.34    4.27    25.02857    24.71087    48.16961
    88  C   4.0    0.07    3.22    3.04    23.75481    22.56385    46.66036
    89  O   6.0   -0.30    1.14    1.80    24.67318    21.70616    44.69784
    90  C   4.0   -0.05    4.29    4.18    24.06229    27.15139    46.91426
    91  C   4.0   -0.05    4.20    4.01    24.95425    29.52899    48.26890
    92  C   4.0   -0.06    4.18    3.97    23.80364    29.80616    50.88673
    93  C   4.0   -0.04    4.14    3.87    24.52102    32.34779    52.01765
    94  N   5.0   -0.13    4.03    2.95    23.72634    32.52057    54.69896
    95  H   1.0    0.11    1.09    1.44    28.68618    25.61069    46.78351
    96  H   1.0    0.04    1.06    1.44    24.45428    24.56457    50.14601
    97  H   1.0    0.06    1.03    1.43    24.77006    27.17124    44.97635
    98  H   1.0    0.03    1.03    1.43    22.00453    27.12008    46.85422
    99  H   1.0    0.05    1.03    1.43    27.01024    29.50277    48.39572
   100  H   1.0    0.04    1.03    1.43    24.41119    31.14023    47.10397
   101  H   1.0    0.03    1.03    1.43    21.75438    29.63813    50.75073
   102  H   1.0    0.04    1.03    1.43    24.51363    28.29641    52.09668
   103  H   1.0    0.05    1.02    1.43    26.56846    32.58521    51.94678
   104  H   1.0    0.03    1.02    1.43    23.63328    33.87844    50.96508
   105  H   1.0    0.08    1.10    1.44    24.43488    34.24163    55.47793
   106  H   1.0    0.04    1.02    1.43    21.79997    32.47202    54.93148
   107  H   1.0    0.05    1.02    1.43    24.49519    31.06809    55.72487
   108  N   5.0   -0.21    3.25    1.97    19.23514    22.83292    42.63738
   109  C   4.0    0.02    4.30    4.20    18.66686    23.64118    40.10299
   110  C   4.0    0.14    3.42    3.09    21.03120    23.97813    38.42583
   111  O   6.0   -0.32    1.26    1.80    20.75276    24.85315    36.29206
   112  C   4.0   -0.04    4.35    4.29    17.16389    26.10874    40.18343
   113  C   4.0   -0.02    3.57    3.15    18.46786    28.30059    41.39497
   114  C   4.0   -0.04    3.48    3.11    20.25594    29.69425    40.06176
   115  C   4.0   -0.06    3.46    3.10    17.86485    29.04309    43.84010
   116  C   4.0   -0.05    3.38    3.07    21.36282    31.80211    41.11902
   117  C   4.0   -0.06    3.38    3.07    19.02087    31.14488    44.90869
   118  C   4.0   -0.06    3.37    3.07    20.76699    32.52592    43.56625
   119  H   1.0    0.08    1.03    1.43    19.48044    24.19896    43.94767
   120  H   1.0    0.02    1.05    1.44    17.51904    22.18361    39.18496
   121  H   1.0    0.04    1.04    1.43    16.71550    26.59879    38.22808
   122  H   1.0    0.02    1.03    1.43    15.38432    25.73431    41.16084
   123  H   1.0    0.06    1.03    1.43    20.72601    29.15245    38.15247
   124  H   1.0    0.03    1.03    1.43    16.44435    28.01979    44.89026
   125  H   1.0    0.04    1.03    1.43    22.72041    32.87055    40.03245
   126  H   1.0    0.03    1.03    1.43    18.49939    31.71106    46.79718
   127  H   1.0    0.04    1.03    1.43    21.62318    34.19162    44.37328
   128  N   5.0   -0.15    3.44    2.04    23.30299    23.49458    39.37324
   129  C   4.0    0.04    4.35    4.29    25.55420    24.19318    37.96171
   130  C   4.0    0.08    3.27    3.05    25.73827    22.77793    35.46732
   131  O   6.0   -0.30    1.12    1.80    26.28387    23.93914    33.52231
   132  C   4.0   -0.03    4.34    4.27    27.91203    23.66616    39.53203
   133  C   4.0   -0.01    3.57    3.15    30.35950    24.20950    38.18427
   134  C   4.0   -0.03    3.47    3.10    31.14800    26.69452    37.80091
   135  C   4.0   -0.04    3.48    3.11    31.98839    22.28363    37.51138
   136  C   4.0   -0.04    3.40    3.08    33.60107    27.15675    37.04086
   137  C   4.0   -0.05    3.38    3.07    34.32049    22.75691    36.44986
   138  C   4.0   -0.05    3.38    3.07    35.17984    25.23487    36.29748
   139  H   1.0    0.10    1.08    1.44    23.58177    22.72804    41.11139
   140  H   1.0    0.06    1.05    1.44    25.43559    26.20752    37.47483
   141  H   1.0    0.07    1.03    1.43    27.84880    24.82817    41.23965
   142  H   1.0    0.05    1.04    1.43    27.88474    21.68534    40.09949
   143  H   1.0    0.05    1.03    1.43    29.92937    28.24705    38.32064
   144  H   1.0    0.04    1.03    1.43    31.40766    20.34945    37.80199
   145  H   1.0    0.06    1.03    1.43    34.26611    29.08637    36.96556
   146  H   1.0    0.03    1.03    1.43    35.53831    21.22466    35.88085
   147  H   1.0    0.04    1.03    1.43    37.07427    25.62403    35.65105
   148  N   5.0   -0.22    3.18    1.95    33.09114    56.92283    38.52477
   149  C   4.0    0.03    4.20    4.00    31.87422    57.93470    40.77543
   150  C   4.0    0.08    3.23    3.04    33.59820    59.58751    42.37705
   151  O   6.0   -0.32    1.13    1.80    32.68671    60.82547    44.11300
   152  C   4.0   -0.03    4.25    4.09    30.84771    55.80197    42.50764
   153  C   4.0    0.25    3.10    3.02    32.85065    53.90943    43.51296
   154  O   6.0   -0.32    1.31    1.80    35.15162    54.38500    43.20819
   155  O   6.0   -0.30    1.17    1.80    32.00591    52.00599    44.62229
   156  H   1.0    0.09    1.02    1.43    33.91681    55.19797    38.62127
   157  H   1.0    0.03    1.05    1.44    30.31393    59.13792    40.14257
   158  H   1.0    0.05    1.03    1.43    29.97512    56.68053    44.15262
   159  H   1.0    0.03    1.03    1.43    29.45232    54.68529    41.48978
   160  N   5.0   -0.23    3.21    1.96    44.42535    56.56673    41.31991
   161  C   4.0    0.04    4.26    4.11    43.50208    54.46804    39.86295
   162  C   4.0    0.06    3.19    3.03    43.62896    55.08073    37.02566
   163  O   6.0   -0.32    1.11    1.80    44.09723    53.39616    35.46861
   164  C   4.0   -0.03    4.28    4.16    40.92230    53.57868    40.71133
   165  C   4.0    0.15    3.22    3.04    41.23057    51.84683    43.06817
   166  O   6.0   -0.30    1.22    1.80    43.24764    50.77845    43.47015
   167  N   5.0   -0.18    3.19    1.95    39.13606    51.51233    44.39404
   168  H   1.0    0.08    1.02    1.43    43.25353    57.42834    42.56793
   169  H   1.0    0.06    1.07    1.44    44.80761    52.86468    40.14031
   170  H   1.0    0.05    1.03    1.43    39.70100    55.15276    41.21876
   171  H   1.0    0.05    1.03    1.43    40.02300    52.46976    39.22244
   172  H   1.0    0.11    1.04    1.43    39.36107    50.87541    46.18061
   173  H   1.0    0.13    1.11    1.45    37.58419    52.66120    44.06345
   174  O   6.0   -0.34    2.05    1.83    26.04566    36.71228    56.25085
   175  H   1.0    0.15    1.05    1.44    27.80660    36.02285    56.18986
   176  H   1.0    0.12    0.97    1.43    25.96926    38.09258    55.06980
   177  O   6.0   -0.30    2.02    1.83    33.64866    37.42685    53.00370
   178  H   1.0    0.16    1.03    1.43    35.30181    37.58205    53.79951
   179  H   1.0    0.15    1.03    1.43    33.20429    39.09841    52.39110
   180  O   6.0   -0.33    2.01    1.83    38.16934    39.75008    40.64121
   181  H   1.0    0.14    0.97    1.43    38.95406    41.15293    41.48885
   182  H   1.0    0.12    0.96    1.43    38.27162    40.08270    38.82641
   183  O   6.0   -0.28    1.92    1.82    40.42330    29.48319    50.86877
   184  H   1.0    0.15    0.97    1.43    40.71480    31.25681    50.55834
   185  H   1.0    0.15    0.97    1.43    38.79414    29.28585    51.63301
   186  O   6.0   -0.33    2.02    1.83    36.80653    47.97223    48.73698
   187  H   1.0    0.14    0.97    1.43    37.60540    46.61860    47.80840
   188  H   1.0    0.14    0.97    1.43    35.75671    48.90645    47.57602
   189  O   6.0   -0.29    1.92    1.82    43.61131    34.43053    48.45624
   190  H   1.0    0.12    0.97    1.43    45.41493    34.55682    48.59883
   191  H   1.0    0.16    1.01    1.43    43.01902    36.12496    48.03099
   192  O   6.0   -0.32    2.04    1.83    30.54564    34.69591    55.92661
   193  H   1.0    0.12    0.96    1.43    31.32778    34.32725    57.55130
   194  H   1.0    0.16    1.03    1.43    31.79182    35.57821    54.91125
   195  O   6.0   -0.33    2.00    1.83    32.10017    42.63251    45.62251
   196  H   1.0    0.13    0.97    1.43    33.81361    43.20978    45.80970
   197  H   1.0    0.13    0.97    1.43    31.07823    44.10886    45.30981
   198  O   6.0   -0.31    1.92    1.82    32.83977    40.95657    40.56684
   199  H   1.0    0.14    1.00    1.43    34.62875    40.59301    40.50846
   200  H   1.0    0.14    1.00    1.43    32.44083    41.31144    42.32567
   201  O   6.0   -0.34    2.08    1.84    31.85050    41.74735    50.96143
   202  H   1.0    0.14    1.00    1.43    31.96166    41.64193    49.12760
   203  H   1.0    0.12    0.97    1.43    30.08339    41.57483    51.36717
   204  O   6.0   -0.33    1.60    1.81    39.58413    51.38563    51.32970
   205  H   1.0    0.10    0.56    1.41    41.90766    51.05988    51.29507
   206  H   1.0    0.16    1.02    1.43    39.00789    49.86884    50.52762
   207  O   6.0   -0.32    1.98    1.82    34.04739    45.83989    52.83804
   208  H   1.0    0.15    1.04    1.43    33.34776    44.29160    52.11778
   209  H   1.0    0.15    1.00    1.43    35.17642    46.54445    51.59124
   210  O   6.0   -0.33    1.97    1.82    28.08427    48.18451    54.53733
   211  H   1.0    0.11    0.97    1.43    26.57438    47.16434    54.72583
   212  H   1.0    0.12    0.97    1.43    28.54420    48.21991    52.77265
   213  N   5.0   -0.22    3.23    1.96    32.98088    54.71296    58.66243
   214  C   4.0    0.03    4.29    4.18    32.42965    52.41860    57.24403
   215  C   4.0    0.15    3.47    3.10    32.98997    50.13192    58.86594
   216  O   6.0   -0.30    1.27    1.80    34.30991    50.33419    60.77767
   217  C   4.0    0.03    4.15    3.90    34.04376    52.24118    54.82903
   218  O   6.0   -0.24    2.06    1.83    36.55739    51.69029    55.49074
   219  H   1.0    0.09    1.03    1.43    34.39460    54.58731    59.93644
   220  H   1.0    0.03    1.05    1.44    30.44489    52.50308    56.67999
   221  H   1.0    0.05    1.01    1.43    33.28062    50.73178    53.62530
   222  H   1.0    0.04    1.01    1.43    33.93962    54.05053    53.82016
   223  H   1.0    0.14    1.05    1.44    37.65934    51.68144    53.94597
   224  N   5.0   -0.15    3.46    2.05    31.96995    47.90090    58.13184
   225  C   4.0    0.03    4.49    4.52    32.52151    45.65659    59.67503
   226  C   4.0    0.16    3.47    3.10    35.34938    45.11276    59.79026
   227  O   6.0   -0.29    1.23    1.80    36.39276    44.47032    61.78485
   228  C   4.0   -0.02    4.26    4.13    30.97384    43.43934    58.58494
   229  C   4.0   -0.07    4.12    3.85    32.05301    40.89179    59.37008
   230  C   4.0   -0.09    4.10    3.80    28.19334    43.73194    59.34702
   231  H   1.0    0.10    1.09    1.44    30.82840    47.76477    56.58290
   232  H   1.0    0.05    1.06    1.44    31.96388    46.00571    61.63886
   233  H   1.0    0.05    1.06    1.44    31.13018    43.59141    56.52498
   234  H   1.0    0.04    1.00    1.43    30.78871    39.38586    58.78485
   235  H   1.0    0.06    1.00    1.43    33.88961    40.59922    58.49578
   236  H   1.0    0.04    1.00    1.43    32.26130    40.86237    61.41359
   237  H   1.0    0.03    1.00    1.43    27.06548    42.23927    58.50867
   238  H   1.0    0.03    1.00    1.43    28.01313    43.58950    61.38988
   239  H   1.0    0.04    1.00    1.43    27.46231    45.55610    58.77091
   240  N   5.0   -0.14    3.44    2.04    36.66097    45.28339    57.57779
   241  C   4.0    0.05    4.35    4.29    39.32637    44.72175    57.61026
   242  C   4.0    0.09    3.21    3.04    40.84892    46.66224    59.15174
   243  O   6.0   -0.30    1.11    1.80    42.60336    45.94982    60.53413
   244  C   4.0   -0.04    4.24    4.09    40.43861    44.41760    54.95521
   245  C   4.0   -0.03    4.19    3.97    39.24691    42.12537    53.65253
   246  C   4.0    0.25    3.12    3.03    39.86595    39.59437    54.94251
   247  O   6.0   -0.29    1.18    1.80    42.06236    39.25541    55.71978
   248  O   6.0   -0.30    1.24    1.80    38.09496    38.06784    55.38508
   249  H   1.0    0.10    1.09    1.44    35.77956    45.75037    55.93088
   250  H   1.0    0.07    1.06    1.44    39.58164    42.91336    58.61313
   251  H   1.0    0.05    1.02    1.43    40.13946    46.13557    53.84883
   252  H   1.0    0.06    1.03    1.43    42.47068    44.12035    55.11754
   253  H   1.0    0.06    1.03    1.43    37.19867    42.33791    53.56630
   254  H   1.0    0.06    1.02    1.43    39.95638    42.00925    51.71004
   255  H   1.0    0.09    1.07    1.44    36.83761    37.36341    33.22290
   256  H   1.0    0.04    1.04    1.43    22.12721    21.81938    47.26678
   257  H   1.0    0.07    1.07    1.44    17.96666    21.86225    43.22159
   258  H   1.0    0.04    1.04    1.43    25.41758    20.91646    35.41121
   259  H   1.0    0.08    1.07    1.44    31.94626    56.78211    37.27497
   260  H   1.0    0.05    1.04    1.44    35.45056    59.65562    42.00934
   261  H   1.0    0.09    1.08    1.44    45.74963    56.06511    42.26183
   262  H   1.0    0.04    1.04    1.43    43.33259    56.84829    36.42653
   263  H   1.0    0.08    1.08    1.44    33.42384    55.95314    57.58618
   264  H   1.0    0.06    1.04    1.43    40.42456    48.50031    59.03989

  Z AO/shell   Hii/eV     exponent
  1     Wed Apr 25 08:07:45 CEST 2018   EN: 2.200 GM2: 0.406  GM3: 0.0800  RAES: 1.40
     1s    -10.707211    1.230000
  6     Wed Apr 25 08:07:45 CEST 2018   EN: 2.550 GM2: 0.538  GM3: 0.1500  RAES: 3.00
     2s    -13.970922    2.096432
     2p    -10.063292    1.800000
  7     Wed Apr 25 08:07:45 CEST 2018   EN: 3.040 GM2: 0.461  GM3:-0.0640  RAES: 1.90
     2s    -16.686243    2.339881
     2p    -12.523956    2.014332
  8     Wed Apr 25 08:07:45 CEST 2018   EN: 3.440 GM2: 0.452  GM3:-0.0517  RAES: 1.80
     2s    -20.229985    2.439742
     2p    -15.503117    2.137023
 no old-style atom pair restraining (fixing) potential

molecular fragmentation (1/2 indicates fragments):
111111111111111111111111111111111111111111111111111111111111111111111111
111111111111111111111111111111111112222222222222222222222222222222222222
222222222222222222222222222222222222222222222222222222222222222222222222
222222222222222222222222222222222222221122222222
# atoms in fragment 1/2:   109   155
 fragment masses (1/2) :      793.85     1079.11
CMA distance (Bohr)    :  10.614
constraining FC (au)   :  0.0500
           ------------------------------------------------- 
          |        Self-Consistent Charge Iterations        |
           ------------------------------------------------- 

 Ncao       : 651
 Nao        : 651
 Nshell     : 393
 Nel        : 748
 T(el)      :   500.0
 intcut     :    35.0
 scfconv/Eh :  0.100E-06
   qconv/e  :  0.100E-04
 intneglect :  0.100E-08
 broydamp   :      0.400
 iter      E             dE          RMSdq      gap      omega  full diag
   1   -437.2501592 -0.437250E+03  0.519E+00    2.74       0.0  T
   2   -438.3457959 -0.109564E+01  0.247E+00    1.85       1.0  T
   3   -438.4158068 -0.700109E-01  0.132E+00    2.32       1.0  T
   4   -438.5025893 -0.867824E-01  0.313E-01    1.61       1.0  T
   5   -438.5065784 -0.398908E-02  0.144E-01    1.72       1.0  T
   6   -438.5077617 -0.118336E-02  0.575E-02    1.68       1.0  T
   7   -438.5079722 -0.210463E-03  0.289E-02    1.68       1.0  T
   8   -438.5080057 -0.334896E-04  0.123E-02    1.68       1.0  T
   9   -438.5080163 -0.106007E-04  0.519E-03    1.68       1.2  T
  10   -438.5080177 -0.141388E-05  0.228E-03    1.68       2.7  T
  11   -438.5080179 -0.230911E-06  0.920E-04    1.68       6.7  T
  12   -438.5080180 -0.428154E-07  0.405E-04    1.68      15.2  T
  13   -438.5080180 -0.109566E-07  0.197E-04    1.68      31.2  T
  14   -438.5080180 -0.189010E-08  0.807E-05    1.68      76.3  T
  15   -438.5080180 -0.455032E-09  0.334E-05    1.68     184.1  T
speedup  1.99
cpu  time for SCC    5.43 s
wall time for SCC    2.73 s

   *** convergence criteria satisfied after 15 iterations ***

          eigenvalues
 #    :         362        363        364        365        366        367        368        369
 occ. :        2.000      2.000      2.000      2.000      2.000      2.000      2.000      2.000
 eps  :       -10.535    -10.423    -10.297    -10.232    -10.203    -10.199    -10.173    -10.115
 #    :         370        371        372        373        374        375        376        377
 occ. :        2.000      2.000      2.000      2.000      2.000      0.000      0.000      0.000
 eps  :       -10.101     -9.885     -9.859     -9.846     -9.607     -7.931     -7.913     -7.732
 #    :         378        379        380        381        382        383        384        385
 occ. :        0.000      0.000      0.000      0.000      0.000      0.000      0.000      0.000
 eps  :        -7.704     -7.683     -6.405     -6.258     -6.121     -6.104     -6.096     -6.000


   #   Z            q   n(s)   n(p)   n(d)      C6AA      α(0)
   1   7 N     -0.397  1.319  4.078  0.000    30.298     8.175
   2   6 C      0.025  1.067  2.908  0.000    20.174     6.398
   3   6 C      0.265  1.052  2.683  0.000    22.520     7.771
   4   8 O     -0.502  1.752  4.750  0.000    23.831     6.545
   5   6 C     -0.064  1.050  3.014  0.000    21.722     6.634
   6   6 C     -0.002  1.078  2.924  0.000    28.077     8.692
   7   6 C     -0.045  1.084  2.961  0.000    29.110     8.848
   8   6 C     -0.044  1.084  2.960  0.000    29.105     8.847
   9   6 C     -0.061  1.076  2.985  0.000    29.512     8.908
  10   6 C     -0.078  1.078  3.000  0.000    29.953     8.975
  11   6 C      0.145  1.044  2.811  0.000    24.844     8.169
  12   8 O     -0.435  1.718  4.716  0.000    21.529     6.264
  13   1 H      0.168  0.832  0.000  0.000     1.282     1.774
  14   1 H      0.067  0.933  0.000  0.000     2.121     2.278
  15   1 H      0.041  0.959  0.000  0.000     2.431     2.438
  16   1 H      0.049  0.951  0.000  0.000     2.331     2.388
  17   1 H      0.043  0.957  0.000  0.000     2.414     2.430
  18   1 H      0.041  0.959  0.000  0.000     2.437     2.441
  19   1 H      0.047  0.953  0.000  0.000     2.364     2.404
  20   1 H      0.046  0.954  0.000  0.000     2.376     2.410
  21   1 H      0.353  0.647  0.000  0.000     0.582     1.198
  22   7 N     -0.176  1.251  3.926  0.000    24.821     7.399
  23   6 C      0.028  1.057  2.915  0.000    20.115     6.386
  24   6 C      0.283  1.040  2.676  0.000    22.202     7.717
  25   8 O     -0.521  1.757  4.764  0.000    24.248     6.602
  26   6 C     -0.130  1.040  3.091  0.000    23.054     6.845
  27   1 H      0.235  0.765  0.000  0.000     0.944     1.522
  28   1 H      0.065  0.935  0.000  0.000     2.144     2.290
  29   1 H      0.065  0.935  0.000  0.000     2.137     2.286
  30   1 H      0.089  0.911  0.000  0.000     1.885     2.147
  31   1 H      0.052  0.948  0.000  0.000     2.289     2.366
  32   7 N     -0.197  1.251  3.946  0.000    25.271     7.466
  33   6 C      0.050  1.047  2.903  0.000    19.733     6.324
  34   6 C      0.276  1.040  2.684  0.000    22.331     7.738
  35   8 O     -0.505  1.753  4.753  0.000    23.905     6.555
  36   6 C     -0.102  1.070  3.032  0.000    22.451     6.746
  37   6 C      0.371  1.025  2.605  0.000    20.720     7.449
  38   8 O     -0.633  1.775  4.858  0.000    26.947     6.960
  39   8 O     -0.640  1.760  4.880  0.000    27.117     6.982
  40   1 H      0.228  0.772  0.000  0.000     0.973     1.546
  41   1 H      0.043  0.957  0.000  0.000     2.403     2.424
  42   1 H      0.059  0.941  0.000  0.000     2.209     2.324
  43   1 H      0.049  0.951  0.000  0.000     2.336     2.390
  44   7 N     -0.195  1.251  3.944  0.000    25.243     7.462
  45   6 C      0.025  1.059  2.915  0.000    20.154     6.393
  46   6 C      0.265  1.052  2.683  0.000    22.528     7.773
  47   8 O     -0.480  1.729  4.751  0.000    23.339     6.477
  48   6 C     -0.068  1.055  3.013  0.000    21.789     6.644
  49   6 C     -0.012  1.056  2.956  0.000    20.755     6.480
  50   6 C     -0.116  1.042  3.074  0.000    22.767     6.803
  51   6 C     -0.130  1.042  3.087  0.000    23.044     6.845
  52   1 H      0.220  0.780  0.000  0.000     1.011     1.575
  53   1 H      0.092  0.908  0.000  0.000     1.862     2.134
  54   1 H      0.042  0.958  0.000  0.000     2.425     2.435
  55   1 H      0.077  0.923  0.000  0.000     2.007     2.216
  56   1 H      0.028  0.972  0.000  0.000     2.622     2.532
  57   1 H      0.049  0.951  0.000  0.000     2.338     2.391
  58   1 H      0.033  0.967  0.000  0.000     2.548     2.496
  59   1 H      0.054  0.946  0.000  0.000     2.268     2.355
  60   1 H      0.058  0.942  0.000  0.000     2.227     2.334
  61   1 H      0.060  0.940  0.000  0.000     2.195     2.317
  62   1 H      0.034  0.966  0.000  0.000     2.529     2.487
  63   7 N     -0.175  1.243  3.933  0.000    24.798     7.396
  64   6 C      0.031  1.053  2.916  0.000    20.046     6.374
  65   6 C      0.291  1.044  2.665  0.000    22.062     7.692
  66   8 O     -0.474  1.738  4.736  0.000    23.219     6.460
  67   6 C      0.090  1.034  2.875  0.000    19.282     6.288
  68   8 O     -0.478  1.723  4.754  0.000    22.419     6.392
  69   1 H      0.200  0.800  0.000  0.000     1.105     1.647
  70   1 H      0.079  0.921  0.000  0.000     1.994     2.208
  71   1 H      0.047  0.953  0.000  0.000     2.361     2.403
  72   1 H      0.039  0.961  0.000  0.000     2.468     2.457
  73   1 H      0.338  0.662  0.000  0.000     0.618     1.235
  74   7 N     -0.191  1.266  3.924  0.000    25.133     7.446
  75   6 C      0.038  1.058  2.903  0.000    19.936     6.358
  76   6 C      0.271  1.049  2.680  0.000    22.429     7.756
  77   8 O     -0.496  1.737  4.759  0.000    23.699     6.527
  78   6 C     -0.101  1.079  3.023  0.000    22.437     6.744
  79   6 C      0.371  1.024  2.605  0.000    20.715     7.448
  80   8 O     -0.664  1.782  4.882  0.000    27.739     7.061
  81   8 O     -0.610  1.764  4.846  0.000    26.367     6.884
  82   1 H      0.182  0.818  0.000  0.000     1.203     1.718
  83   1 H      0.061  0.939  0.000  0.000     2.189     2.314
  84   1 H      0.035  0.965  0.000  0.000     2.519     2.482
  85   1 H      0.046  0.954  0.000  0.000     2.373     2.409
  86   7 N     -0.165  1.242  3.923  0.000    24.572     7.362
  87   6 C      0.025  1.059  2.916  0.000    20.160     6.394
  88   6 C      0.193  1.096  2.712  0.000    23.880     8.003
  89   8 O     -0.369  1.758  4.612  0.000    21.073     6.155
  90   6 C     -0.072  1.057  3.016  0.000    21.873     6.657
  91   6 C     -0.074  1.048  3.025  0.000    21.904     6.663
  92   6 C     -0.095  1.053  3.041  0.000    22.305     6.724
  93   6 C     -0.043  1.055  2.988  0.000    21.436     6.608
  94   7 N     -0.176  1.242  3.934  0.000    24.795     7.396
  95   1 H      0.208  0.792  0.000  0.000     1.065     1.617
  96   1 H      0.100  0.900  0.000  0.000     1.781     2.087
  97   1 H      0.061  0.939  0.000  0.000     2.192     2.315
  98   1 H      0.078  0.922  0.000  0.000     2.002     2.213
  99   1 H      0.042  0.958  0.000  0.000     2.424     2.435
 100   1 H      0.071  0.929  0.000  0.000     2.075     2.253
 101   1 H      0.091  0.909  0.000  0.000     1.868     2.138
 102   1 H      0.062  0.938  0.000  0.000     2.170     2.304
 103   1 H      0.095  0.905  0.000  0.000     1.827     2.114
 104   1 H      0.117  0.883  0.000  0.000     1.636     2.000
 105   1 H      0.308  0.692  0.000  0.000     0.691     1.302
 106   1 H      0.291  0.709  0.000  0.000     0.742     1.350
 107   1 H      0.271  0.729  0.000  0.000     0.808     1.408
 108   7 N     -0.391  1.312  4.080  0.000    30.128     8.152
 109   6 C      0.034  1.058  2.908  0.000    20.012     6.372
 110   6 C      0.270  1.049  2.681  0.000    22.433     7.756
 111   8 O     -0.514  1.755  4.759  0.000    24.103     6.582
 112   6 C     -0.071  1.052  3.020  0.000    21.854     6.654
 113   6 C      0.009  1.082  2.910  0.000    27.822     8.652
 114   6 C     -0.038  1.081  2.958  0.000    28.951     8.824
 115   6 C     -0.049  1.083  2.967  0.000    29.222     8.865
 116   6 C     -0.034  1.081  2.953  0.000    28.842     8.807
 117   6 C     -0.039  1.082  2.957  0.000    28.969     8.826
 118   6 C     -0.038  1.079  2.959  0.000    28.948     8.823
 119   1 H      0.154  0.846  0.000  0.000     1.373     1.836
 120   1 H      0.054  0.946  0.000  0.000     2.274     2.358
 121   1 H      0.050  0.950  0.000  0.000     2.326     2.385
 122   1 H      0.053  0.947  0.000  0.000     2.278     2.360
 123   1 H      0.018  0.982  0.000  0.000     2.759     2.597
 124   1 H      0.046  0.954  0.000  0.000     2.375     2.410
 125   1 H      0.025  0.975  0.000  0.000     2.659     2.550
 126   1 H      0.059  0.941  0.000  0.000     2.207     2.323
 127   1 H      0.043  0.957  0.000  0.000     2.406     2.426
 128   7 N     -0.171  1.245  3.926  0.000    24.702     7.382
 129   6 C      0.040  1.055  2.905  0.000    19.905     6.352
 130   6 C      0.210  1.083  2.707  0.000    23.550     7.948
 131   8 O     -0.372  1.760  4.612  0.000    21.128     6.163
 132   6 C     -0.076  1.055  3.021  0.000    21.946     6.668
 133   6 C      0.012  1.082  2.906  0.000    27.746     8.640
 134   6 C     -0.037  1.081  2.956  0.000    28.918     8.819
 135   6 C     -0.042  1.081  2.961  0.000    29.032     8.836
 136   6 C     -0.035  1.078  2.957  0.000    28.862     8.810
 137   6 C     -0.037  1.082  2.955  0.000    28.925     8.820
 138   6 C     -0.042  1.079  2.963  0.000    29.052     8.839
 139   1 H      0.227  0.773  0.000  0.000     0.979     1.550
 140   1 H      0.079  0.921  0.000  0.000     1.992     2.207
 141   1 H      0.080  0.920  0.000  0.000     1.979     2.200
 142   1 H      0.067  0.933  0.000  0.000     2.121     2.277
 143   1 H      0.035  0.965  0.000  0.000     2.512     2.478
 144   1 H      0.040  0.960  0.000  0.000     2.455     2.450
 145   1 H      0.031  0.969  0.000  0.000     2.573     2.508
 146   1 H      0.046  0.954  0.000  0.000     2.375     2.410
 147   1 H      0.037  0.963  0.000  0.000     2.494     2.470
 148   7 N     -0.387  1.309  4.079  0.000    30.015     8.137
 149   6 C      0.043  1.059  2.898  0.000    19.872     6.351
 150   6 C      0.211  1.088  2.702  0.000    23.539     7.946
 151   8 O     -0.397  1.753  4.643  0.000    21.614     6.233
 152   6 C     -0.095  1.073  3.021  0.000    22.310     6.725
 153   6 C      0.365  1.027  2.608  0.000    20.803     7.464
 154   8 O     -0.607  1.762  4.845  0.000    26.292     6.875
 155   8 O     -0.632  1.770  4.861  0.000    26.910     6.955
 156   1 H      0.147  0.853  0.000  0.000     1.421     1.867
 157   1 H      0.074  0.926  0.000  0.000     2.045     2.236
 158   1 H      0.042  0.958  0.000  0.000     2.426     2.436
 159   1 H      0.046  0.954  0.000  0.000     2.365     2.405
 160   7 N     -0.383  1.300  4.083  0.000    29.910     8.122
 161   6 C      0.046  1.048  2.906  0.000    19.820     6.341
 162   6 C      0.193  1.100  2.707  0.000    23.871     8.001
 163   8 O     -0.385  1.763  4.622  0.000    21.386     6.200
 164   6 C     -0.095  1.065  3.030  0.000    22.303     6.723
 165   6 C      0.292  1.038  2.670  0.000    22.045     7.688
 166   8 O     -0.521  1.756  4.766  0.000    24.264     6.604
 167   7 N     -0.313  1.305  4.008  0.000    28.051     7.866
 168   1 H      0.163  0.837  0.000  0.000     1.314     1.796
 169   1 H      0.069  0.931  0.000  0.000     2.097     2.264
 170   1 H      0.070  0.930  0.000  0.000     2.083     2.257
 171   1 H      0.061  0.939  0.000  0.000     2.191     2.315
 172   1 H      0.202  0.798  0.000  0.000     1.094     1.638
 173   1 H      0.249  0.751  0.000  0.000     0.889     1.477
 174   8 O     -0.630  1.752  4.878  0.000    25.922     6.871
 175   1 H      0.335  0.665  0.000  0.000     0.624     1.241
 176   1 H      0.322  0.678  0.000  0.000     0.658     1.274
 177   8 O     -0.640  1.750  4.890  0.000    26.173     6.905
 178   1 H      0.285  0.715  0.000  0.000     0.767     1.376
 179   1 H      0.315  0.685  0.000  0.000     0.676     1.292
 180   8 O     -0.614  1.756  4.858  0.000    25.518     6.818
 181   1 H      0.317  0.683  0.000  0.000     0.671     1.287
 182   1 H      0.347  0.653  0.000  0.000     0.596     1.213
 183   8 O     -0.607  1.743  4.863  0.000    25.344     6.795
 184   1 H      0.305  0.695  0.000  0.000     0.706     1.320
 185   1 H      0.299  0.701  0.000  0.000     0.724     1.336
 186   8 O     -0.600  1.741  4.858  0.000    25.183     6.773
 187   1 H      0.315  0.685  0.000  0.000     0.677     1.292
 188   1 H      0.333  0.667  0.000  0.000     0.631     1.247
 189   8 O     -0.658  1.771  4.887  0.000    26.623     6.964
 190   1 H      0.329  0.671  0.000  0.000     0.640     1.257
 191   1 H      0.301  0.699  0.000  0.000     0.718     1.331
 192   8 O     -0.621  1.734  4.887  0.000    25.695     6.841
 193   1 H      0.316  0.684  0.000  0.000     0.674     1.290
 194   1 H      0.324  0.676  0.000  0.000     0.653     1.269
 195   8 O     -0.609  1.750  4.859  0.000    25.409     6.803
 196   1 H      0.301  0.699  0.000  0.000     0.717     1.330
 197   1 H      0.354  0.646  0.000  0.000     0.579     1.195
 198   8 O     -0.641  1.757  4.884  0.000    26.200     6.908
 199   1 H      0.293  0.707  0.000  0.000     0.744     1.355
 200   1 H      0.305  0.695  0.000  0.000     0.707     1.321
 201   8 O     -0.625  1.771  4.854  0.000    25.800     6.855
 202   1 H      0.331  0.669  0.000  0.000     0.635     1.251
 203   1 H      0.355  0.645  0.000  0.000     0.577     1.194
 204   8 O     -0.623  1.826  4.796  0.000    26.292     6.892
 205   1 H      0.332  0.668  0.000  0.000     1.031     1.759
 206   1 H      0.303  0.697  0.000  0.000     0.711     1.324
 207   8 O     -0.648  1.755  4.893  0.000    26.358     6.929
 208   1 H      0.324  0.676  0.000  0.000     0.654     1.270
 209   1 H      0.296  0.704  0.000  0.000     0.733     1.345
 210   8 O     -0.634  1.767  4.867  0.000    26.012     6.883
 211   1 H      0.346  0.654  0.000  0.000     0.598     1.215
 212   1 H      0.322  0.678  0.000  0.000     0.658     1.274
 213   7 N     -0.387  1.312  4.075  0.000    30.021     8.137
 214   6 C      0.025  1.059  2.915  0.000    20.161     6.396
 215   6 C      0.282  1.044  2.674  0.000    22.231     7.722
 216   8 O     -0.517  1.760  4.757  0.000    24.174     6.592
 217   6 C      0.084  1.041  2.875  0.000    19.392     6.308
 218   8 O     -0.510  1.736  4.774  0.000    23.110     6.489
 219   1 H      0.162  0.838  0.000  0.000     1.319     1.799
 220   1 H      0.062  0.938  0.000  0.000     2.174     2.306
 221   1 H      0.029  0.971  0.000  0.000     2.605     2.524
 222   1 H      0.018  0.982  0.000  0.000     2.763     2.599
 223   1 H      0.327  0.673  0.000  0.000     0.646     1.263
 224   7 N     -0.207  1.268  3.939  0.000    25.496     7.499
 225   6 C      0.026  1.067  2.908  0.000    20.142     6.390
 226   6 C      0.285  1.050  2.664  0.000    22.170     7.711
 227   8 O     -0.524  1.764  4.760  0.000    24.318     6.612
 228   6 C     -0.022  1.065  2.957  0.000    20.935     6.508
 229   6 C     -0.114  1.037  3.077  0.000    22.745     6.800
 230   6 C     -0.137  1.046  3.091  0.000    23.193     6.867
 231   1 H      0.244  0.756  0.000  0.000     0.907     1.492
 232   1 H      0.069  0.931  0.000  0.000     2.092     2.262
 233   1 H      0.060  0.940  0.000  0.000     2.204     2.322
 234   1 H      0.078  0.922  0.000  0.000     1.995     2.209
 235   1 H      0.013  0.987  0.000  0.000     2.849     2.640
 236   1 H      0.037  0.963  0.000  0.000     2.488     2.467
 237   1 H      0.081  0.919  0.000  0.000     1.965     2.192
 238   1 H      0.051  0.949  0.000  0.000     2.303     2.373
 239   1 H      0.065  0.935  0.000  0.000     2.138     2.287
 240   7 N     -0.200  1.257  3.943  0.000    25.345     7.477
 241   6 C      0.052  1.050  2.898  0.000    19.702     6.320
 242   6 C      0.204  1.093  2.703  0.000    23.671     7.968
 243   8 O     -0.378  1.760  4.618  0.000    21.251     6.181
 244   6 C     -0.047  1.051  2.996  0.000    21.417     6.589
 245   6 C     -0.085  1.061  3.023  0.000    22.113     6.695
 246   6 C      0.370  1.027  2.604  0.000    20.735     7.452
 247   8 O     -0.645  1.775  4.870  0.000    27.248     6.999
 248   8 O     -0.640  1.767  4.874  0.000    27.131     6.983
 249   1 H      0.236  0.764  0.000  0.000     0.938     1.517
 250   1 H      0.055  0.945  0.000  0.000     2.257     2.349
 251   1 H      0.054  0.946  0.000  0.000     2.269     2.356
 252   1 H      0.042  0.958  0.000  0.000     2.427     2.436
 253   1 H      0.050  0.950  0.000  0.000     2.321     2.382
 254   1 H      0.016  0.984  0.000  0.000     2.792     2.613
 255   1 H      0.186  0.814  0.000  0.000     1.177     1.699
 256   1 H      0.098  0.902  0.000  0.000     1.801     2.099
 257   1 H      0.192  0.808  0.000  0.000     1.146     1.677
 258   1 H      0.077  0.923  0.000  0.000     2.012     2.218
 259   1 H      0.194  0.806  0.000  0.000     1.135     1.669
 260   1 H      0.068  0.932  0.000  0.000     2.105     2.268
 261   1 H      0.184  0.816  0.000  0.000     1.193     1.711
 262   1 H      0.091  0.909  0.000  0.000     1.865     2.136
 263   1 H      0.183  0.817  0.000  0.000     1.195     1.712
 264   1 H      0.081  0.919  0.000  0.000     1.970     2.194

 Mol. C6AA /au·bohr⁶  :     643414.942066
 Mol. C8AA /au·bohr⁸  :   14150571.495862
 Mol. α(0) /au        :       1199.663185

 
molecular dipole:
                 x           y           z       tot (Debye)
 q only:     -127.420    -115.772    -154.216
   full:     -125.662    -114.828    -155.685     586.347
molecular quadrupole (traceless):
                xx          xy          yy          xz          yz          zz
 q only:     1369.758   -7339.734    1635.093   -9978.631   -8950.346   -3004.851
  q+dip:     1534.514   -7202.691    1714.017   -9918.921   -8975.518   -3248.531
   full:     1535.782   -7203.122    1711.147   -9916.827   -8976.493   -3246.929
speedup  1.99
cpu  time for grad    6.60 s
wall time for grad    3.32 s

SCC energy    :    -438.5126977
rep           :       4.8175594
ES            :       2.2446157
AES           :      -0.1159859
AXC           :       0.0988067
disp          :      -0.3109657
XB            :       0.0000000
fix           :       0.0000000
Gborn         :       0.0000000
Gsasa         :       0.0000000
Ghb           :       0.0000000
Gshift        :       0.0000000
Gsolv         :      -0.7505245     -470.96
Etot ala COSMO:    -438.5126977
grad norm     :       0.5460897
total E       :    -433.6704931
atomizationE  :      73.1004975    45871.25
(atE without considering molecular charge,
 total energy contains solvation terms)
H-L gap (eV)  :          1.6764

------------------------------------------------------------------------
 * finished run on 2019/05/05 at 17:07:26.967     
------------------------------------------------------------------------
 total:
 * wall-time:     0 d,  0 h,  0 min,  3.683 sec
 *  cpu-time:     0 d,  0 h,  0 min,  7.174 sec
 * ratio c/w:     1.948 speedup
 SCF:
 * wall-time:     0 d,  0 h,  0 min,  3.508 sec
 *  cpu-time:     0 d,  0 h,  0 min,  6.983 sec
 * ratio c/w:     1.990 speedup

