      -----------------------------------------------------------      
     |                   =====================                   |     
     |                           x T B                           |     
     |                   =====================                   |     
     |                         S. Grimme                         |     
     |          Mulliken Center for Theoretical Chemistry        |     
     |                    University of Bonn                     |     
     |                 Version 6.0.1 (SAW181210)                 |     
      -----------------------------------------------------------      

   This program is distributed in the hope that it will be useful,
   but WITHOUT ANY WARRANTY; without even the implied warranty of
   MERCHANTABILITY or FITNESS FOR A PARTICULAR PURPOSE.
   
   FOR NON-COMMERCIAL, ACADEMIA USE ONLY.
   
   Cite this work as:
   S. Grimme, C. Bannwarth, P. Shushkov, J. Comput. Theory Chem., 2017,
   13, 1989-2009.
   C. Bannwarth, S. Ehlert and S. Grimme., ChemRxiv, 2018, preprint.
   http://doi.org/10.26434/chemrxiv.7246238.v1
   
   for sTDA-xTB:
   S. Grimme and C. Bannwarth, J. Chem. Phys., 2016, 145, 054103.
   
   in the mass-spec context:
   V. Asgeirsson, C. Bauer and S. Grimme, Chem. Sci., 2017, 8, 4879.
   
   if GBSA is used:
   P. Shushkov, F. März and S. Grimme, unpublished.
   
   for ANC optimizer:
   S. Grimme, unpublished.
   Rational Function algorithm used in ANCopt:
   F. Eckert, P. Pulay, H.-J. Werner, J. Comput. Chem., 1997, 18, 1473.
   
   with help from (in alphabetical order)
   C. Bannwarth, F. Bohle, G. Brandenburg, E. Caldeweyher, M. Checinski,
   S. Dohm, S. Ehlert, S. Ehrlich, F. März, H. Neugebauer, J. Pisarek,
   P. Pracht, P. Shushkov, and S. Spicher.
   
 * started run on 2019/05/05 at 12:28:44.317     
========================================================================
 # omp threads = 2
========================================================================
number of atoms            : 589
number of electrons        : 1596
charge                     : 1
spin                       : .0
first test random number   : .4741

########################################################################
# WARNING! Please study the warnings concerning your input carefully
#  - Process number higher than OMP_NUM_THREADS, I hope you know what you are doing.
########################################################################

           ------------------------------------------------- 
          |                 G F N 2 - x T B                 |
          | Geometry, Frequencies, Noncovalent interactions |
          |            JCTC 2018 parametrisation            |
           ------------------------------------------------- 
 
      method parameters     
 k(s)        :  1.8500
 k(p)        :  2.2300
 k(d)        :  2.2300
 k(f)        :  2.0000
 kEN (H0ij)  : -2.0000
 D4 a1       :  0.5200
 D4 a2       :  5.0000
 D4 s6       :  1.0000
 D4 s8       :  2.7000
 D4 s9       :  5.0000
 alphaj      :  2.0000

 Solvent             : h2o
 Using internal parameter file: .param_gbsa2_h2o
 Gsolv ref. state (COSMO-RS): gsolv [1 M gas/solution]
 temperature (mdtemp)       :    298.150000000000     
 dielectric constant        :    80.2000000000000     
 rho                        :    1.00000000000000     
 mass                       :    18.0000000000000     
 surface tension            :    15.5689454083859     
 probe radius               :   0.975313790000000     
 vdW radii scaling          :    1.00000000000000     
 Gshift (Eh)                :   1.857443126794793E-003
 c1                         :    1.55243817000000     
 soset                      :   0.130326360000000     
 HB correction              :  T

            Z     q(EN)     CN     RAES       Cart. coordinates
     1  N   5.0   -0.21    3.26    1.97    -2.61727    87.21274   173.09323
     2  C   4.0    0.03    4.43    4.44    -0.15685    88.34658   173.05354
     3  C   4.0    0.15    3.51    3.12     1.03935    87.71352   170.54777
     4  O   6.0   -0.31    1.31    1.80     1.86138    89.39916   169.21551
     5  C   4.0   -0.04    4.17    3.94     1.49099    87.39605   175.21539
     6  S   6.0   -0.03    2.44    3.10     4.59581    88.82657   175.20405
     7  H   1.0    0.08    1.03    1.43    -2.79868    85.62537   174.17037
     8  H   1.0    0.05    1.07    1.44    -0.30992    90.38370   173.31811
     9  H   1.0    0.04    1.07    1.44     0.58015    87.84958   177.00685
    10  H   1.0    0.04    1.07    1.44     1.72343    85.35703   175.03965
    11  N   5.0   -0.15    3.46    2.05     1.09037    85.28333   169.89014
    12  C   4.0    0.03    4.41    4.39     2.39617    84.40083   167.60168
    13  C   4.0    0.16    3.52    3.12     1.63839    85.89182   165.26031
    14  O   6.0   -0.31    1.31    1.80     3.23899    86.91795   163.93373
    15  C   4.0   -0.04    4.32    4.23     1.95965    81.57569   167.14248
    16  C   4.0   -0.01    3.54    3.13     3.38072    80.51555   164.88615
    17  C   4.0   -0.03    3.48    3.11     2.47932    80.82925   162.44840
    18  C   4.0   -0.04    3.46    3.10     5.61816    79.17385   165.19984
    19  C   4.0   -0.03    3.54    3.13     3.76622    79.83903   160.38482
    20  C   4.0   -0.04    3.43    3.09     6.92207    78.17229   163.13815
    21  C   4.0    0.07    3.45    3.09     5.98287    78.51244   160.73442
    22  O   6.0   -0.23    2.09    1.84     7.26411    77.53924   158.67273
    23  H   1.0    0.08    1.06    1.44     0.24944    83.86982   170.89548
    24  H   1.0    0.05    1.06    1.44     4.40684    84.68996   167.93995
    25  H   1.0    0.04    1.03    1.43     2.57192    80.53445   168.81111
    26  H   1.0    0.06    1.03    1.43    -0.05102    81.26388   166.81745
    27  H   1.0    0.07    1.03    1.43     0.74455    81.86293   162.14605
    28  H   1.0    0.05    1.03    1.43     6.36271    78.90173   167.08012
    29  H   1.0    0.06    1.04    1.43     3.02923    80.10926   158.50076
    30  H   1.0    0.06    1.03    1.43     8.65683    77.13672   163.42539
    31  H   1.0    0.12    1.02    1.43     8.79101    76.65673   159.23587
    32  N   5.0   -0.13    3.57    2.13    -0.80124    85.99765   164.73875
    33  C   4.0    0.04    4.50    4.54    -1.67808    87.46975   162.59769
    34  C   4.0    0.16    3.50    3.12    -0.73132    90.15883   162.84902
    35  O   6.0   -0.28    1.23    1.80     0.16252    91.29077   161.03111
    36  C   4.0   -0.03    4.32    4.24    -4.54857    87.47919   162.52588
    37  C   4.0    0.25    3.16    3.03    -5.65217    84.83925   162.62982
    38  O   6.0   -0.28    1.23    1.80    -4.19141    82.97976   162.50320
    39  O   6.0   -0.26    1.17    1.80    -7.98976    84.62571   162.83580
    40  H   1.0    0.09    1.07    1.44    -2.19019    85.10759   165.73652
    41  H   1.0    0.06    1.06    1.44    -0.98644    86.63260   160.84780
    42  H   1.0    0.05    1.03    1.43    -5.25911    88.53366   164.14538
    43  H   1.0    0.06    1.03    1.43    -5.17596    88.36736   160.77599
    44  N   5.0   -0.13    3.44    2.04    -0.96565    91.16605   165.13181
    45  C   4.0    0.03    4.27    4.14    -0.11338    93.70017   165.72519
    46  C   4.0    0.17    3.35    3.06     2.61538    94.20284   165.00709
    47  O   6.0   -0.30    1.32    1.80     3.25600    96.26642   164.14538
    48  H   1.0    0.09    1.06    1.44    -1.75367    90.25709   166.63792
    49  H   1.0    0.06    1.04    1.43    -1.29446    95.05699   164.72174
    50  H   1.0    0.06    1.03    1.43    -0.30614    94.01387   167.75097
    51  N   5.0   -0.12    3.48    2.07     4.23677    92.31878   165.36047
    52  C   4.0    0.04    4.35    4.28     6.88616    92.57956   164.65749
    53  C   4.0    0.16    3.40    3.08     7.26600    92.27910   161.79078
    54  O   6.0   -0.29    1.26    1.80     8.48298    93.86269   160.57190
    55  C   4.0   -0.07    4.11    3.81     8.49621    90.69173   166.10313
    56  H   1.0    0.12    1.09    1.44     3.78134    90.60669   166.12014
    57  H   1.0    0.06    1.06    1.44     7.51733    94.46929   165.18095
    58  H   1.0    0.04    1.00    1.43    10.46530    90.92416   165.54566
    59  H   1.0    0.05    1.00    1.43     8.29212    91.04322   168.12325
    60  H   1.0    0.05    1.00    1.43     7.85937    88.78499   165.65338
    61  N   5.0   -0.13    3.44    2.04     6.18696    90.27032   160.72119
    62  C   4.0    0.04    4.52    4.56     6.51766    89.69017   158.03589
    63  C   4.0    0.17    3.45    3.09     6.43830    91.98997   156.27845
    64  O   6.0   -0.26    1.29    1.80     4.64684    93.49419   156.29545
    65  C   4.0   -0.03    4.09    3.79     4.71109    87.60958   157.21197
    66  S   6.0   -0.04    2.40    3.10     6.25499    84.58224   157.51244
    67  H   1.0    0.11    1.09    1.44     5.07391    89.00798   161.66039
    68  H   1.0    0.04    1.11    1.45     8.43196    88.96263   157.81668
    69  H   1.0    0.07    1.07    1.44     3.03490    87.62659   158.41006
    70  H   1.0    0.06    1.07    1.44     4.17251    87.89304   155.24477
    71  H   1.0    0.06    1.05    1.44     4.80746    83.07046   158.80123
    72  N   5.0   -0.13    3.46    2.06     8.44707    92.23374   154.78367
    73  C   4.0    0.04    4.40    4.38     8.89683    94.48630   153.25300
    74  C   4.0    0.09    3.30    3.05     6.56869    95.39715   151.88483
    75  O   6.0   -0.26    1.15    1.80     4.92652    93.93261   151.14406
    76  C   4.0   -0.02    4.31    4.21    10.90372    94.06867   151.14784
    77  C   4.0   -0.07    4.12    3.84    12.06212    96.57633   150.33904
    78  C   4.0   -0.07    4.19    3.97    12.92573    92.31689   151.99822
    79  H   1.0    0.07    1.09    1.44     9.81335    90.88826   154.58903
    80  H   1.0    0.05    1.06    1.44     9.50154    95.87525   154.64761
    81  H   1.0    0.06    1.07    1.44     9.95508    93.21829   149.52835
    82  H   1.0    0.05    1.00    1.43    13.45863    96.22674   148.86505
    83  H   1.0    0.05    1.00    1.43    10.57113    97.80088   149.61716
    84  H   1.0    0.04    1.00    1.43    12.96541    97.45506   151.96798
    85  H   1.0    0.05    1.00    1.43    14.29011    92.07690   150.47321
    86  H   1.0    0.05    1.00    1.43    13.85547    93.11814   153.65173
    87  H   1.0    0.05    1.02    1.43    12.08102    90.50087   152.47821
    88  N   5.0   -0.21    3.28    1.98    -0.79746   109.13356   159.40972
    89  C   4.0    0.03    4.32    4.23    -1.99555   107.54241   161.25409
    90  C   4.0    0.08    3.23    3.04    -4.64495   108.53263   161.66228
    91  O   6.0   -0.32    1.21    1.80    -6.46853   107.14368   161.36748
    92  C   4.0   -0.04    4.14    3.87    -0.47621   107.58966   163.68806
    93  S   6.0   -0.04    2.40    3.10     2.65695   106.17425   163.37248
    94  H   1.0    0.08    1.05    1.44     0.91274   109.83843   159.95207
    95  H   1.0    0.04    1.07    1.44    -2.07114   105.57899   160.63426
    96  H   1.0    0.04    1.07    1.44    -0.23055   109.54741   164.28144
    97  H   1.0    0.04    1.07    1.44    -1.50233   106.54086   165.13370
    98  N   5.0   -0.19    3.25    1.97    -9.52422   106.38590   157.04379
    99  C   4.0    0.03    4.31    4.22    -9.87760   103.66470   157.29134
   100  C   4.0    0.15    3.40    3.08   -11.33080   102.94660   159.69885
   101  O   6.0   -0.28    1.24    1.80   -13.04667   101.38002   159.64027
   102  C   4.0   -0.04    4.31    4.21    -7.31891   102.34756   157.26299
   103  C   4.0   -0.05    4.20    3.99    -5.57658   103.21494   155.16162
   104  C   4.0   -0.01    4.19    3.98    -2.78546   102.63858   155.75688
   105  N   5.0   -0.14    3.38    2.01    -2.30169    99.93249   156.18963
   106  C   4.0    0.10    3.33    3.06    -0.04346    98.92148   156.68474
   107  N   5.0   -0.17    3.26    1.97     2.00689   100.36712   156.81702
   108  N   5.0   -0.16    3.24    1.97     0.16819    96.44972   157.04001
   109  H   1.0    0.09    1.05    1.44    -7.67040   106.89613   156.90961
   110  H   1.0    0.05    1.06    1.44   -10.99065   103.02219   155.68129
   111  H   1.0    0.05    1.04    1.43    -6.37027   102.71416   159.05445
   112  H   1.0    0.05    1.03    1.43    -7.62315   100.32366   157.02867
   113  H   1.0    0.05    1.03    1.43    -6.07736   102.23984   153.41740
   114  H   1.0    0.04    1.04    1.44    -5.77500   105.25018   154.91217
   115  H   1.0    0.05    1.02    1.43    -1.62327   103.24518   154.16762
   116  H   1.0    0.04    1.03    1.43    -2.23933   103.66092   157.45952
   117  H   1.0    0.08    1.06    1.44    -3.80969    98.73629   156.10459
   118  H   1.0    0.08    1.03    1.43     1.86516   102.27008   156.53923
   119  H   1.0    0.10    1.02    1.43     3.72276    99.57344   157.19685
   120  H   1.0    0.10    1.02    1.43    -1.39273    95.32345   156.93418
   121  H   1.0    0.13    1.05    1.44     1.89162    95.67494   157.41795
   122  N   5.0   -0.14    3.46    2.05   -10.66561   104.09366   161.81723
   123  C   4.0    0.04    4.28    4.15   -11.95252   103.49462   164.17561
   124  C   4.0    0.09    3.21    3.04   -14.69262   104.38279   164.21341
   125  O   6.0   -0.28    1.11    1.80   -16.24408   103.40391   165.65149
   126  C   4.0   -0.07    4.11    3.81   -10.51444   104.58877   166.41116
   127  H   1.0    0.11    1.11    1.45    -9.27477   105.41836   161.96841
   128  H   1.0    0.06    1.06    1.44   -11.97141   101.44616   164.39293
   129  H   1.0    0.05    1.00    1.43   -11.51410   104.11445   168.14781
   130  H   1.0    0.05    1.00    1.43    -8.61904   103.78186   166.44895
   131  H   1.0    0.04    1.00    1.43   -10.40294   106.63535   166.19951
   132  N   5.0   -0.21    3.21    1.96   -13.94051    96.23240   176.16781
   133  C   4.0    0.02    4.41    4.40   -13.29233    98.66637   175.06043
   134  C   4.0    0.15    3.45    3.09   -10.75443    99.64525   176.01663
   135  O   6.0   -0.33    1.33    1.80    -8.95730    99.93438   174.55588
   136  C   4.0   -0.03    4.36    4.31   -15.39938   100.62602   175.51397
   137  C   4.0   -0.05    4.22    4.04   -17.81256    99.78131   174.14392
   138  C   4.0   -0.07    4.15    3.90   -14.56790   103.21494   174.60123
   139  C   4.0   -0.07    4.03    3.67   -20.08023   101.41025   174.67115
   140  H   1.0    0.08    1.03    1.43   -15.69795    96.17193   176.95772
   141  H   1.0    0.05    1.06    1.44   -13.10714    98.36402   173.03087
   142  H   1.0    0.04    1.06    1.44   -15.78299   100.75074   177.53408
   143  H   1.0    0.05    1.03    1.43   -17.46863    99.82855   172.11435
   144  H   1.0    0.04    1.04    1.43   -18.26987    97.86324   174.73729
   145  H   1.0    0.04    1.00    1.43   -16.08535   104.56610   174.94138
   146  H   1.0    0.04    1.01    1.43   -12.87848   103.77997   175.63680
   147  H   1.0    0.05    1.00    1.43   -14.15594   103.11479   172.58489
   148  H   1.0    0.05    1.00    1.43   -21.69405   100.67137   173.62613
   149  H   1.0    0.04    1.00    1.43   -20.47707   101.37435   176.69127
   150  H   1.0    0.04    1.00    1.43   -19.67583   103.33777   174.06833
   151  N   5.0   -0.15    3.52    2.09   -10.62782   100.12524   178.47706
   152  C   4.0    0.03    4.45    4.47    -8.27511   100.84900   179.72617
   153  C   4.0    0.16    3.53    3.13    -6.12838    99.11802   178.97594
   154  O   6.0   -0.30    1.33    1.80    -4.31613    99.91926   177.76652
   155  C   4.0   -0.05    4.41    4.40    -8.59825   100.61468   182.56264
   156  C   4.0   -0.05    4.31    4.22   -11.15316   101.41592   183.45082
   157  C   4.0   -0.05    4.26    4.12   -11.17962   101.34222   186.28163
   158  C   4.0   -0.04    4.16    3.91   -13.41894   102.71416   187.33231
   159  N   5.0   -0.12    4.02    2.91   -13.16383   102.85589   190.13100
   160  H   1.0    0.07    1.10    1.44   -12.13582   100.02886   179.67325
   161  H   1.0    0.05    1.05    1.44    -7.82158   102.78408   179.18570
   162  H   1.0    0.04    1.06    1.44    -8.32424    98.64747   183.10689
   163  H   1.0    0.04    1.04    1.43    -7.19986   101.80521   183.49617
   164  H   1.0    0.04    1.03    1.43   -11.55001   103.33777   182.82154
   165  H   1.0    0.04    1.04    1.44   -12.58935   100.12713   182.72894
   166  H   1.0    0.04    1.03    1.43   -11.26655    99.38258   186.91279
   167  H   1.0    0.04    1.04    1.43    -9.47320   102.23984   187.00350
   168  H   1.0    0.04    1.02    1.43   -13.49642   104.62468   186.56697
   169  H   1.0    0.04    1.02    1.43   -15.14993   101.69749   186.86555
   170  H   1.0    0.06    1.01    1.43   -14.70585   103.80265   190.90012
   171  H   1.0    0.06    1.02    1.43   -13.08446   101.04554   190.89067
   172  H   1.0    0.06    1.02    1.43   -11.51977   103.82154   190.60721
   173  N   5.0   -0.14    3.54    2.11    -6.34192    96.75964   179.80175
   174  C   4.0    0.03    4.40    4.38    -4.63172    94.76409   179.06665
   175  C   4.0    0.17    3.57    3.15    -3.59048    95.24219   176.46828
   176  O   6.0   -0.29    1.26    1.80    -1.32281    95.71084   176.13758
   177  C   4.0   -0.08    4.19    3.99    -6.01878    92.30366   179.05720
   178  H   1.0    0.07    1.08    1.44    -7.71953    96.16815   181.01307
   179  H   1.0    0.05    1.06    1.44    -3.06703    94.68094   180.40269
   180  H   1.0    0.04    1.00    1.43    -4.72054    90.80322   178.50162
   181  H   1.0    0.04    1.00    1.43    -6.74632    91.93706   180.94882
   182  H   1.0    0.04    1.01    1.43    -7.57591    92.41705   177.71550
   183  N   5.0   -0.14    3.52    2.09    -5.27989    95.07211   174.61635
   184  C   4.0    0.03    4.43    4.42    -4.59770    95.42360   171.98207
   185  C   4.0    0.17    3.51    3.12    -2.92719    97.76119   171.67215
   186  O   6.0   -0.30    1.27    1.80    -0.80313    97.64403   170.71406
   187  C   4.0   -0.04    4.35    4.28    -6.98254    95.69194   170.36257
   188  C   4.0   -0.01    3.56    3.14    -6.42696    96.06800   167.59601
   189  C   4.0   -0.04    3.46    3.10    -6.39861    94.01954   165.96140
   190  C   4.0   -0.03    3.48    3.10    -5.86193    98.47173   166.63792
   191  C   4.0   -0.03    3.38    3.07    -5.84492    94.35969   163.42917
   192  C   4.0   -0.04    3.36    3.07    -5.30824    98.83078   164.11703
   193  C   4.0   -0.03    3.37    3.07    -5.30068    96.78042   162.50509
   194  H   1.0    0.08    1.07    1.44    -7.14883    94.69039   174.88658
   195  H   1.0    0.05    1.06    1.44    -3.56213    93.76253   171.33956
   196  H   1.0    0.04    1.03    1.43    -8.11448    93.98174   170.55344
   197  H   1.0    0.06    1.04    1.43    -8.05401    97.32278   171.02020
   198  H   1.0    0.05    1.03    1.43    -6.81057    92.15060   166.66816
   199  H   1.0    0.05    1.03    1.43    -5.86004   100.07611   167.90026
   200  H   1.0    0.06    1.03    1.43    -5.83169    92.75909   162.16305
   201  H   1.0    0.05    1.03    1.43    -4.88494   100.69783   163.41027
   202  H   1.0    0.05    1.03    1.43    -4.87360    97.04310   160.52655
   203  N   5.0   -0.13    3.54    2.10    -3.91929    99.89091   172.51875
   204  C   4.0    0.04    4.52    4.57    -2.65695   102.29842   172.21451
   205  C   4.0    0.16    3.53    3.13     0.02268   102.29653   173.21606
   206  O   6.0   -0.31    1.34    1.80     1.80847   102.56110   171.77609
   207  C   4.0    0.05    4.30    4.19    -4.16118   104.31854   173.59778
   208  O   6.0   -0.26    2.10    1.84    -6.69530   104.35634   172.62458
   209  C   4.0   -0.07    4.10    3.80    -2.92908   106.89424   173.28598
   210  H   1.0    0.12    1.11    1.45    -5.61249   100.00997   173.43338
   211  H   1.0    0.05    1.06    1.44    -2.54546   102.70661   170.19817
   212  H   1.0    0.05    1.05    1.44    -4.21598   103.90469   175.61412
   213  H   1.0    0.14    1.05    1.44    -7.66662   102.94660   173.32944
   214  H   1.0    0.04    1.00    1.43    -4.02323   108.32476   174.28564
   215  H   1.0    0.04    1.00    1.43    -1.01856   106.85833   174.05321
   216  H   1.0    0.04    1.00    1.43    -2.83837   107.39502   171.29043
   217  N   5.0   -0.14    3.53    2.10     0.24755   102.04520   175.70105
   218  C   4.0    0.03    4.46    4.47     2.64940   102.07544   177.00874
   219  C   4.0    0.17    3.60    3.17     4.61282   100.75452   175.44405
   220  O   6.0   -0.31    1.32    1.80     6.47420   101.88457   174.62957
   221  C   4.0   -0.04    4.40    4.39     2.36405   100.69783   179.50885
   222  C   4.0   -0.03    4.25    4.10     4.81691   100.08556   180.82032
   223  C   4.0    0.24    3.16    3.03     4.42007    99.78131   183.61711
   224  O   6.0   -0.30    1.29    1.80     2.24877   100.13847   184.44670
   225  O   6.0   -0.28    1.18    1.80     6.23799    99.21061   184.98905
   226  H   1.0    0.10    1.10    1.44    -1.25100   101.81088   176.89158
   227  H   1.0    0.05    1.06    1.44     3.22765   104.01996   177.36590
   228  H   1.0    0.06    1.05    1.44     1.25856   101.87891   180.78252
   229  H   1.0    0.06    1.04    1.43     1.38328    98.91959   179.16681
   230  H   1.0    0.06    1.03    1.43     5.57469    98.32244   180.07199
   231  H   1.0    0.05    1.03    1.43     6.16051   101.61623   180.51229
   232  N   5.0   -0.13    3.60    2.16     4.15740    98.34512   174.99807
   233  C   4.0    0.04    4.56    4.61     5.91484    96.85790   173.55432
   234  C   4.0    0.17    3.49    3.11     6.53845    98.01820   170.98996
   235  O   6.0   -0.31    1.31    1.80     8.72109    98.10701   170.23596
   236  C   4.0   -0.03    4.23    4.06     4.85471    94.23118   173.18582
   237  S   6.0   -0.01    2.46    3.10     4.47109    92.57767   176.06010
   238  H   1.0    0.10    1.09    1.44     2.60215    97.38514   175.60845
   239  H   1.0    0.07    1.08    1.44     7.67229    96.76153   174.62391
   240  H   1.0    0.07    1.08    1.44     3.01033    94.37480   172.28065
   241  H   1.0    0.05    1.09    1.44     6.14161    93.15026   171.99530
   242  N   5.0   -0.12    3.51    2.08     4.63172    98.87613   169.61613
   243  C   4.0    0.05    4.58    4.64     5.14194   100.06666   167.20484
   244  C   4.0    0.17    3.57    3.15     7.03167   102.21717   167.51287
   245  O   6.0   -0.30    1.32    1.80     9.15194   102.11701   166.55856
   246  C   4.0   -0.02    4.25    4.11     2.71743   101.05687   166.02754
   247  S   6.0    0.00    2.43    3.10     3.24655   102.42126   162.99642
   248  H   1.0    0.12    1.09    1.44     2.77223    98.77598   170.11124
   249  H   1.0    0.08    1.08    1.44     5.94886    98.66259   165.93117
   250  H   1.0    0.07    1.09    1.44     1.38706    99.49974   165.81022
   251  H   1.0    0.05    1.09    1.44     1.91240   102.50440   167.25397
   252  N   5.0   -0.14    3.53    2.10     6.25310   104.16169   168.87914
   253  C   4.0    0.04    4.59    4.65     7.84992   106.35567   169.24953
   254  C   4.0    0.17    3.57    3.15    10.49365   105.62434   170.06967
   255  O   6.0   -0.32    1.33    1.80    12.33424   106.45960   168.93583
   256  C   4.0   -0.03    4.35    4.30     6.73876   108.15091   171.16571
   257  C   4.0   -0.07    4.19    3.98     8.56802   110.25984   171.66648
   258  C   4.0   -0.08    4.16    3.91     4.27267   109.18837   170.16793
   259  H   1.0    0.10    1.09    1.44     4.53723   104.27319   169.74841
   260  H   1.0    0.05    1.07    1.44     7.95386   107.29108   167.41649
   261  H   1.0    0.05    1.06    1.44     6.37594   107.16447   172.93827
   262  H   1.0    0.05    1.01    1.43     7.74788   111.54485   173.05165
   263  H   1.0    0.05    1.02    1.43    10.32357   109.46616   172.39781
   264  H   1.0    0.04    1.00    1.43     8.93084   111.26517   169.90526
   265  H   1.0    0.04    1.01    1.43     3.47710   110.48283   171.55877
   266  H   1.0    0.04    1.00    1.43     4.63172   110.18803   168.40293
   267  H   1.0    0.04    1.00    1.43     2.97254   107.62556   169.83912
   268  N   5.0   -0.13    3.50    2.07    10.69396   104.05398   172.01608
   269  C   4.0    0.04    4.56    4.62    13.17328   103.21683   172.86835
   270  C   4.0    0.16    3.56    3.14    14.71530   102.12646   170.68950
   271  O   6.0   -0.31    1.31    1.80    16.68061   103.13179   169.97707
   272  C   4.0   -0.02    4.35    4.29    12.97297   101.24207   174.94327
   273  C   4.0   -0.07    4.19    3.97    15.54867   100.20839   175.51208
   274  C   4.0   -0.06    4.14    3.88    11.78433   102.38535   177.28275
   275  H   1.0    0.11    1.10    1.44     9.21052   103.34344   173.01953
   276  H   1.0    0.05    1.06    1.44    14.12192   104.88924   173.60723
   277  H   1.0    0.06    1.06    1.44    11.76921    99.69060   174.32344
   278  H   1.0    0.07    1.02    1.43    15.38993    98.79487   177.00118
   279  H   1.0    0.05    1.02    1.43    16.31778    99.34856   173.80565
   280  H   1.0    0.05    1.00    1.43    16.76754   101.74851   176.13191
   281  H   1.0    0.07    1.00    1.43    11.65772   100.93971   178.74540
   282  H   1.0    0.05    1.00    1.43    12.95785   103.94627   177.93660
   283  H   1.0    0.06    1.01    1.43     9.90027   103.07321   176.81032
   284  N   5.0   -0.14    3.50    2.08    13.80067   100.06477   169.62558
   285  C   4.0    0.04    4.38    4.35    15.03655    98.88936   167.47696
   286  C   4.0    0.17    3.52    3.12    15.97007   100.81310   165.55133
   287  O   6.0   -0.32    1.37    1.80    18.19806   100.87168   164.91449
   288  C   4.0   -0.07    4.15    3.90    13.24698    97.06577   166.22974
   289  H   1.0    0.11    1.10    1.44    12.20196    99.15581   170.20573
   290  H   1.0    0.04    1.06    1.44    16.67494    97.85757   168.17994
   291  H   1.0    0.04    1.00    1.43    14.19184    96.19461   164.61970
   292  H   1.0    0.05    1.00    1.43    12.70463    95.62013   167.59224
   293  H   1.0    0.07    1.00    1.43    11.57835    98.09189   165.59291
   294  N   5.0   -0.13    3.52    2.09    14.24664   102.35512   164.59324
   295  C   4.0    0.04    4.44    4.45    14.91183   104.20705   162.67706
   296  C   4.0    0.16    3.52    3.12    17.27776   105.60356   163.44051
   297  O   6.0   -0.31    1.34    1.80    19.12214   105.70938   162.03833
   298  C   4.0    0.03    4.18    3.97    12.75943   106.08166   162.31990
   299  O   6.0   -0.25    2.04    1.83    10.59569   104.82310   161.36937
   300  H   1.0    0.11    1.10    1.44    12.38715   102.37023   165.09969
   301  H   1.0    0.05    1.06    1.44    15.23119   103.23573   160.88938
   302  H   1.0    0.06    1.02    1.43    12.30023   106.93959   164.13593
   303  H   1.0    0.05    1.02    1.43    13.34147   107.53486   160.98008
   304  H   1.0    0.14    1.02    1.43     9.82469   103.79509   162.70351
   305  N   5.0   -0.14    3.58    2.14    17.19273   106.65235   165.70629
   306  C   4.0    0.04    4.49    4.52    19.27520   108.10744   166.75698
   307  C   4.0    0.16    3.49    3.11    21.71295   106.64668   166.87792
   308  O   6.0   -0.29    1.28    1.80    23.75008   107.68225   166.54155
   309  C   4.0   -0.03    4.37    4.33    18.55522   108.96160   169.37803
   310  C   4.0   -0.03    4.33    4.25    16.12314   110.41480   169.29866
   311  C   4.0    0.15    3.25    3.04    16.09858   112.48405   171.22996
   312  O   6.0   -0.27    1.22    1.80    16.64849   112.03051   173.44094
   313  N   5.0   -0.18    3.18    1.95    15.48441   114.78951   170.42116
   314  H   1.0    0.11    1.10    1.44    15.67906   106.53141   166.89304
   315  H   1.0    0.05    1.06    1.44    19.60402   109.72883   165.53054
   316  H   1.0    0.07    1.04    1.43    18.30389   107.31943   170.59501
   317  H   1.0    0.06    1.04    1.43    20.03110   110.18236   170.13770
   318  H   1.0    0.04    1.05    1.44    15.89448   111.26139   167.43539
   319  H   1.0    0.07    1.07    1.44    14.55278   109.14112   169.69172
   320  H   1.0    0.08    1.02    1.43    15.05923   115.07675   168.56355
   321  H   1.0    0.09    1.03    1.43    15.43906   116.26539   171.66082
   322  N   5.0   -0.13    3.60    2.16    21.49941   104.22217   167.38059
   323  C   4.0    0.04    4.53    4.58    23.68394   102.59700   167.22563
   324  C   4.0    0.16    3.51    3.12    24.46250   102.21906   164.49686
   325  O   6.0   -0.26    1.27    1.80    26.67348   101.89591   163.93751
   326  C   4.0   -0.04    4.40    4.38    23.12458   100.07422   168.47096
   327  C   4.0   -0.02    4.23    4.07    22.41782   100.37090   171.24886
   328  C   4.0   -0.07    4.11    3.83    22.47640    97.82355   172.52631
   329  C   4.0   -0.07    4.15    3.90    24.21873   102.23795   172.52820
   330  H   1.0    0.12    1.10    1.44    19.86669   103.33588   167.89270
   331  H   1.0    0.07    1.08    1.44    25.25619   103.45494   168.24419
   332  H   1.0    0.05    1.03    1.43    21.54854    99.17471   167.49586
   333  H   1.0    0.05    1.03    1.43    24.79887    98.87802   168.35568
   334  H   1.0    0.06    1.06    1.44    20.50920   101.12490   171.42649
   335  H   1.0    0.05    1.00    1.43    21.96995    98.05599   174.50863
   336  H   1.0    0.04    1.00    1.43    21.12525    96.57633   171.59656
   337  H   1.0    0.05    1.00    1.43    24.37558    97.04121   172.37513
   338  H   1.0    0.05    1.00    1.43    23.68960   102.43071   174.50863
   339  H   1.0    0.05    1.00    1.43    26.14436   101.51986   172.38269
   340  H   1.0    0.06    1.01    1.43    24.07511   104.06154   171.58334
   341  N   5.0   -0.13    3.59    2.15    22.65970   102.30031   162.77910
   342  C   4.0    0.05    4.50    4.53    23.37780   102.40614   160.15238
   343  C   4.0    0.17    3.44    3.09    25.04643   104.70971   159.58547
   344  O   6.0   -0.26    1.23    1.80    26.55254   104.67948   157.80534
   345  C   4.0   -0.04    4.35    4.29    21.06666   102.27386   158.47998
   346  C   4.0   -0.05    4.28    4.16    20.38636    99.57155   157.97164
   347  C   4.0   -0.01    4.28    4.15    18.32467    99.38069   156.04790
   348  N   5.0   -0.14    3.43    2.04    15.89448    99.22195   157.30457
   349  C   4.0    0.09    3.36    3.07    15.06301    97.14892   158.44407
   350  N   5.0   -0.19    3.27    1.97    16.48219    95.07778   158.46297
   351  N   5.0   -0.18    3.24    1.96    12.81801    97.14892   159.56279
   352  H   1.0    0.12    1.13    1.45    20.76431   102.29465   163.13437
   353  H   1.0    0.06    1.08    1.44    24.49841   100.74696   159.66861
   354  H   1.0    0.07    1.07    1.44    19.47930   103.19038   159.41917
   355  H   1.0    0.05    1.04    1.43    21.45595   103.20738   156.68474
   356  H   1.0    0.05    1.04    1.43    22.03798    98.57188   157.25543
   357  H   1.0    0.05    1.04    1.43    19.73252    98.69094   159.71397
   358  H   1.0    0.04    1.03    1.43    18.33979   101.05121   154.84414
   359  H   1.0    0.04    1.03    1.43    18.59301    97.68749   154.90651
   360  H   1.0    0.08    1.06    1.44    14.76632   100.78475   157.31213
   361  H   1.0    0.08    1.04    1.43    18.20751    95.08345   157.60314
   362  H   1.0    0.08    1.02    1.43    15.84724    93.48285   159.33791
   363  H   1.0    0.09    1.02    1.43    11.73331    98.74196   159.54578
   364  H   1.0    0.10    1.04    1.43    12.17739    95.55588   160.43962
   365  N   5.0   -0.12    3.47    2.06    24.85368   106.67314   161.13882
   366  C   4.0    0.05    4.31    4.22    26.69427   108.72538   161.00465
   367  C   4.0    0.27    3.19    3.03    29.29831   107.94493   162.08557
   368  O   6.0   -0.23    1.18    1.80    30.98017   107.07943   160.69285
   369  C   4.0   -0.05    4.12    3.84    25.68327   111.04786   162.34258
   370  O   6.0   -0.24    1.20    1.80    29.73106   108.17736   164.35891
   371  H   1.0    0.11    1.08    1.44    23.48173   106.89424   162.47486
   372  H   1.0    0.07    1.06    1.44    26.99474   109.20348   159.02422
   373  H   1.0    0.06    1.00    1.43    27.08355   112.55397   162.21974
   374  H   1.0    0.05    1.00    1.43    23.93338   111.63934   161.42984
   375  H   1.0    0.08    1.02    1.43    25.32422   110.58109   164.31545
   376  N   5.0   -0.21    3.26    1.97     7.95008    85.95985   183.31476
   377  C   4.0    0.02    4.35    4.29     8.57180    88.01210   181.58755
   378  C   4.0    0.15    3.46    3.10    11.37426    88.15761   181.00740
   379  O   6.0   -0.31    1.35    1.80    12.20763    87.75509   178.87579
   380  C   4.0   -0.04    4.40    4.38     7.82158    90.49520   182.80075
   381  C   4.0   -0.05    4.31    4.22     5.44430    90.33079   184.33710
   382  C   4.0   -0.04    4.25    4.11     4.65251    92.92160   185.13456
   383  C   4.0   -0.04    4.16    3.93     1.93886    92.95940   185.94336
   384  N   5.0   -0.11    4.05    3.00     1.16407    95.59746   186.48572
   385  H   1.0    0.08    1.07    1.44     6.72742    86.48142   184.71126
   386  H   1.0    0.04    1.06    1.44     7.56268    87.68139   179.82254
   387  H   1.0    0.05    1.06    1.44     9.33903    91.10936   184.04986
   388  H   1.0    0.05    1.04    1.43     7.51922    91.89359   181.31920
   389  H   1.0    0.04    1.04    1.43     3.94008    89.49364   183.20704
   390  H   1.0    0.04    1.04    1.43     5.77878    89.19129   186.01895
   391  H   1.0    0.05    1.03    1.43     5.81280    93.53388   186.72193
   392  H   1.0    0.05    1.04    1.43     4.87738    94.22363   183.55475
   393  H   1.0    0.04    1.03    1.43     0.75022    92.21296   184.43536
   394  H   1.0    0.04    1.02    1.43     1.70264    91.83123   187.65168
   395  H   1.0    0.06    1.01    1.43    -0.62928    95.62013   187.29074
   396  H   1.0    0.08    1.02    1.43     2.43397    96.42705   187.73482
   397  H   1.0    0.08    1.05    1.44     1.13006    96.64247   184.82276
   398  N   5.0   -0.14    3.52    2.09    12.80478    88.84736   182.94815
   399  C   4.0    0.04    4.28    4.15    15.55622    88.90972   182.84988
   400  C   4.0    0.10    3.34    3.06    16.48030    86.87448   181.10189
   401  O   6.0   -0.28    1.13    1.80    17.57256    87.39605   179.13279
   402  C   4.0   -0.07    4.14    3.87    16.61825    88.47508   185.45015
   403  H   1.0    0.07    1.07    1.44    12.09803    89.38782   184.65835
   404  H   1.0    0.07    1.06    1.44    16.19873    90.74464   182.16769
   405  H   1.0    0.05    1.00    1.43    18.67427    88.52610   185.35188
   406  H   1.0    0.05    1.00    1.43    15.93795    89.95662   186.70870
   407  H   1.0    0.05    1.00    1.43    15.99464    86.63449   186.13045
   408  N   5.0   -0.17    3.25    1.97    13.80445    83.00243   177.19204
   409  C   4.0    0.04    4.41    4.40    12.84069    83.27455   174.65225
   410  C   4.0    0.15    3.45    3.09    14.22397    85.29089   173.09890
   411  O   6.0   -0.31    1.27    1.80    15.46174    84.68240   171.24130
   412  C   4.0    0.05    4.31    4.22    10.07413    83.94352   174.77886
   413  O   6.0   -0.25    2.11    1.84     8.75699    81.98576   176.08844
   414  C   4.0   -0.07    4.13    3.86     9.00076    84.23264   172.15970
   415  H   1.0    0.09    1.04    1.43    12.43251    83.09881   178.54320
   416  H   1.0    0.05    1.06    1.44    13.11848    81.46798   173.70172
   417  H   1.0    0.05    1.05    1.44     9.82469    85.73120   175.77286
   418  H   1.0    0.12    1.01    1.43     8.94596    82.20875   177.91770
   419  H   1.0    0.05    1.01    1.43     7.00143    84.71452   172.26742
   420  H   1.0    0.04    1.01    1.43     9.99665    85.72742   171.15248
   421  H   1.0    0.05    1.00    1.43     9.20863    82.46953   171.11468
   422  N   5.0   -0.14    3.47    2.06    14.03499    87.68139   173.88691
   423  C   4.0    0.03    4.40    4.37    14.99875    89.82434   172.40348
   424  C   4.0    0.17    3.47    3.10    17.65760    89.36514   171.40381
   425  O   6.0   -0.32    1.29    1.80    18.21318    89.92261   169.24575
   426  C   4.0   -0.04    4.30    4.19    14.96096    92.29233   173.92093
   427  C   4.0   -0.03    4.18    3.96    12.39660    93.13892   174.89036
   428  C   4.0    0.24    3.12    3.03    12.60447    94.86424   177.20149
   429  O   6.0   -0.29    1.21    1.80    14.63026    94.87747   178.41470
   430  O   6.0   -0.30    1.17    1.80    10.74687    96.20217   177.82510
   431  H   1.0    0.11    1.10    1.44    13.22052    88.20863   175.55176
   432  H   1.0    0.05    1.06    1.44    13.71941    90.03977   170.80477
   433  H   1.0    0.07    1.04    1.43    16.18361    92.05611   175.56121
   434  H   1.0    0.04    1.03    1.43    15.68284    93.79844   172.71528
   435  H   1.0    0.05    1.03    1.43    11.42339    94.17827   173.40125
   436  H   1.0    0.05    1.03    1.43    11.29867    91.48163   175.42704
   437  N   5.0   -0.13    3.54    2.11    19.31111    88.36359   172.97229
   438  C   4.0    0.04    4.46    4.47    21.86980    87.82690   172.15592
   439  C   4.0    0.10    3.22    3.04    22.03798    85.64616   170.29076
   440  O   6.0   -0.28    1.12    1.80    23.33623    85.80490   168.39159
   441  C   4.0   -0.03    4.13    3.87    23.48551    87.22597   174.44816
   442  S   6.0   -0.04    2.41    3.10    23.68205    89.81867   176.54954
   443  H   1.0    0.10    1.08    1.44    18.94639    87.90249   174.80721
   444  H   1.0    0.06    1.07    1.44    22.57089    89.51065   171.19783
   445  H   1.0    0.05    1.08    1.44    22.65781    85.63482   175.46105
   446  H   1.0    0.05    1.08    1.44    25.39225    86.75165   173.82833
   447  H   1.0    0.06    1.00    1.43    24.28151    89.48361   178.71072
   448  N   5.0   -0.19    3.24    1.97    17.76720    83.22542   166.18439
   449  C   4.0    0.03    4.47    4.49    16.85825    84.01722   163.72964
   450  C   4.0    0.15    3.49    3.11    18.68561    85.80868   162.40872
   451  O   6.0   -0.27    1.26    1.80    19.39993    85.38349   160.23931
   452  C   4.0   -0.02    4.35    4.29    14.26932    85.21152   163.93562
   453  C   4.0   -0.07    4.19    3.98    13.48130    86.24898   161.42606
   454  C   4.0   -0.07    4.17    3.94    12.41739    83.24999   164.80678
   455  H   1.0    0.11    1.05    1.44    16.47463    83.38605   167.60546
   456  H   1.0    0.05    1.07    1.44    16.72785    82.31079   162.58257
   457  H   1.0    0.05    1.06    1.44    14.31089    86.76110   165.29244
   458  H   1.0    0.04    1.00    1.43    11.61426    87.10125   161.60936
   459  H   1.0    0.05    1.01    1.43    14.84758    87.67195   160.82891
   460  H   1.0    0.05    1.00    1.43    13.42272    84.71263   160.05412
   461  H   1.0    0.04    1.00    1.43    10.55034    84.10981   164.95607
   462  H   1.0    0.04    1.00    1.43    12.37582    81.71175   163.43673
   463  H   1.0    0.05    1.01    1.43    13.01076    82.53567   166.64548
   464  N   5.0   -0.14    3.47    2.06    19.46796    87.79478   163.71074
   465  C   4.0    0.04    4.48    4.50    21.25753    89.54466   162.58068
   466  C   4.0    0.10    3.33    3.06    23.58945    88.16894   161.59236
   467  O   6.0   -0.25    1.12    1.80    24.08456    88.17083   159.33035
   468  C   4.0   -0.02    4.32    4.24    22.09657    91.57045   164.42505
   469  C   4.0   -0.06    4.17    3.95    24.17904    93.11625   163.24020
   470  C   4.0   -0.07    4.15    3.90    19.88370    93.22207   165.14693
   471  H   1.0    0.10    1.07    1.44    18.91427    88.23508   165.50409
   472  H   1.0    0.06    1.06    1.44    20.26164    90.42906   161.01032
   473  H   1.0    0.06    1.06    1.44    22.81844    90.70118   166.14660
   474  H   1.0    0.05    1.00    1.43    24.77620    94.56945   164.57245
   475  H   1.0    0.06    1.02    1.43    25.76263    91.87659   162.79422
   476  H   1.0    0.05    1.00    1.43    23.46662    93.99308   161.51866
   477  H   1.0    0.04    1.00    1.43    20.52620    94.66393   166.47163
   478  H   1.0    0.04    1.00    1.43    19.12970    94.11402   163.44996
   479  H   1.0    0.06    1.02    1.43    18.43428    92.05422   166.02943
   480  N   5.0   -0.21    3.21    1.96   -13.89215   115.46039   174.56156
   481  C   4.0    0.03    4.35    4.29   -12.02610   113.97819   173.22552
   482  C   4.0    0.08    3.33    3.06    -9.55164   115.40682   173.07434
   483  O   6.0   -0.32    1.18    1.80    -7.65312   114.58271   174.10235
   484  C   4.0   -0.03    4.38    4.35   -12.87191   113.37203   170.55156
   485  C   4.0   -0.05    4.21    4.02   -14.52393   111.00643   170.57046
   486  C   4.0   -0.07    4.22    4.03   -10.58088   112.99056   168.84136
   487  C   4.0   -0.07    4.04    3.69   -14.90639   109.83206   167.97019
   488  H   1.0    0.08    1.03    1.43   -15.58987   115.61925   173.66205
   489  H   1.0    0.04    1.06    1.44   -11.78813   112.22809   174.28566
   490  H   1.0    0.04    1.06    1.44   -13.97427   114.95256   169.82212
   491  H   1.0    0.04    1.03    1.43   -13.63630   109.58996   171.77421
   492  H   1.0    0.04    1.03    1.43   -16.37902   111.50212   171.31501
   493  H   1.0    0.04    1.01    1.43   -11.23221   112.55778   166.93462
   494  H   1.0    0.05    1.02    1.43    -9.46044   114.71975   168.82624
   495  H   1.0    0.05    1.00    1.43    -9.45259   111.42936   169.57079
   496  H   1.0    0.05    1.00    1.43   -16.09906   108.16372   168.15728
   497  H   1.0    0.05    1.00    1.43   -15.81377   111.21094   166.73809
   498  H   1.0    0.04    1.01    1.43   -13.07200   109.30042   167.19730
   499  N   5.0   -0.20    3.26    1.97    -6.25127   116.48965   178.83423
   500  C   4.0    0.03    4.44    4.44    -4.79457   114.45034   179.94917
   501  C   4.0    0.15    3.50    3.12    -2.23206   114.21470   178.74352
   502  O   6.0   -0.30    1.24    1.80    -0.35297   113.85507   180.04365
   503  C   4.0   -0.02    4.39    4.36    -6.08308   111.88221   179.59768
   504  C   4.0   -0.05    4.19    3.98    -8.65412   111.82271   180.92993
   505  C   4.0   -0.07    4.18    3.95    -4.33865   109.76028   180.51608
   506  C   4.0   -0.08    4.04    3.69    -9.65647   109.15577   181.35890
   507  H   1.0    0.11    1.06    1.44    -7.58619   115.92186   177.56433
   508  H   1.0    0.05    1.06    1.44    -4.65257   114.93383   181.94661
   509  H   1.0    0.05    1.06    1.44    -6.43970   111.58904   177.59079
   510  H   1.0    0.04    1.03    1.43    -8.47253   112.73274   182.76864
   511  H   1.0    0.04    1.03    1.43   -10.02632   112.83505   179.77531
   512  H   1.0    0.04    1.01    1.43    -5.28669   107.95169   180.25152
   513  H   1.0    0.05    1.01    1.43    -2.59309   109.80579   179.42193
   514  H   1.0    0.05    1.00    1.43    -3.92342   110.05019   182.51352
   515  H   1.0    0.04    1.00    1.43   -11.48103   109.26976   182.30943
   516  H   1.0    0.04    1.00    1.43    -9.87123   108.22005   179.53721
   517  H   1.0    0.04    1.01    1.43    -8.31650   108.11610   182.52864
   518  N   5.0   -0.15    3.49    2.07    -2.18893   114.37053   176.23963
   519  C   4.0    0.03    4.28    4.15     0.05633   113.79244   174.76565
   520  C   4.0    0.08    3.23    3.04     2.02348   115.87300   174.97163
   521  O   6.0   -0.32    1.13    1.80     4.29230   115.42416   174.66738
   522  C   4.0   -0.08    4.15    3.89    -0.66244   113.39709   172.06712
   523  H   1.0    0.10    1.08    1.44    -3.69796   114.89800   175.16249
   524  H   1.0    0.05    1.06    1.44     0.89899   112.05323   175.47807
   525  H   1.0    0.04    1.01    1.43     1.03134   112.96538   170.97864
   526  H   1.0    0.04    1.00    1.43    -1.99055   111.82730   171.94996
   527  H   1.0    0.05    1.00    1.43    -1.54110   115.11551   171.34902
   528  N   5.0   -0.19    3.22    1.96     7.05681   115.25060   179.96428
   529  C   4.0    0.04    4.31    4.22     9.33678   113.82626   179.34067
   530  C   4.0    0.15    3.37    3.07    11.29943   115.17761   177.67583
   531  O   6.0   -0.27    1.24    1.80    13.44650   114.33116   177.47929
   532  C   4.0   -0.03    4.32    4.24     8.61487   111.24049   178.24652
   533  C   4.0   -0.02    3.57    3.15     7.06374   109.74706   180.09845
   534  C   4.0   -0.04    3.48    3.11     8.22776   108.47925   182.08834
   535  C   4.0   -0.04    3.46    3.10     4.44190   109.67350   179.92649
   536  C   4.0   -0.03    3.42    3.09     6.84819   107.14597   183.84956
   537  C   4.0   -0.04    3.42    3.09     3.03041   108.35016   181.67827
   538  C   4.0    0.07    3.45    3.09     4.24901   107.08986   183.65303
   539  O   6.0   -0.22    2.09    1.84     2.88443   105.76086   185.44071
   540  H   1.0    0.11    1.03    1.43     5.64778   115.11353   178.65659
   541  H   1.0    0.06    1.07    1.44    10.35009   113.50356   181.10379
   542  H   1.0    0.05    1.04    1.43     7.50663   111.50839   176.53254
   543  H   1.0    0.05    1.03    1.43    10.32553   110.17482   177.81945
   544  H   1.0    0.06    1.03    1.43    10.26014   108.54197   182.25652
   545  H   1.0    0.06    1.03    1.43     3.50134   110.66010   178.40904
   546  H   1.0    0.07    1.03    1.43     7.79064   106.15610   185.36512
   547  H   1.0    0.05    1.03    1.43     0.99614   108.29071   181.52331
   548  H   1.0    0.12    1.02    1.43     1.07296   105.88242   185.07410
   549  N   5.0   -0.12    3.46    2.05    10.60587   117.28219   176.50986
   550  C   4.0    0.04    4.34    4.27    12.34983   118.58146   174.81100
   551  C   4.0    0.09    3.18    3.03    14.22881   120.35365   176.15082
   552  O   6.0   -0.26    1.12    1.80    13.45758   122.00316   177.59268
   553  C   4.0   -0.04    4.28    4.16    10.83869   120.00454   172.81923
   554  C   4.0   -0.05    4.20    4.01     8.96730   118.31748   171.43217
   555  C   4.0   -0.05    4.16    3.92     7.82377   119.66695   169.14371
   556  C   4.0   -0.04    4.11    3.82     6.18674   117.88389   167.55634
   557  N   5.0   -0.12    3.98    2.81     4.43738   119.26981   165.80457
   558  H   1.0    0.09    1.06    1.44     8.88237   118.12443   176.69506
   559  H   1.0    0.05    1.08    1.44    13.53707   117.15249   173.92283
   560  H   1.0    0.06    1.03    1.43     9.78023   121.51659   173.73386
   561  H   1.0    0.04    1.03    1.43    12.13652   120.79530   171.43028
   562  H   1.0    0.04    1.03    1.43     9.93585   116.62478   170.76888
   563  H   1.0    0.06    1.03    1.43     7.43807   117.79899   172.70963
   564  H   1.0    0.05    1.03    1.43     6.64159   121.22322   169.79189
   565  H   1.0    0.04    1.03    1.43     9.34015   120.38532   167.94941
   566  H   1.0    0.04    1.02    1.43     7.41186   116.68409   166.41495
   567  H   1.0    0.04    1.02    1.43     5.04055   116.72463   168.81490
   568  H   1.0    0.05    1.01    1.43     3.36722   117.98642   164.76900
   569  H   1.0    0.06    1.01    1.43     3.22605   120.42302   166.83825
   570  H   1.0    0.06    1.01    1.43     5.47453   120.38358   164.56113
   571  H   1.0    0.09    1.08    1.44    -3.74670    88.32833   173.70350
   572  H   1.0    0.05    1.05    1.44     6.32697    97.24236   151.55645
   573  H   1.0    0.09    1.07    1.44    -0.53649   108.24913   157.98066
   574  H   1.0    0.05    1.05    1.44    -4.91267   110.33141   162.17588
   575  H   1.0    0.10    1.07    1.44   -10.31325   106.93557   155.64098
   576  H   1.0    0.06    1.04    1.44   -15.25069   105.77458   163.06339
   577  H   1.0    0.09    1.07    1.44   -13.89016    95.03031   174.96573
   578  H   1.0    0.09    1.07    1.44     7.22458    84.68878   182.44838
   579  H   1.0    0.06    1.05    1.44    16.20639    85.05671   181.53976
   580  H   1.0    0.10    1.07    1.44    14.57203    81.49291   177.34930
   581  H   1.0    0.07    1.05    1.44    21.07586    84.05174   170.61202
   582  H   1.0    0.10    1.07    1.44    18.22823    81.58967   166.11854
   583  H   1.0    0.07    1.04    1.44    24.72780    87.25622   162.79326
   584  H   1.0    0.09    1.07    1.44   -14.20326   114.75054   176.07546
   585  H   1.0    0.05    1.05    1.44    -9.45965   117.03967   172.12756
   586  H   1.0    0.10    1.07    1.44    -7.06796   117.34003   180.05996
   587  H   1.0    0.06    1.05    1.44     1.48908   117.64351   175.35995
   588  H   1.0    0.11    1.07    1.44     6.42077   114.68738   181.43765
   589  H   1.0    0.07    1.04    1.43    16.08478   120.16508   175.84935

  Z AO/shell   Hii/eV     exponent
  1     Wed Apr 25 08:07:45 CEST 2018   EN: 2.200 GM2: 0.406  GM3: 0.0800  RAES: 1.40
     1s    -10.707211    1.230000
  6     Wed Apr 25 08:07:45 CEST 2018   EN: 2.550 GM2: 0.538  GM3: 0.1500  RAES: 3.00
     2s    -13.970922    2.096432
     2p    -10.063292    1.800000
  7     Wed Apr 25 08:07:45 CEST 2018   EN: 3.040 GM2: 0.461  GM3:-0.0640  RAES: 1.90
     2s    -16.686243    2.339881
     2p    -12.523956    2.014332
  8     Wed Apr 25 08:07:45 CEST 2018   EN: 3.440 GM2: 0.452  GM3:-0.0517  RAES: 1.80
     2s    -20.229985    2.439742
     2p    -15.503117    2.137023
 16     Tue Apr 24 11:44:34 CEST 2018   EN: 2.580 GM2: 0.340  GM3:-0.0502  RAES: 3.10
     3s    -20.029654    1.981333
     3p    -11.377694    2.025643
     3d     -0.420282    1.702555
 no old-style atom pair restraining (fixing) potential

molecular fragmentation (1/2 indicates fragments):
111111111111111111111111111111111111111111111111111111111111111111111111
111111111111111111111111122222222222222222222222222222222221111111111111
111111111111111111111111111111111111111111111111111111111111111111111111
111111111111111111111111111111111111111111111111111111111111111111111111
111111111111111111111111111111111111111111111111111111111111111111111111
111111111111111222222222222222222222222222222222222222222222222222222222
222222222222222222222222222222222222222222222222222222222222222222222222
222222222222222222222222222222222222222222222222222222222222222222111122
1222222222222
# atoms in fragment 1/2:   346   243
 fragment masses (1/2) :     2553.01     1563.01
CMA distance (Bohr)    :   5.024
constraining FC (au)   :  0.0500
           ------------------------------------------------- 
          |        Self-Consistent Charge Iterations        |
           ------------------------------------------------- 

 Ncao       : 1471
 Nao        : 1465
 Nshell     : 877
 Nel        : 1596
 T(el)      :   500.0
 intcut     :    35.0
 scfconv/Eh :  0.100E-06
   qconv/e  :  0.100E-04
 intneglect :  0.100E-08
 broydamp   :      0.400
 iter      E             dE          RMSdq      gap      omega  full diag
   1   -911.4973916 -0.911497E+03  0.478E+00    2.85       0.0  T
   2   -913.6144218 -0.211703E+01  0.227E+00    1.93       1.0  T
   3   -913.7396786 -0.125257E+00  0.124E+00    1.99       1.0  T
   4   -913.9001007 -0.160422E+00  0.316E-01    1.05       1.0  T
   5   -913.9086496 -0.854892E-02  0.168E-01    1.08       1.0  T
   6   -913.9112290 -0.257940E-02  0.913E-02    1.01       1.0  T
   7   -913.9121041 -0.875157E-03  0.574E-02    0.99       1.0  T
   8   -913.9123935 -0.289333E-03  0.341E-02    0.98       1.0  T
   9   -913.9125367 -0.143275E-03  0.196E-02    0.96       1.0  T
  10   -913.9125715 -0.347373E-04  0.966E-03    0.95       1.0  T
  11   -913.9125815 -0.100463E-04  0.460E-03    0.95       1.0  T
  12   -913.9125834 -0.191149E-05  0.237E-03    0.95       1.7  T
  13   -913.9125841 -0.679477E-06  0.124E-03    0.95       3.3  T
  14   -913.9125843 -0.204405E-06  0.520E-04    0.95       7.9  T
  15   -913.9125844 -0.322053E-07  0.277E-04    0.95      14.9  T
  16   -913.9125844 -0.784235E-08  0.123E-04    0.95      33.6  T
  17   -913.9125844 -0.147941E-08  0.660E-05    0.95      62.4  T
  18   -913.9125844 -0.504883E-09  0.392E-05    0.95     105.2  T
speedup  1.97
cpu  time for SCC    1 m  1.3 s
wall time for SCC    0 m 31.1 s

   *** convergence criteria satisfied after 18 iterations ***

          eigenvalues
 #    :         786        787        788        789        790        791        792        793
 occ. :        2.000      2.000      2.000      2.000      2.000      2.000      2.000      2.000
 eps  :       -10.212    -10.206    -10.139    -10.068    -10.034    -10.019     -9.963     -9.849
 #    :         794        795        796        797        798        799        800        801
 occ. :        2.000      2.000      2.000      2.000      2.000      0.000      0.000      0.000
 eps  :        -9.779     -9.748     -9.741     -9.380     -9.149     -8.196     -7.916     -7.864
 #    :         802        803        804        805        806        807        808        809
 occ. :        0.000      0.000      0.000      0.000      0.000      0.000      0.000      0.000
 eps  :        -7.854     -7.795     -7.697     -7.667     -7.650     -7.611     -7.533     -7.138


   #   Z            q   n(s)   n(p)   n(d)      C6AA      α(0)
   1   7 N     -0.397  1.325  4.071  0.000    30.285     8.173
   2   6 C      0.037  1.047  2.916  0.000    19.941     6.355
   3   6 C      0.275  1.039  2.685  0.000    22.348     7.742
   4   8 O     -0.498  1.743  4.755  0.000    23.737     6.532
   5   6 C     -0.049  1.083  2.966  0.000    21.448     6.594
   6  16 S     -0.114  1.925  4.095  0.093   145.809    20.323
   7   1 H      0.187  0.813  0.000  0.000     1.177     1.700
   8   1 H      0.046  0.954  0.000  0.000     2.377     2.411
   9   1 H      0.099  0.901  0.000  0.000     1.797     2.097
  10   1 H      0.099  0.901  0.000  0.000     1.798     2.097
  11   7 N     -0.183  1.251  3.932  0.000    24.970     7.421
  12   6 C      0.021  1.061  2.918  0.000    20.229     6.405
  13   6 C      0.289  1.034  2.676  0.000    22.098     7.698
  14   8 O     -0.496  1.733  4.763  0.000    23.701     6.527
  15   6 C     -0.084  1.057  3.027  0.000    22.097     6.691
  16   6 C     -0.001  1.076  2.925  0.000    28.039     8.685
  17   6 C     -0.038  1.082  2.956  0.000    28.945     8.823
  18   6 C     -0.041  1.087  2.954  0.000    29.015     8.834
  19   6 C     -0.060  1.071  2.989  0.000    29.484     8.904
  20   6 C     -0.070  1.080  2.990  0.000    29.736     8.942
  21   6 C      0.151  1.045  2.804  0.000    24.727     8.150
  22   8 O     -0.439  1.732  4.707  0.000    21.624     6.277
  23   1 H      0.226  0.774  0.000  0.000     0.984     1.554
  24   1 H      0.072  0.928  0.000  0.000     2.067     2.248
  25   1 H      0.081  0.919  0.000  0.000     1.972     2.196
  26   1 H      0.062  0.938  0.000  0.000     2.174     2.306
  27   1 H      0.032  0.968  0.000  0.000     2.555     2.500
  28   1 H      0.055  0.945  0.000  0.000     2.254     2.348
  29   1 H      0.053  0.947  0.000  0.000     2.280     2.361
  30   1 H      0.057  0.943  0.000  0.000     2.230     2.335
  31   1 H      0.352  0.648  0.000  0.000     0.584     1.201
  32   7 N     -0.166  1.240  3.925  0.000    24.585     7.364
  33   6 C      0.047  1.049  2.904  0.000    19.788     6.332
  34   6 C      0.278  1.036  2.686  0.000    22.299     7.733
  35   8 O     -0.474  1.740  4.733  0.000    23.209     6.459
  36   6 C     -0.091  1.064  3.027  0.000    22.226     6.710
  37   6 C      0.370  1.017  2.613  0.000    20.730     7.451
  38   8 O     -0.640  1.773  4.867  0.000    27.122     6.982
  39   8 O     -0.641  1.774  4.867  0.000    27.151     6.986
  40   1 H      0.204  0.796  0.000  0.000     1.085     1.631
  41   1 H      0.054  0.946  0.000  0.000     2.273     2.357
  42   1 H      0.040  0.960  0.000  0.000     2.444     2.445
  43   1 H      0.047  0.953  0.000  0.000     2.362     2.403
  44   7 N     -0.165  1.232  3.933  0.000    24.565     7.361
  45   6 C     -0.016  1.045  2.972  0.000    20.930     6.525
  46   6 C      0.280  1.036  2.683  0.000    22.252     7.725
  47   8 O     -0.481  1.733  4.748  0.000    23.365     6.481
  48   1 H      0.189  0.811  0.000  0.000     1.165     1.691
  49   1 H      0.088  0.912  0.000  0.000     1.894     2.152
  50   1 H      0.077  0.923  0.000  0.000     2.011     2.218
  51   7 N     -0.182  1.248  3.934  0.000    24.944     7.418
  52   6 C      0.030  1.056  2.914  0.000    20.073     6.380
  53   6 C      0.266  1.046  2.688  0.000    22.510     7.769
  54   8 O     -0.472  1.729  4.743  0.000    23.168     6.453
  55   6 C     -0.116  1.041  3.075  0.000    22.780     6.805
  56   1 H      0.214  0.786  0.000  0.000     1.037     1.595
  57   1 H      0.066  0.934  0.000  0.000     2.125     2.279
  58   1 H      0.067  0.933  0.000  0.000     2.116     2.275
  59   1 H      0.035  0.965  0.000  0.000     2.516     2.480
  60   1 H      0.061  0.939  0.000  0.000     2.183     2.310
  61   7 N     -0.164  1.249  3.915  0.000    24.542     7.358
  62   6 C      0.025  1.060  2.916  0.000    20.127     6.381
  63   6 C      0.278  1.039  2.683  0.000    22.297     7.732
  64   8 O     -0.476  1.736  4.740  0.000    23.255     6.466
  65   6 C      0.001  1.059  2.941  0.000    20.575     6.458
  66  16 S     -0.330  1.911  4.387  0.031   155.435    20.984
  67   1 H      0.222  0.778  0.000  0.000     0.999     1.566
  68   1 H      0.068  0.932  0.000  0.000     2.108     2.270
  69   1 H      0.058  0.942  0.000  0.000     2.224     2.332
  70   1 H      0.070  0.930  0.000  0.000     2.081     2.256
  71   1 H      0.189  0.811  0.000  0.000     1.157     1.682
  72   7 N     -0.160  1.241  3.918  0.000    24.456     7.345
  73   6 C      0.010  1.066  2.925  0.000    20.424     6.435
  74   6 C      0.207  1.077  2.716  0.000    23.608     7.958
  75   8 O     -0.379  1.765  4.614  0.000    21.260     6.182
  76   6 C     -0.018  1.058  2.961  0.000    20.863     6.496
  77   6 C     -0.140  1.049  3.092  0.000    23.255     6.875
  78   6 C     -0.134  1.042  3.091  0.000    23.116     6.854
  79   1 H      0.215  0.785  0.000  0.000     1.033     1.592
  80   1 H      0.101  0.899  0.000  0.000     1.772     2.082
  81   1 H      0.053  0.947  0.000  0.000     2.284     2.363
  82   1 H      0.068  0.932  0.000  0.000     2.103     2.268
  83   1 H      0.058  0.942  0.000  0.000     2.219     2.329
  84   1 H      0.072  0.928  0.000  0.000     2.067     2.248
  85   1 H      0.076  0.924  0.000  0.000     2.023     2.224
  86   1 H      0.066  0.934  0.000  0.000     2.131     2.283
  87   1 H      0.047  0.953  0.000  0.000     2.362     2.404
  88   7 N     -0.372  1.308  4.065  0.000    29.606     8.081
  89   6 C      0.027  1.050  2.924  0.000    20.122     6.385
  90   6 C      0.190  1.093  2.717  0.000    23.933     8.012
  91   8 O     -0.353  1.741  4.612  0.000    20.762     6.109
  92   6 C     -0.063  1.088  2.974  0.000    21.702     6.632
  93  16 S     -0.057  1.897  4.059  0.101   143.422    20.156
  94   1 H      0.196  0.804  0.000  0.000     1.127     1.663
  95   1 H      0.051  0.949  0.000  0.000     2.311     2.377
  96   1 H      0.149  0.851  0.000  0.000     1.397     1.848
  97   1 H      0.070  0.930  0.000  0.000     2.083     2.257
  98   7 N     -0.392  1.325  4.067  0.000    30.142     8.154
  99   6 C      0.029  1.056  2.915  0.000    20.095     6.385
 100   6 C      0.272  1.046  2.682  0.000    22.406     7.752
 101   8 O     -0.545  1.769  4.777  0.000    24.815     6.679
 102   6 C     -0.080  1.054  3.026  0.000    22.013     6.679
 103   6 C     -0.082  1.052  3.030  0.000    22.067     6.688
 104   6 C     -0.031  1.060  2.970  0.000    21.209     6.572
 105   7 N     -0.146  1.208  3.938  0.000    24.167     7.301
 106   6 C      0.229  1.018  2.753  0.000    23.188     7.884
 107   7 N     -0.235  1.226  4.009  0.000    26.160     7.596
 108   7 N     -0.238  1.234  4.005  0.000    26.234     7.607
 109   1 H      0.180  0.820  0.000  0.000     1.214     1.726
 110   1 H      0.026  0.974  0.000  0.000     2.642     2.542
 111   1 H      0.069  0.931  0.000  0.000     2.097     2.264
 112   1 H      0.034  0.966  0.000  0.000     2.532     2.488
 113   1 H      0.063  0.937  0.000  0.000     2.169     2.303
 114   1 H      0.085  0.915  0.000  0.000     1.926     2.170
 115   1 H      0.098  0.902  0.000  0.000     1.807     2.102
 116   1 H      0.086  0.914  0.000  0.000     1.921     2.167
 117   1 H      0.207  0.793  0.000  0.000     1.070     1.620
 118   1 H      0.262  0.738  0.000  0.000     0.839     1.435
 119   1 H      0.235  0.765  0.000  0.000     0.942     1.521
 120   1 H      0.217  0.783  0.000  0.000     1.023     1.584
 121   1 H      0.242  0.758  0.000  0.000     0.917     1.500
 122   7 N     -0.181  1.251  3.931  0.000    24.929     7.415
 123   6 C      0.029  1.052  2.919  0.000    20.087     6.382
 124   6 C      0.209  1.086  2.705  0.000    23.569     7.951
 125   8 O     -0.384  1.761  4.623  0.000    21.366     6.197
 126   6 C     -0.129  1.048  3.082  0.000    23.037     6.844
 127   1 H      0.262  0.738  0.000  0.000     0.838     1.434
 128   1 H      0.079  0.921  0.000  0.000     1.988     2.205
 129   1 H      0.076  0.924  0.000  0.000     2.020     2.223
 130   1 H      0.081  0.919  0.000  0.000     1.972     2.196
 131   1 H      0.082  0.918  0.000  0.000     1.956     2.187
 132   7 N     -0.391  1.315  4.076  0.000    30.113     8.150
 133   6 C      0.021  1.060  2.919  0.000    20.232     6.406
 134   6 C      0.270  1.049  2.681  0.000    22.447     7.758
 135   8 O     -0.517  1.744  4.773  0.000    24.161     6.590
 136   6 C     -0.034  1.070  2.964  0.000    21.147     6.540
 137   6 C     -0.059  1.046  3.013  0.000    21.635     6.621
 138   6 C     -0.119  1.041  3.078  0.000    22.840     6.814
 139   6 C     -0.113  1.038  3.075  0.000    22.718     6.797
 140   1 H      0.171  0.829  0.000  0.000     1.266     1.762
 141   1 H      0.033  0.967  0.000  0.000     2.549     2.497
 142   1 H      0.054  0.946  0.000  0.000     2.266     2.354
 143   1 H      0.031  0.969  0.000  0.000     2.572     2.508
 144   1 H      0.031  0.969  0.000  0.000     2.567     2.505
 145   1 H      0.061  0.939  0.000  0.000     2.185     2.312
 146   1 H      0.045  0.955  0.000  0.000     2.382     2.413
 147   1 H      0.039  0.961  0.000  0.000     2.469     2.457
 148   1 H      0.031  0.969  0.000  0.000     2.570     2.507
 149   1 H      0.047  0.953  0.000  0.000     2.360     2.402
 150   1 H      0.046  0.954  0.000  0.000     2.369     2.407
 151   7 N     -0.167  1.246  3.921  0.000    24.611     7.368
 152   6 C      0.005  1.060  2.934  0.000    20.485     6.444
 153   6 C      0.278  1.035  2.687  0.000    22.295     7.733
 154   8 O     -0.496  1.755  4.741  0.000    23.704     6.528
 155   6 C     -0.104  1.058  3.046  0.000    22.458     6.743
 156   6 C     -0.087  1.046  3.042  0.000    22.153     6.699
 157   6 C     -0.102  1.050  3.052  0.000    22.431     6.740
 158   6 C     -0.054  1.058  2.996  0.000    21.632     6.637
 159   7 N     -0.152  1.236  3.915  0.000    24.273     7.317
 160   1 H      0.237  0.763  0.000  0.000     0.936     1.515
 161   1 H      0.084  0.916  0.000  0.000     1.939     2.178
 162   1 H      0.074  0.926  0.000  0.000     2.041     2.234
 163   1 H      0.090  0.910  0.000  0.000     1.877     2.143
 164   1 H      0.078  0.922  0.000  0.000     1.996     2.209
 165   1 H      0.071  0.929  0.000  0.000     2.074     2.252
 166   1 H      0.088  0.912  0.000  0.000     1.897     2.154
 167   1 H      0.086  0.914  0.000  0.000     1.918     2.166
 168   1 H      0.120  0.880  0.000  0.000     1.611     1.985
 169   1 H      0.122  0.878  0.000  0.000     1.595     1.975
 170   1 H      0.300  0.700  0.000  0.000     0.714     1.323
 171   1 H      0.299  0.701  0.000  0.000     0.717     1.326
 172   1 H      0.297  0.703  0.000  0.000     0.721     1.330
 173   7 N     -0.182  1.245  3.937  0.000    24.940     7.417
 174   6 C      0.016  1.050  2.934  0.000    20.302     6.414
 175   6 C      0.288  1.033  2.679  0.000    22.118     7.702
 176   8 O     -0.515  1.765  4.750  0.000    24.119     6.585
 177   6 C     -0.150  1.048  3.102  0.000    23.438     6.900
 178   1 H      0.245  0.755  0.000  0.000     0.902     1.488
 179   1 H      0.080  0.920  0.000  0.000     1.982     2.201
 180   1 H      0.063  0.937  0.000  0.000     2.168     2.303
 181   1 H      0.105  0.895  0.000  0.000     1.739     2.062
 182   1 H      0.071  0.929  0.000  0.000     2.079     2.255
 183   7 N     -0.182  1.244  3.937  0.000    24.935     7.416
 184   6 C      0.031  1.056  2.913  0.000    20.054     6.376
 185   6 C      0.290  1.035  2.675  0.000    22.079     7.695
 186   8 O     -0.533  1.757  4.776  0.000    24.528     6.640
 187   6 C     -0.091  1.058  3.034  0.000    22.232     6.711
 188   6 C      0.003  1.082  2.914  0.000    27.948     8.672
 189   6 C     -0.042  1.079  2.963  0.000    29.035     8.836
 190   6 C     -0.046  1.083  2.962  0.000    29.137     8.852
 191   6 C     -0.035  1.083  2.951  0.000    28.861     8.810
 192   6 C     -0.035  1.081  2.954  0.000    28.876     8.812
 193   6 C     -0.038  1.084  2.954  0.000    28.942     8.822
 194   1 H      0.221  0.779  0.000  0.000     1.006     1.571
 195   1 H      0.038  0.962  0.000  0.000     2.478     2.462
 196   1 H      0.066  0.934  0.000  0.000     2.136     2.285
 197   1 H      0.090  0.910  0.000  0.000     1.879     2.144
 198   1 H      0.018  0.982  0.000  0.000     2.760     2.598
 199   1 H      0.054  0.946  0.000  0.000     2.269     2.355
 200   1 H      0.017  0.983  0.000  0.000     2.785     2.610
 201   1 H      0.070  0.930  0.000  0.000     2.081     2.256
 202   1 H      0.048  0.952  0.000  0.000     2.340     2.392
 203   7 N     -0.174  1.247  3.927  0.000    24.767     7.391
 204   6 C      0.015  1.059  2.926  0.000    20.321     6.417
 205   6 C      0.283  1.035  2.681  0.000    22.199     7.716
 206   8 O     -0.499  1.739  4.759  0.000    23.754     6.535
 207   6 C      0.100  1.049  2.851  0.000    19.014     6.223
 208   8 O     -0.461  1.716  4.745  0.000    22.068     6.341
 209   6 C     -0.137  1.043  3.094  0.000    23.196     6.868
 210   1 H      0.252  0.748  0.000  0.000     0.875     1.466
 211   1 H      0.077  0.923  0.000  0.000     2.010     2.217
 212   1 H      0.044  0.956  0.000  0.000     2.397     2.421
 213   1 H      0.322  0.678  0.000  0.000     0.658     1.275
 214   1 H      0.089  0.911  0.000  0.000     1.889     2.149
 215   1 H      0.041  0.959  0.000  0.000     2.439     2.442
 216   1 H      0.082  0.918  0.000  0.000     1.954     2.186
 217   7 N     -0.189  1.251  3.937  0.000    25.092     7.440
 218   6 C      0.031  1.052  2.918  0.000    20.054     6.375
 219   6 C      0.306  1.029  2.665  0.000    21.800     7.647
 220   8 O     -0.510  1.742  4.769  0.000    24.016     6.570
 221   6 C     -0.068  1.051  3.017  0.000    21.793     6.644
 222   6 C     -0.074  1.045  3.029  0.000    21.912     6.664
 223   6 C      0.367  1.018  2.615  0.000    20.772     7.459
 224   8 O     -0.602  1.734  4.868  0.000    26.177     6.860
 225   8 O     -0.646  1.779  4.867  0.000    27.285     7.003
 226   1 H      0.244  0.756  0.000  0.000     0.908     1.493
 227   1 H      0.058  0.942  0.000  0.000     2.220     2.330
 228   1 H      0.085  0.915  0.000  0.000     1.929     2.172
 229   1 H      0.052  0.948  0.000  0.000     2.296     2.370
 230   1 H      0.001  0.999  0.000  0.000     3.040     2.727
 231   1 H     -0.000  1.000  0.000  0.000     3.059     2.735
 232   7 N     -0.187  1.242  3.945  0.000    25.057     7.434
 233   6 C      0.061  1.039  2.899  0.000    19.521     6.284
 234   6 C      0.282  1.037  2.681  0.000    22.227     7.721
 235   8 O     -0.506  1.739  4.768  0.000    23.921     6.557
 236   6 C      0.007  1.051  2.942  0.000    20.451     6.437
 237  16 S     -0.118  1.921  4.095  0.101   145.978    20.335
 238   1 H      0.220  0.780  0.000  0.000     1.009     1.574
 239   1 H      0.046  0.954  0.000  0.000     2.376     2.410
 240   1 H      0.048  0.952  0.000  0.000     2.341     2.393
 241   1 H      0.022  0.978  0.000  0.000     2.709     2.574
 242   7 N     -0.187  1.255  3.932  0.000    25.052     7.434
 243   6 C      0.048  1.047  2.906  0.000    19.743     6.320
 244   6 C      0.281  1.038  2.681  0.000    22.247     7.724
 245   8 O     -0.507  1.736  4.771  0.000    23.929     6.558
 246   6 C     -0.022  1.063  2.959  0.000    20.957     6.517
 247  16 S     -0.127  1.936  4.067  0.125   146.398    20.364
 248   1 H      0.227  0.773  0.000  0.000     0.979     1.550
 249   1 H      0.062  0.938  0.000  0.000     2.176     2.307
 250   1 H      0.055  0.945  0.000  0.000     2.261     2.352
 251   1 H      0.064  0.936  0.000  0.000     2.156     2.296
 252   7 N     -0.173  1.248  3.925  0.000    24.750     7.389
 253   6 C      0.013  1.062  2.925  0.000    20.349     6.420
 254   6 C      0.289  1.035  2.676  0.000    22.109     7.700
 255   8 O     -0.493  1.731  4.762  0.000    23.638     6.519
 256   6 C     -0.023  1.049  2.974  0.000    20.941     6.508
 257   6 C     -0.126  1.043  3.084  0.000    22.962     6.830
 258   6 C     -0.152  1.052  3.100  0.000    23.481     6.907
 259   1 H      0.232  0.768  0.000  0.000     0.957     1.532
 260   1 H      0.104  0.896  0.000  0.000     1.748     2.068
 261   1 H      0.026  0.974  0.000  0.000     2.647     2.544
 262   1 H      0.075  0.925  0.000  0.000     2.029     2.228
 263   1 H      0.008  0.992  0.000  0.000     2.925     2.675
 264   1 H      0.080  0.920  0.000  0.000     1.974     2.197
 265   1 H      0.084  0.916  0.000  0.000     1.934     2.175
 266   1 H      0.097  0.903  0.000  0.000     1.811     2.104
 267   1 H      0.052  0.948  0.000  0.000     2.296     2.370
 268   7 N     -0.197  1.254  3.943  0.000    25.286     7.468
 269   6 C      0.036  1.058  2.907  0.000    19.965     6.360
 270   6 C      0.289  1.036  2.675  0.000    22.100     7.699
 271   8 O     -0.495  1.739  4.756  0.000    23.676     6.524
 272   6 C      0.009  1.046  2.946  0.000    20.394     6.422
 273   6 C     -0.102  1.036  3.066  0.000    22.492     6.760
 274   6 C     -0.102  1.038  3.064  0.000    22.498     6.762
 275   1 H      0.220  0.780  0.000  0.000     1.009     1.574
 276   1 H      0.049  0.951  0.000  0.000     2.336     2.390
 277   1 H      0.017  0.983  0.000  0.000     2.777     2.606
 278   1 H      0.050  0.950  0.000  0.000     2.314     2.379
 279   1 H      0.019  0.981  0.000  0.000     2.742     2.590
 280   1 H      0.035  0.965  0.000  0.000     2.520     2.483
 281   1 H      0.037  0.963  0.000  0.000     2.483     2.464
 282   1 H      0.034  0.966  0.000  0.000     2.529     2.487
 283   1 H      0.048  0.952  0.000  0.000     2.341     2.393
 284   7 N     -0.184  1.249  3.935  0.000    24.984     7.424
 285   6 C      0.034  1.050  2.917  0.000    20.009     6.369
 286   6 C      0.279  1.037  2.684  0.000    22.284     7.731
 287   8 O     -0.485  1.743  4.742  0.000    23.457     6.494
 288   6 C     -0.134  1.045  3.090  0.000    23.131     6.856
 289   1 H      0.217  0.783  0.000  0.000     1.022     1.584
 290   1 H      0.049  0.951  0.000  0.000     2.335     2.390
 291   1 H      0.081  0.919  0.000  0.000     1.973     2.196
 292   1 H      0.050  0.950  0.000  0.000     2.315     2.379
 293   1 H      0.083  0.917  0.000  0.000     1.948     2.183
 294   7 N     -0.179  1.244  3.935  0.000    24.867     7.406
 295   6 C     -0.003  1.064  2.938  0.000    20.626     6.466
 296   6 C      0.274  1.032  2.695  0.000    22.377     7.747
 297   8 O     -0.490  1.753  4.737  0.000    23.562     6.508
 298   6 C      0.047  1.044  2.909  0.000    19.990     6.402
 299   8 O     -0.430  1.697  4.733  0.000    21.443     6.251
 300   1 H      0.240  0.760  0.000  0.000     0.924     1.506
 301   1 H      0.095  0.905  0.000  0.000     1.832     2.117
 302   1 H      0.061  0.939  0.000  0.000     2.182     2.310
 303   1 H      0.097  0.903  0.000  0.000     1.817     2.108
 304   1 H      0.313  0.687  0.000  0.000     0.683     1.298
 305   7 N     -0.180  1.246  3.934  0.000    24.905     7.412
 306   6 C      0.022  1.057  2.921  0.000    20.200     6.398
 307   6 C      0.285  1.029  2.686  0.000    22.177     7.713
 308   8 O     -0.522  1.764  4.758  0.000    24.273     6.606
 309   6 C     -0.056  1.042  3.015  0.000    21.568     6.609
 310   6 C     -0.116  1.057  3.058  0.000    22.701     6.781
 311   6 C      0.289  1.033  2.678  0.000    22.103     7.698
 312   8 O     -0.526  1.772  4.753  0.000    24.360     6.617
 313   7 N     -0.285  1.269  4.016  0.000    27.353     7.768
 314   1 H      0.238  0.762  0.000  0.000     0.931     1.512
 315   1 H      0.074  0.926  0.000  0.000     2.044     2.236
 316   1 H      0.056  0.944  0.000  0.000     2.241     2.341
 317   1 H      0.044  0.956  0.000  0.000     2.395     2.420
 318   1 H      0.073  0.927  0.000  0.000     2.055     2.242
 319   1 H      0.109  0.891  0.000  0.000     1.703     2.041
 320   1 H      0.247  0.753  0.000  0.000     0.896     1.483
 321   1 H      0.219  0.781  0.000  0.000     1.013     1.577
 322   7 N     -0.183  1.245  3.937  0.000    24.956     7.419
 323   6 C      0.033  1.051  2.915  0.000    20.005     6.367
 324   6 C      0.288  1.032  2.680  0.000    22.120     7.703
 325   8 O     -0.544  1.766  4.779  0.000    24.789     6.675
 326   6 C     -0.071  1.056  3.016  0.000    21.849     6.652
 327   6 C     -0.010  1.053  2.958  0.000    20.725     6.475
 328   6 C     -0.110  1.042  3.068  0.000    22.646     6.784
 329   6 C     -0.115  1.043  3.071  0.000    22.751     6.801
 330   1 H      0.233  0.767  0.000  0.000     0.952     1.529
 331   1 H      0.056  0.944  0.000  0.000     2.252     2.347
 332   1 H      0.057  0.943  0.000  0.000     2.230     2.335
 333   1 H      0.045  0.955  0.000  0.000     2.379     2.412
 334   1 H      0.031  0.969  0.000  0.000     2.572     2.508
 335   1 H      0.043  0.957  0.000  0.000     2.407     2.426
 336   1 H      0.030  0.970  0.000  0.000     2.580     2.512
 337   1 H      0.049  0.951  0.000  0.000     2.334     2.389
 338   1 H      0.044  0.956  0.000  0.000     2.396     2.421
 339   1 H      0.039  0.961  0.000  0.000     2.462     2.454
 340   1 H      0.031  0.969  0.000  0.000     2.568     2.506
 341   7 N     -0.193  1.251  3.942  0.000    25.197     7.455
 342   6 C      0.032  1.055  2.914  0.000    20.030     6.370
 343   6 C      0.285  1.040  2.675  0.000    22.179     7.712
 344   8 O     -0.532  1.758  4.774  0.000    24.504     6.637
 345   6 C     -0.095  1.055  3.040  0.000    22.300     6.721
 346   6 C     -0.089  1.050  3.039  0.000    22.177     6.703
 347   6 C     -0.038  1.056  2.982  0.000    21.313     6.584
 348   7 N     -0.140  1.210  3.930  0.000    24.025     7.280
 349   6 C      0.217  1.019  2.764  0.000    23.409     7.922
 350   7 N     -0.234  1.221  4.013  0.000    26.125     7.591
 351   7 N     -0.236  1.229  4.007  0.000    26.170     7.598
 352   1 H      0.252  0.748  0.000  0.000     0.876     1.466
 353   1 H      0.059  0.941  0.000  0.000     2.213     2.326
 354   1 H      0.101  0.899  0.000  0.000     1.773     2.082
 355   1 H      0.065  0.935  0.000  0.000     2.140     2.288
 356   1 H      0.058  0.942  0.000  0.000     2.220     2.330
 357   1 H      0.064  0.936  0.000  0.000     2.149     2.292
 358   1 H      0.112  0.888  0.000  0.000     1.679     2.026
 359   1 H      0.099  0.901  0.000  0.000     1.794     2.094
 360   1 H      0.241  0.759  0.000  0.000     0.917     1.500
 361   1 H      0.244  0.756  0.000  0.000     0.909     1.493
 362   1 H      0.225  0.775  0.000  0.000     0.987     1.556
 363   1 H      0.249  0.751  0.000  0.000     0.889     1.477
 364   1 H      0.238  0.762  0.000  0.000     0.933     1.513
 365   7 N     -0.185  1.255  3.930  0.000    25.012     7.428
 366   6 C      0.028  1.065  2.906  0.000    20.105     6.385
 367   6 C      0.374  1.024  2.602  0.000    20.660     7.439
 368   8 O     -0.661  1.771  4.890  0.000    27.653     7.050
 369   6 C     -0.116  1.043  3.072  0.000    22.769     6.804
 370   8 O     -0.639  1.762  4.877  0.000    27.104     6.980
 371   1 H      0.203  0.797  0.000  0.000     1.090     1.636
 372   1 H      0.022  0.978  0.000  0.000     2.696     2.568
 373   1 H      0.035  0.965  0.000  0.000     2.518     2.482
 374   1 H      0.055  0.945  0.000  0.000     2.261     2.351
 375   1 H      0.067  0.933  0.000  0.000     2.121     2.277
 376   7 N     -0.408  1.326  4.082  0.000    30.595     8.215
 377   6 C      0.031  1.051  2.917  0.000    20.053     6.377
 378   6 C      0.272  1.044  2.684  0.000    22.403     7.751
 379   8 O     -0.501  1.752  4.749  0.000    23.807     6.542
 380   6 C     -0.068  1.049  3.019  0.000    21.784     6.642
 381   6 C     -0.074  1.047  3.027  0.000    21.904     6.662
 382   6 C     -0.077  1.043  3.034  0.000    21.950     6.668
 383   6 C     -0.049  1.057  2.992  0.000    21.545     6.624
 384   7 N     -0.145  1.236  3.909  0.000    24.131     7.296
 385   1 H      0.192  0.808  0.000  0.000     1.148     1.678
 386   1 H      0.028  0.972  0.000  0.000     2.622     2.532
 387   1 H      0.041  0.959  0.000  0.000     2.434     2.440
 388   1 H      0.027  0.973  0.000  0.000     2.627     2.535
 389   1 H      0.066  0.934  0.000  0.000     2.129     2.282
 390   1 H      0.073  0.927  0.000  0.000     2.050     2.239
 391   1 H      0.066  0.934  0.000  0.000     2.127     2.281
 392   1 H      0.042  0.958  0.000  0.000     2.418     2.432
 393   1 H      0.117  0.883  0.000  0.000     1.640     2.003
 394   1 H      0.132  0.868  0.000  0.000     1.521     1.929
 395   1 H      0.319  0.681  0.000  0.000     0.660     1.273
 396   1 H      0.285  0.715  0.000  0.000     0.759     1.365
 397   1 H      0.275  0.725  0.000  0.000     0.793     1.395
 398   7 N     -0.173  1.251  3.922  0.000    24.735     7.387
 399   6 C      0.035  1.046  2.919  0.000    19.997     6.368
 400   6 C      0.215  1.078  2.707  0.000    23.456     7.932
 401   8 O     -0.372  1.753  4.620  0.000    21.138     6.164
 402   6 C     -0.140  1.046  3.094  0.000    23.238     6.872
 403   1 H      0.227  0.773  0.000  0.000     0.980     1.551
 404   1 H      0.065  0.935  0.000  0.000     2.144     2.290
 405   1 H      0.074  0.926  0.000  0.000     2.047     2.237
 406   1 H      0.079  0.921  0.000  0.000     1.986     2.204
 407   1 H      0.085  0.915  0.000  0.000     1.931     2.173
 408   7 N     -0.389  1.324  4.065  0.000    30.072     8.144
 409   6 C      0.029  1.056  2.915  0.000    20.096     6.384
 410   6 C      0.271  1.049  2.679  0.000    22.413     7.752
 411   8 O     -0.498  1.742  4.756  0.000    23.740     6.533
 412   6 C      0.114  1.043  2.843  0.000    18.796     6.187
 413   8 O     -0.469  1.721  4.748  0.000    22.230     6.365
 414   6 C     -0.118  1.040  3.078  0.000    22.811     6.810
 415   1 H      0.157  0.843  0.000  0.000     1.354     1.823
 416   1 H      0.040  0.960  0.000  0.000     2.443     2.444
 417   1 H      0.028  0.972  0.000  0.000     2.620     2.531
 418   1 H      0.319  0.681  0.000  0.000     0.667     1.283
 419   1 H      0.059  0.941  0.000  0.000     2.214     2.327
 420   1 H      0.028  0.972  0.000  0.000     2.619     2.531
 421   1 H      0.063  0.937  0.000  0.000     2.166     2.302
 422   7 N     -0.197  1.257  3.940  0.000    25.270     7.466
 423   6 C      0.031  1.061  2.908  0.000    20.054     6.377
 424   6 C      0.285  1.035  2.680  0.000    22.168     7.711
 425   8 O     -0.477  1.724  4.753  0.000    23.282     6.469
 426   6 C     -0.051  1.046  3.005  0.000    21.482     6.598
 427   6 C     -0.071  1.055  3.016  0.000    21.852     6.656
 428   6 C      0.373  1.023  2.605  0.000    20.686     7.443
 429   8 O     -0.634  1.773  4.860  0.000    26.958     6.961
 430   8 O     -0.649  1.771  4.878  0.000    27.366     7.014
 431   1 H      0.226  0.774  0.000  0.000     0.981     1.552
 432   1 H      0.048  0.952  0.000  0.000     2.345     2.395
 433   1 H      0.058  0.942  0.000  0.000     2.227     2.334
 434   1 H      0.030  0.970  0.000  0.000     2.591     2.517
 435   1 H      0.004  0.996  0.000  0.000     2.997     2.707
 436   1 H      0.022  0.978  0.000  0.000     2.710     2.574
 437   7 N     -0.158  1.234  3.924  0.000    24.419     7.339
 438   6 C      0.037  1.051  2.912  0.000    19.928     6.350
 439   6 C      0.205  1.083  2.712  0.000    23.642     7.963
 440   8 O     -0.333  1.748  4.585  0.000    20.384     6.053
 441   6 C      0.012  1.051  2.938  0.000    20.375     6.426
 442  16 S     -0.384  1.901  4.439  0.045   157.976    21.154
 443   1 H      0.214  0.786  0.000  0.000     1.039     1.597
 444   1 H      0.093  0.907  0.000  0.000     1.853     2.129
 445   1 H      0.071  0.929  0.000  0.000     2.075     2.252
 446   1 H      0.075  0.925  0.000  0.000     2.032     2.229
 447   1 H      0.267  0.733  0.000  0.000     0.814     1.411
 448   7 N     -0.405  1.324  4.081  0.000    30.509     8.203
 449   6 C      0.032  1.056  2.912  0.000    20.027     6.371
 450   6 C      0.273  1.044  2.683  0.000    22.391     7.749
 451   8 O     -0.506  1.753  4.753  0.000    23.915     6.557
 452   6 C     -0.015  1.050  2.965  0.000    20.807     6.487
 453   6 C     -0.118  1.042  3.076  0.000    22.802     6.806
 454   6 C     -0.110  1.040  3.069  0.000    22.635     6.781
 455   1 H      0.167  0.833  0.000  0.000     1.289     1.778
 456   1 H      0.031  0.969  0.000  0.000     2.570     2.507
 457   1 H      0.025  0.975  0.000  0.000     2.656     2.549
 458   1 H      0.046  0.954  0.000  0.000     2.368     2.406
 459   1 H      0.039  0.961  0.000  0.000     2.459     2.452
 460   1 H      0.054  0.946  0.000  0.000     2.266     2.354
 461   1 H      0.039  0.961  0.000  0.000     2.464     2.455
 462   1 H      0.047  0.953  0.000  0.000     2.355     2.400
 463   1 H      0.039  0.961  0.000  0.000     2.461     2.453
 464   7 N     -0.165  1.242  3.923  0.000    24.575     7.363
 465   6 C      0.023  1.061  2.916  0.000    20.179     6.394
 466   6 C      0.216  1.080  2.704  0.000    23.442     7.929
 467   8 O     -0.359  1.751  4.609  0.000    20.887     6.127
 468   6 C     -0.020  1.054  2.966  0.000    20.888     6.499
 469   6 C     -0.117  1.042  3.075  0.000    22.783     6.804
 470   6 C     -0.131  1.045  3.086  0.000    23.065     6.847
 471   1 H      0.213  0.787  0.000  0.000     1.040     1.597
 472   1 H      0.085  0.915  0.000  0.000     1.929     2.172
 473   1 H      0.047  0.953  0.000  0.000     2.355     2.400
 474   1 H      0.047  0.953  0.000  0.000     2.352     2.399
 475   1 H      0.037  0.963  0.000  0.000     2.490     2.468
 476   1 H      0.058  0.942  0.000  0.000     2.220     2.330
 477   1 H      0.041  0.959  0.000  0.000     2.438     2.442
 478   1 H      0.054  0.946  0.000  0.000     2.265     2.354
 479   1 H      0.073  0.927  0.000  0.000     2.053     2.241
 480   7 N     -0.393  1.320  4.073  0.000    30.183     8.159
 481   6 C      0.037  1.053  2.910  0.000    19.958     6.362
 482   6 C      0.199  1.091  2.710  0.000    23.753     7.982
 483   8 O     -0.365  1.740  4.625  0.000    20.999     6.144
 484   6 C     -0.029  1.065  2.964  0.000    21.053     6.525
 485   6 C     -0.062  1.050  3.012  0.000    21.684     6.629
 486   6 C     -0.133  1.047  3.086  0.000    23.115     6.855
 487   6 C     -0.116  1.041  3.074  0.000    22.777     6.806
 488   1 H      0.159  0.841  0.000  0.000     1.339     1.813
 489   1 H      0.045  0.955  0.000  0.000     2.378     2.412
 490   1 H      0.044  0.956  0.000  0.000     2.396     2.421
 491   1 H      0.044  0.956  0.000  0.000     2.397     2.421
 492   1 H      0.029  0.971  0.000  0.000     2.602     2.523
 493   1 H      0.066  0.934  0.000  0.000     2.130     2.282
 494   1 H      0.053  0.947  0.000  0.000     2.281     2.362
 495   1 H      0.057  0.943  0.000  0.000     2.234     2.337
 496   1 H      0.031  0.969  0.000  0.000     2.566     2.505
 497   1 H      0.035  0.965  0.000  0.000     2.517     2.481
 498   1 H      0.054  0.946  0.000  0.000     2.275     2.359
 499   7 N     -0.403  1.327  4.076  0.000    30.457     8.196
 500   6 C      0.031  1.057  2.913  0.000    20.061     6.378
 501   6 C      0.277  1.040  2.682  0.000    22.307     7.735
 502   8 O     -0.523  1.760  4.763  0.000    24.301     6.609
 503   6 C     -0.032  1.068  2.964  0.000    21.104     6.533
 504   6 C     -0.060  1.049  3.012  0.000    21.658     6.625
 505   6 C     -0.115  1.042  3.073  0.000    22.751     6.802
 506   6 C     -0.123  1.043  3.079  0.000    22.913     6.827
 507   1 H      0.168  0.832  0.000  0.000     1.284     1.775
 508   1 H      0.029  0.971  0.000  0.000     2.594     2.519
 509   1 H      0.051  0.949  0.000  0.000     2.310     2.377
 510   1 H      0.028  0.972  0.000  0.000     2.618     2.530
 511   1 H      0.031  0.969  0.000  0.000     2.576     2.510
 512   1 H      0.056  0.944  0.000  0.000     2.251     2.346
 513   1 H      0.026  0.974  0.000  0.000     2.650     2.545
 514   1 H      0.036  0.964  0.000  0.000     2.499     2.472
 515   1 H      0.053  0.947  0.000  0.000     2.279     2.361
 516   1 H      0.042  0.958  0.000  0.000     2.428     2.437
 517   1 H      0.055  0.945  0.000  0.000     2.259     2.350
 518   7 N     -0.182  1.244  3.938  0.000    24.938     7.417
 519   6 C      0.030  1.048  2.922  0.000    20.068     6.379
 520   6 C      0.193  1.091  2.716  0.000    23.871     8.002
 521   8 O     -0.369  1.756  4.613  0.000    21.075     6.155
 522   6 C     -0.157  1.048  3.109  0.000    23.594     6.924
 523   1 H      0.240  0.760  0.000  0.000     0.923     1.505
 524   1 H      0.068  0.932  0.000  0.000     2.104     2.269
 525   1 H      0.098  0.902  0.000  0.000     1.803     2.100
 526   1 H      0.089  0.911  0.000  0.000     1.893     2.151
 527   1 H      0.096  0.904  0.000  0.000     1.826     2.113
 528   7 N     -0.386  1.318  4.068  0.000    29.996     8.134
 529   6 C      0.036  1.057  2.907  0.000    19.981     6.367
 530   6 C      0.270  1.044  2.686  0.000    22.439     7.757
 531   8 O     -0.519  1.770  4.750  0.000    24.210     6.597
 532   6 C     -0.068  1.053  3.015  0.000    21.796     6.645
 533   6 C     -0.002  1.081  2.920  0.000    28.061     8.689
 534   6 C     -0.043  1.082  2.961  0.000    29.060     8.841
 535   6 C     -0.042  1.082  2.960  0.000    29.039     8.837
 536   6 C     -0.055  1.071  2.984  0.000    29.360     8.885
 537   6 C     -0.076  1.079  2.996  0.000    29.885     8.964
 538   6 C      0.140  1.050  2.810  0.000    24.947     8.186
 539   8 O     -0.446  1.740  4.705  0.000    21.758     6.297
 540   1 H      0.172  0.828  0.000  0.000     1.263     1.761
 541   1 H      0.031  0.969  0.000  0.000     2.572     2.508
 542   1 H      0.068  0.932  0.000  0.000     2.112     2.273
 543   1 H      0.026  0.974  0.000  0.000     2.639     2.540
 544   1 H      0.011  0.989  0.000  0.000     2.874     2.651
 545   1 H      0.059  0.941  0.000  0.000     2.212     2.326
 546   1 H      0.019  0.981  0.000  0.000     2.747     2.592
 547   1 H      0.061  0.939  0.000  0.000     2.189     2.314
 548   1 H      0.351  0.649  0.000  0.000     0.587     1.203
 549   7 N     -0.152  1.238  3.914  0.000    24.294     7.320
 550   6 C      0.020  1.057  2.922  0.000    20.242     6.406
 551   6 C      0.199  1.089  2.711  0.000    23.754     7.982
 552   8 O     -0.361  1.758  4.604  0.000    20.922     6.133
 553   6 C     -0.083  1.055  3.028  0.000    22.081     6.689
 554   6 C     -0.091  1.054  3.036  0.000    22.224     6.711
 555   6 C     -0.098  1.057  3.041  0.000    22.373     6.734
 556   6 C     -0.059  1.064  2.995  0.000    21.743     6.657
 557   7 N     -0.153  1.239  3.915  0.000    24.300     7.321
 558   1 H      0.238  0.762  0.000  0.000     0.931     1.512
 559   1 H      0.075  0.925  0.000  0.000     2.035     2.231
 560   1 H      0.080  0.920  0.000  0.000     1.983     2.202
 561   1 H      0.073  0.927  0.000  0.000     2.049     2.238
 562   1 H      0.060  0.940  0.000  0.000     2.200     2.319
 563   1 H      0.082  0.918  0.000  0.000     1.960     2.189
 564   1 H      0.086  0.914  0.000  0.000     1.918     2.166
 565   1 H      0.078  0.922  0.000  0.000     2.000     2.212
 566   1 H      0.124  0.876  0.000  0.000     1.584     1.968
 567   1 H      0.121  0.879  0.000  0.000     1.605     1.981
 568   1 H      0.315  0.685  0.000  0.000     0.670     1.283
 569   1 H      0.300  0.700  0.000  0.000     0.714     1.324
 570   1 H      0.297  0.703  0.000  0.000     0.721     1.331
 571   1 H      0.194  0.806  0.000  0.000     1.136     1.669
 572   1 H      0.095  0.905  0.000  0.000     1.827     2.113
 573   1 H      0.185  0.815  0.000  0.000     1.187     1.706
 574   1 H      0.105  0.895  0.000  0.000     1.737     2.061
 575   1 H      0.176  0.824  0.000  0.000     1.239     1.743
 576   1 H      0.074  0.926  0.000  0.000     2.042     2.234
 577   1 H      0.171  0.829  0.000  0.000     1.268     1.764
 578   1 H      0.180  0.820  0.000  0.000     1.214     1.726
 579   1 H      0.082  0.918  0.000  0.000     1.956     2.187
 580   1 H      0.191  0.809  0.000  0.000     1.152     1.681
 581   1 H      0.088  0.912  0.000  0.000     1.902     2.157
 582   1 H      0.175  0.825  0.000  0.000     1.241     1.745
 583   1 H      0.065  0.935  0.000  0.000     2.146     2.291
 584   1 H      0.181  0.819  0.000  0.000     1.209     1.722
 585   1 H      0.077  0.923  0.000  0.000     2.011     2.217
 586   1 H      0.175  0.825  0.000  0.000     1.245     1.747
 587   1 H      0.086  0.914  0.000  0.000     1.919     2.166
 588   1 H      0.174  0.826  0.000  0.000     1.246     1.749
 589   1 H      0.066  0.934  0.000  0.000     2.129     2.281

 Mol. C6AA /au·bohr⁶  :    3297156.827877
 Mol. C8AA /au·bohr⁸  :   75777333.167321
 Mol. α(0) /au        :       2730.117177

 
molecular dipole:
                 x           y           z       tot (Debye)
 q only:      -66.896     124.672     190.719
   full:      -70.458     119.497     195.265     608.826
molecular quadrupole (traceless):
                xx          xy          yy          xz          yz          zz
 q only:   -27177.796  -10552.744   -2414.905  -17524.203   34374.858   29592.702
  q+dip:   -27457.893  -11110.338   -4194.496  -18345.224   33755.878   31652.389
   full:   -27458.770  -11111.188   -4191.727  -18342.218   33756.418   31650.497
speedup  1.98
cpu  time for grad    1 m 17.6 s
wall time for grad    0 m 39.3 s

SCC energy    :    -913.9343494
rep           :      11.0313948
ES            :       3.2665691
AES           :      -0.2134891
AXC           :       0.3169732
disp          :      -0.8221603
XB            :       0.0000000
fix           :       0.0000000
Gborn         :       0.0000000
Gsasa         :       0.0000000
Ghb           :       0.0000000
Gshift        :       0.0000000
Gsolv         :      -1.0635307     -667.38
Etot ala COSMO:    -913.9343494
grad norm     :       0.7617391
total E       :    -902.8082672
atomizationE  :     162.3636360   101884.72
(atE without considering molecular charge,
 total energy contains solvation terms)
H-L gap (eV)  :          0.9529

------------------------------------------------------------------------
 * finished run on 2019/05/05 at 12:29:25.568     
------------------------------------------------------------------------
 total:
 * wall-time:     0 d,  0 h,  0 min, 41.249 sec
 *  cpu-time:     0 d,  0 h,  1 min, 20.645 sec
 * ratio c/w:     1.955 speedup
 SCF:
 * wall-time:     0 d,  0 h,  0 min, 40.552 sec
 *  cpu-time:     0 d,  0 h,  1 min, 19.786 sec
 * ratio c/w:     1.967 speedup

