      -----------------------------------------------------------      
     |                   =====================                   |     
     |                           x T B                           |     
     |                   =====================                   |     
     |                         S. Grimme                         |     
     |          Mulliken Center for Theoretical Chemistry        |     
     |                    University of Bonn                     |     
     |                 Version 6.0.1 (SAW181210)                 |     
      -----------------------------------------------------------      

   This program is distributed in the hope that it will be useful,
   but WITHOUT ANY WARRANTY; without even the implied warranty of
   MERCHANTABILITY or FITNESS FOR A PARTICULAR PURPOSE.
   
   FOR NON-COMMERCIAL, ACADEMIA USE ONLY.
   
   Cite this work as:
   S. Grimme, C. Bannwarth, P. Shushkov, J. Comput. Theory Chem., 2017,
   13, 1989-2009.
   C. Bannwarth, S. Ehlert and S. Grimme., ChemRxiv, 2018, preprint.
   http://doi.org/10.26434/chemrxiv.7246238.v1
   
   for sTDA-xTB:
   S. Grimme and C. Bannwarth, J. Chem. Phys., 2016, 145, 054103.
   
   in the mass-spec context:
   V. Asgeirsson, C. Bauer and S. Grimme, Chem. Sci., 2017, 8, 4879.
   
   if GBSA is used:
   P. Shushkov, F. März and S. Grimme, unpublished.
   
   for ANC optimizer:
   S. Grimme, unpublished.
   Rational Function algorithm used in ANCopt:
   F. Eckert, P. Pulay, H.-J. Werner, J. Comput. Chem., 1997, 18, 1473.
   
   with help from (in alphabetical order)
   C. Bannwarth, F. Bohle, G. Brandenburg, E. Caldeweyher, M. Checinski,
   S. Dohm, S. Ehlert, S. Ehrlich, F. März, H. Neugebauer, J. Pisarek,
   P. Pracht, P. Shushkov, and S. Spicher.
   
 * started run on 2019/05/07 at 05:43:54.528     
========================================================================
 # omp threads = 2
========================================================================
number of atoms            : 504
number of electrons        : 1350
charge                     : 2
spin                       : .0
first test random number   : .6670

########################################################################
# WARNING! Please study the warnings concerning your input carefully
#  - Process number higher than OMP_NUM_THREADS, I hope you know what you are doing.
########################################################################

           ------------------------------------------------- 
          |                 G F N 2 - x T B                 |
          | Geometry, Frequencies, Noncovalent interactions |
          |            JCTC 2018 parametrisation            |
           ------------------------------------------------- 
 
      method parameters     
 k(s)        :  1.8500
 k(p)        :  2.2300
 k(d)        :  2.2300
 k(f)        :  2.0000
 kEN (H0ij)  : -2.0000
 D4 a1       :  0.5200
 D4 a2       :  5.0000
 D4 s6       :  1.0000
 D4 s8       :  2.7000
 D4 s9       :  5.0000
 alphaj      :  2.0000

 Solvent             : h2o
 Using internal parameter file: .param_gbsa2_h2o
 Gsolv ref. state (COSMO-RS): gsolv [1 M gas/solution]
 temperature (mdtemp)       :    298.150000000000     
 dielectric constant        :    80.2000000000000     
 rho                        :    1.00000000000000     
 mass                       :    18.0000000000000     
 surface tension            :    15.5689454083859     
 probe radius               :   0.975313790000000     
 vdW radii scaling          :    1.00000000000000     
 Gshift (Eh)                :   1.857443126794793E-003
 c1                         :    1.55243817000000     
 soset                      :   0.130326360000000     
 HB correction              :  T

            Z     q(EN)     CN     RAES       Cart. coordinates
     1  N   5.0   -0.23    3.25    1.97    -2.33948    87.29967   173.18960
     2  C   4.0    0.03    4.35    4.29     0.13606    88.43917   172.96851
     3  C   4.0    0.08    3.25    3.04     1.26234    87.70785   170.43816
     4  O   6.0   -0.30    1.19    1.80     2.11838    89.37081   169.05866
     5  C   4.0   -0.04    4.24    4.09     1.80658    87.65305   175.20027
     6  S   6.0   -0.02    2.41    3.10     5.03990    89.04389   175.33066
     7  H   1.0    0.11    1.08    1.44    -2.45664    85.95796   174.10045
     8  H   1.0    0.06    1.14    1.45     0.03968    90.26654   173.05732
     9  H   1.0    0.05    1.14    1.45     0.95242    88.13871   176.74796
    10  H   1.0    0.05    1.13    1.45     2.00878    85.83135   175.14169
    11  N   5.0   -0.22    3.19    1.95    -0.70865    91.13770   165.11480
    12  C   4.0    0.02    4.24    4.08     0.22299    93.68883   165.53054
    13  C   4.0    0.16    3.36    3.07     3.00844    94.06489   164.91260
    14  O   6.0   -0.30    1.28    1.80     3.75111    96.10579   164.06034
    15  H   1.0    0.12    1.08    1.44    -1.17919    90.36858   166.46785
    16  H   1.0    0.05    1.09    1.44    -0.74266    94.84724   164.48931
    17  H   1.0    0.06    1.09    1.44    -0.02268    94.12725   167.29366
    18  N   5.0   -0.16    3.48    2.07     4.60715    92.15816   165.40960
    19  C   4.0    0.04    4.37    4.32     7.28111    92.46051   164.79733
    20  C   4.0    0.08    3.23    3.04     7.75921    92.10335   161.98353
    21  O   6.0   -0.30    1.15    1.80     9.17462    93.56978   160.83458
    22  C   4.0   -0.09    4.23    4.06     8.87226    90.59913   166.27132
    23  H   1.0    0.12    1.14    1.45     4.19708    90.73141   166.07479
    24  H   1.0    0.07    1.13    1.45     7.78567    94.15560   165.28110
    25  H   1.0    0.04    1.06    1.44    10.62593    90.79377   165.77810
    26  H   1.0    0.05    1.06    1.44     8.68329    90.94117   168.06278
    27  H   1.0    0.05    1.06    1.44     8.30157    88.89838   165.89526
    28  N   5.0   -0.20    3.28    1.98     8.51699    92.36225   154.85548
    29  C   4.0    0.03    4.38    4.35     8.85904    94.71495   153.47409
    30  C   4.0    0.08    3.25    3.04     6.38160    95.72218   152.47065
    31  O   6.0   -0.26    1.13    1.80     4.58259    94.31433   152.02845
    32  C   4.0   -0.03    4.42    4.42    10.65050    94.40882   151.19697
    33  C   4.0   -0.08    4.24    4.09    11.71063    96.94294   150.36549
    34  C   4.0   -0.07    4.34    4.28    12.82557    92.67216   151.74688
    35  H   1.0    0.10    1.10    1.44     9.65839    91.26054   154.50777
    36  H   1.0    0.05    1.13    1.45     9.55067    95.89225   154.69675
    37  H   1.0    0.06    1.14    1.45     9.64327    93.67372   149.85338
    38  H   1.0    0.05    1.06    1.44    12.97108    96.66326   149.06347
    39  H   1.0    0.05    1.06    1.44    10.34625    97.97095   149.70220
    40  H   1.0    0.05    1.06    1.44    12.47597    97.77253   151.80924
    41  H   1.0    0.06    1.06    1.44    13.96130    92.66271   150.30880
    42  H   1.0    0.07    1.08    1.44    13.70996    93.27498   153.23599
    43  H   1.0    0.05    1.08    1.44    12.18117    90.98275   152.04357
    44  N   5.0   -0.23    3.25    1.97    -0.63495   109.26773   159.54389
    45  C   4.0    0.03    4.32    4.23    -1.80847   107.58021   161.37882
    46  C   4.0    0.08    3.22    3.04    -4.43519   108.52696   162.00432
    47  O   6.0   -0.29    1.12    1.80    -6.24743   107.07754   161.91928
    48  C   4.0   -0.05    4.18    3.96    -0.19275   107.33076   163.75987
    49  S   6.0   -0.03    2.29    3.10     3.19364   106.01741   163.34791
    50  H   1.0    0.11    1.08    1.44     0.76723   109.94237   160.01254
    51  H   1.0    0.05    1.13    1.45    -1.92752   105.89646   160.66639
    52  H   1.0    0.04    1.12    1.45    -0.03024   108.99561   164.51009
    53  H   1.0    0.05    1.12    1.45    -1.06203   106.20449   164.91638
    54  N   5.0   -0.21    3.25    1.97    -9.44107   106.41236   157.03056
    55  C   4.0    0.04    4.28    4.16    -9.86437   103.69304   157.34614
    56  C   4.0    0.10    3.19    3.03   -11.27788   103.07132   159.82168
    57  O   6.0   -0.25    1.11    1.80   -12.94084   101.44805   159.85003
    58  C   4.0   -0.05    4.41    4.39    -7.30001   102.33433   157.32346
    59  C   4.0   -0.05    4.30    4.20    -5.53879   103.07510   155.26555
    60  C   4.0   -0.01    4.27    4.15    -2.71176   102.50440   155.95152
    61  N   5.0   -0.16    3.42    2.03    -2.22232    99.80399   156.41829
    62  C   4.0    0.12    3.45    3.10     0.04346    98.75519   156.83403
    63  N   5.0   -0.23    3.31    1.98     2.12405   100.17059   156.83214
    64  N   5.0   -0.23    3.27    1.97     0.21732    96.25886   157.21764
    65  H   1.0    0.11    1.10    1.44    -7.86882   106.78463   156.85670
    66  H   1.0    0.06    1.12    1.45   -10.89994   103.09967   155.95530
    67  H   1.0    0.06    1.11    1.44    -6.45341   102.68204   158.91083
    68  H   1.0    0.05    1.10    1.44    -7.60426   100.53531   157.15528
    69  H   1.0    0.06    1.09    1.44    -5.95831   102.13591   153.74810
    70  H   1.0    0.05    1.10    1.44    -5.69941   104.87412   154.95375
    71  H   1.0    0.05    1.08    1.44    -1.64217   103.03920   154.56258
    72  H   1.0    0.04    1.08    1.44    -2.26956   103.42659   157.47275
    73  H   1.0    0.10    1.14    1.45    -3.50922    98.81188   156.42396
    74  H   1.0    0.11    1.09    1.44     2.01823   101.76930   156.56191
    75  H   1.0    0.12    1.09    1.44     3.57158    99.48462   157.10048
    76  H   1.0    0.11    1.09    1.44    -1.12250    95.33856   157.19496
    77  H   1.0    0.12    1.09    1.44     1.66674    95.57667   157.48409
    78  N   5.0   -0.23    3.31    1.98   -10.56924   100.01186   178.74918
    79  C   4.0    0.03    4.43    4.43    -8.23921   100.92459   179.90947
    80  C   4.0    0.16    3.49    3.11    -6.11326    99.18794   179.14224
    81  O   6.0   -0.30    1.29    1.80    -4.31991    99.97217   177.90069
    82  C   4.0   -0.06    4.47    4.49    -8.48109   100.96995   182.78185
    83  C   4.0   -0.06    4.39    4.36   -11.01521   101.76174   183.67758
    84  C   4.0   -0.05    4.36    4.31   -11.08513   101.66159   186.51973
    85  C   4.0   -0.03    4.26    4.12   -13.37737   102.85022   187.72349
    86  N   5.0   -0.16    4.13    3.22   -12.93328   102.95038   190.54107
    87  H   1.0    0.10    1.10    1.44   -11.76543    99.67737   179.79798
    88  H   1.0    0.05    1.12    1.45    -7.90283   102.64046   179.36145
    89  H   1.0    0.05    1.11    1.45    -8.15795    99.28620   183.42814
    90  H   1.0    0.05    1.10    1.44    -7.25277   102.14914   183.46026
    91  H   1.0    0.05    1.10    1.44   -11.35914   103.47950   183.13523
    92  H   1.0    0.05    1.11    1.44   -12.29267   100.62791   183.01240
    93  H   1.0    0.05    1.10    1.44   -11.04545    99.90414   187.03941
    94  H   1.0    0.05    1.11    1.44    -9.61115   102.54031   187.16791
    95  H   1.0    0.05    1.08    1.44   -13.61359   104.55476   187.08665
    96  H   1.0    0.05    1.08    1.44   -14.86836   101.84111   187.37956
    97  H   1.0    0.08    1.08    1.44   -14.23342   103.69871   191.30263
    98  H   1.0    0.08    1.08    1.44   -12.76510   101.39325   191.15334
    99  H   1.0    0.08    1.09    1.44   -11.53300   103.81965   190.87366
   100  N   5.0   -0.16    3.55    2.11    -6.37405    96.78987   179.81120
   101  C   4.0    0.03    4.43    4.44    -4.74510    94.75275   179.04020
   102  C   4.0    0.16    3.50    3.12    -3.74922    95.04188   176.36245
   103  O   6.0   -0.29    1.23    1.80    -1.42485    94.99085   175.92782
   104  C   4.0   -0.09    4.24    4.09    -6.25121    92.28666   179.30476
   105  H   1.0    0.09    1.16    1.45    -7.57024    96.26831   180.78063
   106  H   1.0    0.05    1.13    1.45    -3.25411    94.73007   180.10600
   107  H   1.0    0.05    1.05    1.44    -5.17785    90.87881   178.82855
   108  H   1.0    0.05    1.06    1.44    -6.79168    92.09957   181.04519
   109  H   1.0    0.05    1.06    1.44    -7.71197    92.35847   178.20116
   110  N   5.0   -0.16    3.48    2.07    -5.51989    95.21762   174.55966
   111  C   4.0    0.03    4.46    4.48    -4.82636    95.62391   171.91782
   112  C   4.0    0.17    3.48    3.11    -3.09915    97.94072   171.66271
   113  O   6.0   -0.29    1.24    1.80    -0.95809    97.75552   170.73296
   114  C   4.0   -0.05    4.38    4.34    -7.23576    95.88092   170.25108
   115  C   4.0   -0.01    3.62    3.18    -6.60648    96.31366   167.50531
   116  C   4.0   -0.04    3.49    3.11    -6.35515    94.21796   165.87825
   117  C   4.0   -0.03    3.52    3.12    -6.20964    98.77787   166.56233
   118  C   4.0   -0.04    3.40    3.08    -5.66918    94.56000   163.41783
   119  C   4.0   -0.04    3.42    3.08    -5.60115    99.19549   164.18884
   120  C   4.0   -0.04    3.44    3.09    -5.30068    97.10168   162.53533
   121  H   1.0    0.09    1.13    1.45    -7.11860    95.10991   174.82233
   122  H   1.0    0.06    1.12    1.45    -3.90795    94.16126   171.30744
   123  H   1.0    0.05    1.09    1.44    -8.22031    94.33890   170.37580
   124  H   1.0    0.05    1.09    1.44    -8.22598    97.30577   170.84256
   125  H   1.0    0.06    1.10    1.44    -6.65939    92.59657   166.48486
   126  H   1.0    0.06    1.11    1.45    -6.38349   100.14603   167.65082
   127  H   1.0    0.06    1.09    1.44    -5.44619    93.18806   162.34069
   128  H   1.0    0.06    1.10    1.44    -5.37060   100.83578   163.60302
   129  H   1.0    0.06    1.08    1.44    -4.85849    97.38136   160.85725
   130  N   5.0   -0.15    3.53    2.10    -4.00811   100.14981   172.53009
   131  C   4.0    0.04    4.55    4.61    -2.65695   102.51952   172.16348
   132  C   4.0    0.16    3.52    3.13     0.01323   102.33244   173.13480
   133  O   6.0   -0.31    1.37    1.80     1.81792   102.51385   171.67404
   134  C   4.0    0.05    4.37    4.33    -4.11582   104.62468   173.50141
   135  O   6.0   -0.27    2.15    1.85    -6.64050   104.63035   172.50363
   136  C   4.0   -0.08    4.19    3.98    -2.91774   107.21927   173.23307
   137  H   1.0    0.10    1.14    1.45    -5.40840   100.31043   173.33700
   138  H   1.0    0.06    1.13    1.45    -2.56247   102.91448   170.37769
   139  H   1.0    0.05    1.12    1.45    -4.11204   104.30342   175.30610
   140  H   1.0    0.14    1.08    1.44    -7.42662   103.34722   173.00819
   141  H   1.0    0.05    1.05    1.44    -3.94953   108.47594   174.07966
   142  H   1.0    0.04    1.06    1.44    -1.24533   107.21927   173.98329
   143  H   1.0    0.05    1.06    1.44    -2.77412   107.66525   171.46050
   144  N   5.0   -0.16    3.53    2.10     0.28346   101.97717   175.63491
   145  C   4.0    0.03    4.51    4.56     2.70609   102.05276   176.95394
   146  C   4.0    0.17    3.59    3.16     4.70731   100.73562   175.44594
   147  O   6.0   -0.31    1.28    1.80     6.51389   101.90347   174.54076
   148  C   4.0   -0.05    4.49    4.53     2.45097   100.74129   179.49562
   149  C   4.0   -0.04    4.31    4.21     4.90006   100.13469   180.82221
   150  C   4.0    0.25    3.15    3.03     4.38605    99.69627   183.65491
   151  O   6.0   -0.29    1.24    1.80     2.12972    99.95705   184.42591
   152  O   6.0   -0.27    1.16    1.80     6.13027    98.93471   185.02496
   153  H   1.0    0.12    1.15    1.45    -0.96187   101.67859   176.63646
   154  H   1.0    0.05    1.13    1.45     3.18230   103.80265   177.21661
   155  H   1.0    0.06    1.11    1.45     1.48343   101.82977   180.60867
   156  H   1.0    0.06    1.10    1.44     1.56280    99.15770   179.23862
   157  H   1.0    0.06    1.09    1.44     5.63138    98.61157   180.10978
   158  H   1.0    0.06    1.09    1.44     6.06791   101.53498   180.64268
   159  N   5.0   -0.15    3.62    2.18     4.29157    98.30543   175.03398
   160  C   4.0    0.04    4.56    4.62     5.99799    96.77476   173.51842
   161  C   4.0    0.16    3.45    3.10     6.43263    97.79899   170.81611
   162  O   6.0   -0.31    1.24    1.80     8.44519    97.29821   169.66715
   163  C   4.0   -0.03    4.36    4.31     4.87360    94.13670   173.35023
   164  S   6.0   -0.00    2.61    3.10     4.39361    92.63248   176.22639
   165  H   1.0    0.11    1.17    1.46     3.01789    97.48151   175.61601
   166  H   1.0    0.06    1.13    1.45     7.64016    96.75775   174.33478
   167  H   1.0    0.07    1.17    1.46     3.24466    94.25575   172.51686
   168  H   1.0    0.05    1.19    1.46     6.00744    93.08601   172.36568
   169  N   5.0   -0.14    3.55    2.12     4.56936    99.10857   169.71062
   170  C   4.0    0.05    4.65    4.72     5.01722   100.23484   167.25208
   171  C   4.0    0.16    3.56    3.14     6.85026   102.46094   167.42405
   172  O   6.0   -0.30    1.28    1.80     8.76833   102.54031   166.07857
   173  C   4.0   -0.03    4.34    4.27     2.55302   101.07199   166.14471
   174  S   6.0    0.00    2.51    3.10     2.96120   102.31732   163.00776
   175  H   1.0    0.14    1.17    1.46     3.08781    99.35423   170.33612
   176  H   1.0    0.08    1.16    1.46     5.76744    98.97629   166.14848
   177  H   1.0    0.07    1.15    1.45     1.41352    99.63958   166.05400
   178  H   1.0    0.06    1.16    1.46     1.83114   102.38535   167.19917
   179  N   5.0   -0.16    3.56    2.12     6.31924   104.26374   169.11913
   180  C   4.0    0.03    4.63    4.70     7.87638   106.52196   169.30433
   181  C   4.0    0.16    3.55    3.14    10.51632   105.80765   170.06211
   182  O   6.0   -0.31    1.28    1.80    12.36259   106.70338   168.93016
   183  C   4.0   -0.03    4.43    4.43     6.74821   108.38712   171.18838
   184  C   4.0   -0.08    4.29    4.18     8.53589   110.55653   171.49641
   185  C   4.0   -0.09    4.23    4.06     4.14984   109.28852   170.20384
   186  H   1.0    0.12    1.15    1.45     5.07580   104.21461   170.16604
   187  H   1.0    0.05    1.14    1.45     7.92362   107.32699   167.66027
   188  H   1.0    0.05    1.13    1.45     6.49688   107.60478   172.82489
   189  H   1.0    0.05    1.06    1.44     7.72520   111.85855   172.49985
   190  H   1.0    0.06    1.07    1.44    10.04956   109.96504   172.34490
   191  H   1.0    0.05    1.06    1.44     8.96486   111.21793   169.84290
   192  H   1.0    0.04    1.06    1.44     3.37316   110.36377   171.46995
   193  H   1.0    0.04    1.05    1.44     4.39361   110.22960   168.65048
   194  H   1.0    0.05    1.06    1.44     3.09159   107.82587   169.89014
   195  N   5.0   -0.16    3.53    2.10    10.72608   104.12957   171.95372
   196  C   4.0    0.03    4.66    4.73    13.20918   103.18282   172.75497
   197  C   4.0    0.16    3.61    3.17    14.60380   101.97528   170.57800
   198  O   6.0   -0.31    1.34    1.80    16.69951   102.71794   169.90904
   199  C   4.0   -0.02    4.52    4.57    12.93517   101.30632   174.93193
   200  C   4.0   -0.07    4.40    4.37    15.37292   100.16303   175.33255
   201  C   4.0   -0.07    4.31    4.22    12.00732   102.64613   177.20716
   202  H   1.0    0.12    1.15    1.45     9.47509   103.52108   172.79276
   203  H   1.0    0.06    1.14    1.45    14.18428   104.62279   173.32944
   204  H   1.0    0.06    1.15    1.45    11.71819    99.98918   174.55966
   205  H   1.0    0.07    1.07    1.44    15.31623    99.15581   176.86323
   206  H   1.0    0.05    1.08    1.44    15.77732    99.09912   173.89636
   207  H   1.0    0.05    1.08    1.44    16.63148   101.48584   175.50452
   208  H   1.0    0.06    1.06    1.44    11.85992   101.44805   178.58477
   209  H   1.0    0.05    1.07    1.44    13.19974   103.96516   177.64936
   210  H   1.0    0.06    1.07    1.44    10.36893   103.38124   176.83866
   211  N   5.0   -0.16    3.55    2.12    13.54178    99.97784   169.55377
   212  C   4.0    0.04    4.46    4.47    14.83813    98.65881   167.51665
   213  C   4.0    0.17    3.53    3.13    15.76409   100.53342   165.51543
   214  O   6.0   -0.31    1.28    1.80    17.95618   100.45594   164.71418
   215  C   4.0   -0.07    4.23    4.05    13.06557    96.67082   166.40549
   216  H   1.0    0.12    1.14    1.45    12.10558    99.35045   169.98652
   217  H   1.0    0.05    1.13    1.45    16.31400    97.78576   168.16104
   218  H   1.0    0.05    1.06    1.44    13.90460    95.83934   165.00331
   219  H   1.0    0.05    1.06    1.44    12.65549    95.44439   167.70373
   220  H   1.0    0.07    1.06    1.44    11.53678    97.49474   165.81778
   221  N   5.0   -0.15    3.55    2.12    14.15216   102.29653   164.75387
   222  C   4.0    0.04    4.51    4.55    14.92883   104.04264   162.77532
   223  C   4.0    0.16    3.49    3.11    17.13981   105.66025   163.65783
   224  O   6.0   -0.30    1.26    1.80    18.90482   106.14402   162.19707
   225  C   4.0    0.03    4.28    4.16    12.71786   105.69804   162.00810
   226  O   6.0   -0.27    2.11    1.84    10.71475   104.15791   161.14449
   227  H   1.0    0.13    1.15    1.45    12.64794   102.51574   165.33212
   228  H   1.0    0.06    1.13    1.45    15.45985   103.08833   161.30134
   229  H   1.0    0.06    1.08    1.44    12.15661   106.66936   163.45752
   230  H   1.0    0.05    1.07    1.44    13.24131   106.82432   160.66072
   231  H   1.0    0.17    1.09    1.44     9.79823   103.72517   162.36714
   232  N   5.0   -0.16    3.55    2.12    17.10202   106.49740   166.05589
   233  C   4.0    0.04    4.56    4.62    19.21095   107.96382   167.07256
   234  C   4.0    0.17    3.53    3.13    21.56744   106.41992   167.36169
   235  O   6.0   -0.28    1.29    1.80    23.59512   107.45360   167.39759
   236  C   4.0   -0.04    4.46    4.47    18.63081   109.05797   169.65582
   237  C   4.0   -0.03    4.40    4.37    16.21952   110.61133   169.56133
   238  C   4.0    0.16    3.34    3.06    16.42928   112.82798   171.27909
   239  O   6.0   -0.26    1.23    1.80    17.03021   112.50672   173.48818
   240  N   5.0   -0.24    3.23    1.96    15.89826   115.09943   170.30777
   241  H   1.0    0.13    1.15    1.45    15.89071   106.24039   167.11036
   242  H   1.0    0.06    1.13    1.45    19.47552   109.34143   165.89148
   243  H   1.0    0.07    1.10    1.44    18.40782   107.69737   170.86335
   244  H   1.0    0.07    1.10    1.44    20.01031   110.14457   170.18494
   245  H   1.0    0.05    1.11    1.45    15.93984   111.21604   167.85302
   246  H   1.0    0.07    1.11    1.45    14.80222   109.58143   170.09990
   247  H   1.0    0.11    1.09    1.44    15.45607   115.23360   168.74875
   248  H   1.0    0.12    1.09    1.44    15.99842   116.42602   171.24130
   249  N   5.0   -0.16    3.62    2.17    21.36524   103.99351   167.53365
   250  C   4.0    0.04    4.55    4.60    23.55732   102.36079   167.26720
   251  C   4.0    0.16    3.47    3.10    24.22629   101.81843   164.51198
   252  O   6.0   -0.27    1.26    1.80    26.30310   100.92270   164.01687
   253  C   4.0   -0.05    4.53    4.58    23.06033    99.86446   168.62592
   254  C   4.0   -0.03    4.40    4.38    22.33278   100.14981   171.41515
   255  C   4.0   -0.08    4.30    4.19    22.40270    97.54765   172.45072
   256  C   4.0   -0.07    4.31    4.21    24.06944   101.90725   172.70583
   257  H   1.0    0.13    1.17    1.46    19.97251   103.20171   167.80577
   258  H   1.0    0.07    1.14    1.45    25.00107   103.18282   168.04388
   259  H   1.0    0.05    1.10    1.44    21.68272    99.00085   167.77743
   260  H   1.0    0.05    1.10    1.44    24.58156    98.84401   168.54844
   261  H   1.0    0.06    1.14    1.45    20.67360   100.88302   171.67215
   262  H   1.0    0.05    1.06    1.44    21.97751    97.60246   174.23273
   263  H   1.0    0.05    1.06    1.44    21.18572    96.51397   171.54932
   264  H   1.0    0.05    1.07    1.44    24.08834    96.86168   172.23151
   265  H   1.0    0.06    1.06    1.44    23.71039   101.88835   174.50296
   266  H   1.0    0.06    1.07    1.44    25.79665   101.36868   172.40726
   267  H   1.0    0.06    1.07    1.44    23.81811   103.59478   172.03498
   268  N   5.0   -0.15    3.56    2.12    22.59356   102.38913   162.69785
   269  C   4.0    0.04    4.53    4.58    23.47229   102.40803   160.09569
   270  C   4.0    0.17    3.43    3.09    25.25430   104.62090   159.61570
   271  O   6.0   -0.25    1.22    1.80    27.04198   104.34878   158.12849
   272  C   4.0   -0.05    4.37    4.32    21.19139   102.33055   158.34959
   273  C   4.0   -0.05    4.33    4.25    20.39392    99.54887   157.89416
   274  C   4.0   -0.01    4.33    4.25    18.27176    99.28998   155.98554
   275  N   5.0   -0.16    3.47    2.06    15.88504    99.15770   157.35937
   276  C   4.0    0.11    3.49    3.11    15.05545    97.09223   158.53100
   277  N   5.0   -0.23    3.32    1.99    16.36503    94.93416   158.43273
   278  N   5.0   -0.23    3.31    1.99    12.88037    97.16593   159.75743
   279  H   1.0    0.13    1.16    1.45    21.02509   102.75763   162.91516
   280  H   1.0    0.06    1.15    1.45    24.45683   100.91137   159.71019
   281  H   1.0    0.07    1.10    1.44    19.79110   103.23006   159.11870
   282  H   1.0    0.06    1.09    1.44    21.61846   103.09589   156.73954
   283  H   1.0    0.05    1.09    1.44    21.83767    98.60968   157.26488
   284  H   1.0    0.06    1.10    1.44    19.81945    98.82700   159.47775
   285  H   1.0    0.05    1.09    1.44    18.24530   100.74507   154.87249
   286  H   1.0    0.05    1.09    1.44    18.48908    97.75552   155.00666
   287  H   1.0    0.10    1.13    1.45    14.95907   100.49185   157.41417
   288  H   1.0    0.11    1.09    1.44    17.76153    94.86991   157.60692
   289  H   1.0    0.12    1.09    1.44    15.80945    93.61135   159.19807
   290  H   1.0    0.12    1.09    1.44    12.01488    98.54165   159.79334
   291  H   1.0    0.13    1.11    1.45    12.33046    95.84123   160.51899
   292  N   5.0   -0.14    3.42    2.03    24.90848   106.75818   160.93284
   293  C   4.0    0.04    4.29    4.18    26.92104   108.69893   161.15961
   294  C   4.0    0.26    3.14    3.03    29.41169   107.87123   162.56934
   295  O   6.0   -0.21    1.16    1.80    30.99529   106.43881   161.50354
   296  C   4.0   -0.06    4.19    3.98    25.81555   111.07431   162.49187
   297  O   6.0   -0.23    1.17    1.80    29.93893   108.61200   164.78599
   298  H   1.0    0.11    1.13    1.45    23.53465   107.13990   161.71330
   299  H   1.0    0.07    1.12    1.45    27.45583   109.05419   159.44185
   300  H   1.0    0.07    1.05    1.44    27.03631   112.43869   162.38793
   301  H   1.0    0.06    1.05    1.44    24.26219   111.56186   161.65283
   302  H   1.0    0.08    1.05    1.44    25.47729   110.67180   164.24742
   303  N   5.0   -0.22    3.25    1.97     8.11637    85.91072   183.36956
   304  C   4.0    0.03    4.28    4.15     8.79856    87.96485   181.63479
   305  C   4.0    0.10    3.18    3.03    11.62181    88.22753   180.96394
   306  O   6.0   -0.29    1.16    1.80    12.33991    87.63037   178.83233
   307  C   4.0   -0.05    4.39    4.37     7.88016    90.46874   182.79697
   308  C   4.0   -0.06    4.40    4.39     5.45186    90.26654   184.30119
   309  C   4.0   -0.05    4.38    4.35     4.50889    92.81578   185.10055
   310  C   4.0   -0.04    4.34    4.27     1.79335    92.66649   185.77896
   311  N   5.0   -0.16    4.19    3.41     0.88250    95.27053   186.20604
   312  H   1.0    0.10    1.11    1.45     7.14505    86.39071   184.58087
   313  H   1.0    0.05    1.13    1.45     7.98787    87.56990   180.03986
   314  H   1.0    0.06    1.10    1.44     9.18029    91.09613   183.92892
   315  H   1.0    0.06    1.10    1.44     7.59481    91.66872   181.44393
   316  H   1.0    0.04    1.10    1.44     4.16118    89.47285   183.26751
   317  H   1.0    0.05    1.10    1.44     5.75044    89.26498   185.80730
   318  H   1.0    0.06    1.10    1.44     5.44997    93.39215   186.56319
   319  H   1.0    0.06    1.11    1.44     4.70353    94.00631   183.71916
   320  H   1.0    0.04    1.09    1.44     0.83715    91.90493   184.41269
   321  H   1.0    0.05    1.09    1.44     1.57603    91.68761   187.31531
   322  H   1.0    0.08    1.09    1.44    -0.66140    95.23841   186.87122
   323  H   1.0    0.10    1.10    1.44     1.91618    96.07367   187.26239
   324  H   1.0    0.09    1.11    1.44     0.83337    96.10768   184.74906
   325  N   5.0   -0.23    3.27    1.97    14.13704    87.73998   173.97195
   326  C   4.0    0.02    4.37    4.33    15.01765    89.86592   172.40726
   327  C   4.0    0.15    3.48    3.11    17.75209    89.52955   171.64759
   328  O   6.0   -0.32    1.27    1.80    18.57034    90.59724   169.75030
   329  C   4.0   -0.05    4.42    4.41    14.87592    92.42839   173.79432
   330  C   4.0   -0.04    4.27    4.14    12.31156    93.24286   174.75241
   331  C   4.0    0.24    3.15    3.03    12.50810    94.85290   177.13535
   332  O   6.0   -0.28    1.21    1.80    14.55656    94.81322   178.34667
   333  O   6.0   -0.29    1.16    1.80    10.62404    96.09256   177.88368
   334  H   1.0    0.14    1.11    1.45    13.83090    88.13115   175.51775
   335  H   1.0    0.04    1.12    1.45    13.89893    89.91127   170.95595
   336  H   1.0    0.07    1.11    1.45    15.98897    92.34524   175.24941
   337  H   1.0    0.05    1.10    1.44    15.45229    93.73041   172.63969
   338  H   1.0    0.05    1.09    1.44    11.47253    94.23496   173.45983
   339  H   1.0    0.05    1.10    1.44    11.31568    91.75564   175.14736
   340  N   5.0   -0.16    3.55    2.12    19.25253    88.20107   173.14425
   341  C   4.0    0.04    4.54    4.59    21.81878    87.64171   172.29009
   342  C   4.0    0.09    3.23    3.04    21.84334    85.53089   170.33612
   343  O   6.0   -0.29    1.15    1.80    22.93560    85.85214   168.32734
   344  C   4.0   -0.04    4.19    3.97    23.55354    87.01621   174.50674
   345  S   6.0   -0.03    2.48    3.10    23.70283    89.54655   176.65347
   346  H   1.0    0.10    1.13    1.45    18.85569    87.61714   174.60879
   347  H   1.0    0.07    1.15    1.45    22.48396    89.15538   171.49830
   348  H   1.0    0.05    1.15    1.45    22.91104    85.54411   175.38924
   349  H   1.0    0.06    1.15    1.45    25.24485    86.68362   173.88313
   350  H   1.0    0.07    1.00    1.43    24.38906    89.18644   178.78461
   351  N   5.0   -0.22    3.28    1.97    17.61036    83.61092   166.24297
   352  C   4.0    0.03    4.53    4.58    16.75431    84.39705   163.74853
   353  C   4.0    0.16    3.51    3.12    18.62703    86.24520   162.52399
   354  O   6.0   -0.30    1.35    1.80    19.51898    85.80301   160.41884
   355  C   4.0   -0.03    4.48    4.50    14.06523    85.38160   163.90916
   356  C   4.0   -0.08    4.34    4.28    13.27344    86.43795   161.48275
   357  C   4.0   -0.08    4.34    4.26    12.43629    83.15172   164.49497
   358  H   1.0    0.10    1.08    1.44    16.68250    84.06824   167.49586
   359  H   1.0    0.05    1.14    1.45    16.72218    82.94385   162.63170
   360  H   1.0    0.04    1.13    1.45    13.92350    86.69496   165.18095
   361  H   1.0    0.05    1.07    1.44    11.55189    87.04834   161.63204
   362  H   1.0    0.05    1.07    1.44    14.39215    87.82123   161.04245
   363  H   1.0    0.05    1.07    1.44    13.36414    85.12837   160.20341
   364  H   1.0    0.05    1.06    1.44    10.69207    83.70163   164.61403
   365  H   1.0    0.05    1.07    1.44    12.61203    81.91584   163.15327
   366  H   1.0    0.05    1.07    1.44    12.97297    82.42418   166.08990
   367  N   5.0   -0.16    3.51    2.08    19.41315    88.21241   163.85625
   368  C   4.0    0.04    4.65    4.71    21.24241    89.90749   162.70351
   369  C   4.0    0.17    3.58    3.16    23.48362    88.37303   161.72653
   370  O   6.0   -0.29    1.29    1.80    23.85968    88.22564   159.44752
   371  C   4.0   -0.03    4.45    4.46    22.17782    91.95595   164.51198
   372  C   4.0   -0.08    4.27    4.15    24.23763    93.49608   163.20618
   373  C   4.0   -0.07    4.30    4.19    20.03865    93.60191   165.22819
   374  H   1.0    0.11    1.13    1.45    18.93694    88.59035   165.36425
   375  H   1.0    0.05    1.13    1.45    20.40337    90.73897   161.30134
   376  H   1.0    0.06    1.13    1.45    22.87324    91.20573   166.03321
   377  H   1.0    0.05    1.06    1.44    24.68549    94.91904   164.27010
   378  H   1.0    0.05    1.06    1.44    25.70405    92.42650   162.94162
   379  H   1.0    0.05    1.06    1.44    23.60268    94.09512   161.59425
   380  H   1.0    0.05    1.06    1.44    20.60557    94.80377   166.49242
   381  H   1.0    0.05    1.07    1.44    19.44717    94.49386   163.74097
   382  H   1.0    0.06    1.07    1.44    18.69128    92.56445   165.91227
   383  N   5.0   -0.16    3.49    2.07    24.95194    87.21841   163.39893
   384  C   4.0    0.04    4.35    4.29    27.04765    85.59136   162.71107
   385  C   4.0    0.11    3.29    3.05    26.65081    83.95863   160.39805
   386  O   6.0   -0.28    1.15    1.80    28.00763    84.33469   158.53478
   387  C   4.0   -0.07    4.23    4.06    27.66748    83.71486   164.84079
   388  H   1.0    0.11    1.15    1.45    24.76108    87.35447   165.00709
   389  H   1.0    0.06    1.13    1.45    28.40069    86.77811   162.37281
   390  H   1.0    0.06    1.06    1.44    29.11312    82.70386   164.34569
   391  H   1.0    0.06    1.05    1.44    28.05298    84.65216   166.36769
   392  H   1.0    0.06    1.06    1.44    26.21617    82.63205   165.12425
   393  N   5.0   -0.20    3.31    1.99    22.67860    83.91706   155.76633
   394  C   4.0    0.04    4.43    4.42    22.46506    85.48931   153.52134
   395  C   4.0    0.16    3.47    3.10    25.04265    86.39827   152.63694
   396  O   6.0   -0.26    1.25    1.80    25.61901    86.30378   150.38061
   397  C   4.0   -0.04    4.42    4.42    20.69817    87.67006   154.13172
   398  C   4.0   -0.03    4.41    4.40    18.21507    86.66661   155.16351
   399  C   4.0    0.16    3.32    3.06    16.01165    88.29178   154.47376
   400  O   6.0   -0.31    1.27    1.80    16.05133    90.56701   154.97265
   401  N   5.0   -0.24    3.24    1.96    14.03310    87.14282   153.35882
   402  H   1.0    0.13    1.11    1.45    21.62413    84.29501   156.94174
   403  H   1.0    0.06    1.13    1.45    21.74886    84.54067   152.12672
   404  H   1.0    0.07    1.09    1.44    21.46918    88.75098   155.39594
   405  H   1.0    0.06    1.10    1.44    20.35802    88.63193   152.60860
   406  H   1.0    0.05    1.11    1.45    17.91838    84.99042   154.48321
   407  H   1.0    0.08    1.12    1.45    18.31333    86.59102   156.99276
   408  H   1.0    0.11    1.09    1.44    14.07657    85.54411   153.07536
   409  H   1.0    0.11    1.09    1.44    12.72541    88.01021   152.93174
   410  N   5.0   -0.15    3.54    2.10    26.64325    87.20896   154.37927
   411  C   4.0    0.05    4.47    4.50    29.16414    87.98375   153.63661
   412  C   4.0    0.11    3.25    3.04    30.65891    85.75576   152.61616
   413  O   6.0   -0.23    1.12    1.80    32.07432    86.08269   150.80580
   414  C   4.0   -0.04    4.44    4.44    30.54553    89.23286   155.85704
   415  C   4.0   -0.03    4.29    4.18    29.14335    91.53832   156.91717
   416  C   4.0   -0.07    4.18    3.95    30.88001    92.94428   158.79556
   417  C   4.0   -0.08    4.20    4.00    28.11156    93.21262   154.71942
   418  H   1.0    0.13    1.15    1.45    26.32199    87.32613   155.96853
   419  H   1.0    0.07    1.14    1.45    29.02997    89.23853   152.30624
   420  H   1.0    0.07    1.09    1.44    30.72316    88.00832   157.21008
   421  H   1.0    0.06    1.09    1.44    32.19715    89.78655   155.29201
   422  H   1.0    0.06    1.12    1.45    27.65992    91.03944   157.87149
   423  H   1.0    0.06    1.05    1.44    29.98806    94.40126   159.45697
   424  H   1.0    0.05    1.05    1.44    31.32221    91.80856   160.16372
   425  H   1.0    0.06    1.05    1.44    32.39557    93.48474   157.91684
   426  H   1.0    0.05    1.05    1.44    27.32922    94.71117   155.42807
   427  H   1.0    0.06    1.05    1.44    29.50618    93.69072   153.62905
   428  H   1.0    0.05    1.06    1.44    26.87568    92.25075   153.76700
   429  N   5.0   -0.23    3.23    1.96    -2.27832   113.96979   176.14893
   430  C   4.0    0.03    4.25    4.10     0.03953   113.56453   174.71652
   431  C   4.0    0.08    3.23    3.04     1.91569   115.70821   175.00753
   432  O   6.0   -0.31    1.13    1.80     4.21629   115.27991   174.78832
   433  C   4.0   -0.09    4.24    4.08    -0.59593   113.30457   171.91594
   434  H   1.0    0.11    1.09    1.44    -3.59786   114.10479   175.21162
   435  H   1.0    0.04    1.13    1.45     0.81426   112.02614   175.34390
   436  H   1.0    0.04    1.06    1.44     0.96103   113.12118   170.96541
   437  H   1.0    0.04    1.06    1.44    -1.65185   111.82647   171.67784
   438  H   1.0    0.05    1.06    1.44    -1.48956   114.80704   171.36603
   439  N   5.0   -0.22    3.29    1.98     7.06120   115.10693   179.96050
   440  C   4.0    0.04    4.41    4.40     9.33216   113.70576   179.35012
   441  C   4.0    0.15    3.44    3.09    11.16890   115.06733   177.60213
   442  O   6.0   -0.26    1.25    1.80    13.25764   114.10647   177.19584
   443  C   4.0   -0.04    4.43    4.43     8.54991   111.19426   178.16904
   444  C   4.0   -0.01    3.63    3.18     7.04464   109.61384   180.00397
   445  C   4.0   -0.04    3.51    3.12     8.24376   108.25500   181.92771
   446  C   4.0   -0.05    3.51    3.12     4.38869   109.51622   179.83011
   447  C   4.0   -0.03    3.47    3.10     6.87177   106.85191   183.60012
   448  C   4.0   -0.05    3.48    3.11     2.99382   108.19811   181.56299
   449  C   4.0    0.08    3.52    3.12     4.24146   106.89129   183.48106
   450  O   6.0   -0.24    2.14    1.85     2.82002   105.59275   185.23095
   451  H   1.0    0.12    1.09    1.44     5.86717   114.95653   178.86824
   452  H   1.0    0.06    1.13    1.45    10.26923   113.39795   180.89592
   453  H   1.0    0.05    1.10    1.44     7.51224   111.51381   176.69317
   454  H   1.0    0.06    1.10    1.44    10.04976   110.25563   177.68905
   455  H   1.0    0.06    1.10    1.44     9.99492   108.30593   182.06944
   456  H   1.0    0.06    1.10    1.44     3.57440   110.35970   178.52242
   457  H   1.0    0.08    1.10    1.44     7.68642   105.87553   184.81332
   458  H   1.0    0.06    1.10    1.44     1.24019   108.17413   181.46284
   459  H   1.0    0.15    1.10    1.44     1.27706   105.89551   185.01174
   460  N   5.0   -0.14    3.53    2.10    10.53693   117.28821   176.61947
   461  C   4.0    0.04    4.44    4.45    12.19653   118.58242   174.88092
   462  C   4.0    0.10    3.23    3.04    14.01828   120.36302   176.19995
   463  O   6.0   -0.24    1.12    1.80    13.18609   122.06899   177.58512
   464  C   4.0   -0.05    4.39    4.37    10.59681   120.00018   172.98931
   465  C   4.0   -0.05    4.27    4.15     8.74886   118.26119   171.56634
   466  C   4.0   -0.05    4.24    4.08     7.59847   119.62633   169.21174
   467  C   4.0   -0.04    4.22    4.04     6.10170   117.81952   167.51099
   468  N   5.0   -0.16    4.09    3.13     4.31404   119.27934   165.79323
   469  H   1.0    0.11    1.14    1.45     9.15120   118.07453   176.93883
   470  H   1.0    0.06    1.14    1.45    13.25610   117.34813   174.03432
   471  H   1.0    0.06    1.09    1.44     9.61700   121.27397   173.87181
   472  H   1.0    0.05    1.09    1.44    11.69539   120.79592   171.75531
   473  H   1.0    0.05    1.09    1.44     9.63871   116.76526   170.99187
   474  H   1.0    0.06    1.09    1.44     7.37720   117.78348   172.68506
   475  H   1.0    0.05    1.09    1.44     6.46257   120.94748   169.77866
   476  H   1.0    0.05    1.09    1.44     8.95613   120.35126   168.21397
   477  H   1.0    0.04    1.08    1.44     7.26153   116.86133   166.46408
   478  H   1.0    0.05    1.08    1.44     5.10825   116.68298   168.55034
   479  H   1.0    0.07    1.08    1.44     3.41216   118.21094   164.85970
   480  H   1.0    0.08    1.08    1.44     3.26634   120.21717   166.71542
   481  H   1.0    0.08    1.08    1.44     5.19252   120.28622   164.77278
   482  H   1.0    0.10    1.08    1.44    -3.41885    88.41673   173.88221
   483  H   1.0    0.06    1.04    1.43     1.30214    85.89372   169.91052
   484  H   1.0    0.10    1.08    1.44    -2.05537    91.18715   164.07728
   485  H   1.0    0.06    1.04    1.43     6.92901    90.68081   161.05715
   486  H   1.0    0.12    1.08    1.44     8.58263    92.67050   156.52678
   487  H   1.0    0.06    1.05    1.44     6.17446    97.57298   152.15019
   488  H   1.0    0.10    1.08    1.44    -0.29999   108.40815   158.11509
   489  H   1.0    0.06    1.05    1.44    -4.69771   110.33484   162.48776
   490  H   1.0    0.11    1.08    1.44   -10.26226   106.95767   155.64461
   491  H   1.0    0.07    1.04    1.43   -10.84306   103.99060   161.41445
   492  H   1.0    0.10    1.08    1.44   -11.16986   101.18958   177.67923
   493  H   1.0    0.11    1.08    1.44     7.30046    84.69008   182.51113
   494  H   1.0    0.07    1.04    1.43    12.84282    88.87562   182.25241
   495  H   1.0    0.10    1.07    1.44    12.69478    87.11574   173.32174
   496  H   1.0    0.06    1.04    1.44    20.96956    83.89548   170.70086
   497  H   1.0    0.10    1.08    1.44    17.68406    81.91305   166.30891
   498  H   1.0    0.07    1.04    1.43    25.31865    82.61834   160.40484
   499  H   1.0    0.11    1.08    1.44    22.40207    82.29155   155.34943
   500  H   1.0    0.08    1.04    1.43    30.48270    84.05331   153.41721
   501  H   1.0    0.10    1.08    1.44    -2.53121   112.65879   177.20244
   502  H   1.0    0.06    1.04    1.43     1.30216   117.45757   175.37412
   503  H   1.0    0.11    1.08    1.44     6.44288   114.56529   181.44942
   504  H   1.0    0.07    1.04    1.43    15.88106   120.16195   175.95356

  Z AO/shell   Hii/eV     exponent
  1     Wed Apr 25 08:07:45 CEST 2018   EN: 2.200 GM2: 0.406  GM3: 0.0800  RAES: 1.40
     1s    -10.707211    1.230000
  6     Wed Apr 25 08:07:45 CEST 2018   EN: 2.550 GM2: 0.538  GM3: 0.1500  RAES: 3.00
     2s    -13.970922    2.096432
     2p    -10.063292    1.800000
  7     Wed Apr 25 08:07:45 CEST 2018   EN: 3.040 GM2: 0.461  GM3:-0.0640  RAES: 1.90
     2s    -16.686243    2.339881
     2p    -12.523956    2.014332
  8     Wed Apr 25 08:07:45 CEST 2018   EN: 3.440 GM2: 0.452  GM3:-0.0517  RAES: 1.80
     2s    -20.229985    2.439742
     2p    -15.503117    2.137023
 16     Tue Apr 24 11:44:34 CEST 2018   EN: 2.580 GM2: 0.340  GM3:-0.0502  RAES: 3.10
     3s    -20.029654    1.981333
     3p    -11.377694    2.025643
     3d     -0.420282    1.702555
 no old-style atom pair restraining (fixing) potential

molecular fragmentation (1/2 indicates fragments):
111111111122222222222222222222222222222222211111111112222222222222222222
222221111111111111111111111111111111111111111111111111111111111111111111
111111111111111111111111111111111111111111111111111111111111111111111111
111111111111111111111111111111111111111111111111111111111111111111111111
111111111111112222222222222222222222222222222222222222222222222222222222
222222222222222222222222222222222222222222222222222222222222222222222222
222222222222222222222222222222222222222222222222211222211221222222222222
# atoms in fragment 1/2:   250   254
 fragment masses (1/2) :     1832.19     1637.10
CMA distance (Bohr)    :   7.405
constraining FC (au)   :  0.0500
           ------------------------------------------------- 
          |        Self-Consistent Charge Iterations        |
           ------------------------------------------------- 

 Ncao       : 1245
 Nao        : 1240
 Nshell     : 746
 Nel        : 1350
 T(el)      :   500.0
 intcut     :    35.0
 scfconv/Eh :  0.100E-06
   qconv/e  :  0.100E-04
 intneglect :  0.100E-08
 broydamp   :      0.400
 iter      E             dE          RMSdq      gap      omega  full diag
   1   -774.1301174 -0.774130E+03  0.478E+00    2.62       0.0  T
   2   -775.9134576 -0.178334E+01  0.226E+00    1.74       1.0  T
   3   -776.0115498 -0.980921E-01  0.130E+00    1.69       1.0  T
   4   -776.1593149 -0.147765E+00  0.299E-01    0.87       1.0  T
   5   -776.1666439 -0.732905E-02  0.152E-01    0.99       1.0  T
   6   -776.1684625 -0.181853E-02  0.819E-02    0.97       1.0  T
   7   -776.1692254 -0.762884E-03  0.467E-02    0.97       1.0  T
   8   -776.1693869 -0.161546E-03  0.280E-02    0.97       1.0  T
   9   -776.1694600 -0.731006E-04  0.155E-02    0.96       1.0  T
  10   -776.1694764 -0.163992E-04  0.882E-03    0.95       1.0  T
  11   -776.1694817 -0.529399E-05  0.444E-03    0.94       1.0  T
  12   -776.1694837 -0.202466E-05  0.212E-03    0.94       2.1  T
  13   -776.1694842 -0.433186E-06  0.917E-04    0.94       4.9  T
  14   -776.1694842 -0.705063E-07  0.395E-04    0.94      11.3  T
  15   -776.1694842 -0.156623E-07  0.166E-04    0.94      26.8  T
  16   -776.1694842 -0.251919E-08  0.761E-05    0.94      58.5  T
  17   -776.1694842 -0.390401E-09  0.295E-05    0.94     151.1  T
speedup  2.00
cpu  time for SCC   35.44 s
wall time for SCC   17.75 s

   *** convergence criteria satisfied after 17 iterations ***

          eigenvalues
 #    :         663        664        665        666        667        668        669        670
 occ. :        2.000      2.000      2.000      2.000      2.000      2.000      2.000      2.000
 eps  :       -10.263    -10.255    -10.165    -10.133    -10.124    -10.100    -10.015     -9.984
 #    :         671        672        673        674        675        676        677        678
 occ. :        2.000      2.000      2.000      2.000      2.000      0.000      0.000      0.000
 eps  :        -9.859     -9.680     -9.530     -9.492     -9.437     -8.496     -8.413     -8.409
 #    :         679        680        681        682        683        684        685        686
 occ. :        0.000      0.000      0.000      0.000      0.000      0.000      0.000      0.000
 eps  :        -8.228     -8.119     -7.930     -7.770     -7.639     -7.614     -7.490     -7.442


   #   Z            q   n(s)   n(p)   n(d)      C6AA      α(0)
   1   7 N     -0.397  1.276  4.120  0.000    30.281     8.173
   2   6 C      0.027  1.028  2.945  0.000    20.126     6.388
   3   6 C      0.190  1.094  2.716  0.000    23.934     8.012
   4   8 O     -0.361  1.752  4.609  0.000    20.912     6.131
   5   6 C     -0.067  1.049  3.018  0.000    21.784     6.644
   6  16 S     -0.115  1.932  4.094  0.088   145.851    20.326
   7   1 H      0.203  0.797  0.000  0.000     1.091     1.636
   8   1 H      0.078  0.922  0.000  0.000     2.004     2.213
   9   1 H      0.104  0.896  0.000  0.000     1.748     2.067
  10   1 H      0.104  0.896  0.000  0.000     1.752     2.069
  11   7 N     -0.410  1.275  4.135  0.000    30.641     8.221
  12   6 C     -0.026  1.000  3.026  0.000    21.103     6.553
  13   6 C      0.257  1.055  2.688  0.000    22.678     7.798
  14   8 O     -0.500  1.744  4.756  0.000    23.784     6.539
  15   1 H      0.174  0.826  0.000  0.000     1.250     1.751
  16   1 H      0.080  0.920  0.000  0.000     1.980     2.200
  17   1 H      0.061  0.939  0.000  0.000     2.186     2.312
  18   7 N     -0.186  1.215  3.972  0.000    25.038     7.432
  19   6 C      0.016  1.032  2.951  0.000    20.299     6.414
  20   6 C      0.187  1.096  2.716  0.000    23.984     8.021
  21   8 O     -0.352  1.745  4.607  0.000    20.748     6.107
  22   6 C     -0.154  0.979  3.175  0.000    23.512     6.909
  23   1 H      0.233  0.767  0.000  0.000     0.953     1.529
  24   1 H      0.100  0.900  0.000  0.000     1.782     2.088
  25   1 H      0.081  0.919  0.000  0.000     1.970     2.195
  26   1 H      0.064  0.936  0.000  0.000     2.147     2.291
  27   1 H      0.087  0.913  0.000  0.000     1.903     2.157
  28   7 N     -0.410  1.275  4.134  0.000    30.643     8.221
  29   6 C      0.015  1.037  2.949  0.000    20.340     6.423
  30   6 C      0.183  1.090  2.727  0.000    24.067     8.035
  31   8 O     -0.377  1.762  4.615  0.000    21.225     6.177
  32   6 C     -0.032  1.036  2.995  0.000    21.100     6.532
  33   6 C     -0.167  0.983  3.185  0.000    23.782     6.948
  34   6 C     -0.156  0.980  3.176  0.000    23.553     6.914
  35   1 H      0.179  0.821  0.000  0.000     1.217     1.728
  36   1 H      0.072  0.928  0.000  0.000     2.065     2.247
  37   1 H      0.052  0.948  0.000  0.000     2.300     2.372
  38   1 H      0.062  0.938  0.000  0.000     2.173     2.305
  39   1 H      0.060  0.940  0.000  0.000     2.201     2.320
  40   1 H      0.071  0.929  0.000  0.000     2.068     2.249
  41   1 H      0.057  0.943  0.000  0.000     2.229     2.334
  42   1 H      0.086  0.914  0.000  0.000     1.915     2.164
  43   1 H      0.050  0.950  0.000  0.000     2.318     2.381
  44   7 N     -0.404  1.275  4.129  0.000    30.494     8.201
  45   6 C      0.018  1.033  2.949  0.000    20.282     6.414
  46   6 C      0.190  1.090  2.720  0.000    23.931     8.012
  47   8 O     -0.356  1.759  4.597  0.000    20.822     6.118
  48   6 C     -0.083  1.057  3.026  0.000    22.094     6.694
  49  16 S     -0.065  1.925  4.054  0.085   143.734    20.178
  50   1 H      0.204  0.796  0.000  0.000     1.086     1.633
  51   1 H      0.082  0.918  0.000  0.000     1.960     2.189
  52   1 H      0.116  0.884  0.000  0.000     1.646     2.006
  53   1 H      0.076  0.924  0.000  0.000     2.015     2.220
  54   7 N     -0.413  1.286  4.127  0.000    30.738     8.234
  55   6 C      0.025  1.037  2.938  0.000    20.171     6.397
  56   6 C      0.198  1.097  2.705  0.000    23.782     7.986
  57   8 O     -0.393  1.769  4.624  0.000    21.543     6.223
  58   6 C     -0.101  1.006  3.096  0.000    22.418     6.738
  59   6 C     -0.103  1.010  3.093  0.000    22.451     6.745
  60   6 C     -0.053  1.023  3.030  0.000    21.609     6.632
  61   7 N     -0.149  1.179  3.970  0.000    24.228     7.310
  62   6 C      0.215  1.025  2.760  0.000    23.448     7.928
  63   7 N     -0.243  1.164  4.079  0.000    26.343     7.623
  64   7 N     -0.256  1.168  4.088  0.000    26.646     7.666
  65   1 H      0.197  0.803  0.000  0.000     1.119     1.657
  66   1 H      0.065  0.935  0.000  0.000     2.141     2.288
  67   1 H      0.086  0.914  0.000  0.000     1.914     2.164
  68   1 H      0.068  0.932  0.000  0.000     2.107     2.270
  69   1 H      0.084  0.916  0.000  0.000     1.940     2.178
  70   1 H      0.089  0.911  0.000  0.000     1.885     2.147
  71   1 H      0.110  0.890  0.000  0.000     1.696     2.036
  72   1 H      0.100  0.900  0.000  0.000     1.785     2.089
  73   1 H      0.230  0.770  0.000  0.000     0.964     1.538
  74   1 H      0.257  0.743  0.000  0.000     0.856     1.449
  75   1 H      0.241  0.759  0.000  0.000     0.917     1.500
  76   1 H      0.248  0.752  0.000  0.000     0.891     1.479
  77   1 H      0.238  0.762  0.000  0.000     0.931     1.512
  78   7 N     -0.424  1.282  4.142  0.000    31.048     8.276
  79   6 C      0.011  1.033  2.956  0.000    20.396     6.430
  80   6 C      0.263  1.046  2.691  0.000    22.573     7.780
  81   8 O     -0.528  1.755  4.773  0.000    24.404     6.623
  82   6 C     -0.109  1.009  3.100  0.000    22.558     6.758
  83   6 C     -0.092  0.997  3.095  0.000    22.240     6.711
  84   6 C     -0.122  1.009  3.114  0.000    22.822     6.798
  85   6 C     -0.070  1.024  3.046  0.000    21.921     6.680
  86   7 N     -0.149  1.149  4.000  0.000    24.203     7.307
  87   1 H      0.201  0.799  0.000  0.000     1.103     1.645
  88   1 H      0.063  0.937  0.000  0.000     2.160     2.298
  89   1 H      0.068  0.932  0.000  0.000     2.102     2.267
  90   1 H      0.071  0.929  0.000  0.000     2.075     2.252
  91   1 H      0.073  0.927  0.000  0.000     2.056     2.242
  92   1 H      0.071  0.929  0.000  0.000     2.079     2.255
  93   1 H      0.094  0.906  0.000  0.000     1.840     2.121
  94   1 H      0.091  0.909  0.000  0.000     1.873     2.140
  95   1 H      0.130  0.870  0.000  0.000     1.535     1.938
  96   1 H      0.132  0.868  0.000  0.000     1.521     1.929
  97   1 H      0.291  0.709  0.000  0.000     0.741     1.348
  98   1 H      0.291  0.709  0.000  0.000     0.741     1.348
  99   1 H      0.288  0.712  0.000  0.000     0.749     1.355
 100   7 N     -0.183  1.206  3.977  0.000    24.954     7.419
 101   6 C      0.004  1.035  2.960  0.000    20.508     6.448
 102   6 C      0.271  1.045  2.684  0.000    22.421     7.754
 103   8 O     -0.516  1.776  4.740  0.000    24.139     6.587
 104   6 C     -0.176  0.989  3.188  0.000    23.974     6.977
 105   1 H      0.242  0.758  0.000  0.000     0.915     1.498
 106   1 H      0.090  0.910  0.000  0.000     1.882     2.145
 107   1 H      0.080  0.920  0.000  0.000     1.975     2.197
 108   1 H      0.104  0.896  0.000  0.000     1.750     2.069
 109   1 H      0.088  0.912  0.000  0.000     1.899     2.155
 110   7 N     -0.193  1.211  3.982  0.000    25.182     7.453
 111   6 C      0.012  1.043  2.945  0.000    20.385     6.429
 112   6 C      0.278  1.046  2.675  0.000    22.289     7.731
 113   8 O     -0.503  1.762  4.741  0.000    23.842     6.547
 114   6 C     -0.109  1.017  3.091  0.000    22.561     6.760
 115   6 C     -0.013  1.091  2.922  0.000    28.343     8.733
 116   6 C     -0.059  1.057  3.002  0.000    29.469     8.902
 117   6 C     -0.057  1.048  3.009  0.000    29.428     8.897
 118   6 C     -0.059  1.063  2.996  0.000    29.473     8.902
 119   6 C     -0.051  1.053  2.998  0.000    29.271     8.872
 120   6 C     -0.069  1.073  2.996  0.000    29.726     8.942
 121   1 H      0.236  0.764  0.000  0.000     0.941     1.519
 122   1 H      0.086  0.914  0.000  0.000     1.914     2.163
 123   1 H      0.093  0.907  0.000  0.000     1.853     2.128
 124   1 H      0.081  0.919  0.000  0.000     1.966     2.192
 125   1 H      0.064  0.936  0.000  0.000     2.156     2.296
 126   1 H      0.060  0.940  0.000  0.000     2.196     2.317
 127   1 H      0.068  0.932  0.000  0.000     2.112     2.272
 128   1 H      0.077  0.923  0.000  0.000     2.007     2.215
 129   1 H      0.074  0.926  0.000  0.000     2.041     2.234
 130   7 N     -0.183  1.204  3.979  0.000    24.960     7.420
 131   6 C      0.003  1.039  2.958  0.000    20.526     6.450
 132   6 C      0.273  1.042  2.685  0.000    22.394     7.749
 133   8 O     -0.495  1.746  4.749  0.000    23.663     6.522
 134   6 C      0.093  1.026  2.882  0.000    19.129     6.242
 135   8 O     -0.472  1.676  4.796  0.000    22.295     6.374
 136   6 C     -0.167  0.979  3.188  0.000    23.786     6.951
 137   1 H      0.222  0.778  0.000  0.000     0.998     1.565
 138   1 H      0.105  0.895  0.000  0.000     1.738     2.061
 139   1 H      0.062  0.938  0.000  0.000     2.177     2.307
 140   1 H      0.325  0.675  0.000  0.000     0.650     1.266
 141   1 H      0.098  0.902  0.000  0.000     1.798     2.097
 142   1 H      0.064  0.936  0.000  0.000     2.157     2.297
 143   1 H      0.090  0.910  0.000  0.000     1.883     2.145
 144   7 N     -0.200  1.218  3.981  0.000    25.336     7.476
 145   6 C      0.017  1.033  2.950  0.000    20.294     6.413
 146   6 C      0.295  1.033  2.672  0.000    22.002     7.682
 147   8 O     -0.518  1.748  4.771  0.000    24.194     6.595
 148   6 C     -0.083  1.005  3.078  0.000    22.066     6.684
 149   6 C     -0.104  1.005  3.099  0.000    22.466     6.747
 150   6 C      0.359  1.029  2.611  0.000    20.901     7.482
 151   8 O     -0.630  1.751  4.880  0.000    26.877     6.951
 152   8 O     -0.640  1.783  4.858  0.000    27.129     6.983
 153   1 H      0.240  0.760  0.000  0.000     0.925     1.506
 154   1 H      0.081  0.919  0.000  0.000     1.964     2.192
 155   1 H      0.091  0.909  0.000  0.000     1.872     2.140
 156   1 H      0.063  0.937  0.000  0.000     2.166     2.301
 157   1 H      0.025  0.975  0.000  0.000     2.661     2.551
 158   1 H      0.021  0.979  0.000  0.000     2.712     2.575
 159   7 N     -0.197  1.208  3.989  0.000    25.285     7.468
 160   6 C      0.045  1.028  2.927  0.000    19.798     6.330
 161   6 C      0.258  1.056  2.687  0.000    22.660     7.795
 162   8 O     -0.514  1.756  4.758  0.000    24.102     6.582
 163   6 C     -0.012  1.005  3.007  0.000    20.770     6.485
 164  16 S     -0.119  1.917  4.100  0.102   146.037    20.339
 165   1 H      0.221  0.779  0.000  0.000     1.003     1.569
 166   1 H      0.064  0.936  0.000  0.000     2.156     2.296
 167   1 H      0.072  0.928  0.000  0.000     2.064     2.246
 168   1 H      0.058  0.942  0.000  0.000     2.226     2.333
 169   7 N     -0.184  1.219  3.965  0.000    24.986     7.424
 170   6 C      0.033  1.028  2.939  0.000    19.982     6.358
 171   6 C      0.264  1.049  2.686  0.000    22.541     7.775
 172   8 O     -0.504  1.744  4.759  0.000    23.866     6.550
 173   6 C     -0.041  1.020  3.021  0.000    21.292     6.567
 174  16 S     -0.091  1.922  4.059  0.110   144.849    20.256
 175   1 H      0.236  0.764  0.000  0.000     0.939     1.518
 176   1 H      0.103  0.897  0.000  0.000     1.753     2.070
 177   1 H      0.079  0.921  0.000  0.000     1.993     2.208
 178   1 H      0.074  0.926  0.000  0.000     2.036     2.231
 179   7 N     -0.185  1.213  3.972  0.000    25.009     7.427
 180   6 C      0.005  1.042  2.953  0.000    20.475     6.440
 181   6 C      0.273  1.043  2.684  0.000    22.388     7.749
 182   8 O     -0.496  1.747  4.749  0.000    23.700     6.527
 183   6 C     -0.040  1.035  3.004  0.000    21.241     6.554
 184   6 C     -0.160  0.977  3.183  0.000    23.620     6.924
 185   6 C     -0.180  0.988  3.192  0.000    24.055     6.989
 186   1 H      0.228  0.772  0.000  0.000     0.974     1.546
 187   1 H      0.119  0.881  0.000  0.000     1.618     1.989
 188   1 H      0.049  0.951  0.000  0.000     2.337     2.390
 189   1 H      0.091  0.909  0.000  0.000     1.870     2.138
 190   1 H      0.029  0.971  0.000  0.000     2.599     2.521
 191   1 H      0.084  0.916  0.000  0.000     1.937     2.176
 192   1 H      0.090  0.910  0.000  0.000     1.881     2.145
 193   1 H      0.097  0.903  0.000  0.000     1.816     2.107
 194   1 H      0.064  0.936  0.000  0.000     2.150     2.293
 195   7 N     -0.212  1.221  3.991  0.000    25.617     7.517
 196   6 C      0.016  1.042  2.942  0.000    20.290     6.409
 197   6 C      0.280  1.035  2.685  0.000    22.267     7.728
 198   8 O     -0.502  1.747  4.755  0.000    23.822     6.544
 199   6 C      0.004  1.011  2.985  0.000    20.476     6.435
 200   6 C     -0.129  0.964  3.166  0.000    22.981     6.826
 201   6 C     -0.139  0.970  3.169  0.000    23.186     6.858
 202   1 H      0.222  0.778  0.000  0.000     1.001     1.567
 203   1 H      0.073  0.927  0.000  0.000     2.054     2.241
 204   1 H      0.038  0.962  0.000  0.000     2.474     2.459
 205   1 H      0.056  0.944  0.000  0.000     2.243     2.342
 206   1 H      0.039  0.961  0.000  0.000     2.461     2.453
 207   1 H      0.046  0.954  0.000  0.000     2.363     2.404
 208   1 H      0.048  0.952  0.000  0.000     2.343     2.394
 209   1 H      0.051  0.949  0.000  0.000     2.304     2.373
 210   1 H      0.061  0.939  0.000  0.000     2.189     2.314
 211   7 N     -0.190  1.209  3.981  0.000    25.119     7.444
 212   6 C      0.017  1.035  2.948  0.000    20.279     6.410
 213   6 C      0.266  1.044  2.691  0.000    22.514     7.770
 214   8 O     -0.491  1.754  4.738  0.000    23.595     6.513
 215   6 C     -0.169  0.984  3.185  0.000    23.813     6.954
 216   1 H      0.215  0.785  0.000  0.000     1.034     1.593
 217   1 H      0.078  0.922  0.000  0.000     1.999     2.211
 218   1 H      0.094  0.906  0.000  0.000     1.839     2.120
 219   1 H      0.078  0.922  0.000  0.000     1.995     2.208
 220   1 H      0.095  0.905  0.000  0.000     1.835     2.118
 221   7 N     -0.180  1.204  3.976  0.000    24.901     7.411
 222   6 C     -0.007  1.044  2.963  0.000    20.691     6.475
 223   6 C      0.259  1.047  2.694  0.000    22.640     7.792
 224   8 O     -0.499  1.757  4.742  0.000    23.773     6.537
 225   6 C      0.040  1.000  2.959  0.000    20.070     6.410
 226   8 O     -0.452  1.650  4.802  0.000    21.888     6.316
 227   1 H      0.230  0.770  0.000  0.000     0.966     1.539
 228   1 H      0.113  0.887  0.000  0.000     1.669     2.020
 229   1 H      0.071  0.929  0.000  0.000     2.075     2.252
 230   1 H      0.103  0.897  0.000  0.000     1.757     2.073
 231   1 H      0.331  0.669  0.000  0.000     0.633     1.250
 232   7 N     -0.190  1.213  3.976  0.000    25.112     7.443
 233   6 C      0.011  1.038  2.951  0.000    20.386     6.427
 234   6 C      0.288  1.022  2.691  0.000    22.130     7.705
 235   8 O     -0.528  1.754  4.774  0.000    24.403     6.623
 236   6 C     -0.074  1.004  3.070  0.000    21.896     6.657
 237   6 C     -0.130  1.012  3.117  0.000    22.966     6.819
 238   6 C      0.284  1.032  2.684  0.000    22.184     7.712
 239   8 O     -0.511  1.768  4.743  0.000    24.034     6.573
 240   7 N     -0.306  1.195  4.111  0.000    27.887     7.843
 241   1 H      0.233  0.767  0.000  0.000     0.952     1.529
 242   1 H      0.096  0.904  0.000  0.000     1.819     2.109
 243   1 H      0.062  0.938  0.000  0.000     2.169     2.303
 244   1 H      0.066  0.934  0.000  0.000     2.124     2.279
 245   1 H      0.091  0.909  0.000  0.000     1.869     2.138
 246   1 H      0.110  0.890  0.000  0.000     1.695     2.036
 247   1 H      0.252  0.748  0.000  0.000     0.876     1.466
 248   1 H      0.226  0.774  0.000  0.000     0.984     1.554
 249   7 N     -0.191  1.204  3.988  0.000    25.152     7.448
 250   6 C      0.022  1.036  2.942  0.000    20.193     6.397
 251   6 C      0.275  1.041  2.684  0.000    22.347     7.742
 252   8 O     -0.524  1.761  4.763  0.000    24.328     6.613
 253   6 C     -0.095  1.015  3.079  0.000    22.275     6.714
 254   6 C     -0.020  1.019  3.001  0.000    20.883     6.499
 255   6 C     -0.149  0.975  3.174  0.000    23.379     6.886
 256   6 C     -0.147  0.971  3.176  0.000    23.363     6.886
 257   1 H      0.234  0.766  0.000  0.000     0.947     1.525
 258   1 H      0.075  0.925  0.000  0.000     2.034     2.230
 259   1 H      0.072  0.928  0.000  0.000     2.068     2.248
 260   1 H      0.068  0.932  0.000  0.000     2.103     2.267
 261   1 H      0.048  0.952  0.000  0.000     2.340     2.392
 262   1 H      0.053  0.947  0.000  0.000     2.285     2.364
 263   1 H      0.053  0.947  0.000  0.000     2.285     2.363
 264   1 H      0.061  0.939  0.000  0.000     2.187     2.312
 265   1 H      0.055  0.945  0.000  0.000     2.255     2.348
 266   1 H      0.049  0.951  0.000  0.000     2.335     2.389
 267   1 H      0.040  0.960  0.000  0.000     2.450     2.448
 268   7 N     -0.189  1.208  3.981  0.000    25.100     7.441
 269   6 C      0.017  1.037  2.946  0.000    20.287     6.411
 270   6 C      0.276  1.044  2.680  0.000    22.337     7.739
 271   8 O     -0.516  1.766  4.750  0.000    24.135     6.587
 272   6 C     -0.112  1.018  3.095  0.000    22.636     6.772
 273   6 C     -0.117  1.017  3.100  0.000    22.717     6.784
 274   6 C     -0.054  1.019  3.035  0.000    21.606     6.629
 275   7 N     -0.152  1.181  3.971  0.000    24.286     7.319
 276   6 C      0.208  1.023  2.769  0.000    23.584     7.951
 277   7 N     -0.234  1.158  4.075  0.000    26.120     7.590
 278   7 N     -0.247  1.163  4.083  0.000    26.426     7.635
 279   1 H      0.235  0.765  0.000  0.000     0.943     1.521
 280   1 H      0.097  0.903  0.000  0.000     1.810     2.104
 281   1 H      0.099  0.901  0.000  0.000     1.793     2.094
 282   1 H      0.086  0.914  0.000  0.000     1.919     2.166
 283   1 H      0.079  0.921  0.000  0.000     1.988     2.205
 284   1 H      0.084  0.916  0.000  0.000     1.934     2.175
 285   1 H      0.121  0.879  0.000  0.000     1.605     1.981
 286   1 H      0.112  0.888  0.000  0.000     1.676     2.024
 287   1 H      0.244  0.756  0.000  0.000     0.908     1.492
 288   1 H      0.240  0.760  0.000  0.000     0.922     1.504
 289   1 H      0.235  0.765  0.000  0.000     0.942     1.520
 290   1 H      0.252  0.748  0.000  0.000     0.876     1.466
 291   1 H      0.249  0.751  0.000  0.000     0.887     1.475
 292   7 N     -0.210  1.222  3.988  0.000    25.571     7.510
 293   6 C      0.010  1.055  2.935  0.000    20.430     6.439
 294   6 C      0.354  1.042  2.604  0.000    20.995     7.498
 295   8 O     -0.650  1.785  4.865  0.000    27.374     7.015
 296   6 C     -0.148  0.980  3.167  0.000    23.392     6.894
 297   8 O     -0.647  1.782  4.866  0.000    27.310     7.007
 298   1 H      0.217  0.783  0.000  0.000     1.025     1.586
 299   1 H      0.056  0.944  0.000  0.000     2.243     2.342
 300   1 H      0.060  0.940  0.000  0.000     2.199     2.319
 301   1 H      0.078  0.922  0.000  0.000     1.998     2.210
 302   1 H      0.065  0.935  0.000  0.000     2.136     2.285
 303   7 N     -0.423  1.288  4.135  0.000    31.033     8.273
 304   6 C      0.026  1.036  2.938  0.000    20.150     6.394
 305   6 C      0.200  1.097  2.704  0.000    23.745     7.980
 306   8 O     -0.379  1.757  4.622  0.000    21.276     6.184
 307   6 C     -0.085  1.006  3.079  0.000    22.108     6.691
 308   6 C     -0.093  1.003  3.089  0.000    22.250     6.712
 309   6 C     -0.101  1.000  3.101  0.000    22.399     6.734
 310   6 C     -0.070  1.017  3.053  0.000    21.896     6.673
 311   7 N     -0.133  1.143  3.990  0.000    23.872     7.257
 312   1 H      0.206  0.794  0.000  0.000     1.074     1.623
 313   1 H      0.069  0.931  0.000  0.000     2.100     2.266
 314   1 H      0.050  0.950  0.000  0.000     2.323     2.383
 315   1 H      0.045  0.955  0.000  0.000     2.385     2.415
 316   1 H      0.082  0.918  0.000  0.000     1.962     2.190
 317   1 H      0.076  0.924  0.000  0.000     2.024     2.225
 318   1 H      0.077  0.923  0.000  0.000     2.005     2.214
 319   1 H      0.064  0.936  0.000  0.000     2.157     2.296
 320   1 H      0.135  0.865  0.000  0.000     1.498     1.914
 321   1 H      0.141  0.859  0.000  0.000     1.456     1.887
 322   1 H      0.310  0.690  0.000  0.000     0.683     1.294
 323   1 H      0.279  0.721  0.000  0.000     0.780     1.383
 324   1 H      0.271  0.729  0.000  0.000     0.805     1.405
 325   7 N     -0.427  1.286  4.141  0.000    31.134     8.287
 326   6 C      0.020  1.038  2.942  0.000    20.254     6.409
 327   6 C      0.263  1.049  2.689  0.000    22.575     7.782
 328   8 O     -0.494  1.741  4.753  0.000    23.652     6.521
 329   6 C     -0.070  1.003  3.067  0.000    21.821     6.648
 330   6 C     -0.096  1.005  3.091  0.000    22.313     6.723
 331   6 C      0.365  1.028  2.607  0.000    20.813     7.466
 332   8 O     -0.662  1.787  4.875  0.000    27.684     7.054
 333   8 O     -0.663  1.775  4.888  0.000    27.718     7.059
 334   1 H      0.186  0.814  0.000  0.000     1.182     1.703
 335   1 H      0.065  0.935  0.000  0.000     2.139     2.287
 336   1 H      0.052  0.948  0.000  0.000     2.292     2.367
 337   1 H      0.038  0.962  0.000  0.000     2.472     2.459
 338   1 H      0.030  0.970  0.000  0.000     2.590     2.516
 339   1 H      0.041  0.959  0.000  0.000     2.428     2.437
 340   7 N     -0.170  1.202  3.968  0.000    24.679     7.378
 341   6 C      0.017  1.036  2.946  0.000    20.242     6.398
 342   6 C      0.193  1.087  2.720  0.000    23.880     8.003
 343   8 O     -0.322  1.743  4.579  0.000    20.191     6.024
 344   6 C     -0.004  1.008  2.996  0.000    20.634     6.465
 345  16 S     -0.398  1.900  4.455  0.043   158.626    21.198
 346   1 H      0.221  0.779  0.000  0.000     1.005     1.570
 347   1 H      0.113  0.887  0.000  0.000     1.667     2.019
 348   1 H      0.086  0.914  0.000  0.000     1.915     2.164
 349   1 H      0.088  0.912  0.000  0.000     1.899     2.155
 350   1 H      0.255  0.745  0.000  0.000     0.860     1.450
 351   7 N     -0.420  1.279  4.141  0.000    30.938     8.261
 352   6 C      0.010  1.040  2.949  0.000    20.391     6.427
 353   6 C      0.259  1.051  2.690  0.000    22.641     7.793
 354   8 O     -0.500  1.752  4.747  0.000    23.780     6.538
 355   6 C     -0.032  1.024  3.009  0.000    21.106     6.533
 356   6 C     -0.153  0.972  3.181  0.000    23.455     6.897
 357   6 C     -0.152  0.977  3.175  0.000    23.438     6.893
 358   1 H      0.173  0.827  0.000  0.000     1.257     1.756
 359   1 H      0.067  0.933  0.000  0.000     2.114     2.273
 360   1 H      0.044  0.956  0.000  0.000     2.398     2.422
 361   1 H      0.070  0.930  0.000  0.000     2.081     2.256
 362   1 H      0.045  0.955  0.000  0.000     2.379     2.412
 363   1 H      0.061  0.939  0.000  0.000     2.188     2.313
 364   1 H      0.066  0.934  0.000  0.000     2.129     2.282
 365   1 H      0.059  0.941  0.000  0.000     2.210     2.325
 366   1 H      0.050  0.950  0.000  0.000     2.314     2.378
 367   7 N     -0.178  1.205  3.972  0.000    24.852     7.404
 368   6 C      0.003  1.045  2.952  0.000    20.510     6.444
 369   6 C      0.279  1.039  2.682  0.000    22.282     7.730
 370   8 O     -0.472  1.741  4.731  0.000    23.180     6.455
 371   6 C     -0.037  1.033  3.004  0.000    21.191     6.546
 372   6 C     -0.152  0.979  3.173  0.000    23.472     6.903
 373   6 C     -0.161  0.976  3.185  0.000    23.634     6.925
 374   1 H      0.212  0.788  0.000  0.000     1.046     1.602
 375   1 H      0.096  0.904  0.000  0.000     1.820     2.109
 376   1 H      0.059  0.941  0.000  0.000     2.210     2.325
 377   1 H      0.057  0.943  0.000  0.000     2.231     2.336
 378   1 H      0.050  0.950  0.000  0.000     2.325     2.384
 379   1 H      0.064  0.936  0.000  0.000     2.152     2.294
 380   1 H      0.053  0.947  0.000  0.000     2.279     2.360
 381   1 H      0.066  0.934  0.000  0.000     2.129     2.281
 382   1 H      0.078  0.922  0.000  0.000     2.001     2.212
 383   7 N     -0.191  1.207  3.984  0.000    25.138     7.446
 384   6 C      0.020  1.032  2.947  0.000    20.234     6.405
 385   6 C      0.205  1.083  2.712  0.000    23.646     7.964
 386   8 O     -0.365  1.759  4.606  0.000    20.993     6.143
 387   6 C     -0.167  0.986  3.181  0.000    23.762     6.944
 388   1 H      0.228  0.772  0.000  0.000     0.975     1.546
 389   1 H      0.090  0.910  0.000  0.000     1.877     2.142
 390   1 H      0.082  0.918  0.000  0.000     1.953     2.185
 391   1 H      0.089  0.911  0.000  0.000     1.886     2.148
 392   1 H      0.088  0.912  0.000  0.000     1.898     2.154
 393   7 N     -0.419  1.284  4.136  0.000    30.919     8.258
 394   6 C      0.025  1.032  2.943  0.000    20.164     6.394
 395   6 C      0.265  1.048  2.687  0.000    22.537     7.775
 396   8 O     -0.537  1.761  4.776  0.000    24.626     6.653
 397   6 C     -0.083  1.007  3.076  0.000    22.065     6.685
 398   6 C     -0.123  1.010  3.112  0.000    22.827     6.799
 399   6 C      0.273  1.044  2.683  0.000    22.391     7.748
 400   8 O     -0.484  1.738  4.746  0.000    23.434     6.490
 401   7 N     -0.310  1.197  4.112  0.000    27.971     7.855
 402   1 H      0.200  0.800  0.000  0.000     1.105     1.647
 403   1 H      0.051  0.949  0.000  0.000     2.302     2.372
 404   1 H      0.080  0.920  0.000  0.000     1.976     2.198
 405   1 H      0.059  0.941  0.000  0.000     2.215     2.327
 406   1 H      0.061  0.939  0.000  0.000     2.188     2.313
 407   1 H      0.114  0.886  0.000  0.000     1.664     2.017
 408   1 H      0.224  0.776  0.000  0.000     0.992     1.560
 409   1 H      0.227  0.773  0.000  0.000     0.978     1.549
 410   7 N     -0.165  1.207  3.958  0.000    24.577     7.363
 411   6 C      0.019  1.037  2.945  0.000    20.256     6.407
 412   6 C      0.209  1.084  2.707  0.000    23.575     7.952
 413   8 O     -0.383  1.759  4.624  0.000    21.351     6.195
 414   6 C     -0.098  1.017  3.081  0.000    22.347     6.728
 415   6 C     -0.033  1.041  2.991  0.000    21.119     6.537
 416   6 C     -0.152  0.981  3.172  0.000    23.486     6.907
 417   6 C     -0.160  0.982  3.177  0.000    23.638     6.930
 418   1 H      0.236  0.764  0.000  0.000     0.940     1.519
 419   1 H      0.104  0.896  0.000  0.000     1.747     2.067
 420   1 H      0.078  0.922  0.000  0.000     1.995     2.208
 421   1 H      0.073  0.927  0.000  0.000     2.056     2.242
 422   1 H      0.062  0.938  0.000  0.000     2.171     2.304
 423   1 H      0.055  0.945  0.000  0.000     2.254     2.348
 424   1 H      0.055  0.945  0.000  0.000     2.258     2.349
 425   1 H      0.052  0.948  0.000  0.000     2.294     2.368
 426   1 H      0.060  0.940  0.000  0.000     2.196     2.317
 427   1 H      0.052  0.948  0.000  0.000     2.288     2.365
 428   1 H      0.059  0.941  0.000  0.000     2.215     2.327
 429   7 N     -0.426  1.289  4.137  0.000    31.101     8.283
 430   6 C      0.028  1.029  2.944  0.000    20.123     6.389
 431   6 C      0.183  1.100  2.718  0.000    24.082     8.037
 432   8 O     -0.388  1.765  4.623  0.000    21.441     6.208
 433   6 C     -0.173  0.987  3.186  0.000    23.894     6.965
 434   1 H      0.198  0.802  0.000  0.000     1.114     1.653
 435   1 H      0.062  0.938  0.000  0.000     2.177     2.307
 436   1 H      0.087  0.913  0.000  0.000     1.911     2.162
 437   1 H      0.083  0.917  0.000  0.000     1.946     2.181
 438   1 H      0.089  0.911  0.000  0.000     1.889     2.149
 439   7 N     -0.415  1.276  4.139  0.000    30.786     8.241
 440   6 C      0.030  1.031  2.939  0.000    20.077     6.381
 441   6 C      0.262  1.047  2.691  0.000    22.588     7.783
 442   8 O     -0.526  1.775  4.751  0.000    24.357     6.617
 443   6 C     -0.092  1.009  3.083  0.000    22.240     6.711
 444   6 C     -0.015  1.090  2.925  0.000    28.383     8.739
 445   6 C     -0.059  1.056  3.002  0.000    29.456     8.901
 446   6 C     -0.068  1.056  3.012  0.000    29.685     8.935
 447   6 C     -0.072  1.048  3.025  0.000    29.798     8.952
 448   6 C     -0.099  1.051  3.049  0.000    30.505     9.057
 449   6 C      0.134  1.053  2.814  0.000    25.076     8.208
 450   8 O     -0.459  1.694  4.765  0.000    22.023     6.335
 451   1 H      0.197  0.803  0.000  0.000     1.123     1.660
 452   1 H      0.053  0.947  0.000  0.000     2.277     2.359
 453   1 H      0.085  0.915  0.000  0.000     1.928     2.171
 454   1 H      0.050  0.950  0.000  0.000     2.319     2.381
 455   1 H      0.043  0.957  0.000  0.000     2.404     2.424
 456   1 H      0.083  0.917  0.000  0.000     1.950     2.183
 457   1 H      0.043  0.957  0.000  0.000     2.413     2.429
 458   1 H      0.086  0.914  0.000  0.000     1.920     2.167
 459   1 H      0.356  0.644  0.000  0.000     0.573     1.189
 460   7 N     -0.161  1.199  3.962  0.000    24.488     7.350
 461   6 C      0.017  1.028  2.955  0.000    20.286     6.412
 462   6 C      0.194  1.090  2.715  0.000    23.849     7.998
 463   8 O     -0.368  1.766  4.603  0.000    21.057     6.152
 464   6 C     -0.105  1.013  3.092  0.000    22.490     6.749
 465   6 C     -0.111  1.018  3.093  0.000    22.619     6.770
 466   6 C     -0.125  1.020  3.105  0.000    22.886     6.810
 467   6 C     -0.077  1.031  3.046  0.000    22.056     6.702
 468   7 N     -0.152  1.151  4.001  0.000    24.268     7.317
 469   1 H      0.240  0.760  0.000  0.000     0.924     1.506
 470   1 H      0.089  0.911  0.000  0.000     1.886     2.147
 471   1 H      0.091  0.909  0.000  0.000     1.867     2.137
 472   1 H      0.087  0.913  0.000  0.000     1.908     2.160
 473   1 H      0.076  0.924  0.000  0.000     2.025     2.225
 474   1 H      0.093  0.907  0.000  0.000     1.845     2.124
 475   1 H      0.102  0.898  0.000  0.000     1.769     2.080
 476   1 H      0.094  0.906  0.000  0.000     1.840     2.121
 477   1 H      0.137  0.863  0.000  0.000     1.480     1.902
 478   1 H      0.134  0.866  0.000  0.000     1.505     1.918
 479   1 H      0.302  0.698  0.000  0.000     0.707     1.317
 480   1 H      0.292  0.708  0.000  0.000     0.738     1.345
 481   1 H      0.290  0.710  0.000  0.000     0.745     1.352
 482   1 H      0.192  0.808  0.000  0.000     1.149     1.679
 483   1 H      0.092  0.908  0.000  0.000     1.858     2.131
 484   1 H      0.190  0.810  0.000  0.000     1.158     1.686
 485   1 H      0.100  0.900  0.000  0.000     1.788     2.091
 486   1 H      0.178  0.822  0.000  0.000     1.224     1.733
 487   1 H      0.076  0.924  0.000  0.000     2.019     2.222
 488   1 H      0.188  0.812  0.000  0.000     1.167     1.692
 489   1 H      0.090  0.910  0.000  0.000     1.881     2.145
 490   1 H      0.175  0.825  0.000  0.000     1.245     1.748
 491   1 H      0.085  0.915  0.000  0.000     1.928     2.171
 492   1 H      0.178  0.822  0.000  0.000     1.222     1.732
 493   1 H      0.193  0.807  0.000  0.000     1.140     1.673
 494   1 H      0.056  0.944  0.000  0.000     2.250     2.345
 495   1 H      0.185  0.815  0.000  0.000     1.188     1.707
 496   1 H      0.097  0.903  0.000  0.000     1.814     2.106
 497   1 H      0.181  0.819  0.000  0.000     1.206     1.720
 498   1 H      0.079  0.921  0.000  0.000     1.984     2.202
 499   1 H      0.168  0.832  0.000  0.000     1.282     1.773
 500   1 H      0.072  0.928  0.000  0.000     2.062     2.246
 501   1 H      0.172  0.828  0.000  0.000     1.258     1.757
 502   1 H      0.087  0.913  0.000  0.000     1.905     2.158
 503   1 H      0.176  0.824  0.000  0.000     1.237     1.742
 504   1 H      0.066  0.934  0.000  0.000     2.127     2.281

 Mol. C6AA /au·bohr⁶  :    2342276.854568
 Mol. C8AA /au·bohr⁸  :   53806244.545654
 Mol. α(0) /au        :       2299.174238

 
molecular dipole:
                 x           y           z       tot (Debye)
 q only:      -67.572     207.714     349.870
   full:      -69.957     205.329     355.291    1058.090
molecular quadrupole (traceless):
                xx          xy          yy          xz          yz          zz
 q only:   -43146.343  -10447.555   -8128.493  -17440.203   54176.122   51274.836
  q+dip:   -43885.183  -10815.359   -9496.258  -17956.689   54395.780   53381.441
   full:   -43885.689  -10817.199   -9495.516  -17954.139   54392.475   53381.206
speedup  2.00
cpu  time for grad   46.43 s
wall time for grad   23.24 s

SCC energy    :    -776.1925428
rep           :      16.7158795
ES            :       2.8156136
AES           :      -0.1348248
AXC           :       0.1571503
disp          :      -0.6646787
XB            :       0.0000000
fix           :       0.0000000
Gborn         :       0.0000000
Gsasa         :       0.0000000
Ghb           :       0.0000000
Gshift        :       0.0000000
Gsolv         :      -0.9793085     -614.53
Etot ala COSMO:    -776.1925428
grad norm     :       2.9306660
total E       :    -759.4030724
atomizationE  :     133.0742957    83505.38
(atE without considering molecular charge,
 total energy contains solvation terms)
H-L gap (eV)  :          0.9407

------------------------------------------------------------------------
 * finished run on 2019/05/07 at 05:44:19.263     
------------------------------------------------------------------------
 total:
 * wall-time:     0 d,  0 h,  0 min, 24.734 sec
 *  cpu-time:     0 d,  0 h,  0 min, 49.141 sec
 * ratio c/w:     1.987 speedup
 SCF:
 * wall-time:     0 d,  0 h,  0 min, 24.416 sec
 *  cpu-time:     0 d,  0 h,  0 min, 48.596 sec
 * ratio c/w:     1.990 speedup

