      -----------------------------------------------------------      
     |                   =====================                   |     
     |                           x T B                           |     
     |                   =====================                   |     
     |                         S. Grimme                         |     
     |          Mulliken Center for Theoretical Chemistry        |     
     |                    University of Bonn                     |     
     |                 Version 6.0.1 (SAW181210)                 |     
      -----------------------------------------------------------      

   This program is distributed in the hope that it will be useful,
   but WITHOUT ANY WARRANTY; without even the implied warranty of
   MERCHANTABILITY or FITNESS FOR A PARTICULAR PURPOSE.
   
   FOR NON-COMMERCIAL, ACADEMIA USE ONLY.
   
   Cite this work as:
   S. Grimme, C. Bannwarth, P. Shushkov, J. Comput. Theory Chem., 2017,
   13, 1989-2009.
   C. Bannwarth, S. Ehlert and S. Grimme., ChemRxiv, 2018, preprint.
   http://doi.org/10.26434/chemrxiv.7246238.v1
   
   for sTDA-xTB:
   S. Grimme and C. Bannwarth, J. Chem. Phys., 2016, 145, 054103.
   
   in the mass-spec context:
   V. Asgeirsson, C. Bauer and S. Grimme, Chem. Sci., 2017, 8, 4879.
   
   if GBSA is used:
   P. Shushkov, F. März and S. Grimme, unpublished.
   
   for ANC optimizer:
   S. Grimme, unpublished.
   Rational Function algorithm used in ANCopt:
   F. Eckert, P. Pulay, H.-J. Werner, J. Comput. Chem., 1997, 18, 1473.
   
   with help from (in alphabetical order)
   C. Bannwarth, F. Bohle, G. Brandenburg, E. Caldeweyher, M. Checinski,
   S. Dohm, S. Ehlert, S. Ehrlich, F. März, H. Neugebauer, J. Pisarek,
   P. Pracht, P. Shushkov, and S. Spicher.
   
 * started run on 2019/05/09 at 22:30:45.659     
========================================================================
 # omp threads = 2
========================================================================
number of atoms            : 316
number of electrons        : 866
charge                     : -2
spin                       : .0
first test random number   : .1434

########################################################################
# WARNING! Please study the warnings concerning your input carefully
#  - Process number higher than OMP_NUM_THREADS, I hope you know what you are doing.
########################################################################

           ------------------------------------------------- 
          |                 G F N 2 - x T B                 |
          | Geometry, Frequencies, Noncovalent interactions |
          |            JCTC 2018 parametrisation            |
           ------------------------------------------------- 
 
      method parameters     
 k(s)        :  1.8500
 k(p)        :  2.2300
 k(d)        :  2.2300
 k(f)        :  2.0000
 kEN (H0ij)  : -2.0000
 D4 a1       :  0.5200
 D4 a2       :  5.0000
 D4 s6       :  1.0000
 D4 s8       :  2.7000
 D4 s9       :  5.0000
 alphaj      :  2.0000

 Solvent             : h2o
 Using internal parameter file: .param_gbsa2_h2o
 Gsolv ref. state (COSMO-RS): gsolv [1 M gas/solution]
 temperature (mdtemp)       :    298.150000000000     
 dielectric constant        :    80.2000000000000     
 rho                        :    1.00000000000000     
 mass                       :    18.0000000000000     
 surface tension            :    15.5689454083859     
 probe radius               :   0.975313790000000     
 vdW radii scaling          :    1.00000000000000     
 Gshift (Eh)                :   1.857443126794793E-003
 c1                         :    1.55243817000000     
 soset                      :   0.130326360000000     
 HB correction              :  T

            Z     q(EN)     CN     RAES       Cart. coordinates
     1  N   5.0   -0.21    3.26    1.97    84.37683    83.66037   171.82328
     2  C   4.0    0.02    4.23    4.06    82.92722    81.72617   173.09761
     3  C   4.0    0.06    3.20    3.04    80.38093    81.41961   171.73751
     4  O   6.0   -0.32    1.18    1.80    79.19513    83.26584   170.96669
     5  C   4.0   -0.05    4.36    4.31    82.52962    82.48929   175.85627
     6  C   4.0   -0.03    4.20    3.99    84.96716    83.17837   177.26513
     7  C   4.0   -0.08    4.11    3.83    84.32847    83.64048   180.03835
     8  C   4.0   -0.08    4.13    3.85    86.92624    81.08929   177.02945
     9  H   1.0    0.08    1.03    1.43    83.88387    85.46600   172.18095
    10  H   1.0    0.03    1.05    1.44    83.98828    79.96241   172.96714
    11  H   1.0    0.04    1.03    1.43    81.26098    84.11730   175.90687
    12  H   1.0    0.03    1.03    1.43    81.59812    80.91910   176.81650
    13  H   1.0    0.03    1.05    1.44    85.76294    84.90407   176.44954
    14  H   1.0    0.04    1.00    1.43    85.95206    84.38969   181.04523
    15  H   1.0    0.03    1.00    1.43    82.79080    84.99103   180.21360
    16  H   1.0    0.03    1.00    1.43    83.74614    81.87900   180.91768
    17  H   1.0    0.04    1.00    1.43    88.44264    81.37762   178.38303
    18  H   1.0    0.03    1.00    1.43    86.05429    79.26441   177.39077
    19  H   1.0    0.03    1.00    1.43    87.77134    81.10638   175.15893
    20  N   5.0   -0.15    3.44    2.04    75.16166    67.37190   177.30959
    21  C   4.0    0.02    4.37    4.32    76.77621    69.58421   177.70059
    22  C   4.0    0.06    3.19    3.04    79.42595    69.10481   176.63028
    23  O   6.0   -0.31    1.16    1.80    80.56853    67.12118   177.02116
    24  C   4.0   -0.04    4.33    4.25    76.81212    69.92680   180.58061
    25  C   4.0   -0.04    4.27    4.14    76.36819    67.24961   181.55796
    26  C   4.0   -0.01    4.27    4.14    74.44106    66.20066   179.68771
    27  H   1.0    0.02    1.04    1.43    75.97106    71.22409   176.72860
    28  H   1.0    0.04    1.02    1.43    78.57528    70.73994   181.26317
    29  H   1.0    0.03    1.02    1.43    75.26814    71.16745   181.14792
    30  H   1.0    0.06    1.02    1.43    78.12185    66.17004   181.44344
    31  H   1.0    0.03    1.02    1.43    75.70449    67.20072   183.50214
    32  H   1.0    0.04    1.02    1.43    74.51681    64.14836   179.58009
    33  H   1.0    0.03    1.02    1.43    72.52676    66.79675   180.20888
    34  N   5.0   -0.19    3.25    1.97    85.49277    65.00123   178.52498
    35  C   4.0    0.04    4.24    4.09    86.05289    65.06004   181.19534
    36  C   4.0    0.08    3.21    3.04    85.12924    62.62729   182.43425
    37  O   6.0   -0.29    1.13    1.80    83.44940    61.32123   181.49665
    38  C   4.0   -0.03    4.34    4.27    84.85999    67.36953   182.42695
    39  C   4.0   -0.01    3.57    3.15    86.08060    69.76980   181.53235
    40  C   4.0   -0.03    3.47    3.10    88.47885    70.40650   182.38938
    41  C   4.0   -0.04    3.47    3.10    84.82861    71.41621   179.92158
    42  C   4.0   -0.03    3.38    3.07    89.56840    72.67156   181.67600
    43  C   4.0   -0.05    3.37    3.07    85.91908    73.67936   179.19476
    44  C   4.0   -0.04    3.37    3.07    88.28889    74.31810   180.08932
    45  H   1.0    0.11    1.05    1.44    83.91271    65.91245   177.91013
    46  H   1.0    0.05    1.05    1.44    88.11049    65.14055   181.43027
    47  H   1.0    0.05    1.03    1.43    82.83694    67.38715   182.02485
    48  H   1.0    0.06    1.04    1.43    85.14821    67.22329   184.46173
    49  H   1.0    0.07    1.03    1.43    89.45059    69.14915   183.67283
    50  H   1.0    0.05    1.04    1.43    82.95439    70.94716   179.27699
    51  H   1.0    0.07    1.03    1.43    91.41108    73.19505   182.38730
    52  H   1.0    0.04    1.03    1.43    84.88856    74.93496   177.96187
    53  H   1.0    0.06    1.03    1.43    89.16725    76.09471   179.61287
    54  N   5.0   -0.22    3.19    1.95    73.89606    83.61172   172.10093
    55  C   4.0    0.03    4.22    4.04    73.27409    82.59829   174.57685
    56  C   4.0    0.08    3.27    3.05    71.64609    84.43448   176.08922
    57  O   6.0   -0.31    1.12    1.80    69.72660    83.76483   177.16585
    58  C   4.0   -0.04    4.32    4.24    75.67285    81.99005   176.08580
    59  C   4.0   -0.01    3.60    3.16    75.19346    81.93804   178.89089
    60  C   4.0   -0.04    3.46    3.10    74.13465    79.84713   180.07263
    61  C   4.0   -0.05    3.48    3.11    75.83011    84.00754   180.36691
    62  C   4.0   -0.04    3.43    3.09    73.69959    79.82914   182.64648
    63  C   4.0   -0.05    3.44    3.09    75.41410    84.01317   182.94134
    64  C   4.0    0.07    3.45    3.09    74.32977    81.92448   184.10825
    65  O   6.0   -0.25    2.11    1.84    73.86030    81.87774   186.62775
    66  H   1.0    0.11    1.06    1.44    75.74627    83.51991   171.52199
    67  H   1.0    0.04    1.05    1.44    72.12486    80.88687   174.33730
    68  H   1.0    0.03    1.03    1.43    76.41767    80.17234   175.45680
    69  H   1.0    0.04    1.04    1.43    77.07561    83.44331   175.67102
    70  H   1.0    0.04    1.03    1.43    73.65168    78.20939   178.95628
    71  H   1.0    0.04    1.03    1.43    76.67786    85.66361   179.52354
    72  H   1.0    0.05    1.03    1.43    72.87984    78.20233   183.55756
    73  H   1.0    0.04    1.03    1.43    75.89314    85.68472   184.01395
    74  H   1.0    0.12    1.04    1.43    74.46306    83.42522   187.39165
    75  N   5.0   -0.20    3.27    1.97    73.68147    59.33780   191.27360
    76  C   4.0    0.03    4.29    4.17    73.47086    61.08256   193.36469
    77  C   4.0    0.14    3.39    3.08    76.00678    62.35960   193.95995
    78  O   6.0   -0.31    1.22    1.80    76.10833    64.52406   194.79150
    79  C   4.0    0.04    4.13    3.86    72.50229    59.74596   195.78473
    80  O   6.0   -0.26    2.06    1.83    71.41859    57.40441   195.21377
    81  H   1.0    0.10    1.04    1.43    73.55031    57.48048   191.71386
    82  H   1.0    0.04    1.05    1.44    72.17181    62.60498   192.81273
    83  H   1.0    0.05    1.02    1.43    74.09151    59.52994   197.10347
    84  H   1.0    0.04    1.01    1.43    71.11753    60.99729   196.70373
    85  H   1.0    0.11    1.00    1.43    71.46675    56.29929   196.72993
    86  N   5.0   -0.14    3.59    2.15    78.00384    60.91495   193.45750
    87  C   4.0    0.03    4.41    4.39    80.60845    61.68580   193.76512
    88  C   4.0    0.15    3.45    3.09    81.27455    63.56805   191.66139
    89  O   6.0   -0.31    1.26    1.80    82.41980    65.54128   192.07614
    90  C   4.0   -0.05    4.26    4.12    82.31469    59.36296   193.64833
    91  C   4.0   -0.04    4.17    3.93    81.79751    57.50649   195.79356
    92  C   4.0    0.24    3.12    3.03    79.29446    55.94466   195.60973
    93  O   6.0   -0.32    1.27    1.80    78.13557    55.88119   193.54350
    94  O   6.0   -0.32    1.24    1.80    78.64800    54.80248   197.56129
    95  H   1.0    0.11    1.17    1.46    77.76804    59.01398   193.09200
    96  H   1.0    0.05    1.05    1.44    80.84901    62.68293   195.57509
    97  H   1.0    0.05    1.03    1.43    82.01546    58.43114   191.82858
    98  H   1.0    0.04    1.03    1.43    84.27852    59.99475   193.73541
    99  H   1.0    0.04    1.03    1.43    83.31614    56.10887   195.86175
   100  H   1.0    0.04    1.02    1.43    81.78499    58.48133   197.61245
   101  N   5.0   -0.14    3.42    2.03    80.39299    62.92666   189.39017
   102  C   4.0    0.01    4.26    4.12    80.70890    64.57740   187.24454
   103  C   4.0    0.16    3.40    3.08    79.62059    67.20411   187.80997
   104  O   6.0   -0.31    1.26    1.80    80.88614    69.11885   187.55646
   105  H   1.0    0.08    1.06    1.44    79.74073    61.14757   189.05303
   106  H   1.0    0.06    1.02    1.43    82.71545    64.82371   186.80373
   107  H   1.0    0.04    1.03    1.43    79.72784    63.74064   185.64064
   108  N   5.0   -0.15    3.48    2.06    77.18904    67.21024   188.50936
   109  C   4.0    0.03    4.42    4.41    75.95688    69.55182   189.22069
   110  C   4.0    0.16    3.55    3.14    77.55751    70.95442   191.16140
   111  O   6.0   -0.29    1.26    1.80    77.89670    73.23768   191.07431
   112  C   4.0   -0.05    4.38    4.35    73.37310    69.14921   190.44030
   113  C   4.0   -0.03    4.17    3.93    71.29503    68.03561   188.76213
   114  C   4.0   -0.08    4.11    3.83    68.96858    67.63060   190.42429
   115  C   4.0   -0.08    4.10    3.80    70.64466    69.75247   186.54240
   116  H   1.0    0.08    1.06    1.44    76.26125    65.55025   188.76155
   117  H   1.0    0.05    1.05    1.44    75.83615    70.78726   187.56019
   118  H   1.0    0.05    1.03    1.43    73.64853    67.91508   192.07638
   119  H   1.0    0.05    1.03    1.43    72.75421    70.98859   191.14554
   120  H   1.0    0.03    1.05    1.44    71.94746    66.20969   188.03876
   121  H   1.0    0.03    1.00    1.43    67.40770    66.87690   189.32755
   122  H   1.0    0.04    1.00    1.43    69.40162    66.33678   191.96360
   123  H   1.0    0.04    1.00    1.43    68.36697    69.41276   191.25412
   124  H   1.0    0.03    1.00    1.43    69.19953    68.86528   185.38418
   125  H   1.0    0.04    1.00    1.43    69.94679    71.55921   187.22998
   126  H   1.0    0.03    1.00    1.43    72.30219    70.08860   185.37881
   127  N   5.0   -0.13    3.51    2.09    78.44998    69.51260   193.05357
   128  C   4.0    0.05    4.48    4.51    79.83379    70.76003   195.03727
   129  C   4.0    0.16    3.56    3.14    82.11595    72.17220   193.98110
   130  O   6.0   -0.32    1.37    1.80    82.83787    74.09995   195.04985
   131  C   4.0   -0.03    4.28    4.16    80.72350    68.97633   197.14461
   132  C   4.0   -0.02    3.73    3.27    82.06001    70.49587   199.12192
   133  C   4.0   -0.01    3.61    3.18    80.97875    71.92140   200.98395
   134  C   4.0    0.01    3.91    3.48    84.71083    71.01277   199.22428
   135  N   5.0   -0.12    3.49    2.07    82.78413    73.19831   202.32708
   136  C   4.0    0.04    3.92    3.49    85.07823    72.73108   201.24173
   137  C   4.0   -0.05    3.42    3.08    86.77895    70.27892   197.76752
   138  C   4.0   -0.04    3.40    3.08    87.45537    73.64552   201.87050
   139  C   4.0   -0.05    3.38    3.07    89.12473    71.23291   198.36286
   140  C   4.0   -0.05    3.38    3.07    89.46498    72.87770   200.40159
   141  H   1.0    0.11    1.08    1.44    77.93048    67.69113   193.31727
   142  H   1.0    0.06    1.06    1.44    78.62632    72.22855   195.88976
   143  H   1.0    0.05    1.03    1.43    79.07384    68.00727   197.92091
   144  H   1.0    0.06    1.03    1.43    81.99310    67.57727   196.31084
   145  H   1.0    0.05    1.02    1.43    79.01411    72.08707   201.46776
   146  H   1.0    0.10    1.05    1.44    82.44169    74.73060   203.41336
   147  H   1.0    0.05    1.03    1.43    86.53248    69.01134   196.18166
   148  H   1.0    0.07    1.03    1.43    87.65480    74.92975   203.43995
   149  H   1.0    0.05    1.03    1.43    90.72545    70.70073   197.21036
   150  H   1.0    0.04    1.03    1.43    91.33534    73.58115   200.78641
   151  N   5.0   -0.13    3.47    2.06    83.27922    71.23304   191.94515
   152  C   4.0    0.04    4.39    4.37    85.73282    72.15453   191.14524
   153  C   4.0    0.15    3.39    3.08    85.72107    74.77759   189.86806
   154  O   6.0   -0.30    1.27    1.80    87.36303    75.34468   188.34706
   155  C   4.0   -0.03    4.28    4.16    87.09166    70.26209   189.44042
   156  C   4.0   -0.03    4.15    3.91    88.22762    68.02085   190.84728
   157  C   4.0    0.25    3.09    3.02    89.60294    66.11319   189.09418
   158  O   6.0   -0.31    1.18    1.80    88.85774    65.90979   186.85841
   159  O   6.0   -0.29    1.16    1.80    91.35269    64.82847   190.02651
   160  H   1.0    0.12    1.10    1.44    82.69216    69.53910   191.27858
   161  H   1.0    0.05    1.06    1.44    86.88096    72.47558   192.86365
   162  H   1.0    0.07    1.03    1.43    85.74948    69.59358   188.02442
   163  H   1.0    0.07    1.04    1.43    88.59087    71.28005   188.44760
   164  H   1.0    0.05    1.02    1.43    89.57811    68.64194   192.28140
   165  H   1.0    0.06    1.03    1.43    86.72781    66.94955   191.78821
   166  N   5.0   -0.14    3.50    2.08    83.97181    76.42633   190.65698
   167  C   4.0    0.04    4.44    4.45    83.92707    79.05826   189.87832
   168  C   4.0    0.14    3.38    3.07    82.89374    80.70149   192.06195
   169  O   6.0   -0.30    1.25    1.80    80.70353    81.46029   192.03077
   170  C   4.0   -0.01    4.34    4.28    82.25939    79.46017   187.51273
   171  C   4.0   -0.04    4.19    3.98    82.79538    77.56672   185.38003
   172  C   4.0   -0.07    4.12    3.85    82.58300    82.17392   186.57738
   173  C   4.0   -0.06    4.02    3.65    81.17608    75.19849   185.52124
   174  H   1.0    0.12    1.13    1.45    82.70847    75.89870   191.98006
   175  H   1.0    0.06    1.05    1.44    85.88406    79.61462   189.47247
   176  H   1.0    0.06    1.06    1.44    80.30131    79.21291   188.13891
   177  H   1.0    0.03    1.03    1.43    82.39466    78.49780   183.58319
   178  H   1.0    0.06    1.04    1.43    84.78532    77.03780   185.38542
   179  H   1.0    0.04    1.00    1.43    81.21182    82.56131   185.09883
   180  H   1.0    0.06    1.01    1.43    82.26419    83.48872   188.12110
   181  H   1.0    0.04    1.00    1.43    84.46808    82.47215   185.83182
   182  H   1.0    0.05    1.00    1.43    81.64232    73.93109   183.97027
   183  H   1.0    0.07    1.00    1.43    81.46829    74.15707   187.26652
   184  H   1.0    0.05    1.00    1.43    79.18117    75.68848   185.42041
   185  N   5.0   -0.13    3.43    2.04    84.40948    81.54863   193.93682
   186  C   4.0    0.03    4.35    4.29    86.63554    80.58709   195.24240
   187  C   4.0    0.14    3.36    3.07    88.93356    80.46306   193.49847
   188  O   6.0   -0.30    1.26    1.80    89.43388    82.25030   192.11934
   189  C   4.0   -0.04    4.27    4.14    86.08428    78.19844   196.78535
   190  C   4.0   -0.02    4.21    4.03    83.57727    78.30384   198.22526
   191  C   4.0    0.24    3.09    3.02    83.56802    80.06917   200.56544
   192  O   6.0   -0.30    1.17    1.80    84.45106    82.24380   200.30469
   193  O   6.0   -0.29    1.17    1.80    82.63774    79.16261   202.53966
   194  H   1.0    0.10    1.09    1.44    83.39054    82.64667   195.13692
   195  H   1.0    0.06    1.07    1.44    87.08439    82.09222   196.60363
   196  H   1.0    0.06    1.04    1.43    85.98606    76.55082   195.55344
   197  H   1.0    0.04    1.03    1.43    87.59742    77.93963   198.16470
   198  H   1.0    0.06    1.03    1.43    82.03705    78.90788   196.98752
   199  H   1.0    0.07    1.04    1.43    83.09612    76.41035   198.85168
   200  N   5.0   -0.15    3.45    2.05    90.42520    78.42035   193.71389
   201  C   4.0    0.04    4.39    4.37    92.87388    78.11346   192.47613
   202  C   4.0    0.17    3.46    3.10    92.62610    77.61357   189.61081
   203  O   6.0   -0.27    1.27    1.80    93.04007    75.56525   188.63202
   204  C   4.0   -0.03    4.32    4.24    94.29738    75.97070   193.78345
   205  C   4.0    0.16    3.24    3.04    96.94933    75.60806   192.70370
   206  O   6.0   -0.28    1.24    1.80    97.69993    76.68379   190.81510
   207  N   5.0   -0.19    3.18    1.95    98.35368    73.91739   193.98370
   208  H   1.0    0.07    1.09    1.44    89.82120    76.95751   194.77328
   209  H   1.0    0.06    1.05    1.44    93.92404    79.89384   192.67592
   210  H   1.0    0.03    1.03    1.43    94.44275    76.38294   195.79754
   211  H   1.0    0.05    1.03    1.43    93.28159    74.19598   193.49924
   212  H   1.0    0.09    1.03    1.43   100.21820    73.86799   193.59470
   213  H   1.0    0.07    1.03    1.43    97.79458    73.27842   195.68345
   214  N   5.0   -0.13    3.47    2.06    91.93239    79.61610   188.24688
   215  C   4.0    0.05    4.38    4.35    91.35273    79.22020   185.61705
   216  C   4.0    0.09    3.22    3.04    93.66398    78.72829   183.95935
   217  O   6.0   -0.30    1.12    1.80    93.37665    77.59823   181.94264
   218  C   4.0   -0.04    4.30    4.20    89.69507    81.33636   184.56879
   219  C   4.0    0.15    3.24    3.04    91.06772    83.85118   184.59058
   220  O   6.0   -0.29    1.22    1.80    91.88547    84.77018   186.54748
   221  N   5.0   -0.20    3.18    1.95    91.27758    85.01189   182.34491
   222  H   1.0    0.12    1.09    1.44    91.43981    81.26375   189.10567
   223  H   1.0    0.07    1.07    1.44    90.26161    77.44827   185.49835
   224  H   1.0    0.04    1.03    1.43    89.05565    80.81763   182.68346
   225  H   1.0    0.05    1.04    1.43    88.06909    81.50612   185.82525
   226  H   1.0    0.09    1.03    1.43    92.22671    86.66264   182.26640
   227  H   1.0    0.07    1.03    1.43    90.70666    84.20053   180.72180
   228  N   5.0   -0.22    3.12    1.94    87.56609    73.65693   214.88730
   229  C   4.0    0.00    4.16    3.92    85.94613    73.17320   212.73554
   230  C   4.0    0.14    3.30    3.05    87.37594    72.17660   210.43229
   231  O   6.0   -0.31    1.21    1.80    87.28488    73.25526   208.39343
   232  H   1.0    0.07    1.02    1.43    87.86235    75.50780   215.26399
   233  H   1.0    0.03    1.02    1.43    84.53043    71.76167   213.27326
   234  H   1.0    0.04    1.03    1.43    85.02232    74.94131   212.22592
   235  N   5.0   -0.14    3.49    2.07    88.71300    70.07835   210.88203
   236  C   4.0    0.03    4.44    4.44    90.10562    68.76865   208.92077
   237  C   4.0    0.14    3.55    3.14    88.76599    66.28709   208.34165
   238  O   6.0   -0.30    1.30    1.80    88.03868    64.91562   210.06601
   239  C   4.0   -0.05    4.27    4.13    92.79496    68.14249   209.81016
   240  C   4.0   -0.06    4.18    3.97    94.36563    70.52043   210.25732
   241  C   4.0   -0.06    4.16    3.92    95.22828    71.79024   207.79316
   242  C   4.0   -0.04    4.13    3.85    95.12753    74.66008   208.08024
   243  N   5.0   -0.12    3.96    2.76    96.31339    75.97613   205.91962
   244  H   1.0    0.08    1.06    1.44    88.47634    69.16211   212.55194
   245  H   1.0    0.05    1.07    1.44    90.10610    70.00925   207.27574
   246  H   1.0    0.05    1.03    1.43    92.63403    67.06963   211.56238
   247  H   1.0    0.04    1.03    1.43    93.69290    66.93242   208.40415
   248  H   1.0    0.04    1.04    1.43    93.23647    71.85409   211.35188
   249  H   1.0    0.03    1.03    1.43    96.00838    70.03150   211.39403
   250  H   1.0    0.03    1.02    1.43    97.14798    71.18943   207.35052
   251  H   1.0    0.04    1.03    1.43    94.00627    71.21519   206.23618
   252  H   1.0    0.04    1.02    1.43    93.16228    75.26362   208.22236
   253  H   1.0    0.03    1.02    1.43    96.09919    75.22506   209.80795
   254  H   1.0    0.04    0.95    1.42    96.39556    78.07944   206.13907
   255  H   1.0    0.04    1.03    1.43    98.14693    75.39246   205.71177
   256  H   1.0    0.05    1.02    1.43    95.35621    75.60406   204.28238
   257  N   5.0   -0.10    3.68    2.25    88.45563    65.64275   205.92096
   258  C   4.0    0.03    4.51    4.55    87.25887    63.22773   205.32826
   259  C   4.0    0.09    3.27    3.05    88.48444    61.14471   206.90713
   260  O   6.0   -0.29    1.14    1.80    90.73603    61.08944   207.34706
   261  C   4.0   -0.05    4.33    4.26    87.68884    62.92167   202.48830
   262  C   4.0   -0.05    4.28    4.16    87.66091    65.65382   201.56847
   263  C   4.0   -0.02    4.35    4.29    89.07127    67.06603   203.65432
   264  H   1.0    0.04    1.04    1.43    85.23036    63.34188   205.75604
   265  H   1.0    0.05    1.03    1.43    89.53501    62.07248   202.15088
   266  H   1.0    0.03    1.02    1.43    86.23392    61.77658   201.60082
   267  H   1.0    0.04    1.02    1.43    88.54375    65.90371   199.73432
   268  H   1.0    0.04    1.03    1.43    85.72416    66.34511   201.43942
   269  H   1.0    0.04    1.02    1.43    91.11379    67.02170   203.32882
   270  H   1.0    0.04    1.02    1.43    88.42479    69.01833   203.77542
   271  N   5.0   -0.22    3.22    1.96    76.53284    59.33780   205.94302
   272  C   4.0    0.03    4.18    3.95    76.74346    61.08256   203.85193
   273  C   4.0    0.07    3.20    3.04    74.20753    62.35960   203.25666
   274  O   6.0   -0.30    1.11    1.80    74.10598    64.52406   202.42511
   275  C   4.0    0.04    4.13    3.85    77.71202    59.74596   201.43188
   276  O   6.0   -0.26    2.07    1.84    78.79572    57.40441   202.00284
   277  H   1.0    0.09    1.04    1.43    76.66400    57.48048   205.50275
   278  H   1.0    0.04    1.05    1.44    78.04250    62.60498   204.40389
   279  H   1.0    0.04    1.02    1.43    76.12280    59.52994   200.11315
   280  H   1.0    0.04    1.01    1.43    79.09678    60.99729   200.51288
   281  H   1.0    0.15    1.06    1.44    78.74756    56.29929   200.48668
   282  N   5.0   -0.21    3.19    1.95    73.02527    67.21024   208.70725
   283  C   4.0    0.03    4.21    4.02    74.25744    69.55182   207.99592
   284  C   4.0    0.08    3.24    3.04    72.65680    70.95442   206.05521
   285  O   6.0   -0.30    1.11    1.80    72.31761    73.23768   206.14230
   286  C   4.0   -0.05    4.37    4.33    76.84121    69.14921   206.77632
   287  C   4.0   -0.03    4.17    3.93    78.91928    68.03561   208.45448
   288  C   4.0   -0.07    4.12    3.83    81.24573    67.63060   206.79232
   289  C   4.0   -0.08    4.10    3.80    79.56965    69.75247   210.67421
   290  H   1.0    0.08    1.02    1.43    73.95306    65.55025   208.45507
   291  H   1.0    0.04    1.05    1.44    74.37816    70.78726   209.65642
   292  H   1.0    0.05    1.03    1.43    76.56578    67.91508   205.14023
   293  H   1.0    0.05    1.03    1.43    77.46010    70.98859   206.07107
   294  H   1.0    0.03    1.05    1.44    78.26685    66.20969   209.17786
   295  H   1.0    0.05    1.00    1.43    82.80661    66.87690   207.88906
   296  H   1.0    0.04    1.00    1.43    80.81269    66.33678   205.25301
   297  H   1.0    0.05    1.00    1.43    81.84734    69.41276   205.96250
   298  H   1.0    0.04    1.00    1.43    81.01478    68.86528   211.83244
   299  H   1.0    0.04    1.00    1.43    80.26752    71.55921   209.98663
   300  H   1.0    0.03    1.00    1.43    77.91212    70.08860   211.83781
   301  H   1.0    0.08    1.08    1.44    86.01316    83.52902   172.26797
   302  H   1.0    0.04    1.04    1.43    79.65731    79.69546   171.46409
   303  H   1.0    0.07    1.11    1.45    73.81942    67.80915   176.36104
   304  H   1.0    0.04    1.04    1.44    80.27412    70.42699   175.57980
   305  H   1.0    0.09    1.07    1.44    86.77414    65.71053   177.66037
   306  H   1.0    0.06    1.05    1.44    85.89325    62.04695   184.06230
   307  H   1.0    0.09    1.07    1.44    73.01641    82.77697   170.90848
   308  H   1.0    0.05    1.05    1.44    72.14464    86.25260   176.21940
   309  H   1.0    0.09    1.07    1.44    72.44134    59.64481   190.15093
   310  H   1.0    0.06    1.04    1.43    95.36990    79.31981   184.51705
   311  H   1.0    0.08    1.07    1.44    86.87362    72.97629   216.28364
   312  H   1.0    0.05    1.05    1.44    87.42390    59.75455   207.62391
   313  H   1.0    0.09    1.07    1.44    77.77297    59.64481   207.06569
   314  H   1.0    0.05    1.04    1.44    72.58938    61.42703   203.54470
   315  H   1.0    0.08    1.07    1.44    72.66037    67.24249   210.36809
   316  H   1.0    0.06    1.05    1.44    71.83691    70.00422   204.64243

  Z AO/shell   Hii/eV     exponent
  1     Wed Apr 25 08:07:45 CEST 2018   EN: 2.200 GM2: 0.406  GM3: 0.0800  RAES: 1.40
     1s    -10.707211    1.230000
  6     Wed Apr 25 08:07:45 CEST 2018   EN: 2.550 GM2: 0.538  GM3: 0.1500  RAES: 3.00
     2s    -13.970922    2.096432
     2p    -10.063292    1.800000
  7     Wed Apr 25 08:07:45 CEST 2018   EN: 3.040 GM2: 0.461  GM3:-0.0640  RAES: 1.90
     2s    -16.686243    2.339881
     2p    -12.523956    2.014332
  8     Wed Apr 25 08:07:45 CEST 2018   EN: 3.440 GM2: 0.452  GM3:-0.0517  RAES: 1.80
     2s    -20.229985    2.439742
     2p    -15.503117    2.137023
 no old-style atom pair restraining (fixing) potential

molecular fragmentation (1/2 indicates fragments):
111111111111111111122222222222222222222222222222222222222222222222222222
222222222222222222222222222222222222222222222222222222222222222222222222
222222222222222222222222222222222222222222222222222222222222222222222222
222222222222222222222222222222222222222222222222222222222222222222222222
2222222222221122222222222222
# atoms in fragment 1/2:    21   295
 fragment masses (1/2) :      115.17     2074.36
CMA distance (Bohr)    :  21.724
constraining FC (au)   :  0.0500
           ------------------------------------------------- 
          |        Self-Consistent Charge Iterations        |
           ------------------------------------------------- 

 Ncao       : 781
 Nao        : 781
 Nshell     : 471
 Nel        : 866
 T(el)      :   500.0
 intcut     :    35.0
 scfconv/Eh :  0.100E-06
   qconv/e  :  0.100E-04
 intneglect :  0.100E-08
 broydamp   :      0.400
 iter      E             dE          RMSdq      gap      omega  full diag
   1   -495.1210453 -0.495121E+03  0.471E+00    3.04       0.0  T
   2   -496.3850759 -0.126403E+01  0.221E+00    1.58       1.0  T
   3   -496.4677607 -0.826848E-01  0.129E+00    1.91       1.0  T
   4   -496.5520294 -0.842686E-01  0.258E-01    1.42       1.0  T
   5   -496.5569368 -0.490744E-02  0.130E-01    1.48       1.0  T
   6   -496.5577499 -0.813135E-03  0.632E-02    1.46       1.0  T
   7   -496.5581268 -0.376874E-03  0.295E-02    1.46       1.0  T
   8   -496.5582033 -0.764960E-04  0.154E-02    1.46       1.0  T
   9   -496.5582243 -0.209521E-04  0.731E-03    1.46       1.0  T
  10   -496.5582286 -0.432450E-05  0.354E-03    1.46       1.6  T
  11   -496.5582295 -0.946396E-06  0.158E-03    1.46       3.6  T
  12   -496.5582298 -0.226185E-06  0.723E-04    1.46       7.8  T
  13   -496.5582298 -0.405762E-07  0.289E-04    1.45      19.5  T
  14   -496.5582298 -0.361115E-08  0.140E-04    1.45      40.3  T
  15   -496.5582298 -0.170468E-08  0.485E-05    1.45     116.1  T
  16   -496.5582298 -0.172236E-09  0.223E-05    1.45     251.7  T
speedup  1.62
cpu  time for SCC    9.97 s
wall time for SCC    6.14 s

   *** convergence criteria satisfied after 16 iterations ***

          eigenvalues
 #    :         421        422        423        424        425        426        427        428
 occ. :        2.000      2.000      2.000      2.000      2.000      2.000      2.000      2.000
 eps  :       -10.307    -10.282    -10.196    -10.133    -10.132    -10.068    -10.038     -9.879
 #    :         429        430        431        432        433        434        435        436
 occ. :        2.000      2.000      2.000      2.000      2.000      0.000      0.000      0.000
 eps  :        -9.782     -9.771     -9.667     -9.625     -9.586     -8.132     -7.912     -7.835
 #    :         437        438        439        440        441        442        443        444
 occ. :        0.000      0.000      0.000      0.000      0.000      0.000      0.000      0.000
 eps  :        -7.800     -7.787     -7.726     -7.600     -7.515     -6.857     -6.642     -6.537


   #   Z            q   n(s)   n(p)   n(d)      C6AA      α(0)
   1   7 N     -0.382  1.313  4.070  0.000    29.880     8.118
   2   6 C      0.038  1.055  2.907  0.000    19.959     6.364
   3   6 C      0.196  1.091  2.712  0.000    23.810     7.991
   4   8 O     -0.358  1.753  4.605  0.000    20.852     6.122
   5   6 C     -0.067  1.060  3.007  0.000    21.780     6.643
   6   6 C     -0.011  1.056  2.955  0.000    20.746     6.479
   7   6 C     -0.120  1.042  3.078  0.000    22.852     6.815
   8   6 C     -0.113  1.039  3.075  0.000    22.716     6.795
   9   1 H      0.166  0.834  0.000  0.000     1.298     1.784
  10   1 H      0.058  0.942  0.000  0.000     2.223     2.332
  11   1 H      0.045  0.955  0.000  0.000     2.390     2.417
  12   1 H      0.037  0.963  0.000  0.000     2.486     2.465
  13   1 H      0.045  0.955  0.000  0.000     2.382     2.414
  14   1 H      0.042  0.958  0.000  0.000     2.429     2.437
  15   1 H      0.043  0.957  0.000  0.000     2.403     2.424
  16   1 H      0.037  0.963  0.000  0.000     2.487     2.466
  17   1 H      0.030  0.970  0.000  0.000     2.582     2.513
  18   1 H      0.041  0.959  0.000  0.000     2.433     2.439
  19   1 H      0.045  0.955  0.000  0.000     2.386     2.416
  20   7 N     -0.282  1.291  3.991  0.000    27.265     7.755
  21   6 C      0.031  1.063  2.906  0.000    20.039     6.372
  22   6 C      0.197  1.089  2.714  0.000    23.806     7.990
  23   8 O     -0.360  1.760  4.600  0.000    20.903     6.130
  24   6 C     -0.048  1.050  2.998  0.000    21.407     6.583
  25   6 C     -0.054  1.047  3.007  0.000    21.524     6.601
  26   6 C      0.012  1.046  2.942  0.000    20.419     6.441
  27   1 H      0.047  0.953  0.000  0.000     2.360     2.402
  28   1 H      0.022  0.978  0.000  0.000     2.702     2.570
  29   1 H      0.051  0.949  0.000  0.000     2.308     2.376
  30   1 H      0.032  0.968  0.000  0.000     2.558     2.501
  31   1 H      0.027  0.973  0.000  0.000     2.626     2.534
  32   1 H      0.048  0.952  0.000  0.000     2.344     2.394
  33   1 H      0.030  0.970  0.000  0.000     2.592     2.518
  34   7 N     -0.388  1.311  4.077  0.000    30.049     8.141
  35   6 C      0.057  1.050  2.894  0.000    19.641     6.312
  36   6 C      0.200  1.088  2.712  0.000    23.747     7.981
  37   8 O     -0.363  1.746  4.617  0.000    20.951     6.137
  38   6 C     -0.049  1.048  3.000  0.000    21.432     6.589
  39   6 C      0.017  1.081  2.902  0.000    27.632     8.622
  40   6 C     -0.032  1.080  2.952  0.000    28.798     8.800
  41   6 C     -0.042  1.076  2.967  0.000    29.050     8.839
  42   6 C     -0.026  1.081  2.945  0.000    28.640     8.776
  43   6 C     -0.037  1.079  2.958  0.000    28.909     8.817
  44   6 C     -0.036  1.080  2.956  0.000    28.895     8.815
  45   1 H      0.185  0.815  0.000  0.000     1.184     1.704
  46   1 H      0.044  0.956  0.000  0.000     2.392     2.418
  47   1 H      0.033  0.967  0.000  0.000     2.546     2.495
  48   1 H      0.030  0.970  0.000  0.000     2.588     2.516
  49   1 H      0.012  0.988  0.000  0.000     2.854     2.642
  50   1 H      0.025  0.975  0.000  0.000     2.655     2.548
  51   1 H      0.024  0.976  0.000  0.000     2.669     2.555
  52   1 H      0.053  0.947  0.000  0.000     2.280     2.361
  53   1 H      0.059  0.941  0.000  0.000     2.212     2.326
  54   7 N     -0.403  1.321  4.082  0.000    30.451     8.196
  55   6 C      0.046  1.054  2.900  0.000    19.823     6.342
  56   6 C      0.208  1.089  2.703  0.000    23.595     7.955
  57   8 O     -0.385  1.757  4.628  0.000    21.378     6.199
  58   6 C     -0.070  1.057  3.013  0.000    21.830     6.650
  59   6 C     -0.005  1.079  2.926  0.000    28.154     8.703
  60   6 C     -0.040  1.082  2.959  0.000    29.000     8.831
  61   6 C     -0.045  1.083  2.962  0.000    29.116     8.849
  62   6 C     -0.059  1.074  2.985  0.000    29.456     8.900
  63   6 C     -0.076  1.078  2.998  0.000    29.902     8.967
  64   6 C      0.146  1.045  2.809  0.000    24.827     8.166
  65   8 O     -0.441  1.725  4.716  0.000    21.659     6.283
  66   1 H      0.187  0.813  0.000  0.000     1.173     1.696
  67   1 H      0.039  0.961  0.000  0.000     2.468     2.457
  68   1 H      0.052  0.948  0.000  0.000     2.300     2.372
  69   1 H      0.062  0.938  0.000  0.000     2.177     2.307
  70   1 H      0.044  0.956  0.000  0.000     2.401     2.423
  71   1 H      0.048  0.952  0.000  0.000     2.347     2.396
  72   1 H      0.038  0.962  0.000  0.000     2.471     2.458
  73   1 H      0.042  0.958  0.000  0.000     2.421     2.433
  74   1 H      0.344  0.656  0.000  0.000     0.604     1.220
  75   7 N     -0.393  1.312  4.081  0.000    30.168     8.157
  76   6 C      0.029  1.061  2.910  0.000    20.107     6.387
  77   6 C      0.261  1.051  2.688  0.000    22.599     7.784
  78   8 O     -0.525  1.749  4.775  0.000    24.334     6.614
  79   6 C      0.095  1.031  2.874  0.000    19.222     6.282
  80   8 O     -0.460  1.715  4.745  0.000    22.049     6.339
  81   1 H      0.180  0.820  0.000  0.000     1.214     1.726
  82   1 H      0.044  0.956  0.000  0.000     2.400     2.423
  83   1 H     -0.009  1.009  0.000  0.000     3.221     2.806
  84   1 H      0.027  0.973  0.000  0.000     2.626     2.534
  85   1 H      0.346  0.654  0.000  0.000     0.598     1.215
  86   7 N     -0.211  1.267  3.943  0.000    25.591     7.513
  87   6 C      0.035  1.058  2.907  0.000    19.995     6.368
  88   6 C      0.274  1.044  2.682  0.000    22.366     7.745
  89   8 O     -0.494  1.752  4.743  0.000    23.663     6.522
  90   6 C     -0.061  1.051  3.009  0.000    21.663     6.626
  91   6 C     -0.100  1.066  3.034  0.000    22.417     6.742
  92   6 C      0.368  1.027  2.605  0.000    20.762     7.456
  93   8 O     -0.596  1.767  4.829  0.000    26.031     6.840
  94   8 O     -0.606  1.761  4.845  0.000    26.261     6.871
  95   1 H      0.252  0.748  0.000  0.000     0.874     1.465
  96   1 H      0.049  0.951  0.000  0.000     2.338     2.391
  97   1 H      0.052  0.948  0.000  0.000     2.291     2.367
  98   1 H      0.044  0.956  0.000  0.000     2.396     2.421
  99   1 H      0.050  0.950  0.000  0.000     2.318     2.381
 100   1 H      0.033  0.967  0.000  0.000     2.544     2.494
 101   7 N     -0.179  1.244  3.935  0.000    24.868     7.406
 102   6 C     -0.020  1.048  2.971  0.000    20.987     6.534
 103   6 C      0.285  1.035  2.680  0.000    22.169     7.710
 104   8 O     -0.474  1.754  4.720  0.000    23.213     6.460
 105   1 H      0.227  0.773  0.000  0.000     0.976     1.548
 106   1 H      0.066  0.934  0.000  0.000     2.132     2.284
 107   1 H      0.095  0.905  0.000  0.000     1.835     2.119
 108   7 N     -0.181  1.244  3.937  0.000    24.918     7.414
 109   6 C      0.027  1.058  2.915  0.000    20.120     6.387
 110   6 C      0.288  1.039  2.673  0.000    22.125     7.704
 111   8 O     -0.494  1.751  4.743  0.000    23.661     6.522
 112   6 C     -0.074  1.058  3.016  0.000    21.900     6.660
 113   6 C     -0.011  1.057  2.954  0.000    20.738     6.477
 114   6 C     -0.118  1.043  3.075  0.000    22.807     6.808
 115   6 C     -0.120  1.041  3.079  0.000    22.859     6.817
 116   1 H      0.207  0.793  0.000  0.000     1.073     1.623
 117   1 H      0.079  0.921  0.000  0.000     1.994     2.208
 118   1 H      0.046  0.954  0.000  0.000     2.370     2.408
 119   1 H      0.058  0.942  0.000  0.000     2.223     2.332
 120   1 H      0.034  0.966  0.000  0.000     2.526     2.485
 121   1 H      0.064  0.936  0.000  0.000     2.149     2.292
 122   1 H      0.030  0.970  0.000  0.000     2.582     2.513
 123   1 H      0.048  0.952  0.000  0.000     2.348     2.396
 124   1 H      0.064  0.936  0.000  0.000     2.158     2.297
 125   1 H      0.050  0.950  0.000  0.000     2.324     2.384
 126   1 H      0.036  0.964  0.000  0.000     2.500     2.473
 127   7 N     -0.199  1.251  3.948  0.000    25.324     7.474
 128   6 C      0.048  1.055  2.898  0.000    19.770     6.329
 129   6 C      0.291  1.040  2.669  0.000    22.070     7.693
 130   8 O     -0.497  1.743  4.755  0.000    23.725     6.531
 131   6 C     -0.058  1.047  3.011  0.000    21.610     6.617
 132   6 C     -0.035  1.065  2.971  0.000    28.819     8.804
 133   6 C      0.002  1.065  2.933  0.000    27.929     8.668
 134   6 C     -0.015  1.074  2.940  0.000    28.210     8.700
 135   7 N     -0.110  1.232  3.878  0.000    23.406     7.185
 136   6 C      0.056  1.061  2.883  0.000    26.633     8.457
 137   6 C     -0.039  1.075  2.964  0.000    28.975     8.827
 138   6 C     -0.054  1.074  2.979  0.000    29.331     8.881
 139   6 C     -0.054  1.075  2.979  0.000    29.331     8.881
 140   6 C     -0.054  1.076  2.978  0.000    29.340     8.883
 141   1 H      0.206  0.794  0.000  0.000     1.075     1.624
 142   1 H      0.047  0.953  0.000  0.000     2.359     2.402
 143   1 H      0.049  0.951  0.000  0.000     2.328     2.386
 144   1 H      0.041  0.959  0.000  0.000     2.431     2.438
 145   1 H      0.025  0.975  0.000  0.000     2.663     2.552
 146   1 H      0.193  0.807  0.000  0.000     1.140     1.672
 147   1 H     -0.007  1.007  0.000  0.000     3.183     2.790
 148   1 H      0.058  0.942  0.000  0.000     2.220     2.330
 149   1 H      0.027  0.973  0.000  0.000     2.631     2.536
 150   1 H      0.066  0.934  0.000  0.000     2.131     2.283
 151   7 N     -0.186  1.254  3.932  0.000    25.022     7.429
 152   6 C      0.050  1.056  2.893  0.000    19.739     6.327
 153   6 C      0.280  1.044  2.675  0.000    22.251     7.724
 154   8 O     -0.482  1.739  4.743  0.000    23.392     6.485
 155   6 C     -0.038  1.042  2.996  0.000    21.248     6.562
 156   6 C     -0.080  1.063  3.017  0.000    22.038     6.684
 157   6 C      0.367  1.028  2.605  0.000    20.782     7.460
 158   8 O     -0.640  1.768  4.871  0.000    27.110     6.981
 159   8 O     -0.649  1.768  4.880  0.000    27.345     7.011
 160   1 H      0.211  0.789  0.000  0.000     1.053     1.608
 161   1 H      0.039  0.961  0.000  0.000     2.456     2.451
 162   1 H      0.037  0.963  0.000  0.000     2.485     2.465
 163   1 H      0.047  0.953  0.000  0.000     2.355     2.400
 164   1 H      0.015  0.985  0.000  0.000     2.808     2.621
 165   1 H      0.017  0.983  0.000  0.000     2.780     2.607
 166   7 N     -0.182  1.245  3.937  0.000    24.932     7.416
 167   6 C      0.039  1.062  2.899  0.000    19.929     6.358
 168   6 C      0.274  1.053  2.672  0.000    22.361     7.743
 169   8 O     -0.483  1.748  4.736  0.000    23.414     6.488
 170   6 C     -0.016  1.063  2.954  0.000    20.829     6.491
 171   6 C     -0.062  1.051  3.011  0.000    21.693     6.631
 172   6 C     -0.119  1.042  3.077  0.000    22.829     6.813
 173   6 C     -0.092  1.033  3.059  0.000    22.319     6.737
 174   1 H      0.200  0.800  0.000  0.000     1.106     1.648
 175   1 H      0.051  0.949  0.000  0.000     2.312     2.378
 176   1 H      0.048  0.952  0.000  0.000     2.341     2.393
 177   1 H      0.056  0.944  0.000  0.000     2.246     2.344
 178   1 H      0.039  0.961  0.000  0.000     2.465     2.455
 179   1 H      0.066  0.934  0.000  0.000     2.131     2.283
 180   1 H      0.042  0.958  0.000  0.000     2.419     2.432
 181   1 H      0.049  0.951  0.000  0.000     2.326     2.385
 182   1 H      0.029  0.971  0.000  0.000     2.597     2.520
 183   1 H      0.012  0.988  0.000  0.000     2.854     2.642
 184   1 H      0.038  0.962  0.000  0.000     2.477     2.461
 185   7 N     -0.182  1.260  3.922  0.000    24.942     7.417
 186   6 C      0.018  1.065  2.918  0.000    20.296     6.417
 187   6 C      0.267  1.045  2.688  0.000    22.488     7.765
 188   8 O     -0.466  1.737  4.729  0.000    23.047     6.436
 189   6 C     -0.058  1.052  3.007  0.000    21.623     6.621
 190   6 C     -0.082  1.060  3.022  0.000    22.065     6.688
 191   6 C      0.367  1.027  2.606  0.000    20.770     7.458
 192   8 O     -0.640  1.767  4.872  0.000    27.111     6.981
 193   8 O     -0.644  1.769  4.876  0.000    27.237     6.997
 194   1 H      0.214  0.786  0.000  0.000     1.037     1.595
 195   1 H      0.103  0.897  0.000  0.000     1.757     2.073
 196   1 H      0.038  0.962  0.000  0.000     2.475     2.460
 197   1 H      0.046  0.954  0.000  0.000     2.375     2.410
 198   1 H      0.001  0.999  0.000  0.000     3.042     2.728
 199   1 H      0.033  0.967  0.000  0.000     2.540     2.492
 200   7 N     -0.183  1.245  3.938  0.000    24.964     7.421
 201   6 C      0.026  1.063  2.912  0.000    20.154     6.394
 202   6 C      0.286  1.038  2.676  0.000    22.153     7.708
 203   8 O     -0.488  1.756  4.733  0.000    23.530     6.504
 204   6 C     -0.105  1.061  3.044  0.000    22.500     6.752
 205   6 C      0.298  1.031  2.671  0.000    21.940     7.669
 206   8 O     -0.490  1.755  4.735  0.000    23.570     6.509
 207   7 N     -0.301  1.283  4.018  0.000    27.752     7.824
 208   1 H      0.195  0.805  0.000  0.000     1.134     1.668
 209   1 H      0.086  0.914  0.000  0.000     1.919     2.166
 210   1 H      0.096  0.904  0.000  0.000     1.820     2.110
 211   1 H      0.070  0.930  0.000  0.000     2.081     2.256
 212   1 H      0.246  0.754  0.000  0.000     0.900     1.486
 213   1 H      0.244  0.756  0.000  0.000     0.907     1.492
 214   7 N     -0.186  1.250  3.937  0.000    25.039     7.432
 215   6 C      0.044  1.049  2.907  0.000    19.834     6.340
 216   6 C      0.204  1.085  2.711  0.000    23.673     7.968
 217   8 O     -0.354  1.750  4.605  0.000    20.789     6.113
 218   6 C     -0.098  1.059  3.039  0.000    22.359     6.731
 219   6 C      0.287  1.034  2.679  0.000    22.141     7.705
 220   8 O     -0.486  1.753  4.733  0.000    23.474     6.496
 221   7 N     -0.281  1.264  4.017  0.000    27.257     7.754
 222   1 H      0.235  0.765  0.000  0.000     0.945     1.522
 223   1 H      0.096  0.904  0.000  0.000     1.826     2.113
 224   1 H      0.086  0.914  0.000  0.000     1.914     2.164
 225   1 H      0.080  0.920  0.000  0.000     1.977     2.199
 226   1 H      0.248  0.752  0.000  0.000     0.892     1.480
 227   1 H      0.224  0.776  0.000  0.000     0.992     1.560
 228   7 N     -0.386  1.310  4.076  0.000    29.997     8.134
 229   6 C     -0.011  1.045  2.966  0.000    20.852     6.516
 230   6 C      0.271  1.043  2.686  0.000    22.426     7.754
 231   8 O     -0.494  1.752  4.742  0.000    23.647     6.520
 232   1 H      0.170  0.830  0.000  0.000     1.273     1.767
 233   1 H      0.039  0.961  0.000  0.000     2.457     2.451
 234   1 H      0.037  0.963  0.000  0.000     2.492     2.469
 235   7 N     -0.157  1.237  3.920  0.000    24.403     7.337
 236   6 C      0.013  1.061  2.926  0.000    20.362     6.425
 237   6 C      0.262  1.045  2.693  0.000    22.588     7.784
 238   8 O     -0.502  1.752  4.750  0.000    23.829     6.545
 239   6 C     -0.071  1.054  3.017  0.000    21.857     6.655
 240   6 C     -0.080  1.052  3.028  0.000    22.029     6.682
 241   6 C     -0.093  1.055  3.039  0.000    22.283     6.721
 242   6 C     -0.048  1.058  2.990  0.000    21.526     6.622
 243   7 N     -0.141  1.238  3.903  0.000    24.037     7.282
 244   1 H      0.211  0.789  0.000  0.000     1.051     1.606
 245   1 H      0.082  0.918  0.000  0.000     1.958     2.188
 246   1 H      0.062  0.938  0.000  0.000     2.174     2.306
 247   1 H      0.060  0.940  0.000  0.000     2.196     2.317
 248   1 H      0.066  0.934  0.000  0.000     2.130     2.282
 249   1 H      0.077  0.923  0.000  0.000     2.008     2.216
 250   1 H      0.087  0.913  0.000  0.000     1.907     2.160
 251   1 H      0.062  0.938  0.000  0.000     2.174     2.306
 252   1 H      0.103  0.897  0.000  0.000     1.759     2.074
 253   1 H      0.125  0.875  0.000  0.000     1.575     1.963
 254   1 H      0.311  0.689  0.000  0.000     0.684     1.296
 255   1 H      0.302  0.698  0.000  0.000     0.708     1.318
 256   1 H      0.277  0.723  0.000  0.000     0.785     1.388
 257   7 N     -0.077  1.231  3.846  0.000    22.741     7.083
 258   6 C      0.029  1.063  2.908  0.000    20.066     6.373
 259   6 C      0.214  1.077  2.709  0.000    23.465     7.933
 260   8 O     -0.356  1.742  4.614  0.000    20.820     6.118
 261   6 C     -0.062  1.052  3.009  0.000    21.658     6.622
 262   6 C     -0.063  1.049  3.015  0.000    21.685     6.625
 263   6 C     -0.014  1.054  2.960  0.000    20.867     6.511
 264   1 H      0.058  0.942  0.000  0.000     2.222     2.331
 265   1 H      0.069  0.931  0.000  0.000     2.094     2.263
 266   1 H      0.051  0.949  0.000  0.000     2.309     2.376
 267   1 H      0.058  0.942  0.000  0.000     2.228     2.334
 268   1 H      0.042  0.958  0.000  0.000     2.422     2.434
 269   1 H      0.082  0.918  0.000  0.000     1.957     2.187
 270   1 H      0.071  0.929  0.000  0.000     2.071     2.250
 271   7 N     -0.381  1.305  4.076  0.000    29.847     8.114
 272   6 C      0.037  1.057  2.906  0.000    19.977     6.368
 273   6 C      0.190  1.097  2.713  0.000    23.932     8.012
 274   8 O     -0.376  1.762  4.614  0.000    21.211     6.175
 275   6 C      0.109  1.027  2.865  0.000    19.012     6.248
 276   8 O     -0.468  1.705  4.763  0.000    22.219     6.363
 277   1 H      0.185  0.815  0.000  0.000     1.186     1.706
 278   1 H      0.050  0.950  0.000  0.000     2.322     2.383
 279   1 H     -0.007  1.007  0.000  0.000     3.181     2.789
 280   1 H      0.001  0.999  0.000  0.000     3.033     2.724
 281   1 H      0.331  0.669  0.000  0.000     0.635     1.252
 282   7 N     -0.387  1.311  4.076  0.000    30.011     8.136
 283   6 C      0.042  1.054  2.904  0.000    19.885     6.352
 284   6 C      0.204  1.092  2.705  0.000    23.675     7.969
 285   8 O     -0.389  1.757  4.632  0.000    21.467     6.212
 286   6 C     -0.062  1.056  3.007  0.000    21.682     6.627
 287   6 C     -0.006  1.056  2.950  0.000    20.653     6.464
 288   6 C     -0.102  1.038  3.064  0.000    22.500     6.762
 289   6 C     -0.113  1.039  3.074  0.000    22.721     6.796
 290   1 H      0.157  0.843  0.000  0.000     1.354     1.823
 291   1 H      0.056  0.944  0.000  0.000     2.243     2.342
 292   1 H      0.040  0.960  0.000  0.000     2.453     2.449
 293   1 H      0.030  0.970  0.000  0.000     2.585     2.514
 294   1 H      0.039  0.961  0.000  0.000     2.469     2.457
 295   1 H      0.043  0.957  0.000  0.000     2.414     2.430
 296   1 H      0.021  0.979  0.000  0.000     2.717     2.578
 297   1 H      0.035  0.965  0.000  0.000     2.523     2.484
 298   1 H      0.047  0.953  0.000  0.000     2.352     2.398
 299   1 H      0.038  0.962  0.000  0.000     2.474     2.460
 300   1 H      0.048  0.952  0.000  0.000     2.339     2.392
 301   1 H      0.182  0.818  0.000  0.000     1.205     1.719
 302   1 H      0.067  0.933  0.000  0.000     2.118     2.276
 303   1 H      0.185  0.815  0.000  0.000     1.184     1.704
 304   1 H      0.072  0.928  0.000  0.000     2.066     2.247
 305   1 H      0.178  0.822  0.000  0.000     1.223     1.732
 306   1 H      0.040  0.960  0.000  0.000     2.451     2.448
 307   1 H      0.182  0.818  0.000  0.000     1.204     1.719
 308   1 H      0.072  0.928  0.000  0.000     2.067     2.248
 309   1 H      0.198  0.802  0.000  0.000     1.115     1.654
 310   1 H      0.077  0.923  0.000  0.000     2.006     2.215
 311   1 H      0.187  0.813  0.000  0.000     1.176     1.699
 312   1 H      0.069  0.931  0.000  0.000     2.093     2.262
 313   1 H      0.195  0.805  0.000  0.000     1.132     1.667
 314   1 H      0.090  0.910  0.000  0.000     1.878     2.143
 315   1 H      0.195  0.805  0.000  0.000     1.134     1.668
 316   1 H      0.066  0.934  0.000  0.000     2.133     2.284

 Mol. C6AA /au·bohr⁶  :     953810.726195
 Mol. C8AA /au·bohr⁸  :   21271352.203441
 Mol. α(0) /au        :       1468.966713

 
molecular dipole:
                 x           y           z       tot (Debye)
 q only:     -155.427    -134.111    -376.554
   full:     -156.434    -135.473    -374.758    1088.141
molecular quadrupole (traceless):
                xx          xy          yy          xz          yz          zz
 q only:    28048.483  -15403.752   32101.739  -43461.181  -37863.875  -60150.221
  q+dip:    27641.510  -15672.565   31669.193  -43548.124  -38048.674  -59310.703
   full:    27639.200  -15675.197   31666.346  -43548.563  -38050.674  -59305.547
speedup  1.59
cpu  time for grad   11.54 s
wall time for grad    7.26 s

SCC energy    :    -496.5689817
rep           :       6.1514302
ES            :       1.7634430
AES           :      -0.0362928
AXC           :       0.1669168
disp          :      -0.4092743
XB            :       0.0000000
fix           :       0.0000000
Gborn         :       0.0000000
Gsasa         :       0.0000000
Ghb           :       0.0000000
Gshift        :       0.0000000
Gsolv         :      -0.5632807     -353.46
Etot ala COSMO:    -496.5689817
grad norm     :       0.6339885
total E       :    -490.3813784
atomizationE  :      90.3176062    56675.15
(atE without considering molecular charge,
 total energy contains solvation terms)
H-L gap (eV)  :          1.4547

------------------------------------------------------------------------
 * finished run on 2019/05/09 at 22:30:53.629     
------------------------------------------------------------------------
 total:
 * wall-time:     0 d,  0 h,  0 min,  7.968 sec
 *  cpu-time:     0 d,  0 h,  0 min, 12.312 sec
 * ratio c/w:     1.545 speedup
 SCF:
 * wall-time:     0 d,  0 h,  0 min,  7.571 sec
 *  cpu-time:     0 d,  0 h,  0 min, 12.068 sec
 * ratio c/w:     1.594 speedup

