      -----------------------------------------------------------      
     |                   =====================                   |     
     |                           x T B                           |     
     |                   =====================                   |     
     |                         S. Grimme                         |     
     |          Mulliken Center for Theoretical Chemistry        |     
     |                    University of Bonn                     |     
     |                 Version 6.0.1 (SAW181210)                 |     
      -----------------------------------------------------------      

   This program is distributed in the hope that it will be useful,
   but WITHOUT ANY WARRANTY; without even the implied warranty of
   MERCHANTABILITY or FITNESS FOR A PARTICULAR PURPOSE.
   
   FOR NON-COMMERCIAL, ACADEMIA USE ONLY.
   
   Cite this work as:
   S. Grimme, C. Bannwarth, P. Shushkov, J. Comput. Theory Chem., 2017,
   13, 1989-2009.
   C. Bannwarth, S. Ehlert and S. Grimme., ChemRxiv, 2018, preprint.
   http://doi.org/10.26434/chemrxiv.7246238.v1
   
   for sTDA-xTB:
   S. Grimme and C. Bannwarth, J. Chem. Phys., 2016, 145, 054103.
   
   in the mass-spec context:
   V. Asgeirsson, C. Bauer and S. Grimme, Chem. Sci., 2017, 8, 4879.
   
   if GBSA is used:
   P. Shushkov, F. März and S. Grimme, unpublished.
   
   for ANC optimizer:
   S. Grimme, unpublished.
   Rational Function algorithm used in ANCopt:
   F. Eckert, P. Pulay, H.-J. Werner, J. Comput. Chem., 1997, 18, 1473.
   
   with help from (in alphabetical order)
   C. Bannwarth, F. Bohle, G. Brandenburg, E. Caldeweyher, M. Checinski,
   S. Dohm, S. Ehlert, S. Ehrlich, F. März, H. Neugebauer, J. Pisarek,
   P. Pracht, P. Shushkov, and S. Spicher.
   
 * started run on 2019/05/04 at 18:20:46.155     
========================================================================
 # omp threads = 2
========================================================================
number of atoms            : 767
number of electrons        : 2094
charge                     : -3
spin                       : .0
first test random number   : .0208

########################################################################
# WARNING! Please study the warnings concerning your input carefully
#  - Process number higher than OMP_NUM_THREADS, I hope you know what you are doing.
########################################################################

           ------------------------------------------------- 
          |                 G F N 2 - x T B                 |
          | Geometry, Frequencies, Noncovalent interactions |
          |            JCTC 2018 parametrisation            |
           ------------------------------------------------- 
 
      method parameters     
 k(s)        :  1.8500
 k(p)        :  2.2300
 k(d)        :  2.2300
 k(f)        :  2.0000
 kEN (H0ij)  : -2.0000
 D4 a1       :  0.5200
 D4 a2       :  5.0000
 D4 s6       :  1.0000
 D4 s8       :  2.7000
 D4 s9       :  5.0000
 alphaj      :  2.0000

 Solvent             : h2o
 Using internal parameter file: .param_gbsa2_h2o
 Gsolv ref. state (COSMO-RS): gsolv [1 M gas/solution]
 temperature (mdtemp)       :    298.150000000000     
 dielectric constant        :    80.2000000000000     
 rho                        :    1.00000000000000     
 mass                       :    18.0000000000000     
 surface tension            :    15.5689454083859     
 probe radius               :   0.975313790000000     
 vdW radii scaling          :    1.00000000000000     
 Gshift (Eh)                :   1.857443126794793E-003
 c1                         :    1.55243817000000     
 soset                      :   0.130326360000000     
 HB correction              :  T

            Z     q(EN)     CN     RAES       Cart. coordinates
     1  N   5.0   -0.22    3.24    1.96     5.80524   166.99319    19.24308
     2  C   4.0    0.02    4.42    4.42     3.75111   165.53810    20.32589
     3  C   4.0    0.14    3.45    3.10     1.66863   167.23130    21.30099
     4  O   6.0   -0.33    1.44    1.80    -0.32125   167.40893    20.14070
     5  C   4.0   -0.03    4.36    4.30     4.66951   163.68617    22.39703
     6  C   4.0   -0.05    4.25    4.11     6.95797   164.75387    23.81622
     7  C   4.0   -0.08    4.13    3.86     5.34603   161.17851    21.21973
     8  C   4.0   -0.08    4.00    3.62     7.67418   163.27421    26.19538
     9  H   1.0    0.07    1.05    1.44     7.53434   166.51320    19.94795
    10  H   1.0    0.04    1.07    1.44     2.94608   164.42694    18.78955
    11  H   1.0    0.04    1.06    1.44     3.13695   163.42917    23.74819
    12  H   1.0    0.03    1.04    1.43     8.58502   164.73119    22.55388
    13  H   1.0    0.03    1.04    1.43     6.53467   166.68706    24.38691
    14  H   1.0    0.05    1.00    1.43     5.98854   159.89538    22.69750
    15  H   1.0    0.04    1.00    1.43     3.67930   160.40183    20.29188
    16  H   1.0    0.03    1.00    1.43     6.84648   161.46952    19.84023
    17  H   1.0    0.03    1.00    1.43     9.31068   164.16616    27.07221
    18  H   1.0    0.04    1.00    1.43     6.08114   163.29122    27.50118
    19  H   1.0    0.05    1.00    1.43     8.12960   161.33535    25.66815
    20  N   5.0   -0.15    3.47    2.06     2.16185   168.53143    23.38725
    21  C   4.0    0.03    4.35    4.28     0.22866   170.04510    24.60801
    22  C   4.0    0.09    3.31    3.06    -1.17919   171.60601    22.67671
    23  O   6.0   -0.31    1.12    1.80    -3.48088   171.85357    22.81277
    24  C   4.0   -0.06    4.30    4.19     1.37572   171.77609    26.59978
    25  C   4.0   -0.06    4.17    3.94     2.05413   170.48352    29.06965
    26  C   4.0   -0.02    4.21    4.02     2.98010   172.42615    31.00284
    27  N   5.0   -0.15    3.38    2.01     4.30291   171.26775    33.14201
    28  C   4.0    0.08    3.33    3.06     5.54068   172.54521    34.92591
    29  N   5.0   -0.20    3.25    1.97     5.64839   175.06421    34.87111
    30  N   5.0   -0.20    3.23    1.96     6.67829   171.29610    36.77974
    31  H   1.0    0.06    1.07    1.44     3.87394   168.57489    24.27353
    32  H   1.0    0.05    1.06    1.44    -1.08470   168.77898    25.56421
    33  H   1.0    0.03    1.03    1.43     3.10293   172.59812    25.83633
    34  H   1.0    0.04    1.04    1.43     0.01890   173.26519    27.03253
    35  H   1.0    0.04    1.03    1.43     0.39117   169.53676    29.83310
    36  H   1.0    0.04    1.03    1.43     3.55646   169.11346    28.74273
    37  H   1.0    0.03    1.03    1.43     4.28401   173.72440    30.07688
    38  H   1.0    0.03    1.03    1.43     1.36060   173.46172    31.74173
    39  H   1.0    0.07    1.06    1.44     4.27456   169.34590    33.27618
    40  H   1.0    0.07    1.03    1.43     4.77723   176.03553    33.45193
    41  H   1.0    0.06    1.02    1.43     6.60270   176.01852    36.24872
    42  H   1.0    0.07    1.02    1.43     6.60270   169.37047    36.83265
    43  H   1.0    0.07    1.02    1.43     7.62882   172.26175    38.15168
    44  N   5.0   -0.19    3.31    1.98    -1.69130   170.30588    16.86580
    45  C   4.0    0.03    4.38    4.35    -3.12939   168.61458    15.32379
    46  C   4.0    0.15    3.50    3.11    -5.57847   167.98341    16.66549
    47  O   6.0   -0.32    1.38    1.80    -7.57024   168.90560    15.88882
    48  C   4.0   -0.05    4.37    4.32    -1.60627   166.25998    14.65860
    49  C   4.0   -0.03    4.17    3.94    -2.48688   164.82946    12.28700
    50  C   4.0   -0.08    4.12    3.84    -4.62038   166.15982    10.79222
    51  C   4.0   -0.09    4.10    3.81    -0.24566   164.34758    10.55223
    52  H   1.0    0.10    1.08    1.44    -0.03024   169.59912    17.54422
    53  H   1.0    0.04    1.08    1.44    -3.59237   169.50086    13.52288
    54  H   1.0    0.04    1.04    1.43     0.34960   166.82312    14.34491
    55  H   1.0    0.05    1.04    1.43    -1.71776   164.94851    16.24408
    56  H   1.0    0.03    1.06    1.44    -3.29379   163.05122    12.94462
    57  H   1.0    0.03    1.00    1.43    -5.11171   165.00898     9.15572
    58  H   1.0    0.05    1.00    1.43    -6.26255   166.37525    12.01677
    59  H   1.0    0.03    1.00    1.43    -3.95520   168.00986    10.17617
    60  H   1.0    0.03    1.00    1.43    -0.89762   163.33468     8.88171
    61  H   1.0    0.03    1.00    1.43     0.57826   166.15415    10.00232
    62  H   1.0    0.03    1.00    1.43     1.15084   163.21752    11.55945
    63  N   5.0   -0.14    3.53    2.10    -5.39517   166.46407    18.68183
    64  C   4.0    0.03    4.45    4.46    -7.56079   165.60424    20.18794
    65  C   4.0    0.16    3.56    3.14    -9.63004   167.51476    19.97251
    66  O   6.0   -0.32    1.28    1.80   -11.80890   166.83635    19.57945
    67  C   4.0   -0.05    4.34    4.26    -6.85404   165.31512    22.96395
    68  C   4.0   -0.04    4.28    4.16    -4.57314   163.72775    23.34189
    69  C   4.0   -0.01    4.24    4.07    -3.93819   163.38382    26.08389
    70  N   5.0   -0.13    3.41    2.03    -1.82170   161.62448    26.29554
    71  C   4.0    0.11    3.35    3.07    -1.41163   160.06357    28.22873
    72  N   5.0   -0.16    3.27    1.97    -2.97821   159.96530    30.19782
    73  N   5.0   -0.17    3.25    1.97     0.58204   158.55746    28.18148
    74  H   1.0    0.09    1.09    1.44    -3.71898   165.77432    19.33946
    75  H   1.0    0.04    1.06    1.44    -8.18440   163.76743    19.49630
    76  H   1.0    0.05    1.04    1.43    -6.47420   167.17839    23.75574
    77  H   1.0    0.05    1.03    1.43    -8.42062   164.42883    23.96550
    78  H   1.0    0.06    1.05    1.44    -4.90384   161.86637    22.52364
    79  H   1.0    0.05    1.05    1.44    -2.96498   164.62726    22.42160
    80  H   1.0    0.04    1.03    1.43    -3.39584   165.19039    26.91159
    81  H   1.0    0.05    1.03    1.43    -5.55957   162.60714    27.08922
    82  H   1.0    0.07    1.06    1.44    -0.55369   161.58858    24.84423
    83  H   1.0    0.08    1.03    1.43    -4.53345   161.10103    30.24884
    84  H   1.0    0.09    1.02    1.43    -2.62105   158.75399    31.65291
    85  H   1.0    0.09    1.03    1.43     1.78579   158.59903    26.67726
    86  H   1.0    0.10    1.03    1.43     0.91652   157.35370    29.64980
    87  N   5.0   -0.12    3.60    2.15    -8.88549   169.91471    20.19739
    88  C   4.0    0.04    4.26    4.12   -10.57302   172.06711    19.95929
    89  C   4.0    0.08    3.37    3.07   -11.81268   172.04443    17.39115
    90  O   6.0   -0.30    1.25    1.80   -14.00665   171.33956    17.12848
    91  C   4.0   -0.08    4.11    3.83    -9.12549   174.51430    20.35991
    92  H   1.0    0.10    1.08    1.44    -7.06380   170.43438    20.55644
    93  H   1.0    0.05    1.06    1.44   -12.04511   171.96506    21.39737
    94  H   1.0    0.03    1.00    1.43   -10.42562   176.10167    20.17471
    95  H   1.0    0.05    1.00    1.43    -8.29779   174.50296    22.24585
    96  H   1.0    0.05    1.00    1.43    -7.64016   174.65414    18.94072
    97  N   5.0   -0.18    3.40    2.02   -12.47408   168.58245    13.84980
    98  C   4.0    0.03    4.30    4.20   -13.52666   166.10691    13.34713
    99  C   4.0    0.15    3.48    3.11   -16.23842   166.05211    14.16539
   100  O   6.0   -0.31    1.31    1.80   -17.87681   165.16583    12.78211
   101  C   4.0   -0.07    4.15    3.90   -12.03944   164.09813    14.70396
   102  H   1.0    0.13    1.11    1.45   -11.44040   168.67316    15.47497
   103  H   1.0    0.04    1.06    1.44   -13.40572   165.69684    11.33269
   104  H   1.0    0.04    1.00    1.43   -12.86903   162.25754    14.29389
   105  H   1.0    0.04    1.00    1.43   -10.08736   164.15104    14.04822
   106  H   1.0    0.07    1.03    1.43   -12.10936   164.46474    16.72974
   107  N   5.0   -0.13    3.53    2.10   -16.69006   167.02154    16.43306
   108  C   4.0    0.04    4.33    4.25   -19.21851   167.21996    17.46674
   109  C   4.0    0.10    3.31    3.06   -20.95139   168.17238    15.39938
   110  O   6.0   -0.29    1.12    1.80   -23.23985   167.85302    15.50331
   111  C   4.0   -0.05    4.30    4.19   -19.26954   169.08134    19.69094
   112  C   4.0   -0.05    4.18    3.95   -18.02043   168.20262    22.14003
   113  C   4.0   -0.01    4.24    4.08   -19.36780   165.93306    23.19261
   114  N   5.0   -0.14    3.38    2.01   -20.07834   166.24864    25.84956
   115  C   4.0    0.09    3.33    3.06   -19.38670   164.71607    27.73740
   116  N   5.0   -0.17    3.25    1.97   -17.91460   162.71674    27.29331
   117  N   5.0   -0.19    3.22    1.96   -20.17660   165.18095    30.09389
   118  H   1.0    0.11    1.10    1.44   -15.32001   167.69428    17.61225
   119  H   1.0    0.05    1.05    1.44   -19.85157   165.38693    18.16216
   120  H   1.0    0.05    1.03    1.43   -18.30200   170.80288    19.10513
   121  H   1.0    0.04    1.03    1.43   -21.23863   169.49519    20.13314
   122  H   1.0    0.06    1.03    1.43   -16.06078   167.68672    21.76775
   123  H   1.0    0.04    1.03    1.43   -18.09791   169.71629    23.53465
   124  H   1.0    0.04    1.04    1.43   -21.08745   165.60991    22.10790
   125  H   1.0    0.04    1.05    1.44   -18.13003   164.29277    23.05466
   126  H   1.0    0.07    1.06    1.44   -21.18950   167.75853    26.29554
   127  H   1.0    0.09    1.04    1.43   -17.30611   162.34636    25.50185
   128  H   1.0    0.09    1.02    1.43   -17.39682   161.55834    28.74462
   129  H   1.0    0.07    1.02    1.43   -21.30477   166.70217    30.44915
   130  H   1.0    0.08    1.02    1.43   -19.65126   164.01309    31.53386
   131  N   5.0   -0.19    3.23    1.96   -21.83578   166.54155     9.46942
   132  C   4.0    0.03    4.33    4.25   -23.02442   164.88615     7.64772
   133  C   4.0    0.15    3.46    3.10   -23.66315   162.33124     8.74754
   134  O   6.0   -0.28    1.74    1.81   -22.52553   161.50354    10.59380
   135  C   4.0    0.02    4.17    3.95   -21.33312   164.60647     5.33659
   136  O   6.0   -0.25    2.05    1.83   -22.68805   163.43673     3.36938
   137  H   1.0    0.12    1.06    1.44   -20.24085   165.84424    10.29523
   138  H   1.0    0.04    1.07    1.44   -24.83100   165.69873     7.08647
   139  H   1.0    0.03    1.02    1.43   -20.71140   166.46974     4.71865
   140  H   1.0    0.04    1.03    1.43   -19.70228   163.44618     5.82414
   141  H   1.0    0.10    1.01    1.43   -22.75986   164.55734     1.89728
   142  N   5.0   -0.13    3.55    2.11   -25.51319   161.10103     7.59859
   143  C   4.0    0.03    4.58    4.64   -26.22562   158.56879     8.32802
   144  C   4.0    0.15    3.61    3.17   -24.10156   156.82647     7.68741
   145  O   6.0   -0.29    1.35    1.80   -22.97907   157.03434     5.67296
   146  C   4.0    0.05    4.32    4.24   -28.38368   157.60692     6.73876
   147  O   6.0   -0.26    2.14    1.84   -27.95472   158.35903     4.16685
   148  C   4.0   -0.08    4.07    3.75   -30.89513   158.60848     7.71197
   149  H   1.0    0.08    1.07    1.44   -26.55821   161.81723     6.14539
   150  H   1.0    0.04    1.06    1.44   -26.72450   158.59147    10.32735
   151  H   1.0    0.04    1.05    1.44   -28.49896   155.55279     6.82947
   152  H   1.0    0.14    1.05    1.44   -26.14436   158.61226     3.87394
   153  H   1.0    0.04    1.00    1.43   -32.43715   157.89794     6.54601
   154  H   1.0    0.04    1.00    1.43   -31.19182   157.99810     9.65650
   155  H   1.0    0.04    1.00    1.43   -30.90458   160.66639     7.64961
   156  N   5.0   -0.15    3.48    2.06   -23.59890   155.07091     9.39194
   157  C   4.0    0.03    4.35    4.29   -21.94728   152.96576     8.84959
   158  C   4.0    0.09    3.38    3.07   -21.98129   152.41207     6.05468
   159  O   6.0   -0.30    1.23    1.80   -20.06511   152.69175     4.79046
   160  C   4.0   -0.05    4.36    4.32   -22.85435   150.59415    10.22342
   161  C   4.0   -0.03    4.19    3.97   -21.07044   148.31514     9.98531
   162  C   4.0   -0.08    4.08    3.76   -19.54733   147.95798    12.45140
   163  C   4.0   -0.07    4.09    3.78   -22.49908   145.90952     9.29745
   164  H   1.0    0.08    1.06    1.44   -24.31699   155.05957    11.18151
   165  H   1.0    0.04    1.05    1.44   -20.04054   153.43819     9.47131
   166  H   1.0    0.05    1.04    1.43   -23.04710   151.03068    12.22653
   167  H   1.0    0.05    1.04    1.43   -24.67982   150.04235     9.44485
   168  H   1.0    0.04    1.06    1.44   -19.74575   148.68175     8.45085
   169  H   1.0    0.04    1.00    1.43   -18.29822   146.33471    12.23787
   170  H   1.0    0.04    1.00    1.43   -18.43806   149.65685    12.80667
   171  H   1.0    0.04    1.00    1.43   -20.85691   147.63673    14.00854
   172  H   1.0    0.05    1.00    1.43   -21.15926   144.35239     9.15005
   173  H   1.0    0.04    1.00    1.43   -23.88425   145.50890    10.76766
   174  H   1.0    0.04    1.00    1.43   -23.45150   146.18920     7.49276
   175  N   5.0   -0.18    3.34    2.00   -17.24186   155.88916     2.46798
   176  C   4.0    0.03    4.37    4.32   -14.71152   155.50933     3.42229
   177  C   4.0    0.15    3.45    3.10   -13.86870   152.89395     2.68341
   178  O   6.0   -0.30    1.25    1.80   -12.05078   152.60482     1.27368
   179  C   4.0   -0.05    4.38    4.35   -14.65294   155.85137     6.28523
   180  C   4.0   -0.02    4.25    4.10   -16.46518   157.84314     7.36237
   181  C   4.0   -0.08    4.10    3.81   -16.09858   158.30423    10.17239
   182  C   4.0   -0.07    4.16    3.93   -16.20818   160.30923     5.96209
   183  H   1.0    0.10    1.07    1.44   -18.42294   156.67907     3.77000
   184  H   1.0    0.04    1.06    1.44   -13.42461   156.91339     2.63995
   185  H   1.0    0.04    1.04    1.43   -15.13859   154.05046     7.15828
   186  H   1.0    0.03    1.03    1.43   -12.74431   156.40506     6.82758
   187  H   1.0    0.06    1.07    1.44   -18.36814   157.09670     7.11104
   188  H   1.0    0.05    1.00    1.43   -17.44406   159.73287    10.79789
   189  H   1.0    0.04    1.00    1.43   -16.42172   156.54301    11.18907
   190  H   1.0    0.04    1.00    1.43   -14.17294   158.95997    10.49932
   191  H   1.0    0.04    1.01    1.43   -17.51776   161.67928     6.77089
   192  H   1.0    0.03    1.00    1.43   -14.27310   160.98953     6.15295
   193  H   1.0    0.04    1.02    1.43   -16.65227   160.00121     3.97409
   194  N   5.0   -0.14    3.49    2.07   -15.28032   151.00800     3.54324
   195  C   4.0    0.04    4.31    4.22   -14.71152   148.37183     3.01222
   196  C   4.0    0.09    3.28    3.05   -14.19373   147.96743     0.22299
   197  O   6.0   -0.28    1.12    1.80   -12.36637   146.69565    -0.46676
   198  C   4.0   -0.05    4.24    4.08   -16.90927   146.68809     3.86071
   199  C   4.0   -0.03    4.14    3.88   -16.59935   143.81570     3.36182
   200  C   4.0    0.23    3.09    3.02   -16.22519   142.19243     5.76933
   201  O   6.0   -0.30    1.15    1.80   -17.98830   140.65608     6.35515
   202  O   6.0   -0.31    1.17    1.80   -14.18428   142.43431     7.02033
   203  H   1.0    0.10    1.10    1.44   -16.85447   151.24611     4.62983
   204  H   1.0    0.06    1.06    1.44   -13.03155   147.84082     4.07803
   205  H   1.0    0.04    1.03    1.43   -17.15682   146.92808     5.89217
   206  H   1.0    0.04    1.03    1.43   -18.60813   147.29847     2.86671
   207  H   1.0    0.05    1.03    1.43   -18.29066   143.12973     2.40751
   208  H   1.0    0.06    1.03    1.43   -14.94962   143.53224     2.16185
   209  N   5.0   -0.22    3.26    1.97     9.38438   151.22532     8.22598
   210  C   4.0    0.03    4.35    4.29     9.51099   150.24077    10.78845
   211  C   4.0    0.15    3.50    3.12     7.56646   151.71476    12.21708
   212  O   6.0   -0.31    1.32    1.80     5.63894   150.71698    13.03155
   213  C   4.0   -0.04    4.34    4.28    12.06968   150.77367    12.02811
   214  C   4.0   -0.04    4.15    3.89    14.35436   149.36016    11.01521
   215  C   4.0    0.24    3.10    3.02    16.38581   148.95198    13.08635
   216  O   6.0   -0.29    1.19    1.80    15.65449   148.36238    15.25765
   217  O   6.0   -0.30    1.15    1.80    18.71018   149.18819    12.59502
   218  H   1.0    0.07    1.03    1.43    11.08135   151.25555     7.31324
   219  H   1.0    0.05    1.05    1.44     9.22942   148.19987    10.80923
   220  H   1.0    0.04    1.04    1.43    12.47030   152.78245    11.81079
   221  H   1.0    0.06    1.05    1.44    11.91472   150.29746    14.02555
   222  H   1.0    0.05    1.03    1.43    13.75909   147.51390    10.32168
   223  H   1.0    0.04    1.03    1.43    15.20285   150.44675     9.48453
   224  N   5.0   -0.15    3.54    2.11     8.08992   154.16195    12.39471
   225  C   4.0    0.03    4.39    4.36     6.56869   155.95908    13.79689
   226  C   4.0    0.16    3.54    3.13     3.78512   155.46586    13.27155
   227  O   6.0   -0.32    1.37    1.80     2.36972   154.56258    14.88537
   228  C   4.0   -0.06    4.25    4.10     7.31513   158.69163    13.08824
   229  C   4.0   -0.06    4.16    3.93    10.07791   159.47397    13.64382
   230  C   4.0   -0.06    4.15    3.90    10.38782   161.15583    15.96629
   231  C   4.0   -0.05    4.12    3.85    13.18273   161.73409    16.38770
   232  N   5.0   -0.13    3.98    2.81    13.65894   163.46507    18.57790
   233  H   1.0    0.07    1.08    1.44     9.61682   154.98398    11.55378
   234  H   1.0    0.05    1.06    1.44     6.89372   155.75121    15.82079
   235  H   1.0    0.03    1.03    1.43     7.01466   158.93351    11.06435
   236  H   1.0    0.03    1.03    1.43     6.10004   159.98042    14.13893
   237  H   1.0    0.04    1.03    1.43    11.19663   157.77133    13.95374
   238  H   1.0    0.03    1.03    1.43    10.80923   160.51143    12.02244
   239  H   1.0    0.03    1.03    1.43     9.38060   162.93028    15.68095
   240  H   1.0    0.04    1.03    1.43     9.65272   160.18829    17.62925
   241  H   1.0    0.03    1.02    1.43    14.18050   159.96908    16.75053
   242  H   1.0    0.03    1.02    1.43    13.93862   162.63548    14.69640
   243  H   1.0    0.04    1.01    1.43    15.55433   163.38949    19.09379
   244  H   1.0    0.04    1.01    1.43    13.20352   165.31323    18.08657
   245  H   1.0    0.04    1.01    1.43    12.55723   162.92461    20.11424
   246  N   5.0   -0.15    3.53    2.10     3.01411   155.98176    10.96797
   247  C   4.0    0.03    4.55    4.60     0.41007   155.63216    10.35381
   248  C   4.0    0.16    3.80    3.33    -0.48566   153.04513    11.11726
   249  O   6.0   -0.32    1.55    1.80    -2.15996   152.76923    12.65172
   250  C   4.0   -0.06    4.52    4.57     0.02646   155.94396     7.56457
   251  C   4.0   -0.03    4.30    4.19    -2.63806   155.31091     6.81057
   252  C   4.0   -0.09    4.11    3.83    -3.53946   157.02678     4.68841
   253  C   4.0   -0.07    4.26    4.12    -2.50389   152.59726     6.02445
   254  H   1.0    0.07    1.06    1.44     4.12716   156.62616     9.53367
   255  H   1.0    0.04    1.06    1.44    -0.68219   157.05890    11.36103
   256  H   1.0    0.03    1.04    1.43     0.40440   157.89983     7.03923
   257  H   1.0    0.04    1.05    1.44     1.30580   154.68352     6.55735
   258  H   1.0    0.04    1.06    1.44    -4.01189   155.58870     8.32046
   259  H   1.0    0.04    1.00    1.43    -5.47265   156.51655     4.18952
   260  H   1.0    0.03    1.00    1.43    -3.47332   158.98264     5.33281
   261  H   1.0    0.03    1.00    1.43    -2.30547   156.78300     3.05758
   262  H   1.0    0.04    1.00    1.43    -4.37850   151.97365     5.44241
   263  H   1.0    0.04    1.01    1.43    -1.18486   152.41963     4.45219
   264  H   1.0    0.05    1.14    1.45    -1.85193   151.46909     7.61938
   265  N   5.0   -0.15    3.72    2.29     0.60849   151.11194    10.04767
   266  C   4.0    0.04    4.58    4.64    -0.52723   148.74411    10.44452
   267  C   4.0    0.17    3.62    3.18    -1.09604   148.32459    13.19785
   268  O   6.0   -0.29    1.29    1.80    -2.88561   147.02068    13.77232
   269  C   4.0   -0.04    4.37    4.32     1.03746   146.63517     9.31824
   270  C   4.0   -0.02    4.25    4.09     3.72276   146.38573    10.24042
   271  C   4.0    0.24    3.15    3.03     5.10226   144.39585     8.76077
   272  O   6.0   -0.29    1.22    1.80     4.21220   143.82893     6.65561
   273  O   6.0   -0.28    1.17    1.80     7.02600   143.38674     9.68485
   274  H   1.0    0.08    1.06    1.44     2.19775   151.14973     8.95730
   275  H   1.0    0.04    1.08    1.44    -2.32247   148.68175     9.43540
   276  H   1.0    0.06    1.04    1.43     0.09260   144.85127     9.73209
   277  H   1.0    0.05    1.04    1.43     1.12817   146.92808     7.28111
   278  H   1.0    0.06    1.05    1.44     4.70353   148.18097    10.00043
   279  H   1.0    0.06    1.03    1.43     3.72087   145.84338    12.22842
   280  N   5.0   -0.13    3.67    2.23     0.30047   149.45654    14.93261
   281  C   4.0    0.04    4.58    4.64    -0.38550   148.98410    17.56500
   282  C   4.0    0.16    3.58    3.15    -2.85349   150.28046    18.15649
   283  O   6.0   -0.32    1.30    1.80    -4.52589   149.22977    19.40749
   284  C   4.0   -0.03    4.28    4.17     1.62138   149.84582    19.47930
   285  C   4.0   -0.06    4.20    4.00     4.09126   150.47699    18.15649
   286  C   4.0   -0.07    4.19    3.98     0.69731   152.07759    21.07989
   287  H   1.0    0.11    1.11    1.45     1.80280   150.62250    14.61514
   288  H   1.0    0.05    1.07    1.44    -0.54046   146.93753    17.74075
   289  H   1.0    0.04    1.06    1.44     1.97098   148.28113    20.77376
   290  H   1.0    0.05    1.00    1.43     5.47076   151.07981    19.56244
   291  H   1.0    0.06    1.00    1.43     4.77534   148.79891    17.17572
   292  H   1.0    0.08    1.06    1.44     3.75866   151.99444    16.80344
   293  H   1.0    0.05    1.00    1.43     2.18263   152.61427    22.40270
   294  H   1.0    0.05    1.01    1.43     0.25889   153.65929    19.83456
   295  H   1.0    0.05    1.01    1.43    -0.99211   151.50878    22.11357
   296  N   5.0   -0.14    3.67    2.24    -3.03490   152.58214    17.18517
   297  C   4.0    0.04    4.59    4.66    -5.11927   154.26589    17.68217
   298  C   4.0    0.16    3.65    3.20    -7.57591   153.06969    16.96407
   299  O   6.0   -0.32    1.33    1.80    -9.46375   153.38339    18.25475
   300  C   4.0   -0.02    4.36    4.31    -4.77345   156.67907    16.21007
   301  C   4.0   -0.07    4.23    4.06    -6.80679   156.94174    14.19373
   302  C   4.0   -0.07    4.12    3.84    -4.66762   158.89005    18.02232
   303  H   1.0    0.12    1.13    1.45    -1.71776   153.35315    16.00787
   304  H   1.0    0.05    1.08    1.44    -5.14005   154.66840    19.70228
   305  H   1.0    0.05    1.08    1.44    -2.98577   156.65450    15.18773
   306  H   1.0    0.03    1.00    1.43    -6.50633   158.70107    13.16383
   307  H   1.0    0.05    1.02    1.43    -6.68207   155.34114    12.90305
   308  H   1.0    0.05    1.02    1.43    -8.65494   156.96820    15.10458
   309  H   1.0    0.04    1.00    1.43    -4.41629   160.62860    16.94517
   310  H   1.0    0.06    1.00    1.43    -6.43074   158.97131    19.08623
   311  H   1.0    0.05    1.00    1.43    -3.08214   158.62738    19.30922
   312  N   5.0   -0.14    3.74    2.32    -7.51733   151.66563    14.90994
   313  C   4.0    0.04    4.65    4.72    -9.68485   150.30124    14.12192
   314  C   4.0    0.16    3.58    3.16   -10.43696   148.33593    16.06645
   315  O   6.0   -0.34    1.46    1.80   -12.66494   148.06570    16.66549
   316  C   4.0   -0.02    4.40    4.38    -9.17273   149.06536    11.68607
   317  C   4.0   -0.07    4.13    3.86   -11.66339   148.47010    10.34814
   318  C   4.0   -0.07    4.26    4.12    -7.53623   150.78879    10.13460
   319  H   1.0    0.09    1.14    1.45    -5.98098   151.45209    13.76665
   320  H   1.0    0.05    1.07    1.44   -11.23442   151.64295    13.91972
   321  H   1.0    0.06    1.07    1.44    -8.18251   147.27957    11.95441
   322  H   1.0    0.05    1.00    1.43   -11.25521   147.55547     8.54723
   323  H   1.0    0.05    1.00    1.43   -12.78022   147.21343    11.53867
   324  H   1.0    0.04    1.00    1.43   -12.68951   150.22754    10.02689
   325  H   1.0    0.04    1.00    1.43    -7.14505   149.89117     8.32235
   326  H   1.0    0.04    1.00    1.43    -8.53022   152.56891     9.83602
   327  H   1.0    0.06    1.05    1.44    -5.77311   151.12894    11.14560
   328  N   5.0   -0.12    3.59    2.15    -8.64172   146.97722    17.11903
   329  C   4.0    0.05    4.63    4.70    -9.43351   145.34827    19.11269
   330  C   4.0    0.16    3.61    3.17   -10.48987   146.77690    21.28398
   331  O   6.0   -0.29    1.37    1.80   -12.40794   146.02857    22.35357
   332  C   4.0   -0.03    4.40    4.38    -7.36048   143.60783    19.90826
   333  C   4.0    0.14    3.28    3.05    -7.04301   141.55937    18.06578
   334  O   6.0   -0.28    1.22    1.80    -6.79356   142.09794    15.77543
   335  N   5.0   -0.19    3.16    1.95    -7.19230   139.15942    18.95962
   336  H   1.0    0.12    1.07    1.44    -6.77089   146.97533    16.65604
   337  H   1.0    0.06    1.10    1.44   -10.94529   144.15396    18.38325
   338  H   1.0    0.06    1.04    1.43    -5.59170   144.65663    20.03487
   339  H   1.0    0.05    1.05    1.44    -7.82158   142.78013    21.73752
   340  H   1.0    0.10    1.02    1.43    -6.98443   137.66843    17.75587
   341  H   1.0    0.09    1.02    1.43    -7.51166   138.84761    20.83423
   342  N   5.0   -0.13    3.57    2.13    -9.28989   148.89907    21.86980
   343  C   4.0    0.04    4.44    4.45   -10.23854   150.56392    23.82755
   344  C   4.0    0.18    3.54    3.13   -13.10336   150.57903    23.64614
   345  O   6.0   -0.27    1.23    1.80   -14.43184   150.45998    25.55665
   346  C   4.0   -0.04    4.30    4.20    -9.14438   153.22654    23.54032
   347  C   4.0   -0.03    4.21    4.01    -6.35515   153.40417    24.22629
   348  C   4.0    0.24    3.13    3.03    -5.64461   155.97609    25.25052
   349  O   6.0   -0.31    1.19    1.80    -5.63516   157.80346    23.74819
   350  O   6.0   -0.29    1.21    1.80    -5.10793   156.15372    27.56165
   351  H   1.0    0.11    1.10    1.44    -7.66851   149.50756    21.02509
   352  H   1.0    0.06    1.06    1.44    -9.66595   149.91574    25.69649
   353  H   1.0    0.08    1.09    1.44    -9.35036   153.81991    21.57878
   354  H   1.0    0.06    1.04    1.43   -10.17995   154.50777    24.77620
   355  H   1.0    0.05    1.03    1.43    -5.92618   152.00011    25.67004
   356  H   1.0    0.05    1.04    1.43    -5.22320   153.05079    22.54254
   357  N   5.0   -0.12    3.61    2.17   -14.02177   150.62250    21.31044
   358  C   4.0    0.04    4.47    4.50   -16.69195   150.45053    20.81722
   359  C   4.0    0.16    3.50    3.11   -17.50831   147.72744    20.82667
   360  O   6.0   -0.30    1.44    1.80   -18.95017   146.99044    22.48585
   361  C   4.0   -0.05    4.29    4.17   -17.35713   151.76011    18.34546
   362  C   4.0   -0.04    4.19    3.98   -17.00375   154.62116    18.54766
   363  C   4.0   -0.01    4.19    3.97   -19.48874   156.11404    18.78766
   364  N   5.0   -0.14    3.40    2.02   -20.03676   157.41417    16.40660
   365  C   4.0    0.08    3.33    3.06   -22.33467   157.88282    15.49764
   366  N   5.0   -0.17    3.24    1.97   -24.39447   157.17229    16.77132
   367  N   5.0   -0.13    3.59    2.15   -22.55199   159.05445    13.28855
   368  H   1.0    0.11    1.09    1.44   -12.94273   150.77745    19.72118
   369  H   1.0    0.07    1.07    1.44   -17.73319   151.44264    22.29310
   370  H   1.0    0.05    1.03    1.43   -16.13070   151.05713    16.84880
   371  H   1.0    0.04    1.03    1.43   -19.32623   151.37839    17.87870
   372  H   1.0    0.05    1.04    1.43   -15.86803   155.02934    20.21629
   373  H   1.0    0.04    1.03    1.43   -16.03621   155.28823    16.85636
   374  H   1.0    0.05    1.03    1.43   -21.03832   154.82336    19.20906
   375  H   1.0    0.05    1.02    1.43   -19.31489   157.51811    20.28432
   376  H   1.0    0.07    1.06    1.44   -18.53254   158.00944    15.35780
   377  H   1.0    0.09    1.03    1.43   -24.21684   156.25955    18.46073
   378  H   1.0    0.09    1.02    1.43   -26.14625   157.54267    16.05511
   379  H   1.0    0.11    1.14    1.45   -20.97218   159.57980    12.31723
   380  H   1.0    0.10    1.09    1.44   -24.29810   159.42862    12.56290
   381  N   5.0   -0.14    3.49    2.07   -16.54455   146.22510    19.04844
   382  C   4.0    0.03    4.37    4.34   -17.30422   143.56437    18.79710
   383  C   4.0    0.17    3.51    3.12   -18.43617   142.48912    21.24619
   384  O   6.0   -0.31    1.29    1.80   -20.42605   141.28347    21.21973
   385  C   4.0   -0.04    4.24    4.08   -15.10836   141.89574    17.90137
   386  C   4.0   -0.05    4.12    3.85   -14.15972   142.33227    15.17261
   387  C   4.0   -0.01    4.17    3.94   -15.78299   141.08505    13.09580
   388  N   5.0   -0.14    3.37    2.01   -16.24408   138.36573    13.42083
   389  C   4.0    0.10    3.33    3.06   -15.78299   136.58939    11.68607
   390  N   5.0   -0.16    3.27    1.97   -14.81734   137.18466     9.44674
   391  N   5.0   -0.17    3.27    1.97   -16.30267   134.18944    12.18684
   392  H   1.0    0.12    1.16    1.45   -15.23497   146.78635    17.75020
   393  H   1.0    0.04    1.06    1.44   -18.77632   143.50579    17.35713
   394  H   1.0    0.05    1.04    1.43   -13.50776   142.22077    19.15615
   395  H   1.0    0.05    1.04    1.43   -15.70929   139.93043    18.02232
   396  H   1.0    0.05    1.03    1.43   -14.13704   144.35805    14.80411
   397  H   1.0    0.06    1.03    1.43   -12.25487   141.56504    15.01009
   398  H   1.0    0.04    1.02    1.43   -17.61980   142.01857    13.05801
   399  H   1.0    0.06    1.05    1.44   -14.82868   141.33260    11.28733
   400  H   1.0    0.08    1.06    1.44   -16.97541   137.78748    15.10836
   401  H   1.0    0.11    1.06    1.44   -14.41483   139.02336     9.02911
   402  H   1.0    0.09    1.03    1.43   -14.47719   135.80327     8.14661
   403  H   1.0    0.12    1.06    1.44   -17.05289   133.70189    13.89327
   404  H   1.0    0.09    1.03    1.43   -15.95118   132.83073    10.86403
   405  N   5.0   -0.12    3.56    2.12   -17.17572   142.95588    23.36079
   406  C   4.0    0.04    4.46    4.47   -18.20940   142.21322    25.78720
   407  C   4.0    0.17    3.47    3.10   -20.70951   143.54169    26.34089
   408  O   6.0   -0.31    1.42    1.80   -22.70128   142.37195    26.12735
   409  C   4.0   -0.04    4.29    4.18   -16.26676   142.58738    27.87724
   410  C   4.0   -0.03    4.21    4.02   -14.68128   140.22711    28.29109
   411  C   4.0    0.25    3.13    3.03   -11.87126   140.74301    28.49140
   412  O   6.0   -0.27    1.18    1.80   -11.04923   141.98834    30.31498
   413  O   6.0   -0.27    1.20    1.80   -10.46530   139.84917    26.83600
   414  H   1.0    0.11    1.08    1.44   -15.46174   143.83271    23.44961
   415  H   1.0    0.05    1.07    1.44   -18.64593   140.20066    25.74185
   416  H   1.0    0.07    1.04    1.43   -15.00442   144.13318    27.36323
   417  H   1.0    0.05    1.03    1.43   -17.23997   143.02958    29.63846
   418  H   1.0    0.05    1.03    1.43   -15.28032   139.32571    30.04286
   419  H   1.0    0.05    1.04    1.43   -14.97230   138.94588    26.70372
   420  N   5.0   -0.13    3.50    2.08   -20.60557   145.97944    26.95505
   421  C   4.0    0.03    4.42    4.41   -22.85813   147.48177    27.52008
   422  C   4.0    0.17    3.51    3.12   -25.13147   146.59171    26.02909
   423  O   6.0   -0.31    1.29    1.80   -27.15347   146.22510    27.09678
   424  C   4.0   -0.04    4.28    4.16   -22.41215   150.28424    26.97584
   425  C   4.0   -0.03    4.18    3.97   -20.25975   151.46153    28.48951
   426  C   4.0    0.25    3.11    3.02   -19.47741   154.08258    27.53520
   427  O   6.0   -0.29    1.17    1.80   -21.15170   155.73798    27.29520
   428  O   6.0   -0.27    1.17    1.80   -17.18706   154.50021    27.06843
   429  H   1.0    0.09    1.07    1.44   -18.96718   146.98666    27.07977
   430  H   1.0    0.05    1.06    1.44   -23.25875   147.25123    29.52697
   431  H   1.0    0.06    1.03    1.43   -21.96051   150.50155    24.97840
   432  H   1.0    0.06    1.03    1.43   -24.13180   151.32358    27.42748
   433  H   1.0    0.05    1.03    1.43   -20.85502   151.65618    30.45104
   434  H   1.0    0.06    1.04    1.43   -18.61191   150.22943    28.37235
   435  N   5.0   -0.12    3.51    2.09   -24.79131   146.21188    23.57055
   436  C   4.0    0.04    4.41    4.40   -26.85301   145.38040    21.93972
   437  C   4.0    0.16    3.51    3.12   -27.59000   142.66297    22.52931
   438  O   6.0   -0.29    1.30    1.80   -29.68948   142.16408    23.42882
   439  C   4.0   -0.04    4.28    4.16   -26.10467   145.61094    19.15426
   440  C   4.0   -0.04    4.15    3.90   -28.20605   146.57848    17.39115
   441  C   4.0    0.24    3.10    3.02   -27.88858   149.37339    16.65982
   442  O   6.0   -0.30    1.16    1.80   -27.96039   149.95920    14.35625
   443  O   6.0   -0.29    1.17    1.80   -27.70905   150.98154    18.38136
   444  H   1.0    0.10    1.07    1.44   -23.11513   146.46321    22.65214
   445  H   1.0    0.06    1.06    1.44   -28.48762   146.58793    22.27609
   446  H   1.0    0.05    1.04    1.43   -24.52486   146.92430    19.01064
   447  H   1.0    0.04    1.04    1.43   -25.53776   143.75145    18.47585
   448  H   1.0    0.05    1.03    1.43   -28.18904   145.46543    15.65827
   449  H   1.0    0.05    1.03    1.43   -30.02208   146.37439    18.34168
   450  N   5.0   -0.14    3.55    2.11   -25.84578   140.91686    22.05499
   451  C   4.0    0.05    4.44    4.44   -26.28231   138.28637    22.63325
   452  C   4.0    0.17    3.51    3.12   -27.51819   138.01613    25.22028
   453  O   6.0   -0.28    1.24    1.80   -28.95816   136.25869    25.67571
   454  C   4.0    0.04    4.20    3.99   -23.81811   136.85584    22.58034
   455  O   6.0   -0.24    2.05    1.83   -24.29810   134.30282    22.02476
   456  H   1.0    0.11    1.09    1.44   -24.12235   141.27969    21.27265
   457  H   1.0    0.06    1.06    1.44   -27.54276   137.47567    21.21973
   458  H   1.0    0.06    1.03    1.43   -22.59545   137.65331    21.12714
   459  H   1.0    0.05    1.02    1.43   -22.90726   136.99568    24.42282
   460  H   1.0    0.12    1.01    1.43   -22.70884   133.35418    21.98129
   461  N   5.0   -0.12    3.57    2.13   -26.97206   139.80571    26.88891
   462  C   4.0    0.04    4.36    4.31   -28.27030   139.99846    29.29642
   463  C   4.0    0.16    3.45    3.10   -31.10300   140.33861    28.95060
   464  O   6.0   -0.29    1.29    1.80   -32.51462   138.48101    28.96950
   465  C   4.0   -0.07    4.15    3.90   -27.18371   142.15086    30.87434
   466  H   1.0    0.12    1.15    1.45   -25.62657   141.16064    26.62246
   467  H   1.0    0.05    1.06    1.44   -27.97928   138.23912    30.32632
   468  H   1.0    0.05    1.00    1.43   -28.19471   142.24534    32.66580
   469  H   1.0    0.05    1.00    1.43   -25.18438   141.78992    31.21449
   470  H   1.0    0.08    1.04    1.43   -27.41236   143.91964    29.84444
   471  N   5.0   -0.14    3.47    2.06   -31.91558   142.69888    28.58022
   472  C   4.0    0.03    4.36    4.31   -34.60088   143.34516    28.75218
   473  C   4.0    0.16    3.46    3.10   -36.34510   141.50457    27.39914
   474  O   6.0   -0.32    1.32    1.80   -38.38411   140.94332    28.36857
   475  C   4.0   -0.07    4.12    3.84   -35.06953   146.00590    27.85834
   476  H   1.0    0.10    1.07    1.44   -30.77419   144.19365    28.16070
   477  H   1.0    0.05    1.07    1.44   -35.08654   143.23556    30.75151
   478  H   1.0    0.04    1.00    1.43   -37.08209   146.41975    28.01141
   479  H   1.0    0.05    1.00    1.43   -33.99239   147.30792    29.03564
   480  H   1.0    0.05    1.00    1.43   -34.46671   146.17030    25.89491
   481  N   5.0   -0.13    3.48    2.06   -35.52118   140.55404    25.21083
   482  C   4.0    0.03    4.36    4.30   -36.94792   138.66620    23.77275
   483  C   4.0    0.16    3.50    3.11   -37.62822   136.44199    25.45461
   484  O   6.0   -0.30    1.32    1.80   -39.84487   136.05460    26.09334
   485  C   4.0   -0.07    4.15    3.91   -35.43803   137.76291    21.54288
   486  H   1.0    0.10    1.07    1.44   -33.85822   141.05670    24.37558
   487  H   1.0    0.05    1.06    1.44   -38.68458   139.52414    23.06977
   488  H   1.0    0.04    1.00    1.43   -36.53974   136.36262    20.50920
   489  H   1.0    0.04    1.00    1.43   -35.01851   139.36729    20.32211
   490  H   1.0    0.06    1.01    1.43   -33.68437   136.91820    22.21751
   491  N   5.0   -0.13    3.50    2.08   -35.69881   135.00202    26.18971
   492  C   4.0    0.04    4.38    4.34   -36.04085   132.91010    27.94527
   493  C   4.0    0.17    3.52    3.13   -37.88145   133.64142    30.00507
   494  O   6.0   -0.28    1.24    1.80   -39.85621   132.46790    30.25073
   495  C   4.0   -0.07    4.14    3.88   -33.54453   132.15232    29.08666
   496  H   1.0    0.10    1.06    1.44   -33.87901   135.24013    25.60201
   497  H   1.0    0.05    1.06    1.44   -36.77218   131.28304    26.91537
   498  H   1.0    0.04    1.00    1.43   -33.85066   130.58762    30.39057
   499  H   1.0    0.05    1.00    1.43   -32.26707   131.57028    27.57866
   500  H   1.0    0.06    1.00    1.43   -32.75273   133.76425    30.09578
   501  N   5.0   -0.14    3.51    2.08   -37.25217   135.63697    31.40536
   502  C   4.0    0.04    4.44    4.44   -38.77151   136.44388    33.52752
   503  C   4.0    0.16    3.45    3.10   -41.42657   137.19788    32.73950
   504  O   6.0   -0.30    1.24    1.80   -43.18024   137.05993    34.26262
   505  C   4.0   -0.04    4.27    4.15   -37.49972   138.56604    35.00528
   506  C   4.0   -0.03    4.18    3.96   -38.26884   138.54526    37.80397
   507  C   4.0    0.24    3.10    3.02   -37.40713   140.86395    39.30630
   508  O   6.0   -0.29    1.18    1.80   -35.81976   142.36250    38.36333
   509  O   6.0   -0.29    1.17    1.80   -38.32931   141.17765    41.46437
   510  H   1.0    0.10    1.07    1.44   -35.69314   136.72923    31.10489
   511  H   1.0    0.05    1.07    1.44   -38.92835   134.85462    34.82954
   512  H   1.0    0.05    1.03    1.43   -35.45504   138.33739    34.89568
   513  H   1.0    0.06    1.03    1.43   -38.04963   140.37829    34.19837
   514  H   1.0    0.06    1.03    1.43   -40.32297   138.46022    37.91924
   515  H   1.0    0.04    1.03    1.43   -37.44303   136.88419    38.69970
   516  N   5.0   -0.12    3.53    2.10   -41.75349   137.94621    30.36790
   517  C   4.0    0.05    4.48    4.51   -44.29896   138.48290    29.47784
   518  C   4.0    0.09    3.27    3.05   -45.61987   136.14531    28.47817
   519  O   6.0   -0.30    1.12    1.80   -47.77038   135.63508    29.19249
   520  C   4.0   -0.02    4.30    4.19   -44.39722   140.61451    27.56543
   521  C   4.0   -0.08    4.15    3.90   -46.95591   140.64663    26.20105
   522  C   4.0   -0.07    4.13    3.87   -43.95692   143.09194    28.91848
   523  H   1.0    0.13    1.13    1.45   -40.34943   138.18810    29.06965
   524  H   1.0    0.06    1.09    1.44   -45.32130   139.14808    31.13701
   525  H   1.0    0.06    1.06    1.44   -42.93457   140.34239    26.14058
   526  H   1.0    0.03    1.00    1.43   -46.97292   142.19432    24.84234
   527  H   1.0    0.05    1.01    1.43   -47.21858   138.85139    25.22406
   528  H   1.0    0.04    1.00    1.43   -48.45257   140.91497    27.59000
   529  H   1.0    0.03    1.00    1.43   -44.02495   144.62640    27.54654
   530  H   1.0    0.04    1.00    1.43   -45.42712   143.35083    30.33766
   531  H   1.0    0.06    1.00    1.43   -42.10687   143.04281    29.82365
   532  N   5.0   -0.22    3.23    1.96    12.41859   144.78822    32.78989
   533  C   4.0    0.02    4.33    4.25    10.23947   143.32312    33.55712
   534  C   4.0    0.14    3.54    3.13     8.15728   143.57170    31.61449
   535  O   6.0   -0.32    1.42    1.80     7.30482   141.68324    30.58836
   536  C   4.0   -0.06    4.39    4.36     9.26318   144.20972    36.10636
   537  C   4.0   -0.03    4.22    4.05     6.40615   144.52598    36.49187
   538  C   4.0   -0.08    4.06    3.72     4.78891   142.06877    36.24998
   539  C   4.0   -0.09    4.11    3.82     6.04392   145.76942    39.04111
   540  H   1.0    0.07    1.03    1.43    12.89707   146.22925    33.97664
   541  H   1.0    0.03    1.06    1.44    10.81198   141.35166    33.73287
   542  H   1.0    0.03    1.03    1.43     9.89161   142.84533    37.51610
   543  H   1.0    0.03    1.05    1.44    10.10769   146.05041    36.48242
   544  H   1.0    0.04    1.09    1.44     5.67554   145.68316    34.95174
   545  H   1.0    0.04    1.00    1.43     2.80708   142.53653    36.55990
   546  H   1.0    0.05    1.01    1.43     5.03740   141.28596    34.36215
   547  H   1.0    0.03    1.00    1.43     5.42017   140.70928    37.66350
   548  H   1.0    0.03    1.00    1.43     4.02904   146.02497    39.38126
   549  H   1.0    0.03    1.00    1.43     6.85516   144.55914    40.49809
   550  H   1.0    0.03    1.00    1.43     6.99269   147.59792    39.03733
   551  N   5.0   -0.15    3.54    2.11     7.33186   145.91393    31.16662
   552  C   4.0    0.03    4.32    4.24     5.41938   146.47913    29.29579
   553  C   4.0    0.10    3.37    3.07     5.77442   144.62232    27.15284
   554  O   6.0   -0.31    1.16    1.80     4.01314   143.34803    26.34971
   555  C   4.0   -0.04    4.34    4.27     5.82937   149.12056    28.25077
   556  C   4.0   -0.04    4.16    3.91     5.17497   151.33569    29.94775
   557  C   4.0    0.24    3.11    3.02     5.70240   153.87441    28.60415
   558  O   6.0   -0.30    1.19    1.80     6.83648   153.83935    26.50845
   559  O   6.0   -0.31    1.17    1.80     5.00714   155.91673    29.62460
   560  H   1.0    0.07    1.06    1.44     7.97426   147.47635    32.09637
   561  H   1.0    0.05    1.05    1.44     3.53060   146.36729    30.11026
   562  H   1.0    0.05    1.04    1.43     7.82419   149.30646    27.77456
   563  H   1.0    0.05    1.04    1.43     4.67841   149.31156    26.55380
   564  H   1.0    0.04    1.03    1.43     3.17477   151.25763    30.43530
   565  H   1.0    0.04    1.03    1.43     6.32055   151.25253    31.65795
   566  N   5.0   -0.18    3.32    1.99     9.15368   139.04253    27.08859
   567  C   4.0    0.03    4.50    4.53     8.45745   136.49870    27.71220
   568  C   4.0    0.15    3.58    3.15     5.67612   136.28466    27.49677
   569  O   6.0   -0.31    1.30    1.80     4.68412   134.90662    25.94342
   570  C   4.0   -0.05    4.49    4.52     9.08386   135.89047    30.39750
   571  C   4.0   -0.03    4.25    4.10     8.90654   133.02087    30.64884
   572  C   4.0   -0.09    4.14    3.89    10.90878   131.82124    28.94997
   573  C   4.0   -0.09    4.06    3.74     9.22480   132.11704    33.41350
   574  H   1.0    0.09    1.03    1.43    10.41666   139.89971    28.26778
   575  H   1.0    0.04    1.09    1.44     9.48379   135.21879    26.46687
   576  H   1.0    0.03    1.03    1.43    10.99552   136.51060    30.84915
   577  H   1.0    0.04    1.05    1.44     7.73374   136.78343    31.67118
   578  H   1.0    0.04    1.06    1.44     7.02774   132.41231    30.06491
   579  H   1.0    0.03    1.00    1.43    10.79254   129.77174    29.12005
   580  H   1.0    0.04    1.01    1.43    10.55830   132.38581    26.99977
   581  H   1.0    0.03    1.00    1.43    12.76971   132.47066    29.54524
   582  H   1.0    0.03    1.00    1.43     9.08205   130.06321    33.46831
   583  H   1.0    0.03    1.00    1.43    11.07306   132.71050    34.10514
   584  H   1.0    0.03    1.00    1.43     7.74108   132.95621    34.56813
   585  N   5.0   -0.14    3.58    2.14     4.44000   137.72278    29.11249
   586  C   4.0    0.04    4.42    4.41     1.71896   137.83615    29.23154
   587  C   4.0    0.17    3.54    3.13     0.38217   137.51255    26.68419
   588  O   6.0   -0.28    1.30    1.80    -1.47805   136.12736    26.48955
   589  C   4.0   -0.04    4.25    4.10     0.90478   140.28099    30.57325
   590  C   4.0   -0.03    4.17    3.93    -1.96316   140.72575    30.72820
   591  C   4.0    0.25    3.12    3.03    -3.48317   138.36514    31.47465
   592  O   6.0   -0.25    1.17    1.80    -5.22892   137.63176    30.03845
   593  O   6.0   -0.30    1.17    1.80    -2.91416   137.23798    33.47776
   594  H   1.0    0.10    1.12    1.45     5.30110   138.86654    30.40317
   595  H   1.0    0.06    1.07    1.44     1.08145   136.21417    30.33136
   596  H   1.0    0.04    1.03    1.43     1.62227   140.23115    32.50266
   597  H   1.0    0.07    1.04    1.43     1.72031   141.87874    29.56035
   598  H   1.0    0.05    1.03    1.43    -2.33219   142.18040    32.13983
   599  H   1.0    0.06    1.03    1.43    -2.63710   141.34615    28.88383
   600  N   5.0   -0.13    3.52    2.09     1.28837   138.73064    24.71132
   601  C   4.0    0.04    4.53    4.58    -0.05580   138.32621    22.36995
   602  C   4.0    0.10    3.31    3.06     0.39033   135.65963    21.44209
   603  O   6.0   -0.31    1.21    1.80    -1.39674   134.28021    20.86950
   604  C   4.0   -0.03    4.32    4.23     0.55630   140.24434    20.31203
   605  C   4.0   -0.07    4.16    3.92     0.36714   142.87602    21.33816
   606  C   4.0   -0.07    4.17    3.95     3.12865   139.74113    19.22733
   607  H   1.0    0.10    1.07    1.44     2.81436   139.90730    24.67541
   608  H   1.0    0.06    1.08    1.44    -2.04902   138.60416    22.80647
   609  H   1.0    0.05    1.06    1.44    -0.81242   140.06573    18.78325
   610  H   1.0    0.04    1.00    1.43     0.81236   144.21407    19.83771
   611  H   1.0    0.05    1.00    1.43    -1.55159   143.19607    22.01657
   612  H   1.0    0.06    1.02    1.43     1.70578   143.08945    22.88962
   613  H   1.0    0.05    1.00    1.43     3.52301   141.13472    17.76279
   614  H   1.0    0.05    1.00    1.43     4.53003   139.88560    20.72966
   615  H   1.0    0.05    1.01    1.43     3.15631   137.84640    18.42042
   616  N   5.0   -0.18    3.28    1.98     1.35947   130.53521    24.25211
   617  C   4.0    0.03    4.48    4.51    -0.57850   129.16654    25.52768
   618  C   4.0    0.15    3.54    3.13    -3.04967   129.28185    24.08015
   619  O   6.0   -0.34    1.55    1.80    -3.64764   127.48648    22.80269
   620  C   4.0   -0.02    4.36    4.31    -0.87497   130.12325    28.16007
   621  C   4.0   -0.08    4.14    3.89    -3.06708   128.79439    29.48476
   622  C   4.0   -0.08    4.15    3.90     1.61261   129.74535    29.56980
   623  H   1.0    0.10    1.06    1.44     2.64404   131.39956    25.39918
   624  H   1.0    0.04    1.07    1.44    -0.04168   127.17860    25.58815
   625  H   1.0    0.07    1.07    1.44    -1.32496   132.13307    28.14495
   626  H   1.0    0.04    1.00    1.43    -3.23796   129.53021    31.40095
   627  H   1.0    0.04    1.02    1.43    -4.80209   129.15675    28.43597
   628  H   1.0    0.03    1.00    1.43    -2.68911   126.76942    29.53957
   629  H   1.0    0.04    1.00    1.43     1.40382   130.44196    31.49732
   630  H   1.0    0.03    1.00    1.43     2.07035   127.73760    29.59437
   631  H   1.0    0.05    1.01    1.43     3.09864   130.79233    28.60037
   632  N   5.0   -0.13    3.49    2.07    -4.48234   131.32441    24.17463
   633  C   4.0    0.05    4.58    4.64    -6.87128   131.27223    22.79135
   634  C   4.0    0.16    3.61    3.17    -6.75135   130.09668    20.21188
   635  O   6.0   -0.31    1.39    1.80    -8.40756   128.62643    19.47489
   636  C   4.0   -0.03    4.42    4.41    -7.98810   133.86561    22.51357
   637  C   4.0    0.16    3.29    3.05    -9.86856   134.35778    24.47321
   638  O   6.0   -0.30    1.29    1.80    -9.60098   133.44175    26.61238
   639  N   5.0   -0.17    3.21    1.96   -11.83215   135.76421    23.80803
   640  H   1.0    0.11    1.06    1.44    -4.07663   132.94930    25.12895
   641  H   1.0    0.05    1.11    1.45    -8.08841   130.07872    23.94787
   642  H   1.0    0.06    1.04    1.43    -6.49390   135.27447    22.67608
   643  H   1.0    0.05    1.05    1.44    -8.90670   134.02065    20.67675
   644  H   1.0    0.10    1.03    1.43   -13.20716   136.17185    25.09682
   645  H   1.0    0.08    1.03    1.43   -11.96861   136.43870    22.00712
   646  N   5.0   -0.14    3.60    2.16    -4.77178   130.80417    18.84750
   647  C   4.0    0.04    4.47    4.49    -4.29383   129.81032    16.36440
   648  C   4.0    0.16    3.52    3.12    -4.77332   126.98426    16.34928
   649  O   6.0   -0.30    1.24    1.80    -5.69987   125.93502    14.50680
   650  C   4.0   -0.04    4.32    4.23    -1.60465   130.43543    15.56882
   651  C   4.0   -0.03    4.22    4.04    -1.29820   133.14319    14.77514
   652  C   4.0    0.25    3.14    3.03     0.01979   133.35109    12.24101
   653  O   6.0   -0.28    1.18    1.80     2.37293   133.46976    12.23913
   654  O   6.0   -0.27    1.17    1.80    -1.27747   133.37562    10.24924
   655  H   1.0    0.11    1.13    1.45    -3.45465   132.08396    19.43520
   656  H   1.0    0.06    1.06    1.44    -5.55550   130.66749    14.98112
   657  H   1.0    0.05    1.03    1.43    -0.33860   130.08852    17.15619
   658  H   1.0    0.06    1.04    1.43    -1.08118   129.24074    13.97578
   659  H   1.0    0.06    1.04    1.43    -3.15468   134.02083    14.61451
   660  H   1.0    0.06    1.03    1.43    -0.16820   134.14043    16.17731
   661  N   5.0   -0.13    3.68    2.25    -4.20163   125.77482    18.45443
   662  C   4.0    0.04    4.49    4.53    -4.79998   123.15485    18.75679
   663  C   4.0    0.15    3.63    3.19    -7.46796   122.86881    19.71677
   664  O   6.0   -0.29    1.42    1.80    -8.99542   121.62536    18.51679
   665  C   4.0   -0.05    4.33    4.25    -2.94343   121.92586    20.55581
   666  C   4.0   -0.05    4.19    3.99    -0.20559   122.37449    19.86228
   667  C   4.0   -0.02    4.18    3.96     0.79788   120.64300    17.77224
   668  N   5.0   -0.15    3.38    2.01     0.16079   117.95594    18.09728
   669  C   4.0    0.08    3.32    3.06     1.57830   116.19706    19.23867
   670  N   5.0   -0.20    3.23    1.96     3.80920   116.76163    20.27424
   671  N   5.0   -0.20    3.22    1.96     0.73727   113.82194    19.35016
   672  H   1.0    0.12    1.20    1.46    -3.32471   126.57559    19.97188
   673  H   1.0    0.06    1.07    1.44    -4.63245   122.19403    16.94265
   674  H   1.0    0.05    1.04    1.43    -3.24733   122.68829    22.44553
   675  H   1.0    0.04    1.04    1.43    -3.26868   119.89230    20.55581
   676  H   1.0    0.04    1.04    1.43    -0.00168   124.31881    19.21032
   677  H   1.0    0.04    1.03    1.43     0.95610   122.06601    21.53469
   678  H   1.0    0.04    1.03    1.43     0.00414   121.25620    15.97322
   679  H   1.0    0.03    1.03    1.43     2.85230   120.79231    17.72311
   680  H   1.0    0.07    1.06    1.44    -1.53178   117.37514    17.38107
   681  H   1.0    0.07    1.03    1.43     4.47145   118.57007    20.20810
   682  H   1.0    0.07    1.02    1.43     4.84917   115.38438    21.13218
   683  H   1.0    0.07    1.02    1.43    -0.96646   113.36543    18.57160
   684  H   1.0    0.07    1.02    1.43     1.79701   112.46383    20.21377
   685  N   5.0   -0.14    3.62    2.17    -8.03582   124.04331    21.85405
   686  C   4.0    0.04    4.44    4.44   -10.54025   123.90070    22.96332
   687  C   4.0    0.17    3.59    3.16   -12.41942   124.10408    20.84494
   688  O   6.0   -0.27    1.25    1.80   -14.61654   123.43928    21.12462
   689  C   4.0   -0.04    4.27    4.15   -11.03313   126.07057    24.81714
   690  C   4.0   -0.05    4.19    3.99    -8.86409   126.74722    26.61616
   691  C   4.0   -0.00    4.23    4.06    -9.57536   128.72023    28.63061
   692  N   5.0   -0.15    3.38    2.01   -10.37634   127.54831    31.00599
   693  C   4.0    0.09    3.34    3.06   -12.62622   127.88062    32.11904
   694  N   5.0   -0.18    3.24    1.97   -14.37495   129.42486    31.14394
   695  N   5.0   -0.19    3.24    1.97   -13.11980   126.68179    34.27144
   696  H   1.0    0.10    1.09    1.44    -6.79393   125.11342    22.86694
   697  H   1.0    0.05    1.05    1.44   -10.72742   122.13655    24.01212
   698  H   1.0    0.06    1.04    1.43   -11.46157   127.76246    23.72299
   699  H   1.0    0.05    1.03    1.43   -12.65038   125.55976    25.98499
   700  H   1.0    0.04    1.03    1.43    -8.26133   125.03979    27.59882
   701  H   1.0    0.05    1.05    1.44    -7.30335   127.51541    25.51256
   702  H   1.0    0.05    1.05    1.44    -7.93869   129.90718    29.02178
   703  H   1.0    0.06    1.05    1.44   -11.13082   129.87358    27.92763
   704  H   1.0    0.07    1.06    1.44    -9.11791   126.38316    31.88661
   705  H   1.0    0.09    1.03    1.43   -14.01089   130.38426    29.51311
   706  H   1.0    0.08    1.02    1.43   -16.07218   129.64103    32.03211
   707  H   1.0    0.07    1.02    1.43   -11.79312   125.52524    35.05568
   708  H   1.0    0.07    1.03    1.43   -14.82514   126.91791    35.13693
   709  N   5.0   -0.11    3.78    2.39   -11.55360   125.04437    18.70199
   710  C   4.0    0.06    4.52    4.56   -13.18184   125.22507    16.54959
   711  C   4.0    0.11    3.26    3.04   -13.50926   122.70398    15.23245
   712  O   6.0   -0.25    1.12    1.80   -15.49194   121.50732    15.41575
   713  C   4.0   -0.04    4.33    4.26   -12.18752   127.17783    14.70900
   714  C   4.0   -0.04    4.24    4.07   -14.30905   128.22377    13.17643
   715  C   4.0    0.24    3.24    3.04   -16.72859   128.35291    14.73167
   716  O   6.0   -0.27    1.25    1.80   -17.86956   126.31244    15.27025
   717  O   6.0   -0.29    1.22    1.80   -17.46108   130.50838    15.45733
   718  H   1.0    0.12    1.19    1.46    -9.75764   125.68330    18.41853
   719  H   1.0    0.09    1.16    1.46   -15.02921   125.83124    17.22800
   720  H   1.0    0.06    1.04    1.43   -11.29745   128.71946    15.74646
   721  H   1.0    0.06    1.03    1.43   -10.82115   126.30168    13.43910
   722  H   1.0    0.05    1.04    1.43   -13.83154   130.12797    12.55093
   723  H   1.0    0.05    1.03    1.43   -14.64354   127.00946    11.54749
   724  N   5.0   -0.22    3.22    1.96   -12.59932   131.00013    45.54492
   725  C   4.0    0.03    4.24    4.08   -14.38246   131.70756    43.55881
   726  C   4.0    0.07    3.28    3.05   -16.91054   131.79287    44.78525
   727  O   6.0   -0.30    1.12    1.80   -18.21926   133.70814    44.77202
   728  C   4.0   -0.06    4.29    4.18   -14.49672   129.73228    41.46500
   729  C   4.0   -0.06    4.18    3.95   -12.27304   129.68288    39.66976
   730  C   4.0   -0.01    4.19    3.98   -12.29003   131.81368    37.70066
   731  N   5.0   -0.14    3.38    2.01   -10.14346   131.55392    35.94511
   732  C   4.0    0.10    3.33    3.06    -9.75354   132.99882    33.90987
   733  N   5.0   -0.17    3.23    1.96   -11.36814   134.86186    33.30894
   734  N   5.0   -0.17    3.25    1.97    -7.73957   132.56431    32.46045
   735  H   1.0    0.07    1.02    1.43   -11.33687   129.62986    45.05359
   736  H   1.0    0.04    1.05    1.44   -13.80251   133.48474    42.69521
   737  H   1.0    0.03    1.03    1.43   -14.61360   127.87114    42.33994
   738  H   1.0    0.04    1.04    1.43   -16.18336   130.08738    40.33683
   739  H   1.0    0.03    1.03    1.43   -10.53696   129.85820    40.76391
   740  H   1.0    0.04    1.04    1.43   -12.28663   127.89228    38.65119
   741  H   1.0    0.04    1.02    1.43   -14.03848   131.73159    36.61407
   742  H   1.0    0.04    1.02    1.43   -12.13851   133.63372    38.65497
   743  H   1.0    0.07    1.06    1.44    -8.85702   130.16477    36.31171
   744  H   1.0    0.08    1.03    1.43   -12.91425   135.18899    34.41065
   745  H   1.0    0.11    1.02    1.43   -11.04741   135.95041    31.74992
   746  H   1.0    0.08    1.03    1.43    -6.51720   131.14253    32.91021
   747  H   1.0    0.12    1.03    1.43    -7.42142   133.65355    30.90143
   748  H   1.0    0.08    1.07    1.44     5.85162   166.74525    17.56114
   749  H   1.0    0.05    1.05    1.44    -0.23539   172.44789    21.27259
   750  H   1.0    0.08    1.08    1.44    -1.29108   171.69283    15.96650
   751  H   1.0    0.05    1.05    1.44   -10.84473   172.60956    15.86971
   752  H   1.0    0.09    1.07    1.44   -11.44551   169.03213    12.57215
   753  H   1.0    0.06    1.05    1.44   -20.23179   169.08413    13.90876
   754  H   1.0    0.08    1.08    1.44   -21.38951   167.99573     8.70866
   755  H   1.0    0.05    1.05    1.44   -23.57266   151.81452     5.22913
   756  H   1.0    0.09    1.07    1.44   -17.19065   156.92464     1.11975
   757  H   1.0    0.06    1.04    1.44   -15.33750   148.73415    -1.07122
   758  H   1.0    0.09    1.07    1.44     8.33346   150.26171     7.29884
   759  H   1.0    0.07    1.04    1.44   -44.74155   135.02076    27.23922
   760  H   1.0    0.08    1.07    1.44    13.77890   143.77235    32.68932
   761  H   1.0    0.06    1.05    1.44     7.47544   144.41188    26.35703
   762  H   1.0    0.09    1.08    1.44     9.86378   139.07423    25.54350
   763  H   1.0    0.06    1.05    1.44     2.15275   134.99567    21.28685
   764  H   1.0    0.09    1.08    1.44     2.23863   129.47640    23.25283
   765  H   1.0    0.06    1.05    1.44   -12.10040   121.98994    14.19500
   766  H   1.0    0.09    1.07    1.44   -11.68777   132.36167    46.00079
   767  H   1.0    0.04    1.05    1.44   -17.59121   130.25926    45.65462

  Z AO/shell   Hii/eV     exponent
  1     Wed Apr 25 08:07:45 CEST 2018   EN: 2.200 GM2: 0.406  GM3: 0.0800  RAES: 1.40
     1s    -10.707211    1.230000
  6     Wed Apr 25 08:07:45 CEST 2018   EN: 2.550 GM2: 0.538  GM3: 0.1500  RAES: 3.00
     2s    -13.970922    2.096432
     2p    -10.063292    1.800000
  7     Wed Apr 25 08:07:45 CEST 2018   EN: 3.040 GM2: 0.461  GM3:-0.0640  RAES: 1.90
     2s    -16.686243    2.339881
     2p    -12.523956    2.014332
  8     Wed Apr 25 08:07:45 CEST 2018   EN: 3.440 GM2: 0.452  GM3:-0.0517  RAES: 1.80
     2s    -20.229985    2.439742
     2p    -15.503117    2.137023
 no old-style atom pair restraining (fixing) potential

molecular fragmentation (1/2 indicates fragments):
111111111111111111111111111111111111111111122222222222222222222222222222
222222222222222222222222222222222222222222222222222222222222222222222222
222222222222222222222222222222222222222222222222222222222222222222222222
222222222222222222222222222222222222222222222222222222222222222222222222
222222222222222222222222222222222222222222222222222222222222222222222222
222222222222222222222222222222222222222222222222222222222222222222222222
222222222222222222222222222222222222222222222222222222222222222222222222
222222222222222222222222222222222222222222222222222222222222222222222222
222222222222222222222222222222222222222222222222222222222222222222222222
222222222222222222222222222222222222222222222222222222222222222222222222
22222222222222222222222222211222222222222222222
# atoms in fragment 1/2:    45   722
 fragment masses (1/2) :      272.37     4988.66
CMA distance (Bohr)    :  28.212
constraining FC (au)   :  0.0500
           ------------------------------------------------- 
          |        Self-Consistent Charge Iterations        |
           ------------------------------------------------- 

 Ncao       : 1871
 Nao        : 1871
 Nshell     : 1135
 Nel        : 2094
 T(el)      :   500.0
 intcut     :    35.0
 scfconv/Eh :  0.100E-06
   qconv/e  :  0.100E-04
 intneglect :  0.100E-08
 broydamp   :      0.400
 iter      E             dE          RMSdq      gap      omega  full diag
   1  -1202.2870221 -0.120229E+04  0.472E+00    2.91       0.0  T
   2  -1205.5135609 -0.322654E+01  0.217E+00    1.68       1.0  T
   3  -1205.7323676 -0.218807E+00  0.124E+00    1.73       1.0  T
   4  -1205.9252050 -0.192837E+00  0.275E-01    1.07       1.0  T
   5  -1205.9370909 -0.118859E-01  0.146E-01    1.21       1.0  T
   6  -1205.9391866 -0.209567E-02  0.605E-02    1.04       1.0  T
   7  -1205.9398818 -0.695193E-03  0.263E-02    0.98       1.0  T
   8  -1205.9399563 -0.745055E-04  0.117E-02    0.92       1.0  T
   9  -1205.9399796 -0.232841E-04  0.549E-03    0.91       1.0  T
  10  -1205.9399837 -0.415656E-05  0.228E-03    0.90       1.6  T
  11  -1205.9399848 -0.110725E-05  0.103E-03    0.90       3.5  T
  12  -1205.9399850 -0.167269E-06  0.455E-04    0.89       7.9  T
  13  -1205.9399850 -0.276846E-07  0.214E-04    0.89      16.9  T
  14  -1205.9399850 -0.791579E-08  0.730E-05    0.89      49.5  T
  15  -1205.9399850 -0.719865E-09  0.337E-05    0.89     107.1  T
speedup  0.85
cpu  time for SCC    1 m 50.9 s
wall time for SCC    2 m 10.9 s

   *** convergence criteria satisfied after 15 iterations ***

          eigenvalues
 #    :        1035       1036       1037       1038       1039       1040       1041       1042
 occ. :        2.000      2.000      2.000      2.000      2.000      2.000      2.000      2.000
 eps  :        -9.913     -9.877     -9.810     -9.809     -9.806     -9.773     -9.767     -9.672
 #    :        1043       1044       1045       1046       1047       1048       1049       1050
 occ. :        2.000      2.000      2.000      2.000      2.000      0.000      0.000      0.000
 eps  :        -9.663     -9.618     -9.616     -9.563     -9.450     -8.557     -8.139     -7.879
 #    :        1051       1052       1053       1054       1055       1056       1057       1058
 occ. :        0.000      0.000      0.000      0.000      0.000      0.000      0.000      0.000
 eps  :        -7.803     -7.561     -7.535     -7.516     -7.441     -7.371     -7.265     -7.106


   #   Z            q   n(s)   n(p)   n(d)      C6AA      α(0)
   1   7 N     -0.390  1.319  4.071  0.000    30.087     8.146
   2   6 C      0.014  1.060  2.927  0.000    20.351     6.424
   3   6 C      0.258  1.042  2.699  0.000    22.649     7.793
   4   8 O     -0.476  1.755  4.720  0.000    23.249     6.465
   5   6 C     -0.038  1.066  2.972  0.000    21.222     6.552
   6   6 C     -0.076  1.059  3.017  0.000    21.949     6.670
   7   6 C     -0.116  1.039  3.077  0.000    22.775     6.804
   8   6 C     -0.120  1.041  3.079  0.000    22.861     6.819
   9   1 H      0.179  0.821  0.000  0.000     1.219     1.730
  10   1 H      0.034  0.966  0.000  0.000     2.536     2.490
  11   1 H      0.027  0.973  0.000  0.000     2.625     2.534
  12   1 H      0.057  0.943  0.000  0.000     2.231     2.336
  13   1 H      0.068  0.932  0.000  0.000     2.102     2.267
  14   1 H      0.036  0.964  0.000  0.000     2.504     2.475
  15   1 H      0.017  0.983  0.000  0.000     2.772     2.604
  16   1 H      0.058  0.942  0.000  0.000     2.221     2.331
  17   1 H      0.063  0.937  0.000  0.000     2.160     2.298
  18   1 H      0.042  0.958  0.000  0.000     2.421     2.433
  19   1 H      0.027  0.973  0.000  0.000     2.630     2.536
  20   7 N     -0.167  1.243  3.924  0.000    24.609     7.368
  21   6 C      0.017  1.056  2.928  0.000    20.299     6.415
  22   6 C      0.208  1.080  2.712  0.000    23.591     7.955
  23   8 O     -0.375  1.753  4.621  0.000    21.179     6.170
  24   6 C     -0.088  1.054  3.034  0.000    22.176     6.703
  25   6 C     -0.089  1.053  3.036  0.000    22.204     6.709
  26   6 C     -0.032  1.056  2.976  0.000    21.228     6.574
  27   7 N     -0.144  1.211  3.933  0.000    24.115     7.293
  28   6 C      0.230  1.018  2.751  0.000    23.161     7.879
  29   7 N     -0.249  1.232  4.016  0.000    26.481     7.643
  30   7 N     -0.257  1.238  4.019  0.000    26.679     7.671
  31   1 H      0.227  0.773  0.000  0.000     0.976     1.548
  32   1 H      0.087  0.913  0.000  0.000     1.913     2.163
  33   1 H      0.087  0.913  0.000  0.000     1.905     2.158
  34   1 H      0.083  0.917  0.000  0.000     1.948     2.183
  35   1 H      0.074  0.926  0.000  0.000     2.042     2.235
  36   1 H      0.075  0.925  0.000  0.000     2.030     2.228
  37   1 H      0.094  0.906  0.000  0.000     1.841     2.122
  38   1 H      0.090  0.910  0.000  0.000     1.880     2.144
  39   1 H      0.228  0.772  0.000  0.000     0.973     1.545
  40   1 H      0.250  0.750  0.000  0.000     0.881     1.471
  41   1 H      0.251  0.749  0.000  0.000     0.880     1.470
  42   1 H      0.245  0.755  0.000  0.000     0.904     1.489
  43   1 H      0.253  0.747  0.000  0.000     0.874     1.464
  44   7 N     -0.388  1.315  4.073  0.000    30.038     8.140
  45   6 C      0.034  1.049  2.917  0.000    20.016     6.372
  46   6 C      0.273  1.048  2.679  0.000    22.387     7.748
  47   8 O     -0.507  1.751  4.755  0.000    23.933     6.559
  48   6 C     -0.086  1.066  3.020  0.000    22.125     6.696
  49   6 C     -0.019  1.060  2.960  0.000    20.887     6.501
  50   6 C     -0.111  1.045  3.066  0.000    22.691     6.793
  51   6 C     -0.121  1.047  3.074  0.000    22.872     6.819
  52   1 H      0.184  0.816  0.000  0.000     1.193     1.711
  53   1 H      0.044  0.956  0.000  0.000     2.394     2.420
  54   1 H      0.061  0.939  0.000  0.000     2.193     2.316
  55   1 H      0.037  0.963  0.000  0.000     2.496     2.470
  56   1 H      0.008  0.992  0.000  0.000     2.917     2.671
  57   1 H      0.032  0.968  0.000  0.000     2.554     2.499
  58   1 H      0.027  0.973  0.000  0.000     2.631     2.536
  59   1 H      0.046  0.954  0.000  0.000     2.369     2.407
  60   1 H      0.034  0.966  0.000  0.000     2.527     2.486
  61   1 H      0.058  0.942  0.000  0.000     2.223     2.332
  62   1 H      0.043  0.957  0.000  0.000     2.405     2.425
  63   7 N     -0.188  1.250  3.938  0.000    25.083     7.438
  64   6 C      0.016  1.057  2.926  0.000    20.304     6.416
  65   6 C      0.288  1.030  2.682  0.000    22.127     7.703
  66   8 O     -0.497  1.741  4.756  0.000    23.712     6.529
  67   6 C     -0.081  1.050  3.031  0.000    22.034     6.681
  68   6 C     -0.086  1.043  3.044  0.000    22.137     6.697
  69   6 C     -0.016  1.053  2.964  0.000    20.940     6.528
  70   7 N     -0.133  1.204  3.929  0.000    23.884     7.258
  71   6 C      0.246  1.015  2.739  0.000    22.867     7.829
  72   7 N     -0.234  1.228  4.007  0.000    26.138     7.593
  73   7 N     -0.233  1.228  4.005  0.000    26.102     7.588
  74   1 H      0.226  0.774  0.000  0.000     0.981     1.552
  75   1 H      0.053  0.947  0.000  0.000     2.280     2.361
  76   1 H      0.083  0.917  0.000  0.000     1.952     2.185
  77   1 H      0.062  0.938  0.000  0.000     2.180     2.309
  78   1 H      0.071  0.929  0.000  0.000     2.069     2.250
  79   1 H      0.069  0.931  0.000  0.000     2.097     2.265
  80   1 H      0.097  0.903  0.000  0.000     1.812     2.105
  81   1 H      0.076  0.924  0.000  0.000     2.021     2.223
  82   1 H      0.206  0.794  0.000  0.000     1.075     1.624
  83   1 H      0.249  0.751  0.000  0.000     0.886     1.474
  84   1 H      0.234  0.766  0.000  0.000     0.947     1.524
  85   1 H      0.219  0.781  0.000  0.000     1.015     1.579
  86   1 H      0.227  0.773  0.000  0.000     0.980     1.550
  87   7 N     -0.158  1.237  3.921  0.000    24.413     7.338
  88   6 C      0.026  1.051  2.923  0.000    20.151     6.393
  89   6 C      0.198  1.082  2.719  0.000    23.773     7.985
  90   8 O     -0.347  1.752  4.596  0.000    20.658     6.094
  91   6 C     -0.144  1.049  3.096  0.000    23.340     6.888
  92   1 H      0.225  0.775  0.000  0.000     0.985     1.555
  93   1 H      0.087  0.913  0.000  0.000     1.913     2.163
  94   1 H      0.075  0.925  0.000  0.000     2.029     2.228
  95   1 H      0.093  0.907  0.000  0.000     1.854     2.129
  96   1 H      0.071  0.929  0.000  0.000     2.079     2.255
  97   7 N     -0.396  1.329  4.067  0.000    30.256     8.169
  98   6 C      0.042  1.044  2.914  0.000    19.879     6.349
  99   6 C      0.268  1.044  2.689  0.000    22.479     7.765
 100   8 O     -0.511  1.747  4.764  0.000    24.031     6.573
 101   6 C     -0.123  1.044  3.078  0.000    22.899     6.822
 102   1 H      0.184  0.816  0.000  0.000     1.193     1.711
 103   1 H      0.026  0.974  0.000  0.000     2.643     2.542
 104   1 H      0.022  0.978  0.000  0.000     2.698     2.569
 105   1 H      0.033  0.967  0.000  0.000     2.538     2.491
 106   1 H      0.073  0.927  0.000  0.000     2.057     2.243
 107   7 N     -0.162  1.241  3.921  0.000    24.506     7.352
 108   6 C      0.019  1.057  2.924  0.000    20.264     6.410
 109   6 C      0.215  1.079  2.706  0.000    23.459     7.932
 110   8 O     -0.377  1.752  4.624  0.000    21.220     6.176
 111   6 C     -0.089  1.058  3.031  0.000    22.189     6.705
 112   6 C     -0.091  1.053  3.039  0.000    22.239     6.714
 113   6 C     -0.030  1.055  2.975  0.000    21.177     6.566
 114   7 N     -0.144  1.216  3.928  0.000    24.108     7.292
 115   6 C      0.231  1.021  2.748  0.000    23.149     7.877
 116   7 N     -0.241  1.230  4.011  0.000    26.294     7.616
 117   7 N     -0.258  1.239  4.019  0.000    26.700     7.674
 118   1 H      0.244  0.756  0.000  0.000     0.908     1.493
 119   1 H      0.083  0.917  0.000  0.000     1.944     2.181
 120   1 H      0.092  0.908  0.000  0.000     1.863     2.134
 121   1 H      0.081  0.919  0.000  0.000     1.968     2.194
 122   1 H      0.079  0.921  0.000  0.000     1.987     2.204
 123   1 H      0.099  0.901  0.000  0.000     1.792     2.093
 124   1 H      0.090  0.910  0.000  0.000     1.875     2.141
 125   1 H      0.070  0.930  0.000  0.000     2.090     2.261
 126   1 H      0.249  0.751  0.000  0.000     0.889     1.477
 127   1 H      0.231  0.769  0.000  0.000     0.962     1.536
 128   1 H      0.225  0.775  0.000  0.000     0.987     1.557
 129   1 H      0.265  0.735  0.000  0.000     0.828     1.426
 130   1 H      0.245  0.755  0.000  0.000     0.904     1.490
 131   7 N     -0.392  1.321  4.071  0.000    30.152     8.155
 132   6 C      0.022  1.054  2.924  0.000    20.219     6.404
 133   6 C      0.271  1.043  2.686  0.000    22.420     7.754
 134   8 O     -0.487  1.754  4.734  0.000    23.400     6.491
 135   6 C      0.067  1.044  2.889  0.000    19.656     6.349
 136   8 O     -0.498  1.731  4.767  0.000    22.853     6.453
 137   1 H      0.183  0.817  0.000  0.000     1.195     1.713
 138   1 H      0.057  0.943  0.000  0.000     2.233     2.337
 139   1 H      0.037  0.963  0.000  0.000     2.483     2.464
 140   1 H      0.042  0.958  0.000  0.000     2.421     2.433
 141   1 H      0.351  0.649  0.000  0.000     0.587     1.204
 142   7 N     -0.162  1.232  3.930  0.000    24.496     7.351
 143   6 C      0.006  1.056  2.938  0.000    20.461     6.438
 144   6 C      0.275  1.030  2.695  0.000    22.346     7.744
 145   8 O     -0.461  1.745  4.716  0.000    22.928     6.420
 146   6 C      0.117  1.040  2.843  0.000    18.724     6.170
 147   8 O     -0.475  1.722  4.754  0.000    22.372     6.385
 148   6 C     -0.140  1.047  3.092  0.000    23.248     6.875
 149   1 H      0.231  0.769  0.000  0.000     0.961     1.536
 150   1 H      0.066  0.934  0.000  0.000     2.130     2.282
 151   1 H      0.032  0.968  0.000  0.000     2.562     2.503
 152   1 H      0.335  0.665  0.000  0.000     0.625     1.242
 153   1 H      0.075  0.925  0.000  0.000     2.027     2.227
 154   1 H      0.061  0.939  0.000  0.000     2.187     2.313
 155   1 H      0.077  0.923  0.000  0.000     2.011     2.218
 156   7 N     -0.171  1.242  3.929  0.000    24.698     7.381
 157   6 C      0.023  1.055  2.922  0.000    20.193     6.398
 158   6 C      0.207  1.076  2.717  0.000    23.600     7.957
 159   8 O     -0.343  1.743  4.599  0.000    20.568     6.080
 160   6 C     -0.088  1.064  3.024  0.000    22.159     6.700
 161   6 C     -0.014  1.059  2.955  0.000    20.786     6.485
 162   6 C     -0.115  1.046  3.069  0.000    22.760     6.804
 163   6 C     -0.112  1.043  3.069  0.000    22.704     6.795
 164   1 H      0.214  0.786  0.000  0.000     1.038     1.596
 165   1 H      0.078  0.922  0.000  0.000     2.005     2.214
 166   1 H      0.070  0.930  0.000  0.000     2.089     2.260
 167   1 H      0.070  0.930  0.000  0.000     2.085     2.258
 168   1 H      0.027  0.973  0.000  0.000     2.632     2.537
 169   1 H      0.029  0.971  0.000  0.000     2.596     2.520
 170   1 H      0.049  0.951  0.000  0.000     2.327     2.386
 171   1 H      0.032  0.968  0.000  0.000     2.556     2.500
 172   1 H      0.035  0.965  0.000  0.000     2.511     2.478
 173   1 H      0.041  0.959  0.000  0.000     2.436     2.441
 174   1 H      0.046  0.954  0.000  0.000     2.370     2.408
 175   7 N     -0.390  1.326  4.064  0.000    30.094     8.147
 176   6 C      0.037  1.050  2.913  0.000    19.959     6.362
 177   6 C      0.280  1.041  2.679  0.000    22.260     7.727
 178   8 O     -0.516  1.756  4.760  0.000    24.135     6.587
 179   6 C     -0.077  1.058  3.019  0.000    21.961     6.671
 180   6 C     -0.014  1.051  2.963  0.000    20.784     6.484
 181   6 C     -0.119  1.044  3.075  0.000    22.841     6.814
 182   6 C     -0.118  1.042  3.076  0.000    22.807     6.808
 183   1 H      0.188  0.812  0.000  0.000     1.169     1.694
 184   1 H      0.037  0.963  0.000  0.000     2.488     2.467
 185   1 H      0.025  0.975  0.000  0.000     2.657     2.549
 186   1 H      0.041  0.959  0.000  0.000     2.438     2.442
 187   1 H      0.038  0.962  0.000  0.000     2.475     2.460
 188   1 H      0.058  0.942  0.000  0.000     2.221     2.330
 189   1 H      0.027  0.973  0.000  0.000     2.635     2.538
 190   1 H      0.048  0.952  0.000  0.000     2.339     2.392
 191   1 H      0.052  0.948  0.000  0.000     2.293     2.368
 192   1 H      0.045  0.955  0.000  0.000     2.381     2.413
 193   1 H      0.044  0.956  0.000  0.000     2.400     2.422
 194   7 N     -0.177  1.247  3.929  0.000    24.828     7.400
 195   6 C      0.035  1.053  2.912  0.000    19.991     6.367
 196   6 C      0.215  1.082  2.704  0.000    23.461     7.933
 197   8 O     -0.389  1.763  4.626  0.000    21.465     6.212
 198   6 C     -0.058  1.056  3.002  0.000    21.617     6.619
 199   6 C     -0.094  1.066  3.028  0.000    22.296     6.724
 200   6 C      0.351  1.038  2.611  0.000    21.033     7.505
 201   8 O     -0.632  1.784  4.849  0.000    26.924     6.957
 202   8 O     -0.646  1.785  4.861  0.000    27.278     7.002
 203   1 H      0.233  0.767  0.000  0.000     0.954     1.530
 204   1 H      0.060  0.940  0.000  0.000     2.194     2.316
 205   1 H      0.051  0.949  0.000  0.000     2.302     2.373
 206   1 H      0.064  0.936  0.000  0.000     2.151     2.294
 207   1 H      0.041  0.959  0.000  0.000     2.437     2.441
 208   1 H      0.028  0.972  0.000  0.000     2.619     2.531
 209   7 N     -0.384  1.309  4.075  0.000    29.924     8.124
 210   6 C      0.043  1.047  2.910  0.000    19.865     6.347
 211   6 C      0.276  1.039  2.685  0.000    22.326     7.739
 212   8 O     -0.519  1.762  4.758  0.000    24.219     6.598
 213   6 C     -0.060  1.053  3.006  0.000    21.640     6.621
 214   6 C     -0.086  1.061  3.025  0.000    22.135     6.699
 215   6 C      0.365  1.031  2.603  0.000    20.801     7.464
 216   8 O     -0.652  1.777  4.874  0.000    27.420     7.021
[...]
 481   7 N     -0.171  1.245  3.925  0.000    24.694     7.380
 482   6 C      0.025  1.055  2.920  0.000    20.156     6.393
 483   6 C      0.276  1.039  2.685  0.000    22.332     7.739
 484   8 O     -0.491  1.752  4.739  0.000    23.587     6.511
 485   6 C     -0.136  1.045  3.091  0.000    23.164     6.861
 486   1 H      0.212  0.788  0.000  0.000     1.049     1.605
 487   1 H      0.078  0.922  0.000  0.000     2.002     2.213
 488   1 H      0.082  0.918  0.000  0.000     1.959     2.189
 489   1 H      0.073  0.927  0.000  0.000     2.049     2.239
 490   1 H      0.056  0.944  0.000  0.000     2.250     2.346
 491   7 N     -0.167  1.247  3.920  0.000    24.606     7.367
 492   6 C      0.023  1.055  2.921  0.000    20.182     6.396
 493   6 C      0.294  1.032  2.675  0.000    22.021     7.685
 494   8 O     -0.495  1.745  4.750  0.000    23.675     6.524
 495   6 C     -0.136  1.045  3.090  0.000    23.158     6.860
 496   1 H      0.220  0.780  0.000  0.000     1.011     1.575
 497   1 H      0.078  0.922  0.000  0.000     2.003     2.213
 498   1 H      0.073  0.927  0.000  0.000     2.057     2.243
 499   1 H      0.079  0.921  0.000  0.000     1.988     2.205
 500   1 H      0.064  0.936  0.000  0.000     2.149     2.293
 501   7 N     -0.185  1.244  3.941  0.000    25.014     7.428
 502   6 C      0.030  1.057  2.913  0.000    20.076     6.379
 503   6 C      0.283  1.038  2.679  0.000    22.207     7.717
 504   8 O     -0.525  1.748  4.777  0.000    24.342     6.615
 505   6 C     -0.044  1.049  2.995  0.000    21.350     6.578
 506   6 C     -0.090  1.064  3.025  0.000    22.208     6.709
 507   6 C      0.368  1.027  2.605  0.000    20.762     7.457
 508   8 O     -0.657  1.776  4.881  0.000    27.561     7.039
 509   8 O     -0.651  1.769  4.882  0.000    27.405     7.019
 510   1 H      0.202  0.798  0.000  0.000     1.096     1.640
 511   1 H      0.061  0.939  0.000  0.000     2.185     2.311
 512   1 H      0.039  0.961  0.000  0.000     2.459     2.452
 513   1 H      0.028  0.972  0.000  0.000     2.613     2.528
 514   1 H      0.036  0.964  0.000  0.000     2.504     2.474
 515   1 H      0.031  0.969  0.000  0.000     2.571     2.507
 516   7 N     -0.177  1.253  3.924  0.000    24.824     7.400
 517   6 C      0.030  1.055  2.915  0.000    20.062     6.375
 518   6 C      0.214  1.085  2.701  0.000    23.476     7.935
 519   8 O     -0.368  1.746  4.621  0.000    21.047     6.151
 520   6 C     -0.013  1.057  2.956  0.000    20.770     6.482
 521   6 C     -0.122  1.047  3.075  0.000    22.885     6.821
 522   6 C     -0.118  1.044  3.075  0.000    22.817     6.810
 523   1 H      0.236  0.764  0.000  0.000     0.939     1.518
 524   1 H      0.084  0.916  0.000  0.000     1.943     2.180
 525   1 H      0.049  0.951  0.000  0.000     2.338     2.391
 526   1 H      0.068  0.932  0.000  0.000     2.108     2.270
 527   1 H      0.040  0.960  0.000  0.000     2.451     2.448
 528   1 H      0.057  0.943  0.000  0.000     2.240     2.340
 529   1 H      0.061  0.939  0.000  0.000     2.190     2.314
 530   1 H      0.047  0.953  0.000  0.000     2.357     2.401
 531   1 H      0.042  0.958  0.000  0.000     2.429     2.437
 532   7 N     -0.405  1.332  4.073  0.000    30.502     8.202
 533   6 C      0.033  1.050  2.917  0.000    20.035     6.375
 534   6 C      0.278  1.043  2.679  0.000    22.305     7.734
 535   8 O     -0.469  1.752  4.717  0.000    23.109     6.445
 536   6 C     -0.088  1.066  3.022  0.000    22.172     6.702
 537   6 C     -0.025  1.061  2.964  0.000    20.980     6.515
 538   6 C     -0.111  1.045  3.066  0.000    22.686     6.794
 539   6 C     -0.120  1.045  3.075  0.000    22.847     6.814
 540   1 H      0.177  0.823  0.000  0.000     1.233     1.740
 541   1 H      0.047  0.953  0.000  0.000     2.354     2.399
 542   1 H      0.066  0.934  0.000  0.000     2.126     2.280
 543   1 H      0.064  0.936  0.000  0.000     2.153     2.295
 544   1 H      0.019  0.981  0.000  0.000     2.751     2.594
 545   1 H      0.027  0.973  0.000  0.000     2.636     2.539
 546   1 H      0.016  0.984  0.000  0.000     2.795     2.614
 547   1 H      0.050  0.950  0.000  0.000     2.315     2.379
 548   1 H      0.042  0.958  0.000  0.000     2.419     2.432
 549   1 H      0.058  0.942  0.000  0.000     2.220     2.330
 550   1 H      0.053  0.947  0.000  0.000     2.289     2.366
 551   7 N     -0.168  1.242  3.926  0.000    24.637     7.372
 552   6 C      0.034  1.052  2.914  0.000    20.011     6.370
 553   6 C      0.215  1.080  2.705  0.000    23.450     7.931
 554   8 O     -0.409  1.756  4.653  0.000    21.853     6.268
 555   6 C     -0.054  1.045  3.008  0.000    21.524     6.603
 556   6 C     -0.093  1.063  3.030  0.000    22.267     6.719
 557   6 C      0.356  1.032  2.612  0.000    20.951     7.491
 558   8 O     -0.640  1.779  4.861  0.000    27.127     6.983
 559   8 O     -0.616  1.756  4.860  0.000    26.516     6.904
 560   1 H      0.224  0.776  0.000  0.000     0.991     1.559
 561   1 H      0.057  0.943  0.000  0.000     2.240     2.341
 562   1 H      0.064  0.936  0.000  0.000     2.152     2.294
 563   1 H      0.028  0.972  0.000  0.000     2.616     2.529
 564   1 H      0.023  0.977  0.000  0.000     2.681     2.561
 565   1 H      0.045  0.955  0.000  0.000     2.381     2.413
 566   7 N     -0.396  1.323  4.072  0.000    30.247     8.168
 567   6 C      0.041  1.043  2.916  0.000    19.877     6.345
 568   6 C      0.287  1.032  2.681  0.000    22.142     7.708
 569   8 O     -0.528  1.746  4.783  0.000    24.423     6.626
 570   6 C     -0.076  1.058  3.017  0.000    21.918     6.661
 571   6 C     -0.015  1.059  2.956  0.000    20.796     6.485
 572   6 C     -0.121  1.047  3.074  0.000    22.868     6.818
 573   6 C     -0.123  1.049  3.073  0.000    22.915     6.827
 574   1 H      0.167  0.833  0.000  0.000     1.293     1.782
 575   1 H      0.035  0.965  0.000  0.000     2.521     2.483
 576   1 H      0.051  0.949  0.000  0.000     2.311     2.377
 577   1 H      0.043  0.957  0.000  0.000     2.410     2.428
 578   1 H      0.012  0.988  0.000  0.000     2.860     2.645
 579   1 H      0.057  0.943  0.000  0.000     2.237     2.339
 580   1 H      0.030  0.970  0.000  0.000     2.589     2.516
 581   1 H      0.052  0.948  0.000  0.000     2.293     2.368
 582   1 H      0.059  0.941  0.000  0.000     2.215     2.327
 583   1 H      0.053  0.947  0.000  0.000     2.282     2.363
 584   1 H      0.040  0.960  0.000  0.000     2.454     2.450
 585   7 N     -0.190  1.252  3.939  0.000    25.128     7.445
 586   6 C      0.041  1.051  2.908  0.000    19.889     6.350
 587   6 C      0.295  1.037  2.668  0.000    21.995     7.682
 588   8 O     -0.498  1.746  4.753  0.000    23.742     6.533
 589   6 C     -0.057  1.055  3.002  0.000    21.601     6.617
 590   6 C     -0.077  1.059  3.018  0.000    21.980     6.675
 591   6 C      0.364  1.027  2.609  0.000    20.828     7.469
 592   8 O     -0.641  1.782  4.859  0.000    27.147     6.985
 593   8 O     -0.628  1.750  4.878  0.000    26.807     6.942
 594   1 H      0.240  0.760  0.000  0.000     0.922     1.504
 595   1 H      0.057  0.943  0.000  0.000     2.233     2.337
 596   1 H      0.061  0.939  0.000  0.000     2.192     2.315
 597   1 H      0.045  0.955  0.000  0.000     2.386     2.416
 598   1 H      0.018  0.982  0.000  0.000     2.765     2.601
 599   1 H     -0.021  1.021  0.000  0.000     3.440     2.900
 600   7 N     -0.168  1.237  3.931  0.000    24.634     7.371
 601   6 C      0.042  1.047  2.911  0.000    19.849     6.339
 602   6 C      0.213  1.089  2.699  0.000    23.501     7.939
 603   8 O     -0.356  1.731  4.625  0.000    20.828     6.119
 604   6 C     -0.008  1.049  2.959  0.000    20.683     6.468
 605   6 C     -0.109  1.037  3.071  0.000    22.625     6.781
 606   6 C     -0.114  1.038  3.075  0.000    22.719     6.795
 607   1 H      0.215  0.785  0.000  0.000     1.034     1.593
 608   1 H      0.059  0.941  0.000  0.000     2.211     2.325
 609   1 H      0.022  0.978  0.000  0.000     2.697     2.568
 610   1 H      0.038  0.962  0.000  0.000     2.472     2.459
 611   1 H      0.028  0.972  0.000  0.000     2.622     2.532
 612   1 H      0.073  0.927  0.000  0.000     2.050     2.239
 613   1 H      0.040  0.960  0.000  0.000     2.449     2.447
 614   1 H      0.064  0.936  0.000  0.000     2.158     2.297
 615   1 H      0.038  0.962  0.000  0.000     2.472     2.459
 616   7 N     -0.407  1.325  4.083  0.000    30.578     8.213
 617   6 C      0.038  1.048  2.914  0.000    19.929     6.356
 618   6 C      0.272  1.046  2.683  0.000    22.410     7.753
 619   8 O     -0.476  1.708  4.768  0.000    23.249     6.465
 620   6 C     -0.027  1.053  2.974  0.000    21.018     6.520
 621   6 C     -0.148  1.053  3.095  0.000    23.408     6.898
 622   6 C     -0.113  1.043  3.070  0.000    22.704     6.793
 623   1 H      0.168  0.832  0.000  0.000     1.286     1.776
 624   1 H      0.051  0.949  0.000  0.000     2.306     2.375
 625   1 H      0.027  0.973  0.000  0.000     2.628     2.535
 626   1 H      0.061  0.939  0.000  0.000     2.190     2.314
 627   1 H      0.043  0.957  0.000  0.000     2.404     2.424
 628   1 H      0.083  0.917  0.000  0.000     1.948     2.183
 629   1 H      0.047  0.953  0.000  0.000     2.355     2.400
 630   1 H      0.068  0.932  0.000  0.000     2.110     2.271
 631   1 H      0.025  0.975  0.000  0.000     2.652     2.547
 632   7 N     -0.164  1.248  3.917  0.000    24.552     7.359
 633   6 C      0.021  1.050  2.928  0.000    20.195     6.395
 634   6 C      0.281  1.032  2.687  0.000    22.250     7.725
 635   8 O     -0.496  1.745  4.751  0.000    23.700     6.527
 636   6 C     -0.095  1.047  3.048  0.000    22.284     6.717
 637   6 C      0.284  1.028  2.688  0.000    22.188     7.713
 638   8 O     -0.473  1.723  4.750  0.000    23.198     6.458
 639   7 N     -0.257  1.259  3.998  0.000    26.666     7.669
 640   1 H      0.213  0.787  0.000  0.000     1.043     1.600
 641   1 H      0.113  0.887  0.000  0.000     1.670     2.021
 642   1 H      0.074  0.926  0.000  0.000     2.043     2.235
 643   1 H      0.050  0.950  0.000  0.000     2.320     2.382
 644   1 H      0.223  0.777  0.000  0.000     0.997     1.564
 645   1 H      0.197  0.803  0.000  0.000     1.121     1.659
 646   7 N     -0.199  1.250  3.948  0.000    25.315     7.473
 647   6 C      0.029  1.054  2.916  0.000    20.078     6.379
 648   6 C      0.282  1.032  2.686  0.000    22.226     7.721
 649   8 O     -0.519  1.750  4.768  0.000    24.197     6.595
 650   6 C     -0.048  1.046  3.002  0.000    21.432     6.589
 651   6 C     -0.082  1.056  3.025  0.000    22.050     6.685
 652   6 C      0.370  1.023  2.607  0.000    20.727     7.451
 653   8 O     -0.654  1.771  4.883  0.000    27.481     7.028
 654   8 O     -0.666  1.780  4.886  0.000    27.801     7.069
 655   1 H      0.233  0.767  0.000  0.000     0.952     1.529
 656   1 H      0.040  0.960  0.000  0.000     2.452     2.449
 657   1 H      0.058  0.942  0.000  0.000     2.228     2.334
 658   1 H      0.042  0.958  0.000  0.000     2.416     2.431
 659   1 H      0.009  0.991  0.000  0.000     2.908     2.667
 660   1 H      0.012  0.988  0.000  0.000     2.852     2.641
 661   7 N     -0.193  1.248  3.945  0.000    25.184     7.453
 662   6 C      0.016  1.053  2.931  0.000    20.295     6.412
 663   6 C      0.277  1.033  2.689  0.000    22.306     7.735
 664   8 O     -0.505  1.756  4.748  0.000    23.884     6.552
 665   6 C     -0.100  1.056  3.044  0.000    22.400     6.737
 666   6 C     -0.088  1.052  3.035  0.000    22.167     6.703
 667   6 C     -0.026  1.056  2.971  0.000    21.135     6.561
 668   7 N     -0.143  1.211  3.931  0.000    24.089     7.289
 669   6 C      0.230  1.021  2.748  0.000    23.163     7.880
 670   7 N     -0.241  1.230  4.011  0.000    26.299     7.616
 671   7 N     -0.253  1.239  4.014  0.000    26.576     7.656
 672   1 H      0.249  0.751  0.000  0.000     0.888     1.476
 673   1 H      0.080  0.920  0.000  0.000     1.979     2.200
 674   1 H      0.083  0.917  0.000  0.000     1.947     2.182
 675   1 H      0.093  0.907  0.000  0.000     1.852     2.128
 676   1 H      0.047  0.953  0.000  0.000     2.359     2.402
 677   1 H      0.090  0.910  0.000  0.000     1.878     2.143
 678   1 H      0.068  0.932  0.000  0.000     2.107     2.270
 679   1 H      0.091  0.909  0.000  0.000     1.873     2.140
 680   1 H      0.221  0.779  0.000  0.000     1.006     1.572
 681   1 H      0.240  0.760  0.000  0.000     0.924     1.506
 682   1 H      0.267  0.733  0.000  0.000     0.822     1.420
 683   1 H      0.249  0.751  0.000  0.000     0.888     1.476
 684   1 H      0.269  0.731  0.000  0.000     0.813     1.413
 685   7 N     -0.184  1.241  3.942  0.000    24.976     7.422
 686   6 C      0.013  1.063  2.924  0.000    20.351     6.423
 687   6 C      0.293  1.027  2.680  0.000    22.036     7.689
 688   8 O     -0.521  1.752  4.769  0.000    24.251     6.603
 689   6 C     -0.082  1.054  3.028  0.000    22.052     6.685
 690   6 C     -0.100  1.059  3.040  0.000    22.405     6.740
 691   6 C     -0.045  1.064  2.980  0.000    21.462     6.612
 692   7 N     -0.152  1.219  3.933  0.000    24.291     7.320
 693   6 C      0.211  1.026  2.762  0.000    23.525     7.941
 694   7 N     -0.244  1.231  4.013  0.000    26.357     7.625
 695   7 N     -0.239  1.233  4.006  0.000    26.241     7.608
 696   1 H      0.225  0.775  0.000  0.000     0.987     1.556
 697   1 H      0.100  0.900  0.000  0.000     1.787     2.090
 698   1 H      0.032  0.968  0.000  0.000     2.558     2.501
 699   1 H      0.093  0.907  0.000  0.000     1.846     2.124
 700   1 H      0.109  0.891  0.000  0.000     1.703     2.041
 701   1 H      0.052  0.948  0.000  0.000     2.289     2.366
 702   1 H      0.093  0.907  0.000  0.000     1.847     2.125
 703   1 H      0.086  0.914  0.000  0.000     1.921     2.168
 704   1 H      0.256  0.744  0.000  0.000     0.860     1.453
 705   1 H      0.217  0.783  0.000  0.000     1.023     1.584
 706   1 H      0.258  0.742  0.000  0.000     0.854     1.447
 707   1 H      0.269  0.731  0.000  0.000     0.812     1.411
 708   1 H      0.265  0.735  0.000  0.000     0.829     1.427
 709   7 N     -0.174  1.245  3.929  0.000    24.771     7.392
 710   6 C      0.032  1.046  2.922  0.000    20.029     6.370
 711   6 C      0.215  1.085  2.701  0.000    23.464     7.933
 712   8 O     -0.359  1.756  4.603  0.000    20.887     6.127
 713   6 C     -0.056  1.046  3.010  0.000    21.565     6.609
 714   6 C     -0.097  1.059  3.038  0.000    22.338     6.728
 715   6 C      0.360  1.030  2.610  0.000    20.885     7.479
 716   8 O     -0.629  1.789  4.840  0.000    26.836     6.945
 717   8 O     -0.634  1.765  4.868  0.000    26.960     6.961
 718   1 H      0.232  0.768  0.000  0.000     0.956     1.532
 719   1 H      0.099  0.901  0.000  0.000     1.797     2.096
 720   1 H      0.040  0.960  0.000  0.000     2.454     2.450
 721   1 H      0.040  0.960  0.000  0.000     2.446     2.446
 722   1 H      0.032  0.968  0.000  0.000     2.563     2.504
 723   1 H      0.026  0.974  0.000  0.000     2.642     2.542
 724   7 N     -0.391  1.326  4.065  0.000    30.115     8.150
 725   6 C      0.036  1.047  2.916  0.000    19.976     6.366
 726   6 C      0.205  1.085  2.709  0.000    23.639     7.964
 727   8 O     -0.407  1.771  4.635  0.000    21.812     6.262
 728   6 C     -0.088  1.054  3.034  0.000    22.174     6.702
 729   6 C     -0.097  1.055  3.041  0.000    22.343     6.730
 730   6 C     -0.038  1.061  2.977  0.000    21.333     6.592
 731   7 N     -0.150  1.216  3.934  0.000    24.244     7.313
 732   6 C      0.225  1.023  2.752  0.000    23.266     7.897
 733   7 N     -0.233  1.223  4.010  0.000    26.119     7.590
 734   7 N     -0.229  1.233  3.996  0.000    26.015     7.575
 735   1 H      0.185  0.815  0.000  0.000     1.187     1.707
 736   1 H      0.044  0.956  0.000  0.000     2.393     2.419
 737   1 H      0.091  0.909  0.000  0.000     1.866     2.136
 738   1 H      0.061  0.939  0.000  0.000     2.186     2.312
 739   1 H      0.085  0.915  0.000  0.000     1.930     2.173
 740   1 H      0.101  0.899  0.000  0.000     1.778     2.085
 741   1 H      0.085  0.915  0.000  0.000     1.926     2.170
 742   1 H      0.078  0.922  0.000  0.000     1.998     2.210
 743   1 H      0.253  0.747  0.000  0.000     0.872     1.462
 744   1 H      0.250  0.750  0.000  0.000     0.884     1.473
 745   1 H      0.193  0.807  0.000  0.000     1.145     1.676
 746   1 H      0.247  0.753  0.000  0.000     0.895     1.482
 747   1 H      0.220  0.780  0.000  0.000     1.009     1.573
 748   1 H      0.179  0.821  0.000  0.000     1.220     1.730
 749   1 H      0.083  0.917  0.000  0.000     1.950     2.183
 750   1 H      0.181  0.819  0.000  0.000     1.208     1.721
 751   1 H      0.078  0.922  0.000  0.000     1.999     2.211
 752   1 H      0.173  0.827  0.000  0.000     1.257     1.756
 753   1 H      0.073  0.927  0.000  0.000     2.055     2.242
 754   1 H      0.179  0.821  0.000  0.000     1.219     1.730
 755   1 H      0.074  0.926  0.000  0.000     2.042     2.234
 756   1 H      0.179  0.821  0.000  0.000     1.217     1.728
 757   1 H      0.084  0.916  0.000  0.000     1.938     2.177
 758   1 H      0.156  0.844  0.000  0.000     1.358     1.825
 759   1 H      0.071  0.929  0.000  0.000     2.074     2.252
 760   1 H      0.190  0.810  0.000  0.000     1.157     1.685
 761   1 H      0.073  0.927  0.000  0.000     2.052     2.240
 762   1 H      0.164  0.836  0.000  0.000     1.310     1.793
 763   1 H      0.090  0.910  0.000  0.000     1.877     2.142
 764   1 H      0.178  0.822  0.000  0.000     1.223     1.732
 765   1 H      0.069  0.931  0.000  0.000     2.100     2.266
 766   1 H      0.179  0.821  0.000  0.000     1.221     1.731
 767   1 H      0.083  0.917  0.000  0.000     1.951     2.184

 Mol. C6AA /au·bohr⁶  :    5318831.586561
 Mol. C8AA /au·bohr⁸  :  116592310.925198
 Mol. α(0) /au        :       3428.401307

 
molecular dipole:
                 x           y           z       tot (Debye)
 q only:       92.408    -370.836     -29.872
   full:      100.624    -371.822     -32.611     982.597
molecular quadrupole (traceless):
                xx          xy          yy          xz          yz          zz
 q only:    18160.065   19475.709  -40313.337    4168.165   -4497.936   22153.272
  q+dip:    18200.197   21243.899  -40603.527    4500.434   -5089.992   22403.330
   full:    18195.417   21239.967  -40599.249    4507.541   -5089.121   22403.832
speedup  0.88
cpu  time for grad    2 m 15.4 s
wall time for grad    2 m 34.3 s

SCC energy    :   -1205.9692248
rep           :      14.0900178
ES            :       5.4955122
AES           :      -0.2579005
AXC           :       0.3679878
disp          :      -1.0316649
XB            :       0.0000000
fix           :       0.0000000
Gborn         :       0.0000000
Gsasa         :       0.0000000
Ghb           :       0.0000000
Gshift        :       0.0000000
Gsolv         :      -1.9892903    -1248.30
Etot ala COSMO:   -1205.9692248
grad norm     :       0.8020821
total E       :   -1191.7874623
atomizationE  :     213.6312286   134055.62
(atE without considering molecular charge,
 total energy contains solvation terms)
H-L gap (eV)  :          0.8921

------------------------------------------------------------------------
 * finished run on 2019/05/04 at 18:23:26.362     
------------------------------------------------------------------------
 total:
 * wall-time:     0 d,  0 h,  2 min, 40.205 sec
 *  cpu-time:     0 d,  0 h,  2 min, 19.662 sec
 * ratio c/w:     0.872 speedup
 SCF:
 * wall-time:     0 d,  0 h,  2 min, 38.572 sec
 *  cpu-time:     0 d,  0 h,  2 min, 18.802 sec
 * ratio c/w:     0.875 speedup

