      -----------------------------------------------------------      
     |                   =====================                   |     
     |                           x T B                           |     
     |                   =====================                   |     
     |                         S. Grimme                         |     
     |          Mulliken Center for Theoretical Chemistry        |     
     |                    University of Bonn                     |     
     |                 Version 6.0.1 (SAW181210)                 |     
      -----------------------------------------------------------      

   This program is distributed in the hope that it will be useful,
   but WITHOUT ANY WARRANTY; without even the implied warranty of
   MERCHANTABILITY or FITNESS FOR A PARTICULAR PURPOSE.
   
   FOR NON-COMMERCIAL, ACADEMIA USE ONLY.
   
   Cite this work as:
   S. Grimme, C. Bannwarth, P. Shushkov, J. Comput. Theory Chem., 2017,
   13, 1989-2009.
   C. Bannwarth, S. Ehlert and S. Grimme., ChemRxiv, 2018, preprint.
   http://doi.org/10.26434/chemrxiv.7246238.v1
   
   for sTDA-xTB:
   S. Grimme and C. Bannwarth, J. Chem. Phys., 2016, 145, 054103.
   
   in the mass-spec context:
   V. Asgeirsson, C. Bauer and S. Grimme, Chem. Sci., 2017, 8, 4879.
   
   if GBSA is used:
   P. Shushkov, F. März and S. Grimme, unpublished.
   
   for ANC optimizer:
   S. Grimme, unpublished.
   Rational Function algorithm used in ANCopt:
   F. Eckert, P. Pulay, H.-J. Werner, J. Comput. Chem., 1997, 18, 1473.
   
   with help from (in alphabetical order)
   C. Bannwarth, F. Bohle, G. Brandenburg, E. Caldeweyher, M. Checinski,
   S. Dohm, S. Ehlert, S. Ehrlich, F. März, H. Neugebauer, J. Pisarek,
   P. Pracht, P. Shushkov, and S. Spicher.
   
 * started run on 2019/05/04 at 15:54:41.452     
========================================================================
 # omp threads = 2
========================================================================
number of atoms            : 938
number of electrons        : 2514
charge                     : 1
spin                       : .0
first test random number   : .9834

########################################################################
# WARNING! Please study the warnings concerning your input carefully
#  - Process number higher than OMP_NUM_THREADS, I hope you know what you are doing.
########################################################################

           ------------------------------------------------- 
          |                 G F N 2 - x T B                 |
          | Geometry, Frequencies, Noncovalent interactions |
          |            JCTC 2018 parametrisation            |
           ------------------------------------------------- 
 
      method parameters     
 k(s)        :  1.8500
 k(p)        :  2.2300
 k(d)        :  2.2300
 k(f)        :  2.0000
 kEN (H0ij)  : -2.0000
 D4 a1       :  0.5200
 D4 a2       :  5.0000
 D4 s6       :  1.0000
 D4 s8       :  2.7000
 D4 s9       :  5.0000
 alphaj      :  2.0000

 Solvent             : h2o
 Using internal parameter file: .param_gbsa2_h2o
 Gsolv ref. state (COSMO-RS): gsolv [1 M gas/solution]
 temperature (mdtemp)       :    298.150000000000     
 dielectric constant        :    80.2000000000000     
 rho                        :    1.00000000000000     
 mass                       :    18.0000000000000     
 surface tension            :    15.5689454083859     
 probe radius               :   0.975313790000000     
 vdW radii scaling          :    1.00000000000000     
 Gshift (Eh)                :   1.857443126794793E-003
 c1                         :    1.55243817000000     
 soset                      :   0.130326360000000     
 HB correction              :  T

            Z     q(EN)     CN     RAES       Cart. coordinates
     1  N   5.0   -0.20    3.19    1.95    13.26966    51.93156   -15.17450
     2  C   4.0    0.03    4.31    4.22    11.79945    51.25126   -12.94462
     3  C   4.0    0.14    3.44    3.09    12.58557    48.67934   -11.89771
     4  O   6.0   -0.29    1.24    1.80    12.24164    46.72347   -13.12604
     5  C   4.0   -0.04    4.29    4.17     8.97053    51.26260   -13.57579
     6  C   4.0   -0.04    4.21    4.01     7.26789    50.43112   -11.43284
     7  C   4.0   -0.05    4.17    3.94     5.05691    48.82485   -12.36448
     8  C   4.0   -0.04    4.13    3.86     3.20120    48.31840   -10.21397
     9  N   5.0   -0.12    3.99    2.83     1.36249    46.26238   -10.75821
    10  H   1.0    0.10    1.03    1.43    14.30334    50.48592   -15.92094
    11  H   1.0    0.05    1.06    1.44    12.15094    52.64776   -11.47064
    12  H   1.0    0.04    1.03    1.43     8.42251    53.17878   -14.09547
    13  H   1.0    0.05    1.04    1.43     8.64739    49.98325   -15.15749
    14  H   1.0    0.06    1.04    1.43     8.36015    49.30673   -10.09681
    15  H   1.0    0.05    1.03    1.43     6.50066    52.09596   -10.49176
    16  H   1.0    0.05    1.03    1.43     4.06291    49.82262   -13.86681
    17  H   1.0    0.05    1.03    1.43     5.76177    47.02016   -13.06368
    18  H   1.0    0.04    1.03    1.43     4.26511    47.77983    -8.53400
    19  H   1.0    0.04    1.02    1.43     2.12783    50.03805    -9.84736
    20  H   1.0    0.06    1.01    1.43     0.15874    46.01483    -9.22564
    21  H   1.0    0.06    1.01    1.43     0.29291    46.71969   -12.34180
    22  H   1.0    0.06    1.01    1.43     2.31869    44.57864   -11.09836
    23  N   5.0   -0.14    3.42    2.03    13.63059    48.69068    -9.61493
    24  C   4.0    0.04    4.36    4.31    14.29200    46.33230    -8.38093
    25  C   4.0    0.08    3.25    3.04    12.19818    45.24949    -6.74254
    26  O   6.0   -0.30    1.14    1.80    11.27788    46.48348    -4.99644
    27  C   4.0   -0.03    4.34    4.28    16.69384    46.54206    -6.81246
    28  C   4.0   -0.02    3.58    3.15    17.66705    44.02684    -5.95075
    29  C   4.0   -0.04    3.48    3.11    19.54166    42.78529    -7.30379
    30  C   4.0   -0.03    3.49    3.11    16.59746    42.82497    -3.88339
    31  C   4.0   -0.03    3.37    3.07    20.39959    40.43258    -6.56491
    32  C   4.0   -0.03    3.38    3.07    17.44784    40.47226    -3.12939
    33  C   4.0   -0.03    3.37    3.07    19.35835    39.27039    -4.47487
    34  H   1.0    0.10    1.06    1.44    14.03122    50.27805    -8.59825
    35  H   1.0    0.06    1.08    1.44    14.60002    45.00382    -9.92484
    36  H   1.0    0.04    1.04    1.43    18.16027    47.43779    -7.95008
    37  H   1.0    0.05    1.04    1.43    16.30456    47.68157    -5.14005
    38  H   1.0    0.05    1.03    1.43    20.34101    43.67157    -8.95919
    39  H   1.0    0.06    1.03    1.43    15.08757    43.73393    -2.85349
    40  H   1.0    0.06    1.03    1.43    21.88114    39.50472    -7.61938
    41  H   1.0    0.06    1.03    1.43    16.62770    39.56708    -1.49477
    42  H   1.0    0.06    1.03    1.43    20.02543    37.43358    -3.88717
    43  N   5.0   -0.20    3.27    1.97    23.48362    45.13232    -2.71365
    44  C   4.0    0.03    4.36    4.31    22.55766    47.29795    -1.27745
    45  C   4.0    0.15    3.44    3.09    24.14881    49.61853    -1.73288
    46  O   6.0   -0.30    1.24    1.80    23.41559    51.72180    -1.03179
    47  C   4.0   -0.02    4.32    4.23    22.53498    46.69702     1.53446
    48  C   4.0   -0.01    3.70    3.24    20.63392    44.72792     2.16752
    49  C   4.0   -0.00    3.59    3.16    21.09312    42.30907     2.92152
    50  C   4.0    0.00    3.90    3.46    17.94295    44.98115     2.01823
    51  N   5.0   -0.12    3.49    2.07    18.85191    41.04674     3.27867
    52  C   4.0    0.03    3.90    3.47    16.89037    42.64734     2.74766
    53  C   4.0   -0.05    3.41    3.08    16.32345    46.96725     1.36249
    54  C   4.0   -0.05    3.40    3.08    14.29956    42.23349     2.82892
    55  C   4.0   -0.04    3.38    3.07    13.75343    46.56474     1.46832
    56  C   4.0   -0.04    3.39    3.08    12.76132    44.21203     2.19964
    57  H   1.0    0.09    1.03    1.43    22.48207    44.76194    -4.31802
    58  H   1.0    0.04    1.06    1.44    20.64337    47.77794    -1.86705
    59  H   1.0    0.06    1.04    1.43    24.39258    46.00538     2.09571
    60  H   1.0    0.06    1.03    1.43    22.07200    48.40533     2.58892
    61  H   1.0    0.05    1.01    1.43    22.94694    41.50216     3.19742
    62  H   1.0    0.07    1.04    1.43    18.67805    39.21370     3.84748
    63  H   1.0    0.05    1.03    1.43    17.07178    48.77572     0.78613
    64  H   1.0    0.06    1.03    1.43    13.53044    40.42124     3.36749
    65  H   1.0    0.05    1.03    1.43    12.47975    48.08219     0.98077
    66  H   1.0    0.06    1.03    1.43    10.73742    43.96069     2.26578
    67  N   5.0   -0.13    3.53    2.10    26.32766    49.22169    -2.91585
    68  C   4.0    0.04    4.47    4.49    28.11345    51.24181    -3.31269
    69  C   4.0    0.14    3.41    3.08    28.38746    51.86542    -6.09815
    70  O   6.0   -0.29    1.23    1.80    28.47628    50.17033    -7.67985
    71  C   4.0   -0.04    4.31    4.22    30.67025    50.53505    -2.21098
    72  C   4.0   -0.04    4.26    4.13    32.24250    52.81784    -1.61383
    73  C   4.0   -0.04    4.20    4.00    35.01284    52.23769    -1.42485
    74  C   4.0   -0.03    4.16    3.92    36.48683    54.59985    -2.08437
    75  N   5.0   -0.11    4.01    2.89    38.21971    55.41243    -0.00756
    76  H   1.0    0.08    1.09    1.44    26.89080    47.51527    -3.61316
    77  H   1.0    0.08    1.09    1.44    27.41803    52.94445    -2.38483
    78  H   1.0    0.06    1.03    1.43    30.38490    49.47492    -0.46676
    79  H   1.0    0.05    1.04    1.43    31.69826    49.38421    -3.57536
    80  H   1.0    0.05    1.05    1.44    31.98739    54.21624    -3.10482
    81  H   1.0    0.07    1.04    1.43    31.63401    53.59641     0.19275
    82  H   1.0    0.06    1.03    1.43    35.48338    51.66511     0.49700
    83  H   1.0    0.05    1.03    1.43    35.51173    50.74103    -2.74955
    84  H   1.0    0.04    1.02    1.43    37.62633    54.23513    -3.76055
    85  H   1.0    0.04    1.04    1.43    35.16591    56.13620    -2.45097
    86  H   1.0    0.05    1.01    1.43    39.19103    57.03571    -0.53857
    87  H   1.0    0.09    1.05    1.44    37.18603    55.79227     1.61950
    88  H   1.0    0.07    1.01    1.43    39.51984    53.98947     0.37983
    89  N   5.0   -0.14    3.46    2.05    28.62179    54.31072    -6.65184
    90  C   4.0    0.03    4.29    4.17    28.54242    55.31039    -9.22564
    91  C   4.0    0.07    3.23    3.04    30.40380    57.48546    -9.46375
    92  O   6.0   -0.31    1.17    1.80    30.83088    58.85740    -7.64583
    93  C   4.0   -0.04    4.37    4.33    25.88736    56.32517    -9.75666
    94  C   4.0   -0.03    4.18    3.96    25.04265    57.05461   -12.42495
    95  C   4.0   -0.07    4.11    3.82    24.18093    54.73402   -13.89138
    96  C   4.0   -0.08    4.11    3.83    22.90537    58.96701   -12.30023
    97  H   1.0    0.10    1.07    1.44    28.87501    55.68266    -5.32147
    98  H   1.0    0.05    1.05    1.44    29.06587    53.85530   -10.58624
    99  H   1.0    0.05    1.04    1.43    24.56266    54.87764    -9.12927
   100  H   1.0    0.05    1.05    1.44    25.66248    58.02592    -8.61715
   101  H   1.0    0.04    1.06    1.44    26.63947    57.89742   -13.41705
   102  H   1.0    0.04    1.00    1.43    23.59323    55.31417   -15.77921
   103  H   1.0    0.05    1.00    1.43    25.74752    53.40366   -14.02177
   104  H   1.0    0.04    1.00    1.43    22.59923    53.86286   -12.89927
   105  H   1.0    0.04    1.00    1.43    22.33278    59.46023   -14.21641
   106  H   1.0    0.04    1.00    1.43    21.31800    58.13364   -11.28544
   107  H   1.0    0.03    1.00    1.43    23.56677    60.64886   -11.31001
   108  N   5.0   -0.19    3.25    1.97    32.54486    64.31493   -13.68540
   109  C   4.0    0.03    4.32    4.24    31.62456    66.33316   -15.34646
   110  C   4.0    0.08    3.21    3.04    33.57854    67.18732   -17.31745
   111  O   6.0   -0.26    1.12    1.80    35.64968    68.03958   -16.66738
   112  C   4.0   -0.02    4.36    4.31    30.75529    68.63296   -13.83657
   113  C   4.0   -0.05    4.24    4.08    29.12446    67.79770   -11.60859
   114  C   4.0   -0.07    4.16    3.91    29.28319    70.42442   -15.53355
   115  C   4.0   -0.08    4.04    3.69    26.50530    66.87929   -12.35314
   116  H   1.0    0.13    1.12    1.45    33.50862    64.96311   -12.14716
   117  H   1.0    0.04    1.06    1.44    30.06743    65.48278   -16.39337
   118  H   1.0    0.06    1.06    1.44    32.41447    69.61561   -13.10903
   119  H   1.0    0.06    1.05    1.44    30.07688    66.25190   -10.63727
   120  H   1.0    0.04    1.03    1.43    28.88824    69.39452   -10.32924
   121  H   1.0    0.04    1.00    1.43    28.67848    72.05336   -14.42617
   122  H   1.0    0.05    1.00    1.43    30.50018    71.03858   -17.07745
   123  H   1.0    0.04    1.01    1.43    27.63913    69.43798   -16.28566
   124  H   1.0    0.03    1.00    1.43    25.48106    66.32560   -10.65427
   125  H   1.0    0.04    1.00    1.43    25.50563    68.40619   -13.30934
   126  H   1.0    0.04    1.00    1.43    26.69616    65.26358   -13.61737
   127  N   5.0   -0.19    3.25    1.97    16.02866    77.67341   -13.69673
   128  C   4.0    0.04    4.36    4.30    15.06301    75.13739   -13.34147
   129  C   4.0    0.15    3.45    3.09    13.10525    75.01645   -11.27788
   130  O   6.0   -0.31    1.36    1.80    13.56445    75.79691    -9.16328
   131  C   4.0   -0.03    4.36    4.32    17.20029    73.34782   -12.64794
   132  C   4.0   -0.02    3.55    3.14    19.07678    72.89240   -14.73986
   133  C   4.0   -0.04    3.48    3.10    21.11769    74.51378   -15.10647
   134  C   4.0   -0.05    3.47    3.10    18.83112    70.81937   -16.33479
   135  C   4.0   -0.04    3.43    3.09    22.87891    74.06970   -17.00186
   136  C   4.0   -0.04    3.43    3.09    20.56778    70.36017   -18.22830
   137  C   4.0    0.07    3.45    3.09    22.58600    71.98155   -18.55333
   138  O   6.0   -0.24    2.10    1.84    24.32266    71.49589   -20.42794
   139  H   1.0    0.13    1.11    1.45    17.04722    78.35182   -12.20763
   140  H   1.0    0.04    1.06    1.44    14.15783    74.56859   -15.10080
   141  H   1.0    0.05    1.04    1.43    18.22830    74.14151   -11.04923
   142  H   1.0    0.04    1.04    1.43    16.38959    71.52613   -12.13015
   143  H   1.0    0.05    1.03    1.43    21.33501    76.14273   -13.89704
   144  H   1.0    0.05    1.03    1.43    17.25509    69.54569   -16.08913
   145  H   1.0    0.06    1.03    1.43    24.45683    75.33770   -17.26265
   146  H   1.0    0.06    1.03    1.43    20.34857    68.74067   -19.44906
   147  H   1.0    0.12    1.02    1.43    25.77964    72.62406   -20.24841
   148  N   5.0   -0.14    3.48    2.07    10.93017    73.96198   -11.88827
   149  C   4.0    0.04    4.45    4.46     9.19352    73.08704    -9.95697
   150  C   4.0    0.15    3.46    3.10     9.97208    70.41497    -9.19730
   151  O   6.0   -0.31    1.26    1.80    10.09303    68.71799   -10.78845
   152  C   4.0   -0.04    4.43    4.42     6.51766    73.00578   -11.02466
   153  C   4.0   -0.02    4.21    4.01     4.37850    73.79758    -9.29745
   154  C   4.0   -0.07    4.13    3.87     5.01911    76.32792    -8.05590
   155  C   4.0   -0.07    4.14    3.88     2.03523    74.01112   -10.89427
   156  H   1.0    0.08    1.06    1.44    10.31790    73.68797   -13.69484
   157  H   1.0    0.06    1.07    1.44     9.25588    74.33804    -8.32235
   158  H   1.0    0.04    1.05    1.44     6.45530    74.25489   -12.66116
   159  H   1.0    0.05    1.05    1.44     6.13027    71.06692   -11.60292
   160  H   1.0    0.05    1.06    1.44     4.06669    72.43131    -7.78756
   161  H   1.0    0.05    1.00    1.43     3.46765    76.87972    -6.81813
   162  H   1.0    0.05    1.01    1.43     6.75010    76.11816    -6.96175
   163  H   1.0    0.05    1.00    1.43     5.28367    77.74711    -9.52422
   164  H   1.0    0.05    1.00    1.43     0.45731    74.57992    -9.69807
   165  H   1.0    0.05    1.00    1.43     2.34893    75.42274   -12.36070
   166  H   1.0    0.04    1.00    1.43     1.64028    72.18186   -11.75410
   167  N   5.0   -0.13    3.51    2.09    10.55223    70.02757    -6.79356
   168  C   4.0    0.04    4.59    4.65    10.68262    67.45566    -5.84303
   169  C   4.0    0.14    3.57    3.15     8.14283    66.88874    -4.72620
   170  O   6.0   -0.31    1.28    1.80     6.75766    68.62540    -3.99299
   171  C   4.0   -0.02    4.40    4.39    12.61581    67.14007    -3.73221
   172  C   4.0   -0.05    4.22    4.04    15.29544    67.13251    -4.80557
   173  C   4.0   -0.08    4.25    4.09    12.07535    64.70800    -2.29413
   174  C   4.0   -0.08    4.03    3.68    17.05100    68.83516    -3.40151
   175  H   1.0    0.11    1.10    1.44    10.92829    71.40896    -5.50288
   176  H   1.0    0.06    1.07    1.44    11.17962    66.20655    -7.40395
   177  H   1.0    0.05    1.07    1.44    12.46463    68.73311    -2.43397
   178  H   1.0    0.04    1.04    1.43    16.04944    65.21822    -4.70542
   179  H   1.0    0.04    1.05    1.44    15.23119    67.76179    -6.76522
   180  H   1.0    0.03    1.00    1.43    13.46619    64.49635    -0.78991
   181  H   1.0    0.05    1.05    1.44    10.18184    64.81004    -1.49099
   182  H   1.0    0.05    1.01    1.43    12.20196    63.11685    -3.59615
   183  H   1.0    0.03    1.00    1.43    18.91805    68.73500    -4.26700
   184  H   1.0    0.04    1.00    1.43    16.33479    70.76457    -3.49788
   185  H   1.0    0.04    1.00    1.43    17.15304    68.22100    -1.43808
   186  N   5.0   -0.14    3.61    2.16     7.55134    64.46422    -4.55046
   187  C   4.0    0.04    4.47    4.49     5.16084    63.65731    -3.47899
   188  C   4.0    0.15    3.52    3.12     5.43863    60.93232    -2.69853
   189  O   6.0   -0.33    1.42    1.80     7.19419    59.64353    -3.52434
   190  C   4.0   -0.03    4.36    4.31     3.07080    63.86518    -5.44808
   191  C   4.0   -0.01    3.60    3.16     3.28812    61.89419    -7.48709
   192  C   4.0   -0.03    3.48    3.11     2.07303    59.58495    -7.25466
   193  C   4.0   -0.03    3.47    3.10     4.76589    62.32127    -9.62437
   194  C   4.0   -0.03    3.43    3.09     2.28846    57.75758    -9.11037
   195  C   4.0   -0.04    3.43    3.09     4.99455    60.50714   -11.50465
   196  C   4.0    0.07    3.45    3.10     3.74355    58.23191   -11.23442
   197  O   6.0   -0.25    2.10    1.84     3.94953    56.41588   -13.08257
   198  H   1.0    0.11    1.11    1.45     8.68707    63.01858    -5.13250
   199  H   1.0    0.07    1.06    1.44     4.68841    64.80248    -1.83303
   200  H   1.0    0.05    1.03    1.43     1.24722    63.62518    -4.52022
   201  H   1.0    0.05    1.04    1.43     3.16907    65.71900    -6.33814
   202  H   1.0    0.06    1.03    1.43     0.94108    59.20700    -5.59926
   203  H   1.0    0.06    1.03    1.43     5.75233    64.09761    -9.82091
   204  H   1.0    0.06    1.03    1.43     1.32659    55.96990    -8.90439
   205  H   1.0    0.06    1.03    1.43     6.13594    60.86996   -13.15816
   206  H   1.0    0.12    1.03    1.43     5.03234    57.02815   -14.45451
   207  N   5.0   -0.13    3.43    2.04     3.68875    60.02148    -1.16029
   208  C   4.0    0.02    4.31    4.21     3.76622    57.39476    -0.39495
   209  C   4.0    0.15    3.38    3.07     2.49255    57.20011     2.12216
   210  O   6.0   -0.32    1.42    1.80     1.90106    59.12197     3.26356
   211  H   1.0    0.10    1.07    1.44     2.22421    61.03815    -0.42897
   212  H   1.0    0.04    1.03    1.43     2.77601    56.21557    -1.76311
   213  H   1.0    0.05    1.04    1.43     5.71453    56.74658    -0.23622
   214  N   5.0   -0.14    3.46    2.05     2.00500    54.89843     2.97821
   215  C   4.0    0.04    4.46    4.47     0.75022    54.55261     5.40651
   216  C   4.0    0.15    3.45    3.09     1.90106    52.37753     6.87671
   217  O   6.0   -0.31    1.26    1.80     2.65318    50.44245     5.79579
   218  C   4.0   -0.03    4.29    4.18    -2.06736    54.00270     5.09848
   219  C   4.0   -0.03    4.27    4.15    -2.59081    51.80306     3.32970
   220  C   4.0    0.15    3.23    3.04    -4.54290    49.98703     4.34826
   221  O   6.0   -0.27    1.20    1.80    -3.90417    48.02739     5.42351
   222  N   5.0   -0.18    3.17    1.95    -6.95230    50.61631     3.98921
   223  H   1.0    0.10    1.06    1.44     2.44531    53.26571     2.05413
   224  H   1.0    0.07    1.08    1.44     1.02234    56.29116     6.47798
   225  H   1.0    0.07    1.04    1.43    -2.86482    53.54161     6.94096
   226  H   1.0    0.06    1.03    1.43    -2.99522    55.67322     4.32747
   227  H   1.0    0.05    1.04    1.43    -3.28434    52.53816     1.53446
   228  H   1.0    0.07    1.05    1.44    -0.84282    50.75426     3.03301
   229  H   1.0    0.09    1.03    1.43    -7.39450    52.25092     3.06891
   230  H   1.0    0.10    1.02    1.43    -8.35637    49.46358     4.63550
   231  N   5.0   -0.14    3.49    2.07     2.01067    52.70446     9.35792
   232  C   4.0    0.04    4.45    4.47     2.86482    50.70324    11.02088
   233  C   4.0    0.09    3.29    3.05     0.68408    49.71869    12.61203
   234  O   6.0   -0.29    1.19    1.80    -0.38550    51.07929    14.17294
   235  C   4.0   -0.02    4.31    4.22     4.98132    51.61220    12.74053
   236  C   4.0   -0.07    4.16    3.93     5.27423    49.84908    14.99120
   237  C   4.0   -0.08    4.13    3.85     7.41339    51.80306    11.25143
   238  H   1.0    0.11    1.11    1.45     1.51934    54.33529    10.26121
   239  H   1.0    0.05    1.09    1.44     3.50166    49.14988     9.82657
   240  H   1.0    0.05    1.06    1.44     4.52400    53.48113    13.47564
   241  H   1.0    0.04    1.00    1.43     6.79923    50.54072    16.19117
   242  H   1.0    0.06    1.02    1.43     3.50733    49.81507    16.05133
   243  H   1.0    0.04    1.00    1.43     5.72020    47.95747    14.30712
   244  H   1.0    0.03    1.00    1.43     8.91573    52.45501    12.50054
   245  H   1.0    0.04    1.01    1.43     7.88583    49.94546    10.49743
   246  H   1.0    0.04    1.00    1.43     7.15261    53.14287     9.70941
   247  N   5.0   -0.19    3.19    1.95    14.45640    51.02827    28.12857
   248  C   4.0    0.03    4.30    4.21    15.02899    53.32996    26.71317
   249  C   4.0    0.14    3.48    3.11    15.81512    52.64588    24.00519
   250  O   6.0   -0.31    1.26    1.80    17.31556    50.91489    23.57622
   251  C   4.0   -0.04    4.26    4.11    17.05856    54.93055    28.03597
   252  C   4.0   -0.03    4.25    4.10    18.80844    56.29872    26.21050
   253  C   4.0    0.24    3.12    3.03    19.04655    59.12386    26.72828
   254  O   6.0   -0.30    1.17    1.80    21.21406    60.03092    27.11001
   255  O   6.0   -0.30    1.23    1.80    17.06800    60.43722    26.71128
   256  H   1.0    0.09    1.03    1.43    15.22930    49.44846    27.34056
   257  H   1.0    0.07    1.07    1.44    13.32068    54.47324    26.58466
   258  H   1.0    0.06    1.03    1.43    16.12881    56.34974    29.20382
   259  H   1.0    0.05    1.03    1.43    18.21318    53.69656    29.21327
   260  H   1.0    0.05    1.06    1.44    20.69061    55.47291    26.35223
   261  H   1.0    0.06    1.07    1.44    18.08090    56.07006    24.29621
   262  N   5.0   -0.14    3.47    2.06    14.69451    53.92711    22.16838
   263  C   4.0    0.04    4.54    4.59    15.60347    53.74759    19.58134
   264  C   4.0    0.14    3.44    3.09    16.67872    56.28927    18.73096
   265  O   6.0   -0.32    1.33    1.80    15.59591    58.27159    19.30922
   266  C   4.0   -0.02    4.30    4.20    13.52666    52.87453    17.77476
   267  C   4.0   -0.08    4.17    3.93    14.47719    52.97280    15.09324
   268  C   4.0   -0.07    4.13    3.86    12.69707    50.21002    18.43428
   269  H   1.0    0.11    1.08    1.44    13.17517    55.08740    22.41215
   270  H   1.0    0.06    1.08    1.44    17.13603    52.37186    19.54544
   271  H   1.0    0.04    1.06    1.44    11.89960    54.12364    17.94862
   272  H   1.0    0.03    1.00    1.43    12.97864    52.34541    13.82712
   273  H   1.0    0.05    1.01    1.43    15.01387    54.90977    14.64160
   274  H   1.0    0.05    1.00    1.43    16.11180    51.73125    14.91561
   275  H   1.0    0.04    1.00    1.43    11.21741    49.62420    17.12659
   276  H   1.0    0.04    1.00    1.43    14.31467    48.94579    18.27554
   277  H   1.0    0.05    1.00    1.43    11.97708    50.19112    20.36369
   278  N   5.0   -0.14    3.42    2.03    18.83679    56.23446    17.43272
   279  C   4.0    0.04    4.40    4.39    20.18605    58.55505    16.76754
   280  C   4.0    0.14    3.40    3.08    20.61124    58.81583    13.92539
   281  O   6.0   -0.31    1.26    1.80    21.55799    57.08295    12.68573
   282  C   4.0   -0.04    4.28    4.16    22.70695    58.73079    18.18105
   283  C   4.0   -0.04    4.18    3.96    22.45183    59.22401    21.01942
   284  C   4.0   -0.00    4.22    4.03    24.99729    59.06338    22.39325
   285  N   5.0   -0.14    3.43    2.04    26.35412    56.78626    21.65059
   286  C   4.0    0.10    3.35    3.06    25.91003    54.49970    22.60301
   287  N   5.0   -0.17    3.32    1.99    24.19416    54.21435    24.41337
   288  N   5.0   -0.17    3.23    1.96    27.19505    52.49659    21.77720
   289  H   1.0    0.10    1.07    1.44    19.69094    54.61875    16.81856
   290  H   1.0    0.07    1.08    1.44    18.98230    60.13864    17.30422
   291  H   1.0    0.06    1.04    1.43    23.71795    56.95067    17.94673
   292  H   1.0    0.05    1.03    1.43    23.80488    60.27659    17.37603
   293  H   1.0    0.06    1.03    1.43    21.68461    61.11374    21.31044
   294  H   1.0    0.06    1.03    1.43    21.19139    57.81617    21.83956
   295  H   1.0    0.05    1.02    1.43    26.14814    60.70178    21.90759
   296  H   1.0    0.06    1.03    1.43    24.67982    59.00480    24.42849
   297  H   1.0    0.09    1.07    1.44    27.73362    56.95445    20.31455
   298  H   1.0    0.08    1.06    1.44    23.22095    55.74314    25.06910
   299  H   1.0    0.13    1.13    1.45    23.84834    52.46635    25.14658
   300  H   1.0    0.08    1.02    1.43    28.53108    52.70824    20.40526
   301  H   1.0    0.11    1.02    1.43    26.84167    50.75237    22.51797
   302  N   5.0   -0.14    3.48    2.06    19.87614    60.98335    12.89549
   303  C   4.0    0.04    4.47    4.49    20.47329    61.59940    10.29523
   304  C   4.0    0.15    3.45    3.09    22.77876    63.27558    10.27633
   305  O   6.0   -0.33    1.33    1.80    22.82978    65.20688    11.56323
   306  C   4.0   -0.05    4.37    4.33    18.29066    62.98646     9.01966
   307  C   4.0   -0.03    4.21    4.02    18.69128    63.41731     6.18318
   308  C   4.0   -0.08    4.11    3.82    18.83301    60.88319     4.79423
   309  C   4.0   -0.08    4.11    3.82    16.63526    65.07460     5.07958
   310  H   1.0    0.11    1.10    1.44    18.86702    62.34017    13.82146
   311  H   1.0    0.07    1.08    1.44    20.84557    59.86652     9.24454
   312  H   1.0    0.04    1.03    1.43    16.57290    61.87530     9.25399
   313  H   1.0    0.05    1.03    1.43    18.06389    64.82894     9.91350
   314  H   1.0    0.04    1.06    1.44    20.47896    64.40564     5.91106
   315  H   1.0    0.04    1.00    1.43    19.11836    61.23468     2.78546
   316  H   1.0    0.06    1.01    1.43    20.41093    59.79282     5.54635
   317  H   1.0    0.04    1.00    1.43    17.06989    59.85896     5.08525
   318  H   1.0    0.03    1.00    1.43    16.99053    65.33161     3.06703
   319  H   1.0    0.05    1.00    1.43    14.81167    64.15809     5.35926
   320  H   1.0    0.04    1.00    1.43    16.65793    66.89819     6.03578
   321  N   5.0   -0.14    3.48    2.07    24.67604    62.50835     8.80990
   322  C   4.0    0.04    4.45    4.45    27.03820    63.91620     8.57369
   323  C   4.0    0.15    3.42    3.08    27.24985    65.17665     6.02067
   324  O   6.0   -0.32    1.29    1.80    26.52986    64.07116     4.10637
   325  C   4.0   -0.02    4.35    4.29    29.30776    62.17387     8.94218
   326  C   4.0   -0.01    3.56    3.15    29.71972    61.50869    11.66906
   327  C   4.0   -0.03    3.48    3.11    29.06210    59.15031    12.58557
   328  C   4.0   -0.03    3.50    3.11    30.64569    63.29448    13.35658
   329  C   4.0   -0.04    3.43    3.09    29.36256    58.55694    15.09891
   330  C   4.0   -0.04    3.43    3.09    30.96883    62.72945    15.88315
   331  C   4.0    0.06    3.44    3.09    30.32254    60.34840    16.75809
   332  O   6.0   -0.26    2.10    1.84    30.59655    59.76258    19.29977
   333  H   1.0    0.12    1.14    1.45    24.62880    60.89831     7.74977
   334  H   1.0    0.06    1.08    1.44    27.05521    65.39208    10.00988
   335  H   1.0    0.06    1.04    1.43    28.99407    60.42777     7.89528
   336  H   1.0    0.07    1.04    1.43    31.00284    63.11685     8.24865
   337  H   1.0    0.06    1.03    1.43    28.30054    57.75191    11.30812
   338  H   1.0    0.07    1.07    1.44    31.12190    65.15964    12.67817
   339  H   1.0    0.05    1.03    1.43    28.85234    56.70123    15.77921
   340  H   1.0    0.05    1.03    1.43    31.71716    64.12974    17.16438
   341  H   1.0    0.11    1.02    1.43    31.29575    61.21389    20.21251
   342  N   5.0   -0.14    3.48    2.06    28.18337    67.51424     6.01311
   343  C   4.0    0.04    4.43    4.43    29.20760    68.66697     3.72465
   344  C   4.0    0.16    3.54    3.13    32.05164    68.57626     3.93630
   345  O   6.0   -0.31    1.31    1.80    33.20437    70.05970     5.34414
   346  C   4.0   -0.05    4.30    4.21    28.35723    71.41085     3.42418
   347  C   4.0   -0.04    4.20    4.01    29.54398    72.75445     1.16785
   348  C   4.0   -0.05    4.19    3.98    28.84100    75.54368     1.11494
   349  C   4.0   -0.03    4.14    3.88    30.93292    77.13483    -0.03590
   350  N   5.0   -0.11    4.01    2.88    30.12601    79.81258    -0.22299
   351  H   1.0    0.11    1.11    1.45    28.25518    68.65374     7.56457
   352  H   1.0    0.05    1.08    1.44    28.55187    67.58416     2.09949
   353  H   1.0    0.03    1.03    1.43    26.31254    71.44676     3.17285
   354  H   1.0    0.05    1.03    1.43    28.87690    72.45398     5.12305
   355  H   1.0    0.06    1.04    1.43    31.59433    72.60516     1.28690
   356  H   1.0    0.04    1.03    1.43    28.87312    71.88518    -0.57448
   357  H   1.0    0.03    1.03    1.43    27.13835    75.79691    -0.01701
   358  H   1.0    0.04    1.03    1.43    28.51219    76.20131     3.03868
   359  H   1.0    0.05    1.02    1.43    32.61289    77.03468     1.15273
   360  H   1.0    0.07    1.03    1.43    31.36567    76.44319    -1.92752
   361  H   1.0    0.07    1.01    1.43    31.56409    80.89539    -1.01289
   362  H   1.0    0.05    1.02    1.43    28.52541    79.95430    -1.35493
   363  H   1.0    0.06    1.02    1.43    29.70649    80.51555     1.56469
   364  N   5.0   -0.13    3.52    2.09    33.18359    66.79992     2.57948
   365  C   4.0    0.05    4.48    4.51    35.80653    66.22167     3.03112
   366  C   4.0    0.15    3.46    3.10    36.11833    65.34294     5.74099
   367  O   6.0   -0.30    1.26    1.80    34.94859    63.48534     6.51955
   368  C   4.0   -0.03    4.46    4.48    37.41657    68.56304     2.57381
   369  C   4.0    0.16    3.24    3.04    37.59232    69.24712    -0.20220
   370  O   6.0   -0.32    1.37    1.80    37.98349    67.61062    -1.82170
   371  N   5.0   -0.18    3.17    1.95    37.33343    71.67731    -0.76534
   372  H   1.0    0.12    1.13    1.45    32.33888    65.76435     1.19053
   373  H   1.0    0.07    1.08    1.44    36.25628    64.70611     1.71020
   374  H   1.0    0.07    1.06    1.44    36.58320    70.15986     3.57347
   375  H   1.0    0.04    1.04    1.43    39.32331    68.21533     3.26923
   376  H   1.0    0.11    1.03    1.43    37.43358    72.25745    -2.60026
   377  H   1.0    0.09    1.03    1.43    37.03485    72.96421     0.63684
   378  N   5.0   -0.15    3.57    2.13    37.65090    66.71677     7.18096
   379  C   4.0    0.03    4.41    4.40    38.38033    65.88907     9.71130
   380  C   4.0    0.15    3.40    3.08    36.75328    67.16464    11.70307
   381  O   6.0   -0.30    1.23    1.80    36.97438    66.61851    13.95374
   382  C   4.0   -0.04    4.28    4.15    41.17524    66.47111    10.22342
   383  C   4.0   -0.05    4.15    3.91    43.04418    64.42832     9.37682
   384  C   4.0   -0.05    4.16    3.91    45.63877    64.90264    10.58058
   385  C   4.0   -0.04    4.10    3.80    47.82329    63.81416     9.01021
   386  N   5.0   -0.12    3.98    2.80    50.24781    65.26924     9.35792
   387  H   1.0    0.08    1.08    1.44    38.41624    68.40430     6.64995
   388  H   1.0    0.05    1.06    1.44    38.16868    63.84439     9.85303
   389  H   1.0    0.05    1.03    1.43    41.66846    68.20588     9.22942
   390  H   1.0    0.06    1.04    1.43    41.42279    66.72811    12.25298
   391  H   1.0    0.04    1.03    1.43    42.36766    62.57639     9.97397
   392  H   1.0    0.04    1.03    1.43    43.24638    64.47745     7.32836
   393  H   1.0    0.05    1.03    1.43    45.93546    66.93220    10.76010
   394  H   1.0    0.04    1.03    1.43    45.68979    64.01636    12.44007
   395  H   1.0    0.04    1.02    1.43    48.15967    61.86585     9.58469
   396  H   1.0    0.04    1.02    1.43    47.31874    63.88219     7.01466
   397  H   1.0    0.06    1.01    1.43    51.67267    64.47178     8.26377
   398  H   1.0    0.06    1.01    1.43    49.99459    67.14007     8.80990
   399  H   1.0    0.06    1.01    1.43    50.79205    65.22578    11.24576
   400  N   5.0   -0.13    3.49    2.07    35.13001    68.87862    10.84136
   401  C   4.0    0.04    4.47    4.49    33.47838    70.33182    12.50243
   402  C   4.0    0.15    3.47    3.10    30.80253    69.32649    12.60447
   403  O   6.0   -0.32    1.33    1.80    29.58555    68.94476    10.65050
   404  C   4.0   -0.02    4.33    4.25    33.41224    73.07948    11.66528
   405  C   4.0    0.25    3.16    3.03    35.62700    74.51945    12.63471
   406  O   6.0   -0.27    1.21    1.80    36.31297    74.06970    14.84947
   407  O   6.0   -0.27    1.18    1.80    36.72682    76.02556    11.18907
   408  H   1.0    0.11    1.09    1.44    34.91458    69.30759     8.97431
   409  H   1.0    0.07    1.08    1.44    34.23617    70.15608    14.40916
   410  H   1.0    0.07    1.04    1.43    33.43870    73.16263     9.60737
   411  H   1.0    0.06    1.04    1.43    31.69826    73.96765    12.38526
   412  N   5.0   -0.14    3.46    2.05    29.86712    68.94665    14.90049
   413  C   4.0    0.04    4.48    4.50    27.20638    68.42698    15.23875
   414  C   4.0    0.15    3.49    3.11    25.59445    70.63229    14.30900
   415  O   6.0   -0.30    1.27    1.80    25.87602    72.77902    15.14426
   416  C   4.0   -0.05    4.41    4.39    26.60167    67.84494    17.98074
   417  C   4.0   -0.03    4.10    3.80    23.97306    66.85661    18.26798
   418  S   6.0   -0.01    2.54    3.10    22.17971    68.69721    20.48463
   419  C   4.0   -0.06    3.89    3.45    22.07956    71.81903    19.07489
   420  H   1.0    0.08    1.06    1.44    30.89513    68.98823    16.53132
   421  H   1.0    0.05    1.07    1.44    26.76041    66.74701    14.13515
   422  H   1.0    0.04    1.03    1.43    27.91314    66.41820    18.67994
   423  H   1.0    0.05    1.07    1.44    26.77364    69.56648    19.09757
   424  H   1.0    0.06    1.09    1.44    23.01686    66.92653    16.44440
   425  H   1.0    0.05    1.07    1.44    24.04676    64.91398    18.95017
   426  H   1.0    0.04    1.04    1.43    21.01186    73.07759    20.30700
   427  H   1.0    0.06    1.05    1.44    24.00519    72.51823    18.85380
   428  H   1.0    0.06    1.05    1.44    21.16304    71.69431    17.23430
   429  N   5.0   -0.15    3.58    2.14    23.92393    70.10316    12.53644
   430  C   4.0    0.04    4.57    4.63    22.16460    72.01368    11.74465
   431  C   4.0    0.14    3.46    3.10    19.52654    71.47510    12.77077
   432  O   6.0   -0.29    1.23    1.80    17.87303    73.10783    12.68195
   433  C   4.0   -0.02    4.38    4.35    22.10223    72.26123     8.87793
   434  C   4.0   -0.04    4.25    4.10    21.09690    69.82726     7.68174
   435  C   4.0   -0.07    4.17    3.94    24.71006    72.86972     7.91606
   436  C   4.0   -0.08    4.03    3.66    20.59234    70.05781     4.87738
   437  H   1.0    0.11    1.12    1.45    23.75574    68.40430    11.64260
   438  H   1.0    0.07    1.08    1.44    22.77120    73.84293    12.47030
   439  H   1.0    0.05    1.06    1.44    20.83045    73.79569     8.35826
   440  H   1.0    0.05    1.03    1.43    22.48774    68.33060     7.95197
   441  H   1.0    0.05    1.04    1.43    19.32623    69.31704     8.60203
   442  H   1.0    0.03    1.01    1.43    24.64392    73.04169     5.86382
   443  H   1.0    0.05    1.00    1.43    25.33556    74.64606     8.75132
   444  H   1.0    0.06    1.01    1.43    25.99318    71.35038     8.45274
   445  H   1.0    0.04    1.01    1.43    19.88559    68.25501     4.17251
   446  H   1.0    0.05    1.00    1.43    19.18828    71.53180     4.56747
   447  H   1.0    0.04    1.00    1.43    22.34790    70.54725     3.91740
   448  N   5.0   -0.14    3.48    2.06    19.14103    69.21310    13.79878
   449  C   4.0    0.03    4.43    4.42    16.66927    68.54603    14.81356
   450  C   4.0    0.14    3.39    3.08    16.74297    66.34639    16.69762
   451  O   6.0   -0.31    1.29    1.80    18.19050    64.55115    16.39904
   452  C   4.0   -0.03    4.31    4.21    14.85325    67.96966    12.64983
   453  C   4.0   -0.03    4.24    4.07    12.08669    68.15486    13.35280
   454  C   4.0    0.15    3.23    3.04    10.44074    66.50890    11.69173
   455  O   6.0   -0.31    1.24    1.80    10.82057    66.38229     9.39950
   456  N   5.0   -0.18    3.21    1.96     8.62849    65.20121    12.84069
   457  H   1.0    0.10    1.08    1.44    20.47707    67.83171    13.95185
   458  H   1.0    0.05    1.07    1.44    16.00598    70.14285    15.93228
   459  H   1.0    0.06    1.04    1.43    15.20096    69.31137    11.12482
   460  H   1.0    0.05    1.04    1.43    15.20285    66.04970    11.99220
   461  H   1.0    0.05    1.04    1.43    11.84291    67.54447    15.30489
   462  H   1.0    0.06    1.03    1.43    11.46497    70.10694    13.14115
   463  H   1.0    0.08    1.04    1.43     8.40361    65.33916    14.74931
   464  H   1.0    0.10    1.03    1.43     7.46253    64.06171    11.81268
   465  N   5.0   -0.14    3.46    2.05    15.18017    66.52969    18.65537
   466  C   4.0    0.04    4.50    4.54    15.02710    64.60784    20.62258
   467  C   4.0    0.14    3.62    3.18    12.35503    63.67243    20.82856
   468  O   6.0   -0.31    1.30    1.80    10.58624    65.17098    20.76809
   469  C   4.0    0.06    4.27    4.13    15.65827    65.70766    23.22095
   470  O   6.0   -0.24    2.10    1.84    18.18105    65.01035    23.89181
   471  C   4.0   -0.05    4.23    4.06    13.84791    64.66453    25.21083
   472  H   1.0    0.08    1.06    1.44    13.97830    68.01124    18.93316
   473  H   1.0    0.07    1.07    1.44    16.32345    63.08472    20.12936
   474  H   1.0    0.05    1.04    1.43    15.48441    67.75990    23.16993
   475  H   1.0    0.15    1.05    1.44    18.16216    63.44944    24.88958
   476  H   1.0    0.06    1.00    1.43    14.30334    65.45066    27.05899
   477  H   1.0    0.06    1.03    1.43    11.90905    65.16531    24.73084
   478  H   1.0    0.07    1.02    1.43    14.00476    62.61229    25.29965
   479  N   5.0   -0.14    3.52    2.09    12.04133    61.22145    21.18572
   480  C   4.0    0.04    4.37    4.33     9.52611    60.24257    21.57122
   481  C   4.0    0.08    3.21    3.04     9.35792    58.87441    24.08834
   482  O   6.0   -0.30    1.16    1.80    10.53144    56.90910    24.47951
   483  C   4.0   -0.04    4.37    4.33     8.75132    58.55127    19.37536
   484  C   4.0   -0.02    4.21    4.02     8.49054    59.87030    16.81667
   485  C   4.0   -0.08    4.11    3.83     7.89339    57.95601    14.77955
   486  C   4.0   -0.07    4.15    3.89     6.45908    61.89986    16.93950
   487  H   1.0    0.12    1.11    1.45    13.45674    59.91376    21.21595
   488  H   1.0    0.05    1.08    1.44     8.21464    61.82616    21.68838
   489  H   1.0    0.05    1.04    1.43    10.17239    57.07539    19.16371
   490  H   1.0    0.06    1.03    1.43     6.92396    57.71034    19.82134
   491  H   1.0    0.05    1.06    1.44    10.27066    60.78681    16.33290
   492  H   1.0    0.04    1.00    1.43     7.71386    58.93110    12.97486
   493  H   1.0    0.04    1.00    1.43     9.42217    56.57839    14.68506
   494  H   1.0    0.04    1.00    1.43     6.12460    57.01114    15.24631
   495  H   1.0    0.05    1.03    1.43     6.30791    62.81071    15.09891
   496  H   1.0    0.05    1.00    1.43     4.66384    61.02303    17.43839
   497  H   1.0    0.06    1.00    1.43     6.98254    63.28692    18.36814
   498  N   5.0   -0.18    3.22    1.96    -3.13695    55.53149    14.71908
   499  C   4.0    0.03    4.33    4.25    -2.33570    58.13553    14.36948
   500  C   4.0    0.16    3.41    3.08    -1.39651    58.65331    11.70685
   501  O   6.0   -0.31    1.33    1.80    -0.50834    56.96201    10.37649
   502  C   4.0   -0.04    4.29    4.18    -0.28535    58.85362    16.26487
   503  C   4.0   -0.03    4.21    4.01    -1.17352    59.14842    18.98041
   504  C   4.0    0.15    3.21    3.04     0.98644    58.77426    20.85880
   505  O   6.0   -0.29    1.19    1.80     1.98988    56.67477    21.10635
   506  N   5.0   -0.18    3.15    1.95     1.74233    60.81894    22.16082
   507  H   1.0    0.13    1.06    1.44    -1.70642    54.24080    14.75498
   508  H   1.0    0.05    1.06    1.44    -3.98354    59.33739    14.66049
   509  H   1.0    0.06    1.04    1.43     1.15840    57.38531    16.24597
   510  H   1.0    0.05    1.03    1.43     0.53290    60.65453    15.68662
   511  H   1.0    0.04    1.03    1.43    -1.93697    61.04382    19.24308
   512  H   1.0    0.05    1.03    1.43    -2.62483    57.74247    19.37725
   513  H   1.0    0.08    1.02    1.43     0.88061    62.51780    21.87169
   514  H   1.0    0.10    1.02    1.43     3.17852    60.67154    23.43827
   515  N   5.0   -0.13    3.48    2.07    -1.62327    61.03437    10.95852
   516  C   4.0    0.05    4.47    4.50    -0.67841    61.90742     8.55290
   517  C   4.0    0.15    3.44    3.09     2.02579    62.77103     8.81179
   518  O   6.0   -0.30    1.24    1.80     2.71365    64.01447    10.65239
   519  C   4.0   -0.02    4.35    4.30    -2.24877    64.12596     7.61938
   520  C   4.0    0.16    3.23    3.04    -4.38983    63.31527     5.91862
   521  O   6.0   -0.27    1.21    1.80    -5.81280    61.57294     6.52900
   522  N   5.0   -0.17    3.17    1.95    -4.64117    64.58516     3.76055
   523  H   1.0    0.08    1.06    1.44    -2.46798    62.41576    12.00354
   524  H   1.0    0.07    1.07    1.44    -0.77479    60.36730     7.18852
   525  H   1.0    0.06    1.04    1.43    -3.05758    65.10673     9.24076
   526  H   1.0    0.05    1.04    1.43    -1.03746    65.40719     6.55357
   527  H   1.0    0.11    1.02    1.43    -6.05279    64.12596     2.53034
   528  H   1.0    0.09    1.03    1.43    -3.42229    66.01758     3.33726
   529  N   5.0   -0.14    3.57    2.13     3.54135    62.11151     6.92963
   530  C   4.0    0.04    4.50    4.53     6.13594    62.99024     6.72176
   531  C   4.0    0.15    3.53    3.13     6.40050    64.56816     4.32180
   532  O   6.0   -0.30    1.28    1.80     5.07391    64.13352     2.45097
   533  C   4.0   -0.02    4.28    4.16     7.98409    60.73957     6.56869
   534  C   4.0   -0.07    4.17    3.94     6.71798    58.36041     7.56079
   535  C   4.0   -0.07    4.18    3.96     8.88549    60.32194     3.84370
   536  H   1.0    0.12    1.16    1.46     3.01222    60.94555     5.48965
   537  H   1.0    0.06    1.07    1.44     6.57814    64.16564     8.35448
   538  H   1.0    0.04    1.05    1.44     9.63193    61.15909     7.73087
   539  H   1.0    0.04    1.00    1.43     8.04834    56.79193     7.43796
   540  H   1.0    0.04    1.00    1.43     6.16618    58.66276     9.52233
   541  H   1.0    0.06    1.02    1.43     5.05313    57.95978     6.41562
   542  H   1.0    0.04    1.00    1.43    10.18373    58.72323     3.80402
   543  H   1.0    0.06    1.00    1.43     7.25277    59.93077     2.64940
   544  H   1.0    0.05    1.02    1.43     9.84547    62.02270     3.18608
   545  N   5.0   -0.14    3.37    2.01     8.10692    66.39741     4.36716
   546  C   4.0    0.02    4.31    4.22     8.74187    67.72967     2.07114
   547  C   4.0    0.15    3.32    3.06     8.85148    70.54536     2.43964
   548  O   6.0   -0.29    1.24    1.80     9.64894    71.44487     4.42763
   549  H   1.0    0.11    1.07    1.44     9.05935    66.98323     5.93752
   550  H   1.0    0.04    1.04    1.43    10.58247    67.09094     1.40218
   551  H   1.0    0.06    1.05    1.44     7.32647    67.31960     0.63306
   552  N   5.0   -0.13    3.38    2.01     8.05212    71.92108     0.49322
   553  C   4.0    0.02    4.16    3.92     8.19196    74.66685     0.47243
   554  C   4.0    0.07    3.13    3.03     9.30123    75.60982    -1.99177
   555  O   6.0   -0.31    1.21    1.80    10.14783    74.12072    -3.56969
   556  H   1.0    0.11    1.08    1.44     7.29056    71.17275    -1.11116
   557  H   1.0    0.05    1.03    1.43     6.30413    75.46054     0.69731
   558  H   1.0    0.06    1.03    1.43     9.38060    75.31503     2.02579
   559  N   5.0   -0.19    3.27    1.97    14.71719    79.22865    -5.61627
   560  C   4.0    0.03    4.26    4.12    17.38170    79.63494    -5.11738
   561  C   4.0    0.08    3.27    3.05    18.68561    80.26044    -7.53056
   562  O   6.0   -0.31    1.26    1.80    18.37570    78.95275    -9.42217
   563  C   4.0   -0.04    4.36    4.31    18.60057    77.27278    -4.03079
   564  C   4.0   -0.02    3.53    3.13    17.80878    76.67563    -1.35871
   565  C   4.0   -0.05    3.45    3.10    19.36780    77.30113     0.66518
   566  C   4.0   -0.04    3.45    3.10    15.52032    75.45676    -0.84471
   567  C   4.0   -0.04    3.41    3.08    18.68750    76.73610     3.14450
   568  C   4.0   -0.04    3.41    3.08    14.80789    74.89740     1.62516
   569  C   4.0    0.06    3.42    3.08    16.40660    75.54746     3.63016
   570  O   6.0   -0.23    2.08    1.84    15.75087    75.04291     6.12271
   571  H   1.0    0.14    1.10    1.44    14.34869    78.21387    -7.21308
   572  H   1.0    0.04    1.06    1.44    17.58201    81.19963    -3.79268
   573  H   1.0    0.05    1.04    1.43    18.08657    75.66463    -5.20997
   574  H   1.0    0.03    1.04    1.43    20.64526    77.52412    -4.03645
   575  H   1.0    0.05    1.03    1.43    21.14225    78.24410     0.30614
   576  H   1.0    0.07    1.04    1.43    14.28822    74.94086    -2.38672
   577  H   1.0    0.06    1.03    1.43    19.93472    77.22365     4.68463
   578  H   1.0    0.07    1.03    1.43    13.02966    73.96576     1.99366
   579  H   1.0    0.13    1.02    1.43    14.10114    74.20387     6.18696
   580  N   5.0   -0.18    3.27    1.97    25.02753    79.54801   -10.32357
   581  C   4.0    0.03    4.25    4.09    27.22906    78.00600    -9.83035
   582  C   4.0    0.09    3.22    3.04    29.21327    78.40095   -11.85992
   583  O   6.0   -0.27    1.14    1.80    28.62935    79.27967   -13.92917
   584  C   4.0   -0.05    4.37    4.33    26.47506    75.22999    -9.69051
   585  C   4.0   -0.03    4.24    4.08    24.22818    74.77079    -7.94063
   586  C   4.0   -0.08    4.10    3.80    22.53687    72.63351    -8.89872
   587  C   4.0   -0.08    4.12    3.83    25.14658    74.25678    -5.28745
   588  H   1.0    0.10    1.02    1.43    23.99952    78.99999   -11.85803
   589  H   1.0    0.05    1.06    1.44    28.07566    78.55024    -8.03323
   590  H   1.0    0.04    1.04    1.43    25.95917    74.58181   -11.57646
   591  H   1.0    0.04    1.03    1.43    28.07188    74.13773    -8.98187
   592  H   1.0    0.04    1.08    1.44    23.06033    76.46587    -7.90661
   593  H   1.0    0.04    1.00    1.43    20.96840    72.38217    -7.58914
   594  H   1.0    0.04    1.02    1.43    21.82067    73.13050   -10.76577
   595  H   1.0    0.03    1.00    1.43    23.64425    70.90063    -9.01021
   596  H   1.0    0.03    1.00    1.43    23.51953    73.93364    -4.06480
   597  H   1.0    0.04    1.00    1.43    26.35223    72.58626    -5.30635
   598  H   1.0    0.04    1.00    1.43    26.21428    75.88761    -4.62038
   599  N   5.0   -0.17    3.21    1.96    37.40901    69.59672    -9.65083
   600  C   4.0    0.04    4.33    4.26    35.74606    69.34349    -7.49087
   601  C   4.0    0.16    3.41    3.08    34.77474    66.63552    -7.28489
   602  O   6.0   -0.32    1.40    1.80    33.95271    65.53948    -9.14249
   603  C   4.0   -0.03    4.25    4.11    33.54075    71.23700    -7.66284
   604  C   4.0    0.24    3.11    3.03    34.22105    73.84293    -6.58192
   605  O   6.0   -0.28    1.20    1.80    36.49439    74.46087    -6.54601
   606  O   6.0   -0.31    1.17    1.80    32.51462    75.27723    -5.78067
   607  H   1.0    0.10    1.03    1.43    36.82320    70.89118   -10.95285
   608  H   1.0    0.06    1.07    1.44    36.79296    69.78002    -5.77122
   609  H   1.0    0.05    1.03    1.43    33.01729    71.48266    -9.63949
   610  H   1.0    0.05    1.03    1.43    31.93826    70.50190    -6.59703
   611  N   5.0   -0.14    3.50    2.08    34.92591    65.54703    -5.03612
   612  C   4.0    0.05    4.48    4.50    33.52941    63.23590    -4.48999
   613  C   4.0    0.15    3.41    3.08    31.17481    63.65920    -2.86105
   614  O   6.0   -0.32    1.32    1.80    30.85356    65.66420    -1.66863
   615  C   4.0    0.05    4.23    4.06    35.18292    61.22145    -3.18608
   616  O   6.0   -0.25    2.12    1.84    35.34354    61.70144    -0.50267
   617  C   4.0   -0.06    4.10    3.81    37.78696    61.17610    -4.38227
   618  H   1.0    0.13    1.17    1.46    35.98605    66.21033    -3.56969
   619  H   1.0    0.07    1.08    1.44    32.92281    62.54615    -6.33247
   620  H   1.0    0.04    1.05    1.44    34.33821    59.35818    -3.42796
   621  H   1.0    0.11    1.00    1.43    36.39423    60.41076     0.30992
   622  H   1.0    0.04    1.00    1.43    38.96048    59.75313    -3.46387
   623  H   1.0    0.05    1.00    1.43    37.63389    60.72445    -6.38538
   624  H   1.0    0.06    1.01    1.43    38.68836    63.01669    -4.18007
   625  N   5.0   -0.14    3.46    2.05    29.58177    61.70522    -2.79301
   626  C   4.0    0.04    4.54    4.59    27.26686    61.70522    -1.31147
   627  C   4.0    0.14    3.51    3.12    26.81899    59.08039    -0.22866
   628  O   6.0   -0.31    1.27    1.80    27.11379    57.19445    -1.53824
   629  C   4.0   -0.02    4.38    4.34    25.00107    62.47434    -2.93852
   630  C   4.0   -0.05    4.23    4.05    24.99729    65.32972    -3.33537
   631  C   4.0   -0.08    4.19    3.97    22.54632    61.60129    -1.73855
   632  C   4.0   -0.07    4.08    3.76    24.84423    66.78480    -0.92030
   633  H   1.0    0.10    1.07    1.44    29.85956    60.06683    -3.77000
   634  H   1.0    0.07    1.09    1.44    27.48984    63.02425     0.25511
   635  H   1.0    0.04    1.06    1.44    25.16926    61.55782    -4.77534
   636  H   1.0    0.05    1.03    1.43    26.73773    65.87207    -4.29346
   637  H   1.0    0.03    1.03    1.43    23.36835    65.84183    -4.48810
   638  H   1.0    0.04    1.00    1.43    20.97218    62.17576    -2.93663
   639  H   1.0    0.05    1.02    1.43    22.58034    59.54904    -1.55902
   640  H   1.0    0.04    1.00    1.43    22.36491    62.46678     0.12283
   641  H   1.0    0.03    1.00    1.43    24.84990    68.79925    -1.34926
   642  H   1.0    0.04    1.00    1.43    23.10379    66.28025     0.05858
   643  H   1.0    0.06    1.02    1.43    26.47128    66.31237     0.25133
   644  N   5.0   -0.14    3.46    2.05    26.11412    58.94622     2.16563
   645  C   4.0    0.04    4.46    4.48    26.05554    56.51036     3.41662
   646  C   4.0    0.14    3.40    3.08    23.99007    56.34218     5.42729
   647  O   6.0   -0.33    1.37    1.80    23.79354    57.95601     7.10915
   648  C   4.0   -0.01    4.27    4.14    28.64636    55.93589     4.58070
   649  C   4.0    0.24    3.12    3.03    29.40414    53.15043     4.36338
   650  O   6.0   -0.28    1.19    1.80    27.82621    51.56495     3.58103
   651  O   6.0   -0.26    1.19    1.80    31.61323    52.55706     4.99644
   652  H   1.0    0.10    1.08    1.44    25.58878    60.44666     3.25411
   653  H   1.0    0.08    1.08    1.44    25.56043    55.08929     2.01067
   654  H   1.0    0.07    1.03    1.43    30.07688    57.05839     3.61127
   655  H   1.0    0.06    1.03    1.43    28.60289    56.42533     6.58192
   656  N   5.0   -0.13    3.45    2.04    22.44994    54.37120     5.21186
   657  C   4.0    0.03    4.41    4.39    20.71707    53.64743     7.20741
   658  C   4.0    0.15    3.38    3.07    21.89248    51.51015     8.81179
   659  O   6.0   -0.29    1.22    1.80    22.75986    49.58641     7.81024
   660  C   4.0   -0.05    4.36    4.31    18.18105    52.85941     6.06413
   661  C   4.0   -0.03    4.20    4.01    15.91905    52.95390     7.85748
   662  C   4.0   -0.08    4.12    3.85    15.49953    55.62408     8.82502
   663  C   4.0   -0.08    4.11    3.83    13.57012    51.97880     6.55924
   664  H   1.0    0.09    1.06    1.44    22.36491    53.23358     3.65851
   665  H   1.0    0.06    1.07    1.44    20.37880    55.22913     8.48109
   666  H   1.0    0.04    1.04    1.43    17.76531    54.11608     4.48621
   667  H   1.0    0.05    1.03    1.43    18.35113    50.91867     5.39328
   668  H   1.0    0.04    1.06    1.44    16.30645    51.74448     9.47887
   669  H   1.0    0.03    1.00    1.43    13.88004    55.62975    10.09681
   670  H   1.0    0.05    1.00    1.43    17.18517    56.24391     9.83224
   671  H   1.0    0.04    1.00    1.43    15.14048    56.86941     7.22442
   672  H   1.0    0.04    1.00    1.43    11.99031    52.06573     7.87827
   673  H   1.0    0.04    1.00    1.43    13.17706    53.15232     4.91329
   674  H   1.0    0.04    1.00    1.43    13.88760    50.03049     5.97153
   675  N   5.0   -0.14    3.45    2.04    21.91704    51.87865    11.30245
   676  C   4.0    0.03    4.48    4.52    23.44016    50.34041    13.03344
   677  C   4.0    0.14    3.46    3.10    21.92271    49.61475    15.38048
   678  O   6.0   -0.31    1.27    1.80    21.66193    51.12276    17.14737
   679  C   4.0   -0.01    4.38    4.35    25.76263    51.85786    13.92917
   680  C   4.0   -0.04    4.23    4.05    27.37457    52.65343    11.67662
   681  C   4.0   -0.07    4.16    3.93    27.29331    50.38198    15.87559
   682  C   4.0   -0.06    4.07    3.75    29.14713    50.62954    10.79411
   683  H   1.0    0.10    1.07    1.44    20.89092    53.24492    12.19629
   684  H   1.0    0.06    1.06    1.44    23.98062    48.62832    12.02433
   685  H   1.0    0.06    1.06    1.44    25.09178    53.56806    14.86080
   686  H   1.0    0.07    1.05    1.44    26.13113    53.13531    10.10625
   687  H   1.0    0.04    1.04    1.43    28.50274    54.29183    12.21141
   688  H   1.0    0.04    1.00    1.43    28.91092    51.51771    16.45762
   689  H   1.0    0.07    1.01    1.43    26.09712    49.97758    17.50264
   690  H   1.0    0.05    1.00    1.43    27.93960    48.62076    15.02521
   691  H   1.0    0.07    1.00    1.43    30.22806    51.33818     9.18974
   692  H   1.0    0.04    1.01    1.43    30.42081    50.13443    12.33613
   693  H   1.0    0.06    1.00    1.43    28.05298    48.97792    10.22909
   694  N   5.0   -0.13    3.49    2.07    20.94005    47.30740    15.42961
   695  C   4.0    0.04    4.43    4.44    19.34890    46.53072    17.53666
   696  C   4.0    0.15    3.41    3.08    20.95328    45.54995    19.73819
   697  O   6.0   -0.27    1.24    1.80    22.80899    44.18746    19.31111
   698  C   4.0   -0.04    4.36    4.31    17.51020    44.48226    16.68817
   699  C   4.0   -0.01    3.62    3.18    16.82234    44.61643    13.95752
   700  C   4.0   -0.04    3.48    3.11    14.88915    46.16223    13.14682
   701  C   4.0   -0.04    3.50    3.12    18.06578    43.13677    12.20196
   702  C   4.0   -0.05    3.38    3.07    14.23342    46.26049    10.61459
   703  C   4.0   -0.03    3.38    3.07    17.42894    43.23315     9.66028
   704  C   4.0   -0.04    3.38    3.07    15.52410    44.79217     8.86848
   705  H   1.0    0.08    1.07    1.44    21.20461    45.96569    14.07090
   706  H   1.0    0.05    1.06    1.44    18.27743    48.15589    18.20940
   707  H   1.0    0.06    1.04    1.43    18.37003    42.64167    17.02832
   708  H   1.0    0.04    1.04    1.43    15.77354    44.65989    17.78043
   709  H   1.0    0.04    1.03    1.43    13.87626    47.30740    14.49798
   710  H   1.0    0.06    1.03    1.43    19.55677    41.88578    12.81801
   711  H   1.0    0.04    1.03    1.43    12.71786    47.48125    10.00043
   712  H   1.0    0.06    1.03    1.43    18.43428    42.08042     8.30912
   713  H   1.0    0.05    1.03    1.43    15.02710    44.87910     6.88994
   714  N   5.0   -0.14    3.38    2.01    20.23141    46.19246    22.07200
   715  C   4.0    0.05    4.32    4.24    21.72807    45.41956    24.29054
   716  C   4.0    0.10    3.21    3.04    22.15893    42.56608    24.48518
   717  O   6.0   -0.25    1.11    1.80    24.31132    41.69680    24.46061
   718  C   4.0   -0.03    4.26    4.11    20.68305    46.50427    26.77931
   719  C   4.0    0.16    3.20    3.04    22.15515    48.83430    27.69960
   720  O   6.0   -0.31    1.34    1.80    23.96739    49.68090    26.47128
   721  N   5.0   -0.18    3.15    1.95    21.37658    49.87365    29.87279
   722  H   1.0    0.10    1.07    1.44    18.65726    47.22236    22.49152
   723  H   1.0    0.09    1.08    1.44    23.58000    46.27183    23.99952
   724  H   1.0    0.05    1.03    1.43    18.72151    47.06174    26.49585
   725  H   1.0    0.05    1.03    1.43    20.80021    45.05863    28.24195
   726  H   1.0    0.10    1.02    1.43    22.27987    51.42322    30.57766
   727  H   1.0    0.08    1.02    1.43    19.87992    49.11587    30.82143
   728  N   5.0   -0.18    3.21    1.96     2.11082    41.85554     4.24243
   729  C   4.0    0.04    4.36    4.30     3.58859    44.14211     4.82636
   730  C   4.0    0.14    3.47    3.10     5.40084    44.59753     2.64940
   731  O   6.0   -0.30    1.26    1.80     6.20019    42.78717     1.40974
   732  C   4.0    0.05    4.23    4.05     5.13628    43.83597     7.29056
   733  O   6.0   -0.25    2.09    1.84     3.46198    43.42212     9.36926
   734  C   4.0   -0.07    4.12    3.85     6.69908    46.16223     7.82158
   735  H   1.0    0.10    1.03    1.43     3.19364    40.33809     3.75111
   736  H   1.0    0.07    1.05    1.44     2.33003    45.75782     5.05691
   737  H   1.0    0.05    1.04    1.43     6.40995    42.23160     7.07891
   738  H   1.0    0.12    1.01    1.43     2.94797    41.64389     9.42406
   739  H   1.0    0.04    1.00    1.43     7.77244    45.90900     9.56201
   740  H   1.0    0.04    1.01    1.43     8.01055    46.49860     6.27011
   741  H   1.0    0.06    1.02    1.43     5.47265    47.80440     8.02756
   742  N   5.0   -0.14    3.49    2.07     6.06980    46.98048     2.18830
   743  C   4.0    0.04    4.45    4.46     7.44363    47.65700    -0.11527
   744  C   4.0    0.14    3.48    3.11     7.81591    50.47836    -0.27779
   745  O   6.0   -0.31    1.28    1.80     6.90506    51.85219     1.33982
   746  C   4.0   -0.02    4.39    4.37     5.91862    46.86331    -2.43397
   747  C   4.0   -0.01    3.59    3.16     3.37883    48.17289    -2.58703
   748  C   4.0   -0.04    3.48    3.11     3.14072    50.53127    -3.73221
   749  C   4.0   -0.03    3.47    3.10     1.23021    47.06929    -1.53068
   750  C   4.0   -0.04    3.42    3.09     0.83526    51.73125    -3.84748
   751  C   4.0   -0.04    3.44    3.09    -1.07903    48.25793    -1.62705
   752  C   4.0    0.07    3.45    3.10    -1.27934    50.58607    -2.78735
   753  O   6.0   -0.24    2.10    1.84    -3.59804    51.78416    -2.87805
   754  H   1.0    0.11    1.08    1.44     5.69374    48.46769     3.35615
   755  H   1.0    0.05    1.06    1.44     9.26911    46.70458    -0.08504
   756  H   1.0    0.06    1.04    1.43     6.98443    47.33764    -4.13283
   757  H   1.0    0.07    1.04    1.43     5.58603    44.83186    -2.35460
   758  H   1.0    0.05    1.03    1.43     4.78479    51.42889    -4.53912
   759  H   1.0    0.06    1.03    1.43     1.38328    45.24949    -0.62172
   760  H   1.0    0.06    1.03    1.43     0.66896    53.55105    -4.75644
   761  H   1.0    0.06    1.03    1.43    -2.72310    47.37732    -0.80124
   762  H   1.0    0.12    1.02    1.43    -4.88494    50.73536    -2.05602
   763  N   5.0   -0.14    3.48    2.07     9.03478    51.34007    -2.30547
   764  C   4.0    0.04    4.44    4.45     9.24832    54.04238    -2.84971
   765  C   4.0    0.15    3.51    3.12    10.29901    54.52237    -5.45186
   766  O   6.0   -0.31    1.29    1.80    11.45552    52.87831    -6.59703
   767  C   4.0   -0.03    4.32    4.24    10.95474    55.34062    -0.95053
   768  C   4.0   -0.01    3.69    3.23    13.75909    54.91922    -1.35682
   769  C   4.0   -0.02    3.58    3.16    15.29166    53.27893    -0.05480
   770  C   4.0    0.01    3.89    3.45    15.38237    56.26659    -3.06136
   771  N   5.0   -0.12    3.47    2.06    17.75209    53.50381    -0.87872
   772  C   4.0    0.04    3.89    3.45    17.85602    55.32740    -2.71365
   773  C   4.0   -0.04    3.45    3.10    14.98742    58.17143    -4.83392
   774  C   4.0   -0.04    3.41    3.08    19.91204    56.23446    -4.08181
   775  C   4.0   -0.05    3.38    3.07    17.02643    59.05583    -6.19074
   776  C   4.0   -0.05    3.39    3.08    19.46229    58.09396    -5.80713
   777  H   1.0    0.11    1.08    1.44     9.89649    50.21191    -3.60938
   778  H   1.0    0.05    1.07    1.44     7.33592    54.80772    -2.80246
   779  H   1.0    0.05    1.03    1.43    10.61459    57.37019    -1.04880
   780  H   1.0    0.05    1.04    1.43    10.49176    54.63954     0.92975
   781  H   1.0    0.04    1.01    1.43    14.66049    51.99770     1.40407
   782  H   1.0    0.09    1.04    1.44    19.25064    52.47958    -0.22866
   783  H   1.0    0.07    1.07    1.44    13.12226    58.94055    -5.13816
   784  H   1.0    0.07    1.03    1.43    21.79043    55.49369    -3.78701
   785  H   1.0    0.05    1.03    1.43    16.73919    60.52225    -7.57969
   786  H   1.0    0.04    1.03    1.43    21.01564    58.84040    -6.89939
   787  N   5.0   -0.14    3.49    2.07     9.96264    56.81650    -6.37216
   788  C   4.0    0.01    4.32    4.23    10.54089    57.30216    -8.99132
   789  C   4.0    0.14    3.36    3.07    11.07568    60.04604    -9.53367
   790  O   6.0   -0.32    1.30    1.80    10.93584    61.66932    -7.85370
   791  H   1.0    0.12    1.15    1.45     9.31068    58.33206    -5.37438
   792  H   1.0    0.05    1.04    1.43    12.20007    56.20801    -9.53178
   793  H   1.0    0.05    1.03    1.43     8.94407    56.71823   -10.15539
   794  N   5.0   -0.14    3.47    2.06    11.66906    60.57706   -11.90527
   795  C   4.0    0.04    4.46    4.48    12.54778    63.06015   -12.55723
   796  C   4.0    0.07    3.28    3.05    11.85236    63.76691   -15.24064
   797  O   6.0   -0.29    1.14    1.80    11.72386    62.17765   -16.91872
   798  C   4.0   -0.02    4.38    4.34    15.39938    63.31527   -12.13960
   799  C   4.0   -0.05    4.22    4.04    16.07779    66.06293   -11.60670
   800  C   4.0   -0.07    4.19    3.97    16.84691    62.35529   -14.41294
   801  C   4.0   -0.09    4.04    3.69    18.84246    66.41253   -10.99821
   802  H   1.0    0.09    1.06    1.44    11.55567    59.33551   -13.37548
   803  H   1.0    0.06    1.08    1.44    11.53867    64.38296   -11.34214
   804  H   1.0    0.04    1.07    1.44    15.92094    62.17009   -10.50877
   805  H   1.0    0.04    1.03    1.43    15.64126    67.19677   -13.26966
   806  H   1.0    0.04    1.04    1.43    14.97986    66.72433    -9.99476
   807  H   1.0    0.03    1.01    1.43    18.86513    62.56127   -14.05956
   808  H   1.0    0.05    1.00    1.43    16.38581    60.37107   -14.71152
   809  H   1.0    0.05    1.01    1.43    16.30645    63.45889   -16.06645
   810  H   1.0    0.03    1.00    1.43    19.20340    68.40808   -10.63727
   811  H   1.0    0.03    1.00    1.43    19.30733    65.30137    -9.32580
   812  H   1.0    0.04    1.00    1.43    19.96873    65.77380   -12.60069
   813  N   5.0   -0.18    3.24    1.96    44.24037    56.78380     8.86943
   814  C   4.0    0.03    4.36    4.31    41.49649    56.85183     8.93368
   815  C   4.0    0.16    3.53    3.13    40.61966    54.12495     8.91478
   816  O   6.0   -0.27    1.25    1.80    41.51917    52.64152     7.38599
   817  C   4.0   -0.05    4.30    4.20    40.47604    58.25967     6.62254
   818  C   4.0   -0.03    4.21    4.02    37.66980    58.85116     6.73782
   819  C   4.0    0.25    3.15    3.03    36.01251    56.54569     6.27106
   820  O   6.0   -0.28    1.20    1.80    33.82043    56.54191     7.12710
   821  O   6.0   -0.28    1.27    1.80    36.89312    54.72400     5.06352
   822  H   1.0    0.09    1.03    1.43    44.96414    56.52113     7.10253
   823  H   1.0    0.04    1.07    1.44    40.77840    57.82882    10.59853
   824  H   1.0    0.04    1.03    1.43    41.48326    60.04735     6.44491
   825  H   1.0    0.06    1.04    1.43    40.80107    57.09938     4.95203
   826  H   1.0    0.05    1.03    1.43    37.21815    59.59004     8.60676
   827  H   1.0    0.06    1.04    1.43    37.22193    60.25522     5.29974
   828  N   5.0   -0.08    3.71    2.28    38.92646    53.42953    10.67034
   829  C   4.0    0.02    4.59    4.66    37.81909    55.05092    12.60164
   830  C   4.0    0.14    3.55    3.14    39.58031    55.25312    14.83529
   831  O   6.0   -0.28    1.27    1.80    41.31508    53.71488    15.09419
   832  C   4.0   -0.04    4.37    4.33    35.43803    53.61284    13.42178
   833  C   4.0   -0.04    4.30    4.20    35.43047    51.17698    11.97047
   834  C   4.0    0.02    4.38    4.34    38.01184    50.82171    10.89710
   835  H   1.0    0.04    1.05    1.44    37.30130    56.89529    11.84197
   836  H   1.0    0.06    1.04    1.43    35.51740    53.25001    15.44756
   837  H   1.0    0.04    1.03    1.43    33.76940    54.73156    12.97013
   838  H   1.0    0.04    1.03    1.43    34.96560    49.62741    13.24414
   839  H   1.0    0.05    1.03    1.43    34.03585    51.29036    10.45869
   840  H   1.0    0.06    1.02    1.43    39.20048    49.72945    12.17456
   841  H   1.0    0.07    1.02    1.43    37.92869    49.90331     9.05462
   842  N   5.0   -0.09    3.73    2.32    39.12867    57.10694    16.48880
   843  C   4.0    0.04    4.52    4.56    40.85965    57.28835    18.58829
   844  C   4.0    0.09    3.25    3.04    40.19258    55.18320    20.43833
   845  O   6.0   -0.29    1.15    1.80    37.99483    54.39329    20.55549
   846  C   4.0   -0.04    4.34    4.28    40.29085    59.91129    19.70701
   847  C   4.0   -0.04    4.28    4.16    38.28207    61.09804    18.02137
   848  C   4.0   -0.01    4.35    4.29    37.07453    58.96832    16.64754
   849  H   1.0    0.05    1.05    1.44    42.84576    57.24489    18.04405
   850  H   1.0    0.05    1.03    1.43    39.59165    59.70153    21.63264
   851  H   1.0    0.04    1.02    1.43    42.00861    61.04891    19.70134
   852  H   1.0    0.04    1.03    1.43    36.90068    62.09393    19.18166
   853  H   1.0    0.05    1.03    1.43    39.16835    62.40762    16.70234
   854  H   1.0    0.05    1.02    1.43    35.47771    58.21621    17.70768
   855  H   1.0    0.04    1.02    1.43    36.46037    59.55414    14.77104
   856  N   5.0   -0.20    3.21    1.96    35.36055    51.16753    30.29703
   857  C   4.0    0.03    4.23    4.07    33.63523    50.71400    28.20888
   858  C   4.0    0.09    3.20    3.04    34.28341    48.28192    26.78403
   859  O   6.0   -0.26    1.12    1.80    32.87367    47.45611    25.12107
   860  C   4.0   -0.04    4.40    4.38    33.75428    52.92876    26.37207
   861  C   4.0   -0.03    4.21    4.03    33.53886    55.56303    27.49835
   862  C   4.0   -0.07    4.09    3.78    33.65224    57.56425    25.40831
   863  C   4.0   -0.07    4.13    3.85    31.10489    55.73500    29.00824
   864  H   1.0    0.09    1.02    1.43    37.14445    51.63051    29.73578
   865  H   1.0    0.05    1.06    1.44    31.70393    50.57038    28.90997
   866  H   1.0    0.06    1.04    1.43    35.56086    52.84183    25.38752
   867  H   1.0    0.06    1.04    1.43    32.20849    52.72089    25.02659
   868  H   1.0    0.04    1.06    1.44    35.11489    55.93909    28.77013
   869  H   1.0    0.04    1.00    1.43    33.49350    59.43319    26.26058
   870  H   1.0    0.05    1.00    1.43    35.44937    57.39607    24.41431
   871  H   1.0    0.05    1.00    1.43    32.09322    57.25434    24.09873
   872  H   1.0    0.05    1.00    1.43    30.94804    57.62284    29.81515
   873  H   1.0    0.05    1.00    1.43    29.51185    55.37406    27.75535
   874  H   1.0    0.05    1.00    1.43    31.14835    54.32904    30.51246
   875  N   5.0   -0.18    3.19    1.95    25.77889    85.21803    24.57022
   876  C   4.0    0.03    4.22    4.03    25.22170    84.11952    22.10412
   877  C   4.0    0.09    3.20    3.04    25.19172    86.11408    20.02165
   878  O   6.0   -0.26    1.12    1.80    23.84279    88.00831    20.20117
   879  C   4.0   -0.04    4.29    4.17    22.69321    82.71643    22.13247
   880  C   4.0   -0.05    4.20    3.99    22.93053    79.84874    22.10790
   881  C   4.0   -0.05    4.22    4.03    22.88056    78.80523    24.76864
   882  C   4.0   -0.04    4.15    3.89    24.63347    76.57036    25.05021
   883  N   5.0   -0.12    4.01    2.90    25.62530    76.49273    27.68260
   884  H   1.0    0.09    1.03    1.43    24.26413    85.34723    25.75507
   885  H   1.0    0.04    1.06    1.44    26.72149    82.77281    21.67894
   886  H   1.0    0.05    1.04    1.43    21.66680    83.24323    23.83889
   887  H   1.0    0.06    1.04    1.43    21.61536    83.26809    20.46573
   888  H   1.0    0.04    1.03    1.43    21.35620    79.03800    21.05722
   889  H   1.0    0.04    1.04    1.43    24.71430    79.31406    21.22918
   890  H   1.0    0.04    1.04    1.43    23.48183    80.26959    26.08767
   891  H   1.0    0.04    1.03    1.43    20.96854    78.19011    25.22406
   892  H   1.0    0.04    1.02    1.43    23.60803    74.82401    24.67226
   893  H   1.0    0.04    1.03    1.43    26.21669    76.75344    23.74630
   894  H   1.0    0.06    1.01    1.43    26.83738    74.96027    27.89991
   895  H   1.0    0.06    1.02    1.43    26.61060    78.14608    28.07755
   896  H   1.0    0.06    1.02    1.43    24.13909    76.31548    28.95627
   897  N   5.0   -0.18    3.22    1.96    -5.22465    71.10787    -2.32247
   898  C   4.0    0.04    4.30    4.20    -4.64833    69.62300    -4.57314
   899  C   4.0    0.08    3.28    3.05    -5.31238    66.88167    -4.07425
   900  O   6.0   -0.29    1.14    1.80    -4.32692    65.73883    -2.30925
   901  C   4.0    0.06    4.29    4.17    -1.81971    69.66572    -5.10604
   902  O   6.0   -0.25    2.09    1.84    -0.93870    72.22724    -5.18163
   903  C   4.0   -0.07    4.11    3.82    -1.26801    68.33472    -7.56268
   904  H   1.0    0.10    1.03    1.43    -3.78963    71.12164    -1.03557
   905  H   1.0    0.04    1.05    1.44    -5.72381    70.39449    -6.15106
   906  H   1.0    0.06    1.05    1.44    -0.80121    68.67837    -3.61316
   907  H   1.0    0.11    1.01    1.43     0.88105    72.26110    -5.51989
   908  H   1.0    0.04    1.00    1.43     0.75566    68.36649    -7.94252
   909  H   1.0    0.05    1.00    1.43    -1.89857    66.37706    -7.46064
   910  H   1.0    0.05    1.00    1.43    -2.25297    69.27434    -9.10848
   911  H   1.0    0.10    1.08    1.44    12.22342    52.47553   -16.40008
   912  H   1.0    0.06    1.04    1.44    11.54460    43.50755    -7.07351
   913  H   1.0    0.09    1.12    1.45    25.09420    45.40993    -3.18432
   914  H   1.0    0.05    1.04    1.43    31.28374    57.80055   -11.10615
   915  H   1.0    0.09    1.07    1.44    31.22663    63.40552   -13.11287
   916  H   1.0    0.06    1.04    1.43    33.18086    67.05698   -19.16025
   917  H   1.0    0.10    1.08    1.44    17.05265    77.70599   -15.05428
   918  H   1.0    0.07    1.04    1.44     0.09136    47.93651    12.40325
   919  H   1.0    0.09    1.08    1.44    15.06643    51.16774    29.71002
   920  H   1.0    0.06    1.05    1.44     8.27458    59.57034    25.47149
   921  H   1.0    0.10    1.07    1.44    -3.96353    55.38555    16.19827
   922  H   1.0    0.05    1.04    1.44     9.35372    77.46331    -2.35633
   923  H   1.0    0.10    1.08    1.44    14.01983    78.37855    -4.31873
   924  H   1.0    0.05    1.05    1.44    19.83017    81.76117    -7.62467
   925  H   1.0    0.09    1.08    1.44    23.98343    79.49252    -8.98218
   926  H   1.0    0.06    1.04    1.44    31.01558    77.94526   -11.52069
   927  H   1.0    0.11    1.07    1.44    38.95204    70.08216    -9.12551
   928  H   1.0    0.06    1.04    1.43    20.68280    41.39557    24.63360
   929  H   1.0    0.10    1.07    1.44     1.19828    41.40590     5.60539
   930  H   1.0    0.06    1.05    1.44    11.48465    65.56812   -15.67824
   931  H   1.0    0.09    1.07    1.44    44.85867    58.25498     9.45755
   932  H   1.0    0.06    1.04    1.43    41.52914    54.44538    21.55202
   933  H   1.0    0.09    1.07    1.44    34.77744    52.45253    31.24642
   934  H   1.0    0.07    1.04    1.44    35.86831    47.33903    27.19647
   935  H   1.0    0.09    1.07    1.44    26.94425    84.26772    25.36482
   936  H   1.0    0.06    1.04    1.43    26.27377    85.89510    18.48793
   937  H   1.0    0.10    1.07    1.44    -5.52990    72.72034    -2.76895
   938  H   1.0    0.06    1.04    1.44    -6.55806    65.99417    -5.18407

  Z AO/shell   Hii/eV     exponent
  1     Wed Apr 25 08:07:45 CEST 2018   EN: 2.200 GM2: 0.406  GM3: 0.0800  RAES: 1.40
     1s    -10.707211    1.230000
  6     Wed Apr 25 08:07:45 CEST 2018   EN: 2.550 GM2: 0.538  GM3: 0.1500  RAES: 3.00
     2s    -13.970922    2.096432
     2p    -10.063292    1.800000
  7     Wed Apr 25 08:07:45 CEST 2018   EN: 3.040 GM2: 0.461  GM3:-0.0640  RAES: 1.90
     2s    -16.686243    2.339881
     2p    -12.523956    2.014332
  8     Wed Apr 25 08:07:45 CEST 2018   EN: 3.440 GM2: 0.452  GM3:-0.0517  RAES: 1.80
     2s    -20.229985    2.439742
     2p    -15.503117    2.137023
 16     Tue Apr 24 11:44:34 CEST 2018   EN: 2.580 GM2: 0.340  GM3:-0.0502  RAES: 3.10
     3s    -20.029654    1.981333
     3p    -11.377694    2.025643
     3d     -0.420282    1.702555
 no old-style atom pair restraining (fixing) potential

molecular fragmentation (1/2 indicates fragments):
111111111111111111111111111111111111111111222222222222222222222222222222
222222222222222222222222222222222222222222222222222222222222222222222222
222222222222222222222222222222222222222222222222222222222222222222222222
222222222222222222222222222222222222222222222222222222222222222222222222
222222222222222222222222222222222222222222222222222222222222222222222222
222222222222222222222222222222222222222222222222222222222222222222222222
222222222222222222222222222222222222222222222222222222222222222222222222
222222222222222222222222222222222222222222222222222222222222222222222222
222222222222222222222222222222222222222222222222222222222222222222222222
222222222222222222222222222222222222222222222222222222222222222222222222
222222222222222222222222222222222222222222222222222222222222222222222222
222222222222222222222222222222222222222222222222222222222222222222222222
222222222222222222222222222222222222222222222211222222222222222222222222
22
# atoms in fragment 1/2:    44   894
 fragment masses (1/2) :      278.37     6087.28
CMA distance (Bohr)    :  21.852
constraining FC (au)   :  0.0500
           ------------------------------------------------- 
          |        Self-Consistent Charge Iterations        |
           ------------------------------------------------- 

 Ncao       : 2294
 Nao        : 2293
 Nshell     : 1389
 Nel        : 2514
 T(el)      :   500.0
 intcut     :    35.0
 scfconv/Eh :  0.100E-06
   qconv/e  :  0.100E-04
 intneglect :  0.100E-08
 broydamp   :      0.400
 iter      E             dE          RMSdq      gap      omega  full diag
   1  -1432.2373092 -0.143224E+04  0.452E+00    2.61       0.0  T
   2  -1435.5637281 -0.332642E+01  0.214E+00    1.25       1.0  T
   3  -1435.7682132 -0.204485E+00  0.121E+00    1.55       1.0  T
   4  -1435.9850738 -0.216861E+00  0.259E-01    0.59       1.0  T
   5  -1435.9987482 -0.136745E-01  0.132E-01    0.81       1.0  T
   6  -1436.0024495 -0.370122E-02  0.636E-02    0.89       1.0  T
   7  -1436.0035488 -0.109932E-02  0.295E-02    0.92       1.0  T
   8  -1436.0037565 -0.207753E-03  0.167E-02    0.94       1.0  T
   9  -1436.0038243 -0.677282E-04  0.818E-03    0.96       1.0  T
  10  -1436.0038413 -0.170486E-04  0.454E-03    0.96       1.0  T
  11  -1436.0038472 -0.584209E-05  0.214E-03    0.96       1.5  T
  12  -1436.0038485 -0.136700E-05  0.104E-03    0.96       3.1  T
  13  -1436.0038488 -0.264588E-06  0.478E-04    0.96       6.8  T
  14  -1436.0038488 -0.575362E-07  0.265E-04    0.96      12.3  T
  15  -1436.0038489 -0.223006E-07  0.995E-05    0.96      32.8  T
  16  -1436.0038489 -0.234445E-08  0.516E-05    0.96      63.3  T
speedup  1.09
cpu  time for SCC    3 m 22.0 s
wall time for SCC    3 m  5.8 s

   *** convergence criteria satisfied after 16 iterations ***

          eigenvalues
 #    :        1245       1246       1247       1248       1249       1250       1251       1252
 occ. :        2.000      2.000      2.000      2.000      2.000      2.000      2.000      2.000
 eps  :        -9.867     -9.858     -9.824     -9.810     -9.785     -9.762     -9.758     -9.730
 #    :        1253       1254       1255       1256       1257       1258       1259       1260
 occ. :        2.000      2.000      2.000      2.000      2.000      0.000      0.000      0.000
 eps  :        -9.679     -9.638     -9.598     -9.574     -9.405     -8.440     -8.363     -8.163
 #    :        1261       1262       1263       1264       1265       1266       1267       1268
 occ. :        0.000      0.000      0.000      0.000      0.000      0.000      0.000      0.000
 eps  :        -8.124     -8.091     -8.085     -7.932     -7.918     -7.895     -7.767     -7.765


   #   Z            q   n(s)   n(p)   n(d)      C6AA      α(0)
   1   7 N     -0.393  1.330  4.063  0.000    30.177     8.159
   2   6 C      0.023  1.059  2.918  0.000    20.203     6.402
   3   6 C      0.271  1.046  2.682  0.000    22.417     7.754
[...]
 652   1 H      0.215  0.785  0.000  0.000     1.034     1.593
 653   1 H      0.066  0.934  0.000  0.000     2.134     2.284
 654   1 H      0.015  0.985  0.000  0.000     2.812     2.622
 655   1 H      0.009  0.991  0.000  0.000     2.911     2.668
 656   7 N     -0.151  1.243  3.908  0.000    24.275     7.318
 657   6 C      0.025  1.057  2.919  0.000    20.164     6.394
 658   6 C      0.278  1.044  2.678  0.000    22.293     7.731
 659   8 O     -0.495  1.761  4.734  0.000    23.684     6.525
 660   6 C     -0.076  1.055  3.020  0.000    21.933     6.666
 661   6 C     -0.018  1.053  2.965  0.000    20.857     6.496
 662   6 C     -0.124  1.045  3.080  0.000    22.940     6.829
 663   6 C     -0.122  1.043  3.079  0.000    22.883     6.820
 664   1 H      0.202  0.798  0.000  0.000     1.094     1.638
 665   1 H      0.082  0.918  0.000  0.000     1.961     2.190
 666   1 H      0.062  0.938  0.000  0.000     2.175     2.306
 667   1 H      0.046  0.954  0.000  0.000     2.369     2.407
 668   1 H      0.029  0.971  0.000  0.000     2.608     2.525
 669   1 H      0.064  0.936  0.000  0.000     2.157     2.297
 670   1 H      0.024  0.976  0.000  0.000     2.677     2.559
 671   1 H      0.053  0.947  0.000  0.000     2.288     2.365
 672   1 H      0.065  0.935  0.000  0.000     2.139     2.287
 673   1 H      0.053  0.947  0.000  0.000     2.280     2.361
 674   1 H      0.043  0.957  0.000  0.000     2.403     2.424
 675   7 N     -0.177  1.248  3.929  0.000    24.831     7.401
 676   6 C      0.023  1.063  2.914  0.000    20.196     6.399
 677   6 C      0.264  1.046  2.690  0.000    22.551     7.777
 678   8 O     -0.482  1.737  4.745  0.000    23.387     6.484
 679   6 C     -0.015  1.061  2.954  0.000    20.810     6.488
 680   6 C     -0.038  1.037  3.000  0.000    21.239     6.561
 681   6 C     -0.126  1.045  3.081  0.000    22.980     6.836
 682   6 C     -0.095  1.033  3.062  0.000    22.373     6.745
 683   1 H      0.214  0.786  0.000  0.000     1.039     1.597
 684   1 H      0.056  0.944  0.000  0.000     2.241     2.341
 685   1 H      0.054  0.946  0.000  0.000     2.268     2.355
 686   1 H      0.003  0.997  0.000  0.000     3.014     2.715
 687   1 H      0.028  0.972  0.000  0.000     2.615     2.529
 688   1 H      0.051  0.949  0.000  0.000     2.303     2.373
 689   1 H      0.062  0.938  0.000  0.000     2.171     2.304
 690   1 H      0.050  0.950  0.000  0.000     2.315     2.379
 691   1 H      0.017  0.983  0.000  0.000     2.773     2.604
 692   1 H      0.050  0.950  0.000  0.000     2.323     2.384
 693   1 H      0.026  0.974  0.000  0.000     2.642     2.542
 694   7 N     -0.153  1.242  3.911  0.000    24.304     7.322
 695   6 C      0.024  1.059  2.917  0.000    20.163     6.393
 696   6 C      0.270  1.043  2.687  0.000    22.434     7.756
 697   8 O     -0.498  1.764  4.734  0.000    23.745     6.533
 698   6 C     -0.083  1.051  3.032  0.000    22.067     6.686
 699   6 C      0.006  1.073  2.921  0.000    27.883     8.662
 700   6 C     -0.050  1.083  2.968  0.000    29.254     8.870
 701   6 C     -0.046  1.079  2.967  0.000    29.143     8.853
 702   6 C     -0.036  1.083  2.953  0.000    28.902     8.816
 703   6 C     -0.031  1.079  2.952  0.000    28.776     8.797
 704   6 C     -0.034  1.080  2.954  0.000    28.838     8.806
 705   1 H      0.207  0.793  0.000  0.000     1.069     1.619
 706   1 H      0.074  0.926  0.000  0.000     2.043     2.235
 707   1 H      0.061  0.939  0.000  0.000     2.182     2.310
 708   1 H      0.080  0.920  0.000  0.000     1.982     2.202
 709   1 H      0.064  0.936  0.000  0.000     2.158     2.297
 710   1 H      0.028  0.972  0.000  0.000     2.622     2.532
 711   1 H      0.055  0.945  0.000  0.000     2.264     2.353
 712   1 H      0.030  0.970  0.000  0.000     2.583     2.513
 713   1 H      0.037  0.963  0.000  0.000     2.482     2.464
 714   7 N     -0.169  1.252  3.917  0.000    24.663     7.376
 715   6 C      0.024  1.056  2.920  0.000    20.175     6.397
 716   6 C      0.204  1.083  2.713  0.000    23.667     7.967
 717   8 O     -0.352  1.765  4.586  0.000    20.741     6.106
 718   6 C     -0.111  1.065  3.046  0.000    22.624     6.772
 719   6 C      0.284  1.043  2.673  0.000    22.189     7.713
 720   8 O     -0.483  1.745  4.738  0.000    23.401     6.486
 721   7 N     -0.261  1.261  3.999  0.000    26.765     7.684
 722   1 H      0.234  0.766  0.000  0.000     0.947     1.525
 723   1 H      0.104  0.896  0.000  0.000     1.746     2.066
 724   1 H      0.108  0.892  0.000  0.000     1.715     2.048
 725   1 H      0.101  0.899  0.000  0.000     1.778     2.085
 726   1 H      0.243  0.757  0.000  0.000     0.913     1.496
 727   1 H      0.235  0.765  0.000  0.000     0.944     1.522
 728   7 N     -0.389  1.330  4.058  0.000    30.056     8.142
 729   6 C      0.014  1.066  2.921  0.000    20.363     6.427
 730   6 C      0.274  1.043  2.682  0.000    22.360     7.744
 731   8 O     -0.499  1.748  4.751  0.000    23.765     6.536
 732   6 C      0.116  1.047  2.838  0.000    18.784     6.188
 733   8 O     -0.488  1.733  4.755  0.000    22.641     6.423
 734   6 C     -0.134  1.045  3.089  0.000    23.136     6.859
 735   1 H      0.161  0.839  0.000  0.000     1.327     1.805
 736   1 H      0.064  0.936  0.000  0.000     2.152     2.294
 737   1 H      0.009  0.991  0.000  0.000     2.906     2.666
 738   1 H      0.322  0.678  0.000  0.000     0.658     1.274
 739   1 H      0.056  0.944  0.000  0.000     2.244     2.343
 740   1 H      0.044  0.956  0.000  0.000     2.399     2.422
 741   1 H      0.078  0.922  0.000  0.000     2.000     2.212
 742   7 N     -0.176  1.243  3.933  0.000    24.820     7.399
 743   6 C      0.020  1.056  2.924  0.000    20.241     6.405
 744   6 C      0.272  1.037  2.691  0.000    22.409     7.752
 745   8 O     -0.486  1.740  4.745  0.000    23.469     6.495
 746   6 C     -0.087  1.054  3.033  0.000    22.141     6.697
 747   6 C     -0.006  1.082  2.924  0.000    28.172     8.706
 748   6 C     -0.053  1.083  2.970  0.000    29.324     8.880
 749   6 C     -0.035  1.083  2.953  0.000    28.876     8.813
 750   6 C     -0.066  1.071  2.995  0.000    29.641     8.928
 751   6 C     -0.069  1.076  2.993  0.000    29.722     8.940
 752   6 C      0.139  1.047  2.814  0.000    24.966     8.189
 753   8 O     -0.432  1.722  4.710  0.000    21.487     6.258
 754   1 H      0.218  0.782  0.000  0.000     1.017     1.580
 755   1 H      0.079  0.921  0.000  0.000     1.985     2.203
 756   1 H      0.072  0.928  0.000  0.000     2.064     2.247
 757   1 H      0.081  0.919  0.000  0.000     1.968     2.194
 758   1 H      0.051  0.949  0.000  0.000     2.310     2.377
 759   1 H      0.040  0.960  0.000  0.000     2.444     2.445
 760   1 H      0.063  0.937  0.000  0.000     2.162     2.299
 761   1 H      0.042  0.958  0.000  0.000     2.424     2.435
 762   1 H      0.332  0.668  0.000  0.000     0.631     1.248
 763   7 N     -0.170  1.236  3.935  0.000    24.684     7.379
 764   6 C      0.015  1.057  2.928  0.000    20.319     6.418
 765   6 C      0.275  1.034  2.692  0.000    22.354     7.744
 766   8 O     -0.493  1.737  4.756  0.000    23.636     6.518
 767   6 C     -0.076  1.048  3.028  0.000    21.943     6.667
 768   6 C     -0.040  1.072  2.968  0.000    28.955     8.826
 769   6 C     -0.015  1.071  2.944  0.000    28.355     8.735
 770   6 C     -0.020  1.074  2.946  0.000    28.343     8.722
 771   7 N     -0.116  1.228  3.888  0.000    23.524     7.203
 772   6 C      0.046  1.063  2.890  0.000    26.880     8.500
 773   6 C     -0.055  1.084  2.971  0.000    29.378     8.888
 774   6 C     -0.052  1.068  2.983  0.000    29.283     8.873
 775   6 C     -0.052  1.076  2.976  0.000    29.290     8.875
 776   6 C     -0.044  1.075  2.969  0.000    29.091     8.845
 777   1 H      0.219  0.781  0.000  0.000     1.014     1.578
 778   1 H      0.079  0.921  0.000  0.000     1.987     2.204
 779   1 H      0.071  0.929  0.000  0.000     2.075     2.252
 780   1 H      0.066  0.934  0.000  0.000     2.134     2.285
 781   1 H      0.049  0.951  0.000  0.000     2.326     2.385
 782   1 H      0.156  0.844  0.000  0.000     1.361     1.828
 783   1 H      0.059  0.941  0.000  0.000     2.205     2.322
 784   1 H      0.005  0.995  0.000  0.000     2.976     2.698
 785   1 H      0.032  0.968  0.000  0.000     2.553     2.498
 786   1 H      0.026  0.974  0.000  0.000     2.647     2.544
 787   7 N     -0.177  1.239  3.938  0.000    24.829     7.401
 788   6 C     -0.031  1.043  2.988  0.000    21.180     6.561
 789   6 C      0.269  1.037  2.694  0.000    22.450     7.759
 790   8 O     -0.482  1.742  4.740  0.000    23.389     6.484
 791   1 H      0.255  0.745  0.000  0.000     0.864     1.456
 792   1 H      0.094  0.906  0.000  0.000     1.845     2.124
 793   1 H      0.085  0.915  0.000  0.000     1.932     2.174
 794   7 N     -0.157  1.228  3.928  0.000    24.394     7.335
 795   6 C      0.020  1.053  2.927  0.000    20.235     6.403
 796   6 C      0.204  1.082  2.714  0.000    23.667     7.967
 797   8 O     -0.362  1.750  4.612  0.000    20.934     6.134
 798   6 C     -0.019  1.064  2.955  0.000    20.878     6.498
 799   6 C     -0.062  1.049  3.013  0.000    21.680     6.628
 800   6 C     -0.122  1.041  3.081  0.000    22.882     6.820
 801   6 C     -0.115  1.039  3.076  0.000    22.752     6.802
 802   1 H      0.216  0.784  0.000  0.000     1.028     1.588
 803   1 H      0.098  0.902  0.000  0.000     1.799     2.098
 804   1 H      0.058  0.942  0.000  0.000     2.219     2.329
 805   1 H      0.031  0.969  0.000  0.000     2.571     2.507
 806   1 H      0.041  0.959  0.000  0.000     2.429     2.437
 807   1 H      0.059  0.941  0.000  0.000     2.205     2.322
 808   1 H      0.057  0.943  0.000  0.000     2.234     2.337
 809   1 H      0.037  0.963  0.000  0.000     2.485     2.465
 810   1 H      0.043  0.957  0.000  0.000     2.409     2.427
 811   1 H      0.040  0.960  0.000  0.000     2.443     2.444
 812   1 H      0.047  0.953  0.000  0.000     2.356     2.400
 813   7 N     -0.394  1.336  4.058  0.000    30.215     8.164
 814   6 C      0.046  1.048  2.907  0.000    19.822     6.341
 815   6 C      0.275  1.045  2.680  0.000    22.357     7.744
 816   8 O     -0.503  1.742  4.761  0.000    23.847     6.547
 817   6 C     -0.069  1.057  3.012  0.000    21.819     6.649
 818   6 C     -0.086  1.060  3.025  0.000    22.130     6.697
 819   6 C      0.365  1.022  2.613  0.000    20.807     7.465
 820   8 O     -0.646  1.787  4.858  0.000    27.266     7.001
 821   8 O     -0.634  1.759  4.875  0.000    26.960     6.962
 822   1 H      0.179  0.821  0.000  0.000     1.220     1.730
 823   1 H      0.008  0.992  0.000  0.000     2.920     2.672
 824   1 H      0.049  0.951  0.000  0.000     2.333     2.389
 825   1 H      0.042  0.958  0.000  0.000     2.424     2.435
 826   1 H      0.001  0.999  0.000  0.000     3.037     2.725
 827   1 H      0.029  0.971  0.000  0.000     2.604     2.523
 828   7 N     -0.091  1.236  3.855  0.000    23.020     7.126
 829   6 C      0.038  1.055  2.907  0.000    19.921     6.353
 830   6 C      0.258  1.043  2.699  0.000    22.655     7.796
 831   8 O     -0.503  1.754  4.749  0.000    23.854     6.548
 832   6 C     -0.050  1.048  3.002  0.000    21.443     6.588
 833   6 C     -0.057  1.040  3.017  0.000    21.576     6.608
 834   6 C      0.014  1.041  2.945  0.000    20.377     6.433
 835   1 H      0.028  0.972  0.000  0.000     2.610     2.526
 836   1 H      0.054  0.946  0.000  0.000     2.276     2.359
 837   1 H      0.036  0.964  0.000  0.000     2.497     2.471
 838   1 H      0.050  0.950  0.000  0.000     2.316     2.380
 839   1 H      0.044  0.956  0.000  0.000     2.390     2.418
 840   1 H      0.057  0.943  0.000  0.000     2.240     2.341
 841   1 H      0.053  0.947  0.000  0.000     2.282     2.362
 842   7 N     -0.076  1.228  3.849  0.000    22.720     7.079
 843   6 C      0.022  1.061  2.917  0.000    20.182     6.392
 844   6 C      0.201  1.086  2.713  0.000    23.727     7.977
 845   8 O     -0.366  1.761  4.604  0.000    21.010     6.145
 846   6 C     -0.075  1.060  3.015  0.000    21.905     6.659
 847   6 C     -0.071  1.046  3.026  0.000    21.839     6.649
 848   6 C     -0.001  1.048  2.953  0.000    20.643     6.476
 849   1 H      0.092  0.908  0.000  0.000     1.856     2.130
 850   1 H      0.075  0.925  0.000  0.000     2.027     2.226
 851   1 H      0.091  0.909  0.000  0.000     1.871     2.139
 852   1 H      0.079  0.921  0.000  0.000     1.986     2.204
 853   1 H      0.073  0.927  0.000  0.000     2.057     2.243
 854   1 H      0.075  0.925  0.000  0.000     2.027     2.226
 855   1 H      0.037  0.963  0.000  0.000     2.490     2.468
 856   7 N     -0.393  1.326  4.067  0.000    30.189     8.160
 857   6 C      0.034  1.055  2.911  0.000    20.017     6.373
 858   6 C      0.196  1.092  2.712  0.000    23.814     7.992
 859   8 O     -0.394  1.767  4.627  0.000    21.566     6.226
 860   6 C     -0.069  1.055  3.015  0.000    21.813     6.647
 861   6 C     -0.013  1.055  2.959  0.000    20.779     6.483
 862   6 C     -0.123  1.047  3.077  0.000    22.925     6.827
 863   6 C     -0.122  1.043  3.080  0.000    22.899     6.823
 864   1 H      0.160  0.840  0.000  0.000     1.338     1.812
 865   1 H      0.079  0.921  0.000  0.000     1.985     2.203
 866   1 H      0.035  0.965  0.000  0.000     2.519     2.482
 867   1 H      0.048  0.952  0.000  0.000     2.348     2.396
 868   1 H      0.034  0.966  0.000  0.000     2.525     2.485
 869   1 H      0.054  0.946  0.000  0.000     2.269     2.355
 870   1 H      0.037  0.963  0.000  0.000     2.488     2.466
 871   1 H      0.046  0.954  0.000  0.000     2.364     2.405
 872   1 H      0.048  0.952  0.000  0.000     2.345     2.395
 873   1 H      0.043  0.957  0.000  0.000     2.415     2.430
 874   1 H      0.041  0.959  0.000  0.000     2.439     2.442
 875   7 N     -0.394  1.333  4.061  0.000    30.197     8.161
 876   6 C      0.035  1.056  2.909  0.000    20.003     6.371
 877   6 C      0.198  1.092  2.711  0.000    23.785     7.987
 878   8 O     -0.379  1.767  4.612  0.000    21.273     6.184
 879   6 C     -0.073  1.059  3.014  0.000    21.883     6.659
 880   6 C     -0.078  1.054  3.024  0.000    21.978     6.674
 881   6 C     -0.096  1.054  3.042  0.000    22.332     6.727
 882   6 C     -0.051  1.062  2.989  0.000    21.579     6.630
 883   7 N     -0.150  1.238  3.912  0.000    24.239     7.312
 884   1 H      0.168  0.832  0.000  0.000     1.282     1.774
 885   1 H      0.054  0.946  0.000  0.000     2.274     2.358
 886   1 H      0.073  0.927  0.000  0.000     2.054     2.241
 887   1 H      0.038  0.962  0.000  0.000     2.482     2.464
 888   1 H      0.053  0.947  0.000  0.000     2.286     2.364
 889   1 H      0.057  0.943  0.000  0.000     2.237     2.339
 890   1 H      0.082  0.918  0.000  0.000     1.963     2.191
 891   1 H      0.080  0.920  0.000  0.000     1.984     2.203
 892   1 H      0.114  0.886  0.000  0.000     1.659     2.014
 893   1 H      0.111  0.889  0.000  0.000     1.687     2.031
 894   1 H      0.302  0.698  0.000  0.000     0.706     1.316
 895   1 H      0.297  0.703  0.000  0.000     0.722     1.331
 896   1 H      0.302  0.698  0.000  0.000     0.707     1.317
 897   7 N     -0.379  1.322  4.057  0.000    29.793     8.107
 898   6 C      0.031  1.055  2.915  0.000    20.072     6.381
 899   6 C      0.194  1.092  2.714  0.000    23.859     8.000
 900   8 O     -0.356  1.749  4.606  0.000    20.816     6.117
 901   6 C      0.116  1.045  2.838  0.000    18.753     6.179
 902   8 O     -0.478  1.725  4.753  0.000    22.433     6.394
 903   6 C     -0.133  1.046  3.087  0.000    23.105     6.854
 904   1 H      0.167  0.833  0.000  0.000     1.294     1.782
 905   1 H      0.060  0.940  0.000  0.000     2.199     2.319
 906   1 H      0.032  0.968  0.000  0.000     2.565     2.505
 907   1 H      0.312  0.688  0.000  0.000     0.685     1.301
 908   1 H      0.051  0.949  0.000  0.000     2.304     2.374
 909   1 H      0.047  0.953  0.000  0.000     2.359     2.402
 910   1 H      0.062  0.938  0.000  0.000     2.176     2.307
 911   1 H      0.192  0.808  0.000  0.000     1.149     1.679
 912   1 H      0.086  0.914  0.000  0.000     1.919     2.166
 913   1 H      0.174  0.826  0.000  0.000     1.251     1.752
 914   1 H      0.096  0.904  0.000  0.000     1.823     2.111
 915   1 H      0.172  0.828  0.000  0.000     1.260     1.759
 916   1 H      0.070  0.930  0.000  0.000     2.088     2.260
 917   1 H      0.171  0.829  0.000  0.000     1.264     1.761
 918   1 H      0.078  0.922  0.000  0.000     1.996     2.209
 919   1 H      0.187  0.813  0.000  0.000     1.176     1.699
 920   1 H      0.085  0.915  0.000  0.000     1.932     2.174
 921   1 H      0.177  0.823  0.000  0.000     1.230     1.737
 922   1 H      0.094  0.906  0.000  0.000     1.842     2.122
 923   1 H      0.174  0.826  0.000  0.000     1.250     1.751
 924   1 H      0.063  0.937  0.000  0.000     2.164     2.300
 925   1 H      0.183  0.817  0.000  0.000     1.197     1.714
 926   1 H      0.045  0.955  0.000  0.000     2.389     2.417
 927   1 H      0.181  0.819  0.000  0.000     1.209     1.722
 928   1 H      0.089  0.911  0.000  0.000     1.885     2.147
 929   1 H      0.178  0.822  0.000  0.000     1.227     1.735
 930   1 H      0.075  0.925  0.000  0.000     2.036     2.231
 931   1 H      0.196  0.804  0.000  0.000     1.126     1.662
 932   1 H      0.084  0.916  0.000  0.000     1.937     2.176
 933   1 H      0.188  0.812  0.000  0.000     1.168     1.693
 934   1 H      0.072  0.928  0.000  0.000     2.058     2.243
 935   1 H      0.194  0.806  0.000  0.000     1.135     1.669
 936   1 H      0.063  0.937  0.000  0.000     2.159     2.298
 937   1 H      0.192  0.808  0.000  0.000     1.147     1.678
 938   1 H      0.080  0.920  0.000  0.000     1.977     2.199

 Mol. C6AA /au·bohr⁶  :    8166709.118422
 Mol. C8AA /au·bohr⁸  :  183164249.144863
 Mol. α(0) /au        :       4300.878028

 
molecular dipole:
                 x           y           z       tot (Debye)
 q only:        6.718      68.876      11.249
   full:        9.155      68.272      11.034     177.318
molecular quadrupole (traceless):
                xx          xy          yy          xz          yz          zz
 q only:    -1909.544    1328.100    4110.249    1138.229    1842.404   -2200.705
  q+dip:    -1771.192    1545.685    3979.734    1092.715    1783.706   -2208.542
   full:    -1760.359    1545.723    3968.283    1099.571    1783.257   -2207.924
speedup  1.14
cpu  time for grad    4 m  8.9 s
wall time for grad    3 m 37.9 s

SCC energy    :   -1436.0380386
rep           :      17.9536775
ES            :       4.1650186
AES           :      -0.1375618
AXC           :       0.4964521
disp          :      -1.3536239
XB            :       0.0000000
fix           :       0.0000000
Gborn         :       0.0000000
Gsasa         :       0.0000000
Ghb           :       0.0000000
Gshift        :       0.0000000
Gsolv         :      -0.9700937     -608.74
Etot ala COSMO:   -1436.0380386
grad norm     :       0.9134422
total E       :   -1417.9024277
atomizationE  :     264.2800862   165838.26
(atE without considering molecular charge,
 total energy contains solvation terms)
H-L gap (eV)  :          0.9641

------------------------------------------------------------------------
 * finished run on 2019/05/04 at 15:58:25.989     
------------------------------------------------------------------------
 total:
 * wall-time:     0 d,  0 h,  3 min, 44.531 sec
 *  cpu-time:     0 d,  0 h,  4 min, 15.540 sec
 * ratio c/w:     1.138 speedup
 SCF:
 * wall-time:     0 d,  0 h,  3 min, 42.368 sec
 *  cpu-time:     0 d,  0 h,  4 min, 14.123 sec
 * ratio c/w:     1.143 speedup

