      -----------------------------------------------------------      
     |                   =====================                   |     
     |                           x T B                           |     
     |                   =====================                   |     
     |                         S. Grimme                         |     
     |          Mulliken Center for Theoretical Chemistry        |     
     |                    University of Bonn                     |     
     |                 Version 6.0.1 (SAW181210)                 |     
      -----------------------------------------------------------      

   This program is distributed in the hope that it will be useful,
   but WITHOUT ANY WARRANTY; without even the implied warranty of
   MERCHANTABILITY or FITNESS FOR A PARTICULAR PURPOSE.
   
   FOR NON-COMMERCIAL, ACADEMIA USE ONLY.
   
   Cite this work as:
   S. Grimme, C. Bannwarth, P. Shushkov, J. Comput. Theory Chem., 2017,
   13, 1989-2009.
   C. Bannwarth, S. Ehlert and S. Grimme., ChemRxiv, 2018, preprint.
   http://doi.org/10.26434/chemrxiv.7246238.v1
   
   for sTDA-xTB:
   S. Grimme and C. Bannwarth, J. Chem. Phys., 2016, 145, 054103.
   
   in the mass-spec context:
   V. Asgeirsson, C. Bauer and S. Grimme, Chem. Sci., 2017, 8, 4879.
   
   if GBSA is used:
   P. Shushkov, F. März and S. Grimme, unpublished.
   
   for ANC optimizer:
   S. Grimme, unpublished.
   Rational Function algorithm used in ANCopt:
   F. Eckert, P. Pulay, H.-J. Werner, J. Comput. Chem., 1997, 18, 1473.
   
   with help from (in alphabetical order)
   C. Bannwarth, F. Bohle, G. Brandenburg, E. Caldeweyher, M. Checinski,
   S. Dohm, S. Ehlert, S. Ehrlich, F. März, H. Neugebauer, J. Pisarek,
   P. Pracht, P. Shushkov, and S. Spicher.
   
 * started run on 2019/05/11 at 23:18:35.864     
========================================================================
 # omp threads = 2
========================================================================
number of atoms            : 686
number of electrons        : 1908
charge                     : -8
spin                       : .0
first test random number   : .0104

########################################################################
# WARNING! Please study the warnings concerning your input carefully
#  - Process number higher than OMP_NUM_THREADS, I hope you know what you are doing.
########################################################################

           ------------------------------------------------- 
          |                 G F N 2 - x T B                 |
          | Geometry, Frequencies, Noncovalent interactions |
          |            JCTC 2018 parametrisation            |
           ------------------------------------------------- 
 
      method parameters     
 k(s)        :  1.8500
 k(p)        :  2.2300
 k(d)        :  2.2300
 k(f)        :  2.0000
 kEN (H0ij)  : -2.0000
 D4 a1       :  0.5200
 D4 a2       :  5.0000
 D4 s6       :  1.0000
 D4 s8       :  2.7000
 D4 s9       :  5.0000
 alphaj      :  2.0000

 Solvent             : h2o
 Using internal parameter file: .param_gbsa2_h2o
 Gsolv ref. state (COSMO-RS): gsolv [1 M gas/solution]
 temperature (mdtemp)       :    298.150000000000     
 dielectric constant        :    80.2000000000000     
 rho                        :    1.00000000000000     
 mass                       :    18.0000000000000     
 surface tension            :    15.5689454083859     
 probe radius               :   0.975313790000000     
 vdW radii scaling          :    1.00000000000000     
 Gshift (Eh)                :   1.857443126794793E-003
 c1                         :    1.55243817000000     
 soset                      :   0.130326360000000     
 HB correction              :  T

            Z     q(EN)     CN     RAES       Cart. coordinates
     1  N   5.0   -0.24    3.19    1.95     6.12865   167.38312    18.60116
     2  C   4.0    0.02    4.29    4.19     4.13029   165.92624    19.85636
     3  C   4.0    0.05    3.20    3.04     1.99410   167.55396    20.91095
     4  O   6.0   -0.33    1.26    1.80     0.04898   167.65555    19.67591
     5  C   4.0   -0.03    4.30    4.20     5.11300   164.17732    21.97724
     6  C   4.0   -0.06    4.18    3.95     7.56666   165.19493    23.21929
     7  C   4.0   -0.08    4.09    3.78     5.37729   161.47801    20.98709
     8  C   4.0   -0.11    4.00    3.62     7.71332   164.57687    26.05002
     9  H   1.0    0.06    1.04    1.43     7.90370   166.91022    19.10709
    10  H   1.0    0.04    1.06    1.44     3.20310   164.78732    18.38872
    11  H   1.0    0.03    1.07    1.44     3.65449   164.10299    23.43904
    12  H   1.0    0.02    1.03    1.43     9.19353   164.32095    22.30819
    13  H   1.0    0.02    1.03    1.43     7.67368   167.24544    23.02747
    14  H   1.0    0.04    1.00    1.43     6.22545   160.27169    22.42210
    15  H   1.0    0.04    1.00    1.43     3.54653   160.67848    20.50932
    16  H   1.0    0.03    1.00    1.43     6.55363   161.40204    19.30730
    17  H   1.0    0.00    1.00    1.43     9.42972   165.35844    26.86054
    18  H   1.0    0.02    1.00    1.43     6.10328   165.33852    27.07113
    19  H   1.0    0.03    1.00    1.43     7.75598   162.54381    26.36008
    20  N   5.0   -0.21    3.29    1.98    -1.37152   170.31461    16.02244
    21  C   4.0    0.02    4.27    4.14    -3.09788   168.62168    14.76871
    22  C   4.0    0.14    3.37    3.07    -5.45098   168.17214    16.46488
    23  O   6.0   -0.34    1.32    1.80    -7.56253   168.72466    15.68727
    24  C   4.0   -0.05    4.26    4.13    -1.53153   166.33466    13.84737
    25  C   4.0   -0.03    4.12    3.84    -2.67044   164.63990    11.70979
    26  C   4.0   -0.09    4.08    3.77    -4.52074   165.94249     9.88271
    27  C   4.0   -0.09    4.10    3.80    -0.56095   163.42451    10.15058
    28  H   1.0    0.08    1.05    1.44     0.43082   169.72609    16.26302
    29  H   1.0    0.03    1.06    1.44    -3.87871   169.61605    13.11971
    30  H   1.0    0.03    1.04    1.43     0.22725   167.14034    13.13147
    31  H   1.0    0.05    1.02    1.43    -1.08740   165.13672    15.46150
    32  H   1.0    0.03    1.05    1.44    -3.72492   163.11261    12.63218
    33  H   1.0    0.03    1.00    1.43    -5.18991   164.58538     8.49940
    34  H   1.0    0.04    1.00    1.43    -6.15053   166.68257    10.89648
    35  H   1.0    0.02    1.00    1.43    -3.59798   167.49361     8.89941
    36  H   1.0    0.03    1.00    1.43    -1.37314   162.20292     8.71532
    37  H   1.0    0.02    1.00    1.43     0.61276   164.83211     9.22859
    38  H   1.0    0.03    1.00    1.43     0.65674   162.27695    11.34790
    39  N   5.0   -0.15    3.43    2.04    -5.07266   167.11108    18.74261
    40  C   4.0    0.03    4.32    4.24    -7.07611   165.87772    20.17866
    41  C   4.0    0.08    3.33    3.06    -9.44031   167.48455    20.13971
    42  O   6.0   -0.34    1.24    1.80   -11.51813   166.45464    19.91837
    43  C   4.0   -0.06    4.34    4.27    -6.43140   165.51322    22.95546
    44  C   4.0   -0.05    4.19    3.98    -4.48429   163.45966    23.42526
    45  C   4.0   -0.01    4.25    4.11    -4.19723   163.35136    26.27832
    46  N   5.0   -0.14    3.39    2.02    -2.10200   161.75457    27.03637
    47  C   4.0    0.10    3.34    3.06    -2.02602   160.33786    29.12014
    48  N   5.0   -0.20    3.23    1.96    -3.90858   160.34784    30.83871
    49  N   5.0   -0.19    3.24    1.96     0.18831   159.26908    29.70487
    50  H   1.0    0.10    1.11    1.44    -3.26581   166.75522    19.26469
    51  H   1.0    0.05    1.05    1.44    -7.52777   164.04041    19.32791
    52  H   1.0    0.03    1.03    1.43    -5.74896   167.32011    23.68261
    53  H   1.0    0.04    1.04    1.43    -8.17710   165.01641    23.93023
    54  H   1.0    0.06    1.03    1.43    -5.10594   161.62373    22.73338
    55  H   1.0    0.04    1.02    1.43    -2.69032   163.94536    22.53295
    56  H   1.0    0.02    1.03    1.43    -3.88006   165.24033    27.06281
    57  H   1.0    0.04    1.03    1.43    -5.94962   162.60157    27.06342
    58  H   1.0    0.07    1.07    1.44    -0.72058   161.49825    25.74469
    59  H   1.0    0.08    1.04    1.43    -5.67764   160.65356    30.19140
    60  H   1.0    0.07    1.04    1.43    -3.80132   159.04324    32.22177
    61  H   1.0    0.08    1.03    1.43     1.58671   159.15681    28.41733
    62  H   1.0    0.09    1.03    1.43     0.34098   157.99018    31.11082
    63  N   5.0   -0.22    3.32    1.99   -12.32600   168.59385    14.20361
    64  C   4.0    0.03    4.28    4.16   -13.05972   166.05229    13.57645
    65  C   4.0    0.15    3.58    3.16   -15.64584   165.58124    14.74572
    66  O   6.0   -0.30    1.33    1.80   -17.37593   164.54369    13.56932
    67  C   4.0   -0.07    4.13    3.86   -11.14076   164.17909    14.61031
    68  H   1.0    0.11    1.07    1.44   -11.26581   168.72884    15.78021
    69  H   1.0    0.04    1.05    1.44   -13.21243   165.90997    11.51586
    70  H   1.0    0.04    1.00    1.43   -11.57068   162.28529    13.93756
    71  H   1.0    0.05    1.00    1.43    -9.25386   164.69105    13.98086
    72  H   1.0    0.07    1.02    1.43   -11.18637   164.15694    16.65761
    73  N   5.0   -0.14    3.60    2.16   -15.77231   166.44738    17.12389
    74  C   4.0    0.03    4.38    4.35   -18.18050   167.04031    18.28845
    75  C   4.0    0.16    3.56    3.14   -19.79569   167.93163    16.01641
    76  O   6.0   -0.29    1.25    1.80   -21.90152   167.06880    15.62080
    77  C   4.0   -0.06    4.18    3.96   -17.97416   168.86277    20.56192
    78  C   4.0   -0.06    4.10    3.80   -17.06075   167.62604    23.04973
    79  C   4.0   -0.02    4.14    3.89   -18.71610   165.34429    23.89514
    80  N   5.0   -0.16    3.35    2.00   -19.62037   165.40744    26.51670
    81  C   4.0    0.08    3.31    3.06   -19.26692   163.74206    28.39144
    82  N   5.0   -0.19    3.23    1.96   -17.30895   162.13643    28.35980
    83  N   5.0   -0.22    3.23    1.96   -20.72111   163.88513    30.46013
    84  H   1.0    0.11    1.13    1.45   -14.17883   166.92798    18.07847
    85  H   1.0    0.05    1.05    1.44   -19.11317   165.29380    18.91624
    86  H   1.0    0.03    1.02    1.43   -16.69478   170.39251    20.04934
    87  H   1.0    0.02    1.03    1.43   -19.84588   169.67520    20.85714
    88  H   1.0    0.05    1.03    1.43   -15.11704   167.00475    22.78352
    89  H   1.0    0.02    1.03    1.43   -17.08781   169.07119    24.51336
    90  H   1.0    0.03    1.03    1.43   -20.41537   165.30009    22.72138
    91  H   1.0    0.05    1.02    1.43   -17.68918   163.59031    23.57493
    92  H   1.0    0.05    1.07    1.44   -20.98136   166.71951    26.80649
    93  H   1.0    0.09    1.04    1.43   -16.30114   161.98262    26.74901
    94  H   1.0    0.10    1.03    1.43   -17.36070   160.51118    29.35853
    95  H   1.0    0.05    1.03    1.43   -22.25752   165.00738    30.51854
    96  H   1.0    0.06    1.03    1.43   -20.52680   162.57540    31.82520
    97  N   5.0   -0.14    3.54    2.11   -18.57536   169.45552    14.38994
    98  C   4.0    0.03    4.33    4.25   -19.76192   170.24479    12.04304
    99  C   4.0    0.17    3.48    3.11   -21.42571   168.22570    10.70366
   100  O   6.0   -0.32    1.30    1.80   -23.60647   168.87153    10.21128
   101  C   4.0   -0.05    4.19    3.98   -17.86083   171.62147    10.27262
   102  C   4.0   -0.04    4.16    3.93   -17.09933   170.32339     7.79822
   103  C   4.0    0.23    3.09    3.02   -17.87307   171.74835     5.35028
   104  O   6.0   -0.34    1.17    1.80   -17.04275   173.95648     5.10912
   105  O   6.0   -0.32    1.15    1.80   -19.12166   170.59678     3.69996
   106  H   1.0    0.07    1.07    1.44   -16.95199   170.31723    14.92065
   107  H   1.0    0.04    1.06    1.44   -21.21672   171.65190    12.55708
   108  H   1.0    0.03    1.03    1.43   -18.66804   173.46317     9.79622
   109  H   1.0    0.03    1.03    1.43   -16.17692   172.00521    11.38642
   110  H   1.0    0.04    1.04    1.43   -15.05118   170.25411     7.69516
   111  H   1.0    0.05    1.05    1.44   -17.81169   168.40249     7.67661
   112  N   5.0   -0.13    3.46    2.05   -20.50441   166.05596     9.70120
   113  C   4.0    0.04    4.50    4.54   -22.23295   164.83931     7.95815
   114  C   4.0    0.16    3.54    3.13   -23.36511   162.51880     9.11140
   115  O   6.0   -0.30    1.45    1.80   -22.42625   161.65971    11.03047
   116  C   4.0    0.03    4.16    3.93   -21.18283   164.16269     5.34792
   117  O   6.0   -0.28    2.14    1.84   -23.25795   163.60273     3.79109
   118  H   1.0    0.12    1.09    1.44   -19.17379   165.05058    10.64939
   119  H   1.0    0.06    1.11    1.45   -23.74751   166.22419     7.64463
   120  H   1.0    0.05    1.01    1.43   -20.06682   165.73951     4.60018
   121  H   1.0    0.05    1.02    1.43   -20.03527   162.45500     5.42880
   122  H   1.0    0.10    1.02    1.43   -24.11837   165.17472     3.40674
   123  N   5.0   -0.14    3.49    2.07   -25.44929   161.57767     7.96392
   124  C   4.0    0.02    4.49    4.52   -26.36676   159.11460     8.74396
   125  C   4.0    0.16    3.74    3.28   -24.16256   157.34578     8.78127
   126  O   6.0   -0.30    1.42    1.80   -22.46280   157.66998     7.25119
   127  C   4.0    0.05    4.33    4.26   -27.97882   157.70490     6.70440
   128  O   6.0   -0.26    2.18    1.85   -26.76742   157.75436     4.35617
   129  C   4.0   -0.09    4.07    3.74   -30.61576   158.77775     6.40444
   130  H   1.0    0.09    1.09    1.44   -25.71935   162.03950     6.11939
   131  H   1.0    0.03    1.04    1.43   -27.39919   159.24019    10.52667
   132  H   1.0    0.03    1.05    1.44   -28.15821   155.73339     7.36138
   133  H   1.0    0.15    1.08    1.44   -24.95261   157.71291     4.58870
   134  H   1.0    0.02    1.00    1.43   -31.53956   157.80418     4.85280
   135  H   1.0    0.01    1.00    1.43   -31.69802   158.49436     8.12473
   136  H   1.0    0.03    1.00    1.43   -30.52757   160.78101     5.97230
   137  N   5.0   -0.16    3.45    2.05   -24.39238   155.20052    10.10974
   138  C   4.0    0.03    4.48    4.51   -22.67647   153.19132     9.40709
   139  C   4.0    0.16    3.57    3.15   -22.54186   152.77436     6.54978
   140  O   6.0   -0.31    1.36    1.80   -20.49964   152.69463     5.47533
   141  C   4.0   -0.06    4.35    4.28   -23.32704   150.66318    10.60071
   142  C   4.0   -0.02    4.18    3.96   -21.09886   148.79865    10.23534
   143  C   4.0   -0.07    4.06    3.73   -19.83064   148.21448    12.80755
   144  C   4.0   -0.08    4.06    3.73   -21.93579   146.44262     8.74594
   145  H   1.0    0.07    1.06    1.44   -25.90806   154.79376    11.19681
   146  H   1.0    0.05    1.06    1.44   -20.76417   153.75848     9.98463
   147  H   1.0    0.05    1.03    1.43   -23.67736   150.91670    12.61914
   148  H   1.0    0.03    1.03    1.43   -25.03062   149.87435     9.75406
   149  H   1.0    0.05    1.07    1.44   -19.64791   149.70549     9.06974
   150  H   1.0    0.04    1.00    1.43   -18.25202   146.92571    12.53927
   151  H   1.0    0.05    1.00    1.43   -19.12213   149.94215    13.65418
   152  H   1.0    0.05    1.00    1.43   -21.15989   147.34764    14.11167
   153  H   1.0    0.05    1.00    1.43   -20.35628   145.14828     8.48860
   154  H   1.0    0.04    1.00    1.43   -23.43578   145.43844     9.72607
   155  H   1.0    0.05    1.00    1.43   -22.59571   146.98019     6.87237
   156  N   5.0   -0.15    3.45    2.05   -24.72482   152.44612     5.31972
   157  C   4.0    0.04    4.45    4.46   -24.74827   151.38368     2.77713
   158  C   4.0    0.17    3.54    3.13   -22.53022   152.36600     1.20999
   159  O   6.0   -0.30    1.28    1.80   -20.79236   150.99951     0.49364
   160  C   4.0   -0.06    4.25    4.10   -27.23078   152.00018     1.40709
   161  C   4.0   -0.04    4.16    3.92   -27.16509   151.16141    -1.37618
   162  C   4.0    0.24    3.06    3.02   -26.84124   148.22559    -1.92316
   163  O   6.0   -0.33    1.16    1.80   -28.00243   147.45118    -3.83305
   164  O   6.0   -0.30    1.17    1.80   -25.47496   146.92867    -0.48477
   165  H   1.0    0.06    1.07    1.44   -26.32589   152.13290     6.31552
   166  H   1.0    0.06    1.06    1.44   -24.50583   149.32300     2.85831
   167  H   1.0    0.03    1.03    1.43   -28.76163   150.98400     2.34691
   168  H   1.0    0.04    1.03    1.43   -27.61088   154.02650     1.50921
   169  H   1.0    0.03    1.02    1.43   -28.90804   151.72752    -2.31470
   170  H   1.0    0.05    1.03    1.43   -25.58527   152.02775    -2.38964
   171  N   5.0   -0.14    3.59    2.14   -22.74669   154.81346     0.66639
   172  C   4.0    0.03    4.43    4.43   -21.05748   156.40120    -0.78578
   173  C   4.0    0.15    3.42    3.08   -18.24355   155.78579    -0.41913
   174  O   6.0   -0.32    1.28    1.80   -16.71874   155.72920    -2.17374
   175  C   4.0    0.05    4.30    4.19   -21.63107   159.08491     0.28630
   176  O   6.0   -0.27    2.18    1.85   -24.29082   159.37679     0.23642
   177  C   4.0   -0.08    4.06    3.72   -20.29017   161.16428    -1.18997
   178  H   1.0    0.09    1.13    1.45   -24.36441   155.76353     1.08756
   179  H   1.0    0.05    1.04    1.43   -21.49515   156.28894    -2.81150
   180  H   1.0    0.05    1.04    1.43   -20.97817   159.08395     2.26025
   181  H   1.0    0.13    1.04    1.43   -24.66999   160.95642     1.08610
   182  H   1.0    0.04    1.00    1.43   -20.55830   162.97163    -0.25867
   183  H   1.0    0.04    1.00    1.43   -18.28740   160.74228    -1.32380
   184  H   1.0    0.04    1.00    1.43   -21.07397   161.24247    -3.08766
   185  N   5.0   -0.14    3.55    2.11   -17.60265   155.65846     2.03052
   186  C   4.0    0.03    4.47    4.50   -15.06407   155.23655     2.89189
   187  C   4.0    0.16    3.57    3.15   -14.05540   152.61201     2.35386
   188  O   6.0   -0.32    1.45    1.80   -12.10923   152.38066     1.13112
   189  C   4.0   -0.05    4.44    4.45   -14.89279   155.62013     5.73143
   190  C   4.0   -0.02    4.20    3.99   -16.08132   158.05951     6.68606
   191  C   4.0   -0.08    4.10    3.80   -15.05417   158.55494     9.35624
   192  C   4.0   -0.08    4.14    3.89   -15.46179   160.21059     4.85075
   193  H   1.0    0.11    1.11    1.45   -18.96807   155.17944     3.28942
   194  H   1.0    0.05    1.07    1.44   -13.84387   156.54141     1.85255
   195  H   1.0    0.05    1.04    1.43   -15.77845   154.01551     6.67345
   196  H   1.0    0.03    1.04    1.43   -12.88629   155.60153     6.22245
   197  H   1.0    0.07    1.06    1.44   -18.12972   157.83372     6.80524
   198  H   1.0    0.05    1.00    1.43   -15.97504   160.18873    10.19109
   199  H   1.0    0.04    1.00    1.43   -15.38823   156.92133    10.55318
   200  H   1.0    0.03    1.00    1.43   -13.02963   158.89555     9.26443
   201  H   1.0    0.04    1.00    1.43   -15.91756   162.02240     5.70057
   202  H   1.0    0.03    1.00    1.43   -13.44560   160.18541     4.45315
   203  H   1.0    0.04    1.01    1.43   -16.49598   160.01306     3.09606
   204  N   5.0   -0.15    3.53    2.10   -15.19506   150.65701     3.48621
   205  C   4.0    0.03    4.44    4.44   -14.48755   148.15903     2.66956
   206  C   4.0    0.17    3.59    3.16   -14.23711   148.29209    -0.19823
   207  O   6.0   -0.30    1.30    1.80   -12.27280   147.65410    -1.24538
   208  C   4.0   -0.05    4.19    3.98   -16.37328   146.22165     3.70040
   209  C   4.0   -0.03    4.09    3.77   -15.96368   143.45707     2.85203
   210  C   4.0    0.24    3.03    3.02   -16.65771   141.19090     4.74991
   211  O   6.0   -0.30    1.15    1.80   -17.17631   139.09441     3.80259
   212  O   6.0   -0.32    1.20    1.80   -16.50245   141.62529     7.07084
   213  H   1.0    0.10    1.08    1.44   -16.96593   150.89265     4.17469
   214  H   1.0    0.05    1.05    1.44   -12.58906   147.70170     3.38731
   215  H   1.0    0.05    1.03    1.43   -16.23740   146.26477     5.76860
   216  H   1.0    0.06    1.02    1.43   -18.28697   146.80558     3.17856
   217  H   1.0    0.06    1.02    1.43   -16.96781   143.09130     1.08269
   218  H   1.0    0.06    1.02    1.43   -13.95763   143.14357     2.44350
   219  N   5.0   -0.13    3.55    2.12   -16.13891   149.36590    -1.46133
   220  C   4.0    0.04    4.48    4.51   -16.19970   149.03217    -4.19263
   221  C   4.0    0.17    3.55    3.14   -13.89578   150.26930    -5.35431
   222  O   6.0   -0.30    1.24    1.80   -12.69644   149.34730    -7.11727
   223  C   4.0   -0.03    4.28    4.15   -18.57523   150.18574    -5.36155
   224  C   4.0   -0.03    4.18    3.95   -18.90093   149.28904    -8.08037
   225  C   4.0    0.25    3.08    3.02   -20.28015   151.26346    -9.81540
   226  O   6.0   -0.30    1.18    1.80   -20.31635   153.49302    -9.07419
   227  O   6.0   -0.33    1.16    1.80   -21.16696   150.41421   -11.82471
   228  H   1.0    0.11    1.11    1.45   -17.84157   149.64898    -0.62507
   229  H   1.0    0.07    1.05    1.44   -16.12243   146.99683    -4.63326
   230  H   1.0    0.06    1.02    1.43   -20.21197   149.61082    -4.23252
   231  H   1.0    0.07    1.03    1.43   -18.45445   152.24818    -5.31159
   232  H   1.0    0.06    1.03    1.43   -17.05068   148.93947    -8.92951
   233  H   1.0    0.04    1.02    1.43   -19.93743   147.50523    -8.13161
   234  N   5.0   -0.13    3.58    2.14   -13.37035   152.51853    -4.38272
   235  C   4.0    0.04    4.47    4.49   -11.30890   153.90734    -5.40457
   236  C   4.0    0.15    3.54    3.13    -8.69924   153.06999    -4.40266
   237  O   6.0   -0.30    1.30    1.80    -6.85313   153.15931    -5.82099
   238  C   4.0   -0.04    4.33    4.26   -11.79001   156.70480    -5.03813
   239  C   4.0   -0.03    4.12    3.85   -10.95635   157.52427    -2.40053
   240  S   6.0   -0.06    2.48    3.10    -7.69833   158.79427    -2.30108
   241  C   4.0   -0.08    3.90    3.46    -8.66276   162.00154    -3.19142
   242  H   1.0    0.12    1.13    1.45   -14.53117   153.32529    -3.09170
   243  H   1.0    0.06    1.08    1.44   -11.21984   153.42697    -7.41500
   244  H   1.0    0.04    1.04    1.43   -10.72735   157.77687    -6.44408
   245  H   1.0    0.06    1.04    1.43   -13.80863   157.01018    -5.27204
   246  H   1.0    0.04    1.07    1.44   -12.16608   159.04532    -1.72188
   247  H   1.0    0.06    1.08    1.44   -11.02909   155.96308    -1.07049
   248  H   1.0    0.03    1.05    1.44    -7.00131   163.15667    -2.92434
   249  H   1.0    0.04    1.03    1.43    -9.28465   162.02505    -5.13779
   250  H   1.0    0.04    1.04    1.43   -10.14757   162.62284    -1.91861
   251  N   5.0   -0.14    3.52    2.09    -8.37458   152.29319    -2.01234
   252  C   4.0    0.04    4.48    4.50    -5.99285   151.10053    -1.41232
   253  C   4.0    0.16    3.71    3.25    -5.18008   149.17093    -3.34909
   254  O   6.0   -0.31    1.36    1.80    -3.02646   148.94915    -4.18424
   255  C   4.0   -0.05    4.42    4.42    -6.18786   149.57882     0.98981
   256  C   4.0   -0.02    4.21    4.02    -4.66669   147.07669     1.22369
   257  C   4.0   -0.07    4.11    3.82    -1.87498   146.76794     0.44920
   258  C   4.0   -0.08    4.15    3.91    -4.78856   146.47004     4.06019
   259  H   1.0    0.13    1.16    1.45    -9.88608   151.76355    -0.98190
   260  H   1.0    0.05    1.05    1.44    -4.51354   152.55072    -1.28667
   261  H   1.0    0.03    1.05    1.44    -5.70410   150.79410     2.56915
   262  H   1.0    0.06    1.04    1.43    -8.15938   149.00563     1.22286
   263  H   1.0    0.04    1.06    1.44    -5.71585   145.60281     0.20959
   264  H   1.0    0.04    1.00    1.43    -1.29754   144.85167     0.91843
   265  H   1.0    0.07    1.05    1.44    -1.54551   147.07269    -1.53028
   266  H   1.0    0.04    1.00    1.43    -0.68117   148.04883     1.52836
   267  H   1.0    0.04    1.00    1.43    -4.08141   144.57263     4.43243
   268  H   1.0    0.03    1.01    1.43    -3.65671   147.77908     5.14693
   269  H   1.0    0.04    1.00    1.43    -6.73319   146.53180     4.74020
   270  N   5.0   -0.14    3.64    2.20    -6.96453   147.54946    -3.99525
   271  C   4.0    0.04    4.43    4.44    -6.35987   145.50733    -5.67451
   272  C   4.0    0.09    3.27    3.05    -4.74751   146.38450    -7.90146
   273  O   6.0   -0.33    1.12    1.80    -2.86981   145.16921    -8.52100
   274  C   4.0   -0.04    4.31    4.21    -8.89810   144.35876    -6.34453
   275  C   4.0   -0.03    4.32    4.24    -9.66753   143.03466    -3.92472
   276  C   4.0    0.24    3.12    3.03   -12.28910   141.84794    -3.95042
   277  O   6.0   -0.30    1.17    1.80   -13.94889   142.91601    -5.26496
   278  O   6.0   -0.31    1.17    1.80   -12.46734   139.91669    -2.58521
   279  H   1.0    0.10    1.10    1.44    -8.74783   147.68505    -3.33106
   280  H   1.0    0.04    1.06    1.44    -5.19376   144.09742    -4.67646
   281  H   1.0    0.08    1.03    1.43   -10.27666   145.79890    -6.86146
   282  H   1.0    0.03    1.02    1.43    -8.75523   142.99467    -7.88547
   283  H   1.0    0.04    1.03    1.43    -8.34277   141.52243    -3.44803
   284  H   1.0    0.06    1.05    1.44    -9.74868   144.34064    -2.33536
   285  N   5.0   -0.25    3.17    1.95   -10.08959   172.84263    -1.56929
   286  C   4.0    0.02    4.20    4.00   -10.47623   170.26362    -2.36645
   287  C   4.0    0.05    3.22    3.04   -11.75492   170.01629    -4.93296
   288  O   6.0   -0.34    1.13    1.80   -11.30348   168.13911    -6.21406
   289  C   4.0   -0.05    4.32    4.23   -11.98995   168.57050    -0.53602
   290  C   4.0   -0.03    4.14    3.88   -10.99354   168.12842     2.18882
   291  C   4.0   -0.08    4.13    3.87   -12.55053   165.97487     3.30609
   292  C   4.0   -0.09    4.09    3.78    -8.21072   167.45971     2.50847
   293  H   1.0    0.07    1.02    1.43   -10.43413   173.30622     0.24770
   294  H   1.0    0.03    1.06    1.44    -8.62088   169.36468    -2.59263
   295  H   1.0    0.04    1.03    1.43   -13.89939   169.32645    -0.33570
   296  H   1.0    0.04    1.04    1.43   -12.12545   166.73742    -1.47323
   297  H   1.0    0.03    1.05    1.44   -11.37639   169.83776     3.29332
   298  H   1.0    0.03    1.00    1.43   -12.08911   165.71592     5.28942
   299  H   1.0    0.04    1.00    1.43   -14.55966   166.38833     3.17374
   300  H   1.0    0.03    1.00    1.43   -12.15719   164.22466     2.30624
   301  H   1.0    0.03    1.00    1.43    -7.81505   167.18582     4.50340
   302  H   1.0    0.03    1.00    1.43    -7.75820   165.71581     1.51813
   303  H   1.0    0.02    1.00    1.43    -6.98034   168.95305     1.81480
   304  N   5.0   -0.24    3.20    1.96   -10.43991   164.03494   -11.80226
   305  C   4.0    0.03    4.24    4.09   -12.02249   161.95407   -12.54526
   306  C   4.0    0.05    3.21    3.04   -11.17921   161.01384   -15.12773
   307  O   6.0   -0.32    1.12    1.80   -12.09468   159.11208   -16.07418
   308  C   4.0   -0.05    4.27    4.14   -14.89259   162.50040   -12.38819
   309  C   4.0    0.15    3.23    3.04   -16.21827   160.08428   -11.52047
   310  O   6.0   -0.30    1.18    1.80   -17.36299   158.67007   -12.93369
   311  N   5.0   -0.19    3.20    1.96   -15.92769   159.66876    -9.02724
   312  H   1.0    0.06    1.02    1.43   -10.72320   165.72385   -12.63391
   313  H   1.0    0.05    1.07    1.44   -11.56079   160.41395   -11.22925
   314  H   1.0    0.03    1.03    1.43   -15.21471   164.01228   -11.02982
   315  H   1.0    0.03    1.03    1.43   -15.62086   163.05686   -14.22900
   316  H   1.0    0.10    1.03    1.43   -16.73853   158.14104    -8.22726
   317  H   1.0    0.07    1.03    1.43   -14.86980   160.83414    -7.96185
   318  N   5.0   -0.23    3.29    1.98     9.23189   151.46840     8.19016
   319  C   4.0    0.02    4.40    4.38     9.25994   150.50618    10.72317
   320  C   4.0    0.15    3.49    3.11     7.20023   151.79277    12.23721
   321  O   6.0   -0.33    1.30    1.80     5.49570   150.83402    13.45980
   322  C   4.0   -0.04    4.47    4.49    11.69338   151.30013    11.99205
   323  C   4.0   -0.05    4.16    3.92    13.90088   149.54058    11.51834
   324  C   4.0    0.22    3.15    3.03    15.23759   149.14316    14.13615
   325  O   6.0   -0.34    1.34    1.80    14.08677   149.92990    16.11085
   326  O   6.0   -0.36    1.16    1.80    17.32828   148.05958    14.14287
   327  H   1.0    0.06    1.03    1.43    10.87914   151.45878     7.22366
   328  H   1.0    0.05    1.04    1.43     9.02186   148.43756    10.73601
   329  H   1.0    0.03    1.04    1.43    12.24378   153.18099    11.39770
   330  H   1.0    0.07    1.08    1.44    11.39131   151.35395    14.03707
   331  H   1.0    0.04    1.02    1.43    13.32398   147.69286    10.81892
   332  H   1.0    0.02    1.02    1.43    15.28071   150.28585    10.19061
   333  N   5.0   -0.14    3.66    2.22     7.65776   154.24220    12.17367
   334  C   4.0    0.02    4.27    4.15     6.46928   156.23902    13.62748
   335  C   4.0    0.16    3.43    3.09     3.50546   155.87320    13.25462
   336  O   6.0   -0.31    1.29    1.80     1.87462   155.42447    14.84506
   337  C   4.0   -0.06    4.15    3.91     7.78050   158.78569    12.67758
   338  C   4.0   -0.07    4.08    3.76    10.54212   159.29395    13.60307
   339  C   4.0   -0.06    4.10    3.81    10.75026   161.26571    15.75684
   340  C   4.0   -0.07    4.07    3.74    13.46408   162.25390    16.34718
   341  N   5.0   -0.15    3.98    2.81    13.32964   164.70804    17.83506
   342  H   1.0    0.06    1.13    1.45     9.18120   154.83223    11.19224
   343  H   1.0    0.04    1.04    1.43     6.88178   155.97737    15.64545
   344  H   1.0    0.02    1.03    1.43     7.73156   158.73646    10.63483
   345  H   1.0    0.03    1.02    1.43     6.57760   160.36797    13.23601
   346  H   1.0    0.03    1.02    1.43    11.43467   157.52057    14.13897
   347  H   1.0    0.02    1.03    1.43    11.62596   160.04757    12.02562
   348  H   1.0    0.02    1.03    1.43     9.64543   162.90191    15.15976
   349  H   1.0    0.03    1.02    1.43     9.95475   160.45625    17.47438
   350  H   1.0    0.02    1.01    1.43    14.53686   160.85466    17.41003
   351  H   1.0    0.01    1.02    1.43    14.45482   162.64915    14.58309
   352  H   1.0    0.01    1.02    1.43    15.13399   165.33043    18.18264
   353  H   1.0    0.02    1.02    1.43    12.36159   165.92066    16.62365
   354  H   1.0    0.03    1.02    1.43    12.38692   164.40028    19.51041
   355  N   5.0   -0.15    3.52    2.09     2.94486   156.13546    10.84068
   356  C   4.0    0.03    4.55    4.60     0.36044   155.74402    10.17318
   357  C   4.0    0.16    3.74    3.28    -0.69302   153.25270    11.11129
   358  O   6.0   -0.33    1.40    1.80    -2.65824   153.18238    12.34392
   359  C   4.0   -0.06    4.44    4.45     0.04291   155.71635     7.31731
   360  C   4.0   -0.02    4.23    4.07    -2.70727   155.18763     6.60782
   361  C   4.0   -0.09    4.10    3.81    -3.19724   156.42340     4.00292
   362  C   4.0   -0.08    4.21    4.02    -3.29554   152.38833     6.51439
   363  H   1.0    0.06    1.06    1.44     4.21455   156.51584     9.45474
   364  H   1.0    0.04    1.06    1.44    -0.82075   157.23695    11.00966
   365  H   1.0    0.03    1.03    1.43     0.61666   157.56687     6.60560
   366  H   1.0    0.03    1.03    1.43     1.30419   154.30712     6.50356
   367  H   1.0    0.04    1.06    1.44    -3.93973   156.07336     8.00759
   368  H   1.0    0.04    1.00    1.43    -5.12838   156.08983     3.39179
   369  H   1.0    0.03    1.00    1.43    -2.87692   158.44404     4.10713
   370  H   1.0    0.03    1.00    1.43    -1.93227   155.60785     2.60658
   371  H   1.0    0.03    1.01    1.43    -5.05942   152.15937     5.48681
   372  H   1.0    0.03    1.00    1.43    -1.82337   151.34839     5.52026
   373  H   1.0    0.05    1.05    1.44    -3.59029   151.55061     8.33712
   374  N   5.0   -0.15    3.67    2.23     0.43059   151.23983    10.08885
   375  C   4.0    0.03    4.43    4.43    -0.47924   148.76329    10.58299
   376  C   4.0    0.16    3.62    3.18    -1.02424   148.62919    13.39355
   377  O   6.0   -0.32    1.32    1.80    -2.84493   147.36725    14.11669
   378  C   4.0   -0.04    4.29    4.19     1.31976   146.88737     9.38658
   379  C   4.0   -0.03    4.10    3.80     3.80980   146.14654    10.63157
   380  C   4.0    0.24    3.06    3.02     5.28758   144.27810     8.73416
   381  O   6.0   -0.31    1.17    1.80     4.09857   143.42603     6.85745
   382  O   6.0   -0.31    1.14    1.80     7.56094   143.79144     9.24216
   383  H   1.0    0.08    1.08    1.44     2.11479   151.39110     9.22507
   384  H   1.0    0.04    1.06    1.44    -2.32665   148.44388     9.67351
   385  H   1.0    0.05    1.03    1.43     0.29693   145.11299     9.06169
   386  H   1.0    0.04    1.04    1.44     1.78364   147.60637     7.51610
   387  H   1.0    0.06    1.05    1.44     5.01238   147.75750    10.97609
   388  H   1.0    0.05    1.01    1.43     3.53329   145.14043    12.41627
   389  N   5.0   -0.13    3.63    2.19     0.29309   150.11104    14.99968
   390  C   4.0    0.04    4.67    4.73    -0.41112   149.56226    17.57332
   391  C   4.0    0.16    3.62    3.18    -2.94639   150.71445    18.21864
   392  O   6.0   -0.33    1.32    1.80    -4.42346   149.67688    19.69231
   393  C   4.0   -0.02    4.31    4.23     1.45362   150.47219    19.55135
   394  C   4.0   -0.07    4.15    3.91     4.21160   150.28003    18.73670
   395  C   4.0   -0.07    4.25    4.11     0.92744   153.17603    20.29418
   396  H   1.0    0.11    1.10    1.44     2.12425   150.53192    14.59486
   397  H   1.0    0.05    1.07    1.44    -0.63233   147.49568    17.75477
   398  H   1.0    0.04    1.06    1.44     1.13838   149.25627    21.20183
   399  H   1.0    0.04    1.00    1.43     5.39775   150.48629    20.40048
   400  H   1.0    0.05    1.00    1.43     4.60997   148.45079    17.88233
   401  H   1.0    0.07    1.02    1.43     4.66643   151.75313    17.39597
   402  H   1.0    0.04    1.01    1.43     2.37163   153.74063    21.65386
   403  H   1.0    0.07    1.02    1.43     1.05322   154.41862    18.67134
   404  H   1.0    0.05    1.02    1.43    -0.88847   153.40715    21.22194
   405  N   5.0   -0.14    3.71    2.28    -3.23087   152.98915    17.24996
   406  C   4.0    0.04    4.55    4.61    -5.38550   154.59108    17.72084
   407  C   4.0    0.16    3.66    3.20    -7.67996   153.10771    17.08717
   408  O   6.0   -0.31    1.30    1.80    -9.63727   153.09998    18.32331
   409  C   4.0   -0.02    4.29    4.19    -5.29701   157.00324    16.09179
   410  C   4.0   -0.07    4.17    3.93    -7.30621   157.17852    14.01826
   411  C   4.0   -0.07    4.12    3.85    -5.44914   159.26035    17.88487
   412  H   1.0    0.11    1.13    1.45    -1.91640   153.59290    15.99548
   413  H   1.0    0.06    1.08    1.44    -5.44686   155.12074    19.72730
   414  H   1.0    0.05    1.06    1.44    -3.44542   157.01827    15.16747
   415  H   1.0    0.03    1.00    1.43    -7.32877   159.09993    13.28116
   416  H   1.0    0.05    1.01    1.43    -6.89769   155.90482    12.47358
   417  H   1.0    0.05    1.01    1.43    -9.18042   156.76763    14.75098
   418  H   1.0    0.04    1.00    1.43    -5.26799   161.01038    16.82279
   419  H   1.0    0.05    1.00    1.43    -7.26228   159.22324    18.84797
   420  H   1.0    0.05    1.00    1.43    -3.97540   159.12929    19.29891
   421  N   5.0   -0.14    3.70    2.27    -7.44588   151.92087    14.87924
   422  C   4.0    0.04    4.60    4.66    -9.41145   150.26508    14.08951
   423  C   4.0    0.16    3.63    3.19    -9.77956   148.19095    16.01220
   424  O   6.0   -0.31    1.48    1.80   -11.88173   147.88229    16.97088
   425  C   4.0   -0.02    4.29    4.17    -8.97946   149.36509    11.41516
   426  C   4.0   -0.08    4.13    3.86   -11.39399   148.14610    10.42303
   427  C   4.0   -0.08    4.19    3.98    -8.31804   151.66245     9.81103
   428  H   1.0    0.11    1.12    1.45    -5.72504   151.80306    14.05936
   429  H   1.0    0.05    1.07    1.44   -11.20464   151.32404    14.13708
   430  H   1.0    0.05    1.05    1.44    -7.43296   147.98594    11.38099
   431  H   1.0    0.04    1.00    1.43   -11.12933   147.37279     8.53545
   432  H   1.0    0.05    1.00    1.43   -12.00175   146.61110    11.64615
   433  H   1.0    0.04    1.00    1.43   -12.90170   149.53950    10.33146
   434  H   1.0    0.04    1.00    1.43    -8.26088   151.10208     7.83541
   435  H   1.0    0.04    1.00    1.43    -9.80280   153.06943    10.01784
   436  H   1.0    0.05    1.02    1.43    -6.52735   152.47652    10.34562
   437  N   5.0   -0.14    3.51    2.09    -7.83652   146.80090    16.79773
   438  C   4.0    0.05    4.59    4.65    -8.54330   145.01746    18.70567
   439  C   4.0    0.17    3.66    3.21   -10.16748   146.30919    20.73409
   440  O   6.0   -0.31    1.38    1.80   -11.99423   145.27490    21.75720
   441  C   4.0   -0.03    4.30    4.21    -6.33935   143.73651    19.96601
   442  C   4.0    0.15    3.24    3.04    -7.33016   141.11932    20.85254
   443  O   6.0   -0.30    1.21    1.80    -8.63649   139.77500    19.48436
   444  N   5.0   -0.18    3.17    1.95    -6.48562   140.39322    23.16674
   445  H   1.0    0.11    1.07    1.44    -6.04894   146.92943    16.13316
   446  H   1.0    0.06    1.08    1.44    -9.70749   143.52804    17.83500
   447  H   1.0    0.05    1.03    1.43    -4.86337   143.38152    18.56686
   448  H   1.0    0.05    1.03    1.43    -5.55753   144.83633    21.51398
   449  H   1.0    0.11    1.03    1.43    -7.45607   139.03778    24.10136
   450  H   1.0    0.09    1.03    1.43    -5.77722   141.71677    24.33891
   451  N   5.0   -0.13    3.60    2.15    -9.33592   148.55062    21.45555
   452  C   4.0    0.04    4.46    4.48   -10.46604   149.87875    23.55684
   453  C   4.0    0.17    3.50    3.12   -13.31443   149.81004    23.43520
   454  O   6.0   -0.32    1.24    1.80   -14.55450   149.37218    25.34096
   455  C   4.0   -0.03    4.33    4.25    -9.47530   152.59845    23.70158
   456  C   4.0   -0.03    4.20    4.01    -6.61099   152.66581    24.16941
   457  C   4.0    0.25    3.15    3.03    -6.08994   155.39443    25.01002
   458  O   6.0   -0.32    1.20    1.80    -5.92657   156.96180    23.26999
   459  O   6.0   -0.30    1.16    1.80    -5.99114   155.85081    27.32465
   460  H   1.0    0.12    1.12    1.45    -7.71575   149.26224    20.71176
   461  H   1.0    0.05    1.05    1.44    -9.96010   148.90305    25.33369
   462  H   1.0    0.08    1.06    1.44    -9.93722   153.61183    21.98422
   463  H   1.0    0.06    1.03    1.43   -10.43518   153.49670    25.29828
   464  H   1.0    0.05    1.02    1.43    -6.12895   151.33630    25.68471
   465  H   1.0    0.07    1.04    1.43    -5.55497   152.16258    22.49239
   466  N   5.0   -0.14    3.56    2.12   -14.26374   150.38734    21.17679
   467  C   4.0    0.04    4.49    4.52   -16.89797   150.32771    20.64331
   468  C   4.0    0.15    3.48    3.11   -17.86223   147.97003    19.40642
   469  O   6.0   -0.31    1.27    1.80   -20.13261   147.85938    18.99156
   470  C   4.0   -0.04    4.29    4.17   -17.75039   152.51730    19.04533
   471  C   4.0   -0.04    4.12    3.84   -17.79974   155.01913    20.61031
   472  C   4.0   -0.01    4.12    3.84   -20.38456   156.44535    20.65601
   473  N   5.0   -0.14    3.34    2.00   -20.70223   158.24624    18.55950
   474  C   4.0    0.09    3.32    3.06   -22.00801   157.88283    16.39302
   475  N   5.0   -0.18    3.27    1.97   -24.20594   156.69189    16.34978
   476  N   5.0   -0.17    3.33    1.99   -21.12946   158.87803    14.27187
   477  H   1.0    0.11    1.09    1.44   -13.04991   150.66673    19.72566
   478  H   1.0    0.06    1.08    1.44   -17.87368   150.37577    22.48142
   479  H   1.0    0.05    1.03    1.43   -16.46571   152.65775    17.43768
   480  H   1.0    0.06    1.04    1.44   -19.63854   152.08900    18.34213
   481  H   1.0    0.06    1.03    1.43   -17.31862   154.58960    22.56488
   482  H   1.0    0.05    1.02    1.43   -16.34011   156.28353    19.89127
   483  H   1.0    0.06    1.02    1.43   -21.91816   155.07043    20.64219
   484  H   1.0    0.06    1.02    1.43   -20.51758   157.49624    22.42573
   485  H   1.0    0.08    1.08    1.44   -19.14477   159.33894    18.33196
   486  H   1.0    0.12    1.06    1.44   -24.89058   155.54864    17.74776
   487  H   1.0    0.09    1.04    1.43   -25.02855   156.31908    14.68070
   488  H   1.0    0.11    1.04    1.43   -19.80691   160.25368    14.29398
   489  H   1.0    0.13    1.12    1.45   -22.23725   158.96472    12.71998
   490  N   5.0   -0.13    3.53    2.10   -16.23255   146.11010    18.97472
   491  C   4.0    0.03    4.35    4.29   -17.04620   143.49541    18.77171
   492  C   4.0    0.16    3.41    3.08   -18.10314   142.62798    21.39499
   493  O   6.0   -0.31    1.26    1.80   -20.02078   141.32937    21.60164
   494  C   4.0   -0.04    4.19    3.97   -14.93408   141.73381    17.83855
   495  C   4.0   -0.04    4.09    3.78   -14.08731   141.93940    15.03115
   496  C   4.0   -0.01    4.11    3.81   -15.80647   140.84155    12.94114
   497  N   5.0   -0.14    3.33    1.99   -16.36045   138.10572    13.09372
   498  C   4.0    0.09    3.31    3.05   -16.56375   136.32675    11.28463
   499  N   5.0   -0.18    3.22    1.96   -15.52362   136.56010     8.99928
   500  N   5.0   -0.19    3.24    1.96   -17.77639   134.16805    11.84163
   501  H   1.0    0.13    1.16    1.46   -14.42393   146.36979    19.52144
   502  H   1.0    0.05    1.05    1.44   -18.66809   143.41892    17.48163
   503  H   1.0    0.07    1.04    1.43   -13.27916   142.10469    19.00806
   504  H   1.0    0.05    1.03    1.43   -15.51034   139.79351    18.24144
   505  H   1.0    0.05    1.03    1.43   -13.84284   143.93535    14.59364
   506  H   1.0    0.05    1.03    1.43   -12.24554   141.01651    14.90791
   507  H   1.0    0.04    1.02    1.43   -17.62365   141.82669    12.99396
   508  H   1.0    0.06    1.03    1.43   -14.94340   141.23467    11.11558
   509  H   1.0    0.08    1.08    1.44   -17.11988   137.61776    14.78069
   510  H   1.0    0.12    1.06    1.44   -15.30897   138.34653     8.29848
   511  H   1.0    0.09    1.03    1.43   -15.93830   135.28235     7.64679
   512  H   1.0    0.08    1.03    1.43   -18.29773   133.77103    13.63189
   513  H   1.0    0.07    1.03    1.43   -17.70281   132.70988    10.61864
   514  N   5.0   -0.14    3.51    2.09   -16.88094   143.50771    23.42010
   515  C   4.0    0.04    4.45    4.47   -17.88560   142.97656    25.91061
   516  C   4.0    0.15    3.44    3.09   -20.26740   144.59573    26.34854
   517  O   6.0   -0.29    1.34    1.80   -22.31113   143.51397    26.32097
   518  C   4.0   -0.05    4.19    3.97   -15.72557   143.03027    27.82946
   519  C   4.0   -0.03    4.18    3.95   -14.10958   140.67290    27.28796
   520  C   4.0    0.25    3.04    3.02   -11.61586   140.16683    28.89640
   521  O   6.0   -0.32    1.15    1.80   -11.85203   139.51602    31.15473
   522  O   6.0   -0.30    1.17    1.80    -9.60482   140.38004    27.69297
   523  H   1.0    0.11    1.09    1.44   -15.19113   144.39346    23.30450
   524  H   1.0    0.06    1.08    1.44   -18.64682   141.04088    25.86659
   525  H   1.0    0.06    1.02    1.43   -14.59005   144.74540    27.63965
   526  H   1.0    0.04    1.02    1.43   -16.45254   142.95807    29.75816
   527  H   1.0    0.04    1.03    1.43   -15.29278   139.00535    27.57966
   528  H   1.0    0.06    1.03    1.43   -13.47736   140.72572    25.32750
   529  N   5.0   -0.15    3.44    2.04   -20.03861   147.10138    26.54885
   530  C   4.0    0.03    4.39    4.36   -22.18850   148.75791    27.08837
   531  C   4.0    0.17    3.51    3.12   -24.57600   147.66403    25.89584
   532  O   6.0   -0.31    1.24    1.80   -26.48372   147.44640    27.18927
   533  C   4.0   -0.04    4.17    3.94   -21.70404   151.55786    26.38233
   534  C   4.0   -0.04    4.17    3.93   -19.35148   152.47877    27.84277
   535  C   4.0    0.24    3.05    3.02   -18.47301   155.31992    27.68605
   536  O   6.0   -0.32    1.17    1.80   -20.14887   156.87395    27.14753
   537  O   6.0   -0.31    1.15    1.80   -16.18582   155.74829    28.16169
   538  H   1.0    0.09    1.07    1.44   -18.28521   147.86385    26.67193
   539  H   1.0    0.04    1.06    1.44   -22.53225   148.70291    29.14196
   540  H   1.0    0.06    1.02    1.43   -21.45934   151.73282    24.34420
   541  H   1.0    0.05    1.02    1.43   -23.35995   152.66377    26.89866
   542  H   1.0    0.03    1.03    1.43   -19.68349   152.11311    29.85472
   543  H   1.0    0.06    1.04    1.43   -17.68447   151.38985    27.31003
   544  N   5.0   -0.12    3.48    2.07   -24.46588   146.87058    23.49917
   545  C   4.0    0.05    4.42    4.41   -26.75573   145.97486    22.29251
   546  C   4.0    0.15    3.50    3.12   -27.34925   143.18893    22.68865
   547  O   6.0   -0.33    1.28    1.80   -29.54048   142.59186    23.19557
   548  C   4.0   -0.05    4.23    4.06   -26.82493   146.45988    19.43071
   549  C   4.0   -0.04    4.13    3.86   -28.35991   148.79840    18.64862
   550  C   4.0    0.24    3.07    3.02   -27.15115   151.45109    19.23762
   551  O   6.0   -0.33    1.24    1.80   -27.23442   152.94844    17.40348
   552  O   6.0   -0.31    1.15    1.80   -26.24049   151.93685    21.36273
   553  H   1.0    0.10    1.07    1.44   -22.99904   147.33914    22.37101
   554  H   1.0    0.06    1.07    1.44   -28.32066   146.98919    23.20810
   555  H   1.0    0.06    1.03    1.43   -24.88085   146.69728    18.77267
   556  H   1.0    0.04    1.04    1.43   -27.62123   144.80145    18.50014
   557  H   1.0    0.04    1.03    1.43   -28.65348   148.74579    16.60697
   558  H   1.0    0.03    1.02    1.43   -30.21897   148.78276    19.55098
   559  N   5.0   -0.14    3.40    2.02   -25.57080   141.42735    22.22537
   560  C   4.0    0.05    4.41    4.39   -26.42933   138.90282    22.77048
   561  C   4.0    0.08    3.21    3.04   -26.93342   138.35461    25.57224
   562  O   6.0   -0.34    1.13    1.80   -27.92279   136.35763    26.13928
   563  C   4.0    0.03    4.13    3.86   -25.06695   136.77642    21.42087
   564  O   6.0   -0.28    2.05    1.83   -26.83232   135.64319    19.74406
   565  H   1.0    0.12    1.08    1.44   -23.69596   141.81148    22.31421
   566  H   1.0    0.07    1.11    1.44   -28.36825   138.82447    22.00184
   567  H   1.0    0.05    1.01    1.43   -23.45565   137.55596    20.37423
   568  H   1.0    0.04    1.01    1.43   -24.38836   135.39825    22.80598
   569  H   1.0    0.10    1.02    1.43   -26.35029   133.90523    19.45945
   570  N   5.0   -0.24    3.33    1.99     8.05618   145.65869    30.68796
   571  C   4.0    0.02    4.42    4.41     5.98531   146.15610    29.00870
   572  C   4.0    0.14    3.35    3.07     5.93877   144.32117    26.78175
   573  O   6.0   -0.32    1.23    1.80     3.94745   143.30268    26.16221
   574  C   4.0   -0.04    4.32    4.23     6.25973   148.92855    28.33868
   575  C   4.0   -0.04    4.32    4.23     5.49774   150.25695    30.75849
   576  C   4.0    0.23    3.12    3.03     5.78080   153.12066    30.73279
   577  O   6.0   -0.33    1.17    1.80     7.53566   154.02404    29.41825
   578  O   6.0   -0.34    1.17    1.80     4.19740   154.24065    32.09800
   579  H   1.0    0.06    1.04    1.43     9.06525   147.13527    31.35215
   580  H   1.0    0.04    1.06    1.44     4.18123   145.85117    30.00675
   581  H   1.0    0.04    1.03    1.43     8.19621   149.40235    27.82175
   582  H   1.0    0.05    1.02    1.43     5.00696   149.48687    26.79774
   583  H   1.0    0.04    1.03    1.43     3.52573   149.86579    31.23518
   584  H   1.0    0.02    1.05    1.44     6.66932   149.67424    32.34785
   585  N   5.0   -0.15    3.44    2.04     8.22475   144.07867    25.70704
   586  C   4.0    0.02    4.19    3.99     9.21605   142.23513    23.86471
   587  C   4.0    0.06    3.20    3.04     8.21543   139.61108    24.64328
   588  O   6.0   -0.32    1.11    1.80     6.71455   138.30504    23.39893
   589  C   4.0   -0.07    4.16    3.92    12.16547   142.33595    23.58475
   590  C   4.0   -0.06    4.15    3.89    13.07795   145.01210    22.82991
   591  C   4.0   -0.07    4.11    3.83    15.93900   145.36845    22.56486
   592  C   4.0   -0.06    4.09    3.78    16.72381   148.17169    22.33837
   593  N   5.0   -0.12    3.98    2.81    17.55024   148.92868    19.76124
   594  H   1.0    0.07    1.10    1.44     9.62175   145.07352    26.54818
   595  H   1.0    0.05    1.04    1.44     8.37733   142.68889    22.01595
   596  H   1.0    0.02    1.02    1.43    13.04496   141.76166    25.33896
   597  H   1.0    0.02    1.02    1.43    12.66070   140.98173    22.11359
   598  H   1.0    0.04    1.02    1.43    12.15516   145.57336    21.07240
   599  H   1.0    0.03    1.03    1.43    12.41395   146.33573    24.27153
   600  H   1.0    0.01    1.03    1.43    16.83764   144.52178    24.21124
   601  H   1.0    0.02    1.03    1.43    16.63356   144.36082    20.90826
   602  H   1.0    0.03    1.02    1.43    15.18229   149.40483    22.93985
   603  H   1.0    0.00    1.02    1.43    18.31239   148.54575    23.59545
   604  H   1.0    0.03    1.03    1.43    18.65677   150.50339    19.93110
   605  H   1.0    0.04    1.02    1.43    18.65329   147.52598    18.95339
   606  H   1.0    0.10    1.08    1.44    16.04108   149.35066    18.36472
   607  N   5.0   -0.21    3.29    1.98     1.02033   138.23847    24.54895
   608  C   4.0    0.04    4.32    4.24    -0.23665   138.10176    22.18799
   609  C   4.0    0.08    3.23    3.04     0.38309   135.57283    21.02307
   610  O   6.0   -0.32    1.21    1.80    -1.15451   134.38465    19.73569
   611  C   4.0   -0.02    4.25    4.10     0.24126   140.46707    20.56649
   612  C   4.0   -0.07    4.14    3.89    -0.14523   142.84129    22.17913
   613  C   4.0   -0.07    4.11    3.83     2.79528   140.50739    19.30070
   614  H   1.0    0.11    1.04    1.43     2.46202   139.46008    24.81017
   615  H   1.0    0.05    1.07    1.44    -2.28298   138.08684    22.55380
   616  H   1.0    0.05    1.06    1.44    -1.22250   140.41058    19.09493
   617  H   1.0    0.04    1.00    1.43    -0.41298   144.48206    20.97330
   618  H   1.0    0.04    1.00    1.43    -1.80348   142.64258    23.37495
   619  H   1.0    0.07    1.03    1.43     1.46893   143.19191    23.37869
   620  H   1.0    0.04    1.00    1.43     3.03774   142.29754    18.32306
   621  H   1.0    0.07    1.01    1.43     4.28388   140.31630    20.69924
   622  H   1.0    0.05    1.00    1.43     2.95727   138.97300    17.94483
   623  N   5.0   -0.20    3.19    1.95    -4.13305   131.87191    23.73375
   624  C   4.0    0.04    4.43    4.43    -6.54025   131.68629    22.40450
   625  C   4.0    0.14    3.44    3.09    -6.55314   130.31726    19.82365
   626  O   6.0   -0.31    1.31    1.80    -8.40843   129.06052    19.18014
   627  C   4.0   -0.02    4.34    4.28    -7.83354   134.24696    22.16526
   628  C   4.0    0.16    3.33    3.06    -9.51824   134.14733    24.47156
   629  O   6.0   -0.31    1.23    1.80    -8.67201   133.69468    26.56883
   630  N   5.0   -0.19    3.19    1.95   -11.98486   134.16190    23.83218
   631  H   1.0    0.09    1.02    1.43    -3.72843   133.45813    24.72487
   632  H   1.0    0.05    1.10    1.44    -7.75388   130.47612    23.56206
   633  H   1.0    0.06    1.03    1.43    -6.42823   135.73974    22.21256
   634  H   1.0    0.06    1.04    1.43    -8.93416   134.40349    20.43800
   635  H   1.0    0.09    1.02    1.43   -13.35042   134.07958    25.15431
   636  H   1.0    0.09    1.03    1.43   -12.51519   134.57405    22.05614
   637  N   5.0   -0.15    3.54    2.11    -4.56869   130.70898    18.36819
   638  C   4.0    0.03    4.39    4.36    -4.25844   129.27290    16.09466
   639  C   4.0    0.07    3.29    3.05    -5.05294   126.54232    16.56774
   640  O   6.0   -0.32    1.13    1.80    -6.73958   125.52238    15.34828
   641  C   4.0   -0.05    4.29    4.17    -1.57233   129.76555    15.19068
   642  C   4.0   -0.02    4.22    4.03    -1.43344   132.56527    14.36882
   643  C   4.0    0.24    3.12    3.03    -0.23110   132.53916    11.67923
   644  O   6.0   -0.31    1.18    1.80     2.07111   133.11437    11.73973
   645  O   6.0   -0.31    1.14    1.80    -1.48828   131.90775     9.78406
   646  H   1.0    0.11    1.13    1.45    -3.13761   131.85185    18.93748
   647  H   1.0    0.06    1.06    1.44    -5.58725   129.94907    14.64043
   648  H   1.0    0.03    1.03    1.43    -0.25880   129.32613    16.70325
   649  H   1.0    0.04    1.03    1.43    -1.18284   128.50505    13.59981
   650  H   1.0    0.05    1.03    1.43    -3.31590   133.39152    14.29929
   651  H   1.0    0.07    1.03    1.43    -0.25252   133.67549    15.62049
   652  N   5.0   -0.22    3.23    1.96   -11.44591   124.89155    18.54509
   653  C   4.0    0.05    4.37    4.33   -13.23031   124.94705    16.49801
   654  C   4.0    0.06    3.21    3.04   -13.16013   122.58515    14.88117
   655  O   6.0   -0.34    1.13    1.80   -14.93420   121.11337    14.92680
   656  C   4.0   -0.04    4.27    4.13   -13.05511   127.38157    14.94960
   657  C   4.0   -0.04    4.19    3.98   -15.68547   127.91837    13.96949
   658  C   4.0    0.23    3.23    3.04   -17.63233   127.15055    16.12496
   659  O   6.0   -0.32    1.17    1.80   -19.10580   125.41359    15.54307
   660  O   6.0   -0.31    1.17    1.80   -17.50073   128.30042    18.18381
   661  H   1.0    0.12    1.06    1.44    -9.73365   125.69241    18.28931
   662  H   1.0    0.07    1.16    1.45   -15.06127   124.84750    17.43624
   663  H   1.0    0.06    1.03    1.43   -12.43769   128.86871    16.23860
   664  H   1.0    0.05    1.02    1.43   -11.65476   127.18814    13.44799
   665  H   1.0    0.04    1.02    1.43   -15.89868   129.90701    13.50346
   666  H   1.0    0.04    1.03    1.43   -16.12628   126.73487    12.34328
   667  H   1.0    0.08    1.07    1.44     6.02397   167.15783    16.91865
   668  H   1.0    0.03    1.04    1.43     2.22664   168.47594    22.54403
   669  H   1.0    0.06    1.07    1.44    -1.25398   171.76279    15.13841
   670  H   1.0    0.04    1.05    1.44    -9.30838   169.36345    20.29270
   671  H   1.0    0.09    1.08    1.44   -11.41326   169.25229    12.92849
   672  H   1.0    0.06    1.04    1.43    -5.22104   147.94675    -8.85340
   673  H   1.0    0.06    1.07    1.44    -8.46461   173.27706    -1.82086
   674  H   1.0    0.03    1.04    1.43   -12.93095   171.36665    -5.53673
   675  H   1.0    0.09    1.08    1.44   -10.63258   164.32880   -10.13821
   676  H   1.0    0.02    1.05    1.44    -9.85103   161.95429   -16.08823
   677  H   1.0    0.09    1.08    1.44     8.15324   150.55235     7.24679
   678  H   1.0    0.06    1.04    1.43   -26.45104   139.62514    26.88531
   679  H   1.0    0.07    1.08    1.44     7.48159   144.86601    32.07867
   680  H   1.0    0.03    1.05    1.44     8.77578   138.83089    26.27067
   681  H   1.0    0.09    1.08    1.44    -0.09339   138.66595    25.76116
   682  H   1.0    0.05    1.05    1.44     2.09002   134.80516    21.28408
   683  H   1.0    0.08    1.07    1.44    -4.01908   130.62000    24.87930
   684  H   1.0    0.03    1.05    1.44    -4.19055   125.52590    17.90722
   685  H   1.0    0.10    1.08    1.44   -12.10147   125.69748    19.89167
   686  H   1.0    0.04    1.05    1.44   -11.66321   122.23696    13.78159

  Z AO/shell   Hii/eV     exponent
  1     Wed Apr 25 08:07:45 CEST 2018   EN: 2.200 GM2: 0.406  GM3: 0.0800  RAES: 1.40
     1s    -10.707211    1.230000
  6     Wed Apr 25 08:07:45 CEST 2018   EN: 2.550 GM2: 0.538  GM3: 0.1500  RAES: 3.00
     2s    -13.970922    2.096432
     2p    -10.063292    1.800000
  7     Wed Apr 25 08:07:45 CEST 2018   EN: 3.040 GM2: 0.461  GM3:-0.0640  RAES: 1.90
     2s    -16.686243    2.339881
     2p    -12.523956    2.014332
  8     Wed Apr 25 08:07:45 CEST 2018   EN: 3.440 GM2: 0.452  GM3:-0.0517  RAES: 1.80
     2s    -20.229985    2.439742
     2p    -15.503117    2.137023
 16     Tue Apr 24 11:44:34 CEST 2018   EN: 2.580 GM2: 0.340  GM3:-0.0502  RAES: 3.10
     3s    -20.029654    1.981333
     3p    -11.377694    2.025643
     3d     -0.420282    1.702555
 no old-style atom pair restraining (fixing) potential

molecular fragmentation (1/2 indicates fragments):
111111111111111111122222222222222222222222222222222222222222222222222222
222222222222222222222222222222222222222222222222222222222222222222222222
222222222222222222222222222222222222222222222222222222222222222222222222
222222222222222222222222222222222222222222222222222222222222222222222222
222222222222222222222222222222222222222222222222222222222222222222222222
222222222222222222222222222222222222222222222222222222222222222222222222
222222222222222222222222222222222222222222222222222222222222222222222222
222222222222222222222222222222222222222222222222222222222222222222222222
222222222222222222222222222222222222222222222222222222222222222222222222
22222222222222222211222222222222222222
# atoms in fragment 1/2:    21   665
 fragment masses (1/2) :      115.17     4695.22
CMA distance (Bohr)    :  22.780
constraining FC (au)   :  0.0500
           ------------------------------------------------- 
          |        Self-Consistent Charge Iterations        |
           ------------------------------------------------- 

 Ncao       : 1697
 Nao        : 1696
 Nshell     : 1022
 Nel        : 1908
 T(el)      :   500.0
 intcut     :    35.0
 scfconv/Eh :  0.100E-06
   qconv/e  :  0.100E-04
 intneglect :  0.100E-08
 broydamp   :      0.400
 iter      E             dE          RMSdq      gap      omega  full diag
   1  -1098.4033454 -0.109840E+04  0.481E+00    3.18       0.0  T
   2  -1101.5950843 -0.319174E+01  0.221E+00    1.79       1.0  T
   3  -1101.8242184 -0.229134E+00  0.131E+00    1.97       1.0  T
   4  -1102.0164945 -0.192276E+00  0.285E-01    1.08       1.0  T
   5  -1102.0285972 -0.121027E-01  0.156E-01    1.31       1.0  T
   6  -1102.0304219 -0.182471E-02  0.668E-02    1.24       1.0  T
   7  -1102.0311706 -0.748707E-03  0.305E-02    1.27       1.0  T
   8  -1102.0312627 -0.920880E-04  0.146E-02    1.25       1.0  T
   9  -1102.0312908 -0.281053E-04  0.703E-03    1.25       1.0  T
  10  -1102.0312965 -0.563997E-05  0.289E-03    1.24       1.3  T
  11  -1102.0312978 -0.137477E-05  0.135E-03    1.24       2.8  T
  12  -1102.0312980 -0.188439E-06  0.543E-04    1.24       7.0  T
  13  -1102.0312981 -0.329173E-07  0.251E-04    1.24      15.2  T
  14  -1102.0312981 -0.893715E-08  0.948E-05    1.24      40.3  T
  15  -1102.0312981 -0.104819E-08  0.459E-05    1.24      83.3  T
speedup  1.78
cpu  time for SCC    1 m 11.2 s
wall time for SCC    0 m 39.9 s

   *** convergence criteria satisfied after 15 iterations ***

          eigenvalues
 #    :         942        943        944        945        946        947        948        949
 occ. :        2.000      2.000      2.000      2.000      2.000      2.000      2.000      2.000
 eps  :        -9.813     -9.810     -9.807     -9.798     -9.797     -9.764     -9.700     -9.689
 #    :         950        951        952        953        954        955        956        957
 occ. :        2.000      2.000      2.000      2.000      2.000      0.000      0.000      0.000
 eps  :        -9.687     -9.594     -9.548     -9.518     -9.420     -8.179     -7.987     -7.944
 #    :         958        959        960        961        962        963        964        965
 occ. :        0.000      0.000      0.000      0.000      0.000      0.000      0.000      0.000
 eps  :        -7.829     -7.776     -7.732     -7.710     -7.572     -7.493     -7.473     -7.251


   #   Z            q   n(s)   n(p)   n(d)      C6AA      α(0)
   1   7 N     -0.385  1.319  4.067  0.000    29.969     8.130
   2   6 C      0.020  1.064  2.916  0.000    20.250     6.410
   3   6 C      0.187  1.092  2.721  0.000    23.996     8.022
   4   8 O     -0.353  1.751  4.602  0.000    20.765     6.110
   5   6 C     -0.033  1.070  2.963  0.000    21.129     6.538
   6   6 C     -0.077  1.059  3.018  0.000    21.970     6.674
   7   6 C     -0.121  1.040  3.080  0.000    22.868     6.819
   8   6 C     -0.116  1.039  3.077  0.000    22.786     6.808
   9   1 H      0.181  0.819  0.000  0.000     1.206     1.720
  10   1 H      0.043  0.957  0.000  0.000     2.415     2.430
  11   1 H      0.033  0.967  0.000  0.000     2.542     2.493
  12   1 H      0.055  0.945  0.000  0.000     2.254     2.348
  13   1 H      0.079  0.921  0.000  0.000     1.995     2.209
  14   1 H      0.041  0.959  0.000  0.000     2.436     2.441
  15   1 H      0.021  0.979  0.000  0.000     2.716     2.577
  16   1 H      0.060  0.940  0.000  0.000     2.201     2.320
  17   1 H      0.051  0.949  0.000  0.000     2.311     2.377
  18   1 H      0.037  0.963  0.000  0.000     2.495     2.470
  19   1 H      0.025  0.975  0.000  0.000     2.657     2.549
  20   7 N     -0.380  1.307  4.072  0.000    29.814     8.109
  21   6 C      0.030  1.062  2.908  0.000    20.089     6.385
  22   6 C      0.265  1.059  2.677  0.000    22.534     7.773
  23   8 O     -0.485  1.753  4.732  0.000    23.453     6.493
  24   6 C     -0.084  1.072  3.012  0.000    22.108     6.694
  25   6 C     -0.016  1.062  2.954  0.000    20.833     6.493
  26   6 C     -0.110  1.039  3.071  0.000    22.669     6.789
  27   6 C     -0.123  1.044  3.079  0.000    22.913     6.825
  28   1 H      0.177  0.823  0.000  0.000     1.229     1.737
  29   1 H      0.039  0.961  0.000  0.000     2.456     2.451
  30   1 H      0.070  0.930  0.000  0.000     2.084     2.257
  31   1 H      0.054  0.946  0.000  0.000     2.271     2.357
  32   1 H      0.011  0.989  0.000  0.000     2.872     2.650
  33   1 H      0.030  0.970  0.000  0.000     2.590     2.517
  34   1 H      0.024  0.976  0.000  0.000     2.681     2.560
  35   1 H      0.048  0.952  0.000  0.000     2.346     2.395
  36   1 H      0.031  0.969  0.000  0.000     2.571     2.508
  37   1 H      0.061  0.939  0.000  0.000     2.193     2.316
  38   1 H      0.042  0.958  0.000  0.000     2.427     2.436
  39   7 N     -0.176  1.249  3.927  0.000    24.814     7.398
  40   6 C      0.024  1.056  2.920  0.000    20.183     6.398
  41   6 C      0.201  1.085  2.714  0.000    23.719     7.977
  42   8 O     -0.389  1.750  4.639  0.000    21.457     6.211
  43   6 C     -0.084  1.057  3.026  0.000    22.071     6.685
  44   6 C     -0.084  1.051  3.033  0.000    22.100     6.693
  45   6 C     -0.028  1.056  2.971  0.000    21.126     6.555
  46   7 N     -0.123  1.207  3.916  0.000    23.670     7.226
  47   6 C      0.239  1.028  2.733  0.000    23.001     7.852
  48   7 N     -0.242  1.252  3.990  0.000    26.320     7.619
  49   7 N     -0.243  1.234  4.008  0.000    26.333     7.621
  50   1 H      0.245  0.755  0.000  0.000     0.901     1.487
  51   1 H      0.069  0.931  0.000  0.000     2.094     2.263
  52   1 H      0.101  0.899  0.000  0.000     1.780     2.086
  53   1 H      0.072  0.928  0.000  0.000     2.062     2.246
  54   1 H      0.069  0.931  0.000  0.000     2.099     2.265
  55   1 H      0.073  0.927  0.000  0.000     2.056     2.242
  56   1 H      0.115  0.885  0.000  0.000     1.654     2.011
  57   1 H      0.074  0.926  0.000  0.000     2.041     2.234
  58   1 H      0.224  0.776  0.000  0.000     0.989     1.558
  59   1 H      0.237  0.763  0.000  0.000     0.936     1.516
  60   1 H      0.231  0.769  0.000  0.000     0.959     1.534
  61   1 H      0.237  0.763  0.000  0.000     0.937     1.516
  62   1 H      0.225  0.775  0.000  0.000     0.986     1.555
  63   7 N     -0.399  1.312  4.087  0.000    30.346     8.182
  64   6 C      0.036  1.051  2.913  0.000    19.976     6.365
  65   6 C      0.265  1.053  2.681  0.000    22.522     7.772
  66   8 O     -0.521  1.760  4.762  0.000    24.262     6.604
  67   6 C     -0.124  1.042  3.082  0.000    22.923     6.826
  68   1 H      0.189  0.811  0.000  0.000     1.163     1.689
  69   1 H      0.026  0.974  0.000  0.000     2.646     2.544
  70   1 H      0.024  0.976  0.000  0.000     2.675     2.558
  71   1 H      0.055  0.945  0.000  0.000     2.254     2.348
  72   1 H      0.064  0.936  0.000  0.000     2.152     2.294
  73   7 N     -0.196  1.251  3.945  0.000    25.259     7.464
  74   6 C      0.005  1.070  2.925  0.000    20.501     6.448
  75   6 C      0.287  1.042  2.671  0.000    22.145     7.707
  76   8 O     -0.488  1.759  4.729  0.000    23.522     6.502
  77   6 C     -0.089  1.062  3.027  0.000    22.198     6.709
  78   6 C     -0.092  1.060  3.032  0.000    22.262     6.719
  79   6 C     -0.027  1.057  2.971  0.000    21.159     6.567
  80   7 N     -0.141  1.213  3.927  0.000    24.046     7.283
  81   6 C      0.236  1.025  2.738  0.000    23.056     7.861
  82   7 N     -0.231  1.240  3.991  0.000    26.058     7.581
  83   7 N     -0.253  1.236  4.017  0.000    26.576     7.656
  84   1 H      0.253  0.747  0.000  0.000     0.872     1.463
  85   1 H      0.069  0.931  0.000  0.000     2.100     2.266
  86   1 H      0.085  0.915  0.000  0.000     1.931     2.173
  87   1 H      0.079  0.921  0.000  0.000     1.989     2.206
  88   1 H      0.081  0.919  0.000  0.000     1.966     2.193
  89   1 H      0.107  0.893  0.000  0.000     1.719     2.050
  90   1 H      0.083  0.917  0.000  0.000     1.949     2.183
  91   1 H      0.062  0.938  0.000  0.000     2.175     2.306
  92   1 H      0.249  0.751  0.000  0.000     0.886     1.474
  93   1 H      0.225  0.775  0.000  0.000     0.985     1.555
  94   1 H      0.217  0.783  0.000  0.000     1.023     1.584
  95   1 H      0.265  0.735  0.000  0.000     0.827     1.425
  96   1 H      0.244  0.756  0.000  0.000     0.908     1.493
  97   7 N     -0.190  1.252  3.937  0.000    25.112     7.443
  98   6 C      0.028  1.070  2.902  0.000    20.120     6.389
  99   6 C      0.294  1.051  2.654  0.000    22.007     7.683
 100   8 O     -0.496  1.748  4.748  0.000    23.692     6.526
 101   6 C     -0.063  1.058  3.005  0.000    21.721     6.636
 102   6 C     -0.101  1.062  3.039  0.000    22.426     6.743
 103   6 C      0.366  1.029  2.605  0.000    20.793     7.462
 104   8 O     -0.646  1.769  4.876  0.000    27.268     7.001
 105   8 O     -0.658  1.779  4.879  0.000    27.589     7.042
 106   1 H      0.223  0.777  0.000  0.000     0.997     1.564
 107   1 H      0.065  0.935  0.000  0.000     2.144     2.290
 108   1 H      0.050  0.950  0.000  0.000     2.324     2.384
 109   1 H      0.071  0.929  0.000  0.000     2.070     2.250
 110   1 H      0.032  0.968  0.000  0.000     2.554     2.499
 111   1 H      0.019  0.981  0.000  0.000     2.741     2.589
 112   7 N     -0.192  1.259  3.932  0.000    25.157     7.449
 113   6 C      0.014  1.053  2.933  0.000    20.331     6.417
 114   6 C      0.279  1.042  2.679  0.000    22.285     7.731
 115   8 O     -0.461  1.736  4.725  0.000    22.927     6.420
 116   6 C      0.064  1.040  2.897  0.000    19.715     6.359
 117   8 O     -0.466  1.712  4.754  0.000    22.183     6.358
 118   1 H      0.231  0.769  0.000  0.000     0.962     1.536
 119   1 H      0.102  0.898  0.000  0.000     1.766     2.078
 120   1 H      0.056  0.944  0.000  0.000     2.246     2.344
 121   1 H      0.061  0.939  0.000  0.000     2.182     2.310
 122   1 H      0.350  0.650  0.000  0.000     0.587     1.204
 123   7 N     -0.185  1.256  3.928  0.000    25.000     7.426
 124   6 C     -0.000  1.063  2.937  0.000    20.587     6.460
 125   6 C      0.271  1.041  2.688  0.000    22.432     7.761
 126   8 O     -0.478  1.746  4.732  0.000    23.308     6.473
 127   6 C      0.115  1.049  2.836  0.000    18.729     6.167
 128   8 O     -0.458  1.705  4.753  0.000    22.006     6.333
 129   6 C     -0.145  1.045  3.100  0.000    23.354     6.891
 130   1 H      0.235  0.765  0.000  0.000     0.943     1.521
 131   1 H      0.092  0.908  0.000  0.000     1.864     2.135
 132   1 H      0.013  0.987  0.000  0.000     2.839     2.635
 133   1 H      0.306  0.694  0.000  0.000     0.703     1.317
 134   1 H      0.083  0.917  0.000  0.000     1.945     2.181
 135   1 H      0.079  0.921  0.000  0.000     1.991     2.206
 136   1 H      0.089  0.911  0.000  0.000     1.888     2.149
 137   7 N     -0.200  1.250  3.950  0.000    25.346     7.477
 138   6 C      0.022  1.060  2.918  0.000    20.196     6.396
 139   6 C      0.290  1.040  2.670  0.000    22.089     7.697
 140   8 O     -0.492  1.745  4.747  0.000    23.608     6.514
 141   6 C     -0.088  1.063  3.025  0.000    22.176     6.703
 142   6 C     -0.012  1.063  2.949  0.000    20.763     6.481
 143   6 C     -0.110  1.042  3.068  0.000    22.675     6.791
 144   6 C     -0.103  1.038  3.065  0.000    22.534     6.770
 145   1 H      0.221  0.779  0.000  0.000     1.006     1.571
 146   1 H      0.087  0.913  0.000  0.000     1.904     2.158
 147   1 H      0.085  0.915  0.000  0.000     1.930     2.173
 148   1 H      0.058  0.942  0.000  0.000     2.225     2.333
 149   1 H      0.026  0.974  0.000  0.000     2.640     2.541
 150   1 H      0.028  0.972  0.000  0.000     2.615     2.529
 151   1 H      0.048  0.952  0.000  0.000     2.349     2.397
 152   1 H      0.048  0.952  0.000  0.000     2.344     2.394
 153   1 H      0.028  0.972  0.000  0.000     2.621     2.532
 154   1 H      0.052  0.948  0.000  0.000     2.298     2.371
 155   1 H      0.013  0.987  0.000  0.000     2.844     2.637
 156   7 N     -0.190  1.262  3.927  0.000    25.111     7.442
 157   6 C      0.036  1.057  2.907  0.000    19.966     6.362
 158   6 C      0.307  1.034  2.659  0.000    21.784     7.643
 159   8 O     -0.546  1.761  4.784  0.000    24.817     6.679
 160   6 C     -0.075  1.061  3.014  0.000    21.928     6.667
 161   6 C     -0.094  1.069  3.024  0.000    22.293     6.724
 162   6 C      0.367  1.031  2.602  0.000    20.781     7.460
 163   8 O     -0.641  1.772  4.869  0.000    27.156     6.987
 164   8 O     -0.661  1.788  4.874  0.000    27.671     7.053
 165   1 H      0.219  0.781  0.000  0.000     1.012     1.576
 166   1 H      0.049  0.951  0.000  0.000     2.338     2.391
 167   1 H      0.065  0.935  0.000  0.000     2.147     2.291
 168   1 H      0.086  0.914  0.000  0.000     1.921     2.168
 169   1 H      0.053  0.947  0.000  0.000     2.288     2.366
 170   1 H     -0.006  1.006  0.000  0.000     3.170     2.784
 171   7 N     -0.200  1.250  3.949  0.000    25.333     7.475
 172   6 C      0.022  1.064  2.914  0.000    20.216     6.404
 173   6 C      0.275  1.046  2.679  0.000    22.349     7.741
 174   8 O     -0.491  1.746  4.746  0.000    23.591     6.512
 175   6 C      0.106  1.055  2.839  0.000    18.919     6.207
 176   8 O     -0.473  1.727  4.746  0.000    22.315     6.377
 177   6 C     -0.139  1.043  3.096  0.000    23.236     6.874
 178   1 H      0.256  0.744  0.000  0.000     0.859     1.452
 179   1 H      0.052  0.948  0.000  0.000     2.298     2.371
 180   1 H      0.041  0.959  0.000  0.000     2.435     2.440
 181   1 H      0.367  0.633  0.000  0.000     0.551     1.166
 182   1 H      0.096  0.904  0.000  0.000     1.821     2.110
 183   1 H      0.042  0.958  0.000  0.000     2.422     2.433
 184   1 H      0.069  0.931  0.000  0.000     2.092     2.262
 185   7 N     -0.177  1.252  3.925  0.000    24.833     7.401
 186   6 C      0.026  1.053  2.921  0.000    20.139     6.390
 187   6 C      0.279  1.046  2.675  0.000    22.288     7.732
 188   8 O     -0.481  1.734  4.747  0.000    23.363     6.481
 189   6 C     -0.080  1.058  3.022  0.000    22.011     6.676
 190   6 C     -0.018  1.057  2.961  0.000    20.860     6.496
 191   6 C     -0.123  1.044  3.078  0.000    22.903     6.823
 192   6 C     -0.127  1.042  3.085  0.000    22.990     6.837
 193   1 H      0.227  0.773  0.000  0.000     0.980     1.551
 194   1 H      0.094  0.906  0.000  0.000     1.842     2.122
 195   1 H      0.040  0.960  0.000  0.000     2.455     2.450
 196   1 H      0.070  0.930  0.000  0.000     2.090     2.261
 197   1 H      0.048  0.952  0.000  0.000     2.345     2.394
 198   1 H      0.065  0.935  0.000  0.000     2.145     2.290
 199   1 H      0.034  0.966  0.000  0.000     2.534     2.489
 200   1 H      0.059  0.941  0.000  0.000     2.207     2.323
 201   1 H      0.065  0.935  0.000  0.000     2.147     2.291
 202   1 H      0.058  0.942  0.000  0.000     2.228     2.334
 203   1 H      0.030  0.970  0.000  0.000     2.588     2.516
 204   7 N     -0.190  1.262  3.928  0.000    25.119     7.444
 205   6 C      0.047  1.056  2.898  0.000    19.788     6.332
 206   6 C      0.304  1.039  2.658  0.000    21.847     7.655
 207   8 O     -0.514  1.745  4.769  0.000    24.092     6.581
 208   6 C     -0.052  1.053  2.999  0.000    21.507     6.603
 209   6 C     -0.076  1.064  3.012  0.000    21.969     6.676
 210   6 C      0.363  1.035  2.602  0.000    20.837     7.469
 211   8 O     -0.615  1.772  4.844  0.000    26.500     6.902
 212   8 O     -0.597  1.748  4.849  0.000    26.037     6.841
 213   1 H      0.216  0.784  0.000  0.000     1.026     1.587
 214   1 H      0.049  0.951  0.000  0.000     2.330     2.387
 215   1 H      0.066  0.934  0.000  0.000     2.125     2.280
 216   1 H      0.027  0.973  0.000  0.000     2.636     2.539
 217   1 H     -0.019  1.019  0.000  0.000     3.417     2.891
 218   1 H     -0.003  1.003  0.000  0.000     3.103     2.755
 219   7 N     -0.223  1.275  3.948  0.000    25.861     7.553
 220   6 C      0.062  1.050  2.888  0.000    19.525     6.289
 221   6 C      0.297  1.034  2.669  0.000    21.967     7.677
 222   8 O     -0.528  1.749  4.779  0.000    24.402     6.623
 223   6 C     -0.034  1.047  2.987  0.000    21.177     6.551
 224   6 C     -0.083  1.063  3.020  0.000    22.083     6.691
 225   6 C      0.372  1.025  2.603  0.000    20.702     7.446
 226   8 O     -0.619  1.757  4.863  0.000    26.601     6.915
 227   8 O     -0.629  1.760  4.869  0.000    26.838     6.946
 228   1 H      0.217  0.783  0.000  0.000     1.023     1.585
 229   1 H      0.016  0.984  0.000  0.000     2.796     2.615
 230   1 H      0.005  0.995  0.000  0.000     2.968     2.694
 231   1 H      0.046  0.954  0.000  0.000     2.372     2.408
 232   1 H      0.013  0.987  0.000  0.000     2.850     2.640
 233   1 H     -0.003  1.003  0.000  0.000     3.116     2.760
 234   7 N     -0.197  1.250  3.947  0.000    25.279     7.467
 235   6 C      0.045  1.048  2.907  0.000    19.806     6.334
 236   6 C      0.281  1.049  2.670  0.000    22.246     7.724
 237   8 O     -0.492  1.744  4.748  0.000    23.605     6.514
 238   6 C     -0.067  1.052  3.015  0.000    21.768     6.639
 239   6 C     -0.021  1.071  2.950  0.000    20.962     6.520
 240  16 S     -0.216  1.925  4.235  0.055   150.281    20.633
 241   6 C     -0.074  1.063  3.012  0.000    21.991     6.690
 242   1 H      0.224  0.776  0.000  0.000     0.990     1.559
 243   1 H      0.053  0.947  0.000  0.000     2.280     2.361
 244   1 H      0.073  0.927  0.000  0.000     2.051     2.239
 245   1 H      0.063  0.937  0.000  0.000     2.169     2.303
 246   1 H      0.060  0.940  0.000  0.000     2.201     2.320
 247   1 H      0.036  0.964  0.000  0.000     2.508     2.476
 248   1 H      0.112  0.888  0.000  0.000     1.676     2.024
 249   1 H      0.065  0.935  0.000  0.000     2.143     2.289
 250   1 H      0.069  0.931  0.000  0.000     2.098     2.265
 251   7 N     -0.203  1.267  3.935  0.000    25.405     7.486
 252   6 C      0.037  1.049  2.914  0.000    19.933     6.354
 253   6 C      0.295  1.036  2.669  0.000    21.993     7.682
 254   8 O     -0.471  1.733  4.738  0.000    23.159     6.452
 255   6 C     -0.073  1.058  3.015  0.000    21.869     6.653
 256   6 C     -0.004  1.059  2.945  0.000    20.621     6.460
 257   6 C     -0.121  1.042  3.079  0.000    22.869     6.818
 258   6 C     -0.104  1.043  3.061  0.000    22.528     6.765
 259   1 H      0.225  0.775  0.000  0.000     0.988     1.557
 260   1 H      0.094  0.906  0.000  0.000     1.845     2.124
 261   1 H      0.080  0.920  0.000  0.000     1.980     2.201
 262   1 H      0.026  0.974  0.000  0.000     2.646     2.544
 263   1 H     -0.006  1.006  0.000  0.000     3.173     2.786
 264   1 H      0.031  0.969  0.000  0.000     2.574     2.509
 265   1 H      0.071  0.929  0.000  0.000     2.071     2.250
 266   1 H      0.052  0.948  0.000  0.000     2.300     2.372
 267   1 H      0.023  0.977  0.000  0.000     2.693     2.566
 268   1 H      0.058  0.942  0.000  0.000     2.219     2.330
 269   1 H      0.011  0.989  0.000  0.000     2.873     2.651
 270   7 N     -0.177  1.241  3.936  0.000    24.838     7.402
 271   6 C      0.044  1.057  2.900  0.000    19.820     6.335
 272   6 C      0.213  1.080  2.707  0.000    23.501     7.939
 273   8 O     -0.354  1.734  4.620  0.000    20.786     6.113
 274   6 C     -0.045  1.049  2.996  0.000    21.358     6.577
 275   6 C     -0.074  1.061  3.013  0.000    21.897     6.659
 276   6 C      0.373  1.021  2.605  0.000    20.676     7.441
 277   8 O     -0.662  1.782  4.880  0.000    27.700     7.056
 278   8 O     -0.661  1.777  4.884  0.000    27.667     7.052
 279   1 H      0.190  0.810  0.000  0.000     1.159     1.687
 280   1 H      0.062  0.938  0.000  0.000     2.171     2.304
 281   1 H      0.052  0.948  0.000  0.000     2.299     2.371
 282   1 H      0.042  0.958  0.000  0.000     2.417     2.431
 283   1 H      0.021  0.979  0.000  0.000     2.724     2.581
 284   1 H      0.024  0.976  0.000  0.000     2.679     2.560
 285   7 N     -0.390  1.305  4.085  0.000    30.099     8.148
 286   6 C      0.040  1.054  2.906  0.000    19.927     6.359
 287   6 C      0.196  1.092  2.712  0.000    23.812     7.992
 288   8 O     -0.386  1.756  4.631  0.000    21.410     6.204
 289   6 C     -0.064  1.060  3.004  0.000    21.719     6.634
 290   6 C     -0.003  1.056  2.946  0.000    20.597     6.456
 291   6 C     -0.109  1.042  3.067  0.000    22.619     6.779
 292   6 C     -0.121  1.041  3.080  0.000    22.871     6.819
 293   1 H      0.163  0.837  0.000  0.000     1.319     1.799
 294   1 H      0.061  0.939  0.000  0.000     2.188     2.313
 295   1 H      0.030  0.970  0.000  0.000     2.585     2.514
 296   1 H      0.037  0.963  0.000  0.000     2.487     2.466
 297   1 H      0.026  0.974  0.000  0.000     2.648     2.545
 298   1 H      0.043  0.957  0.000  0.000     2.415     2.430
 299   1 H      0.018  0.982  0.000  0.000     2.758     2.597
 300   1 H      0.034  0.966  0.000  0.000     2.527     2.486
 301   1 H      0.052  0.948  0.000  0.000     2.293     2.368
 302   1 H      0.049  0.951  0.000  0.000     2.334     2.389
 303   1 H      0.053  0.947  0.000  0.000     2.280     2.361
 304   7 N     -0.378  1.312  4.066  0.000    29.769     8.103
 305   6 C      0.043  1.052  2.905  0.000    19.877     6.350
 306   6 C      0.200  1.089  2.711  0.000    23.738     7.979
 307   8 O     -0.390  1.773  4.617  0.000    21.487     6.215
 308   6 C     -0.109  1.069  3.040  0.000    22.573     6.764
 309   6 C      0.297  1.034  2.669  0.000    21.962     7.673
 310   8 O     -0.504  1.770  4.734  0.000    23.871     6.551
 311   7 N     -0.280  1.256  4.024  0.000    27.237     7.751
 312   1 H      0.191  0.809  0.000  0.000     1.151     1.681
[...]
 400   1 H      0.020  0.980  0.000  0.000     2.727     2.582
 401   1 H      0.084  0.916  0.000  0.000     1.934     2.175
 402   1 H      0.071  0.929  0.000  0.000     2.071     2.251
 403   1 H      0.093  0.907  0.000  0.000     1.846     2.125
 404   1 H      0.018  0.982  0.000  0.000     2.766     2.601
 405   7 N     -0.177  1.250  3.927  0.000    24.834     7.401
 406   6 C      0.012  1.060  2.928  0.000    20.356     6.421
 407   6 C      0.295  1.034  2.672  0.000    22.006     7.684
 408   8 O     -0.509  1.748  4.761  0.000    23.979     6.565
 409   6 C     -0.024  1.066  2.958  0.000    20.964     6.512
 410   6 C     -0.128  1.041  3.086  0.000    23.015     6.841
 411   6 C     -0.127  1.046  3.081  0.000    22.981     6.834
 412   1 H      0.249  0.751  0.000  0.000     0.887     1.475
 413   1 H      0.104  0.896  0.000  0.000     1.747     2.067
 414   1 H      0.071  0.929  0.000  0.000     2.079     2.255
 415   1 H      0.077  0.923  0.000  0.000     2.010     2.217
 416   1 H      0.045  0.955  0.000  0.000     2.383     2.414
 417   1 H      0.025  0.975  0.000  0.000     2.660     2.550
 418   1 H      0.073  0.927  0.000  0.000     2.049     2.239
 419   1 H      0.050  0.950  0.000  0.000     2.319     2.381
 420   1 H      0.072  0.928  0.000  0.000     2.068     2.249
 421   7 N     -0.190  1.244  3.946  0.000    25.109     7.442
 422   6 C      0.034  1.050  2.916  0.000    19.986     6.362
 423   6 C      0.276  1.045  2.679  0.000    22.337     7.743
 424   8 O     -0.497  1.747  4.750  0.000    23.724     6.530
 425   6 C     -0.015  1.055  2.960  0.000    20.806     6.487
 426   6 C     -0.107  1.038  3.070  0.000    22.600     6.777
 427   6 C     -0.127  1.044  3.083  0.000    22.977     6.833
 428   1 H      0.222  0.778  0.000  0.000     1.002     1.568
 429   1 H      0.075  0.925  0.000  0.000     2.029     2.228
 430   1 H      0.023  0.977  0.000  0.000     2.692     2.566
 431   1 H      0.030  0.970  0.000  0.000     2.583     2.513
 432   1 H      0.023  0.977  0.000  0.000     2.694     2.567
 433   1 H      0.054  0.946  0.000  0.000     2.267     2.355
 434   1 H      0.048  0.952  0.000  0.000     2.350     2.397
 435   1 H      0.063  0.937  0.000  0.000     2.159     2.298
 436   1 H      0.078  0.922  0.000  0.000     1.995     2.209
 437   7 N     -0.185  1.249  3.937  0.000    25.015     7.428
 438   6 C      0.052  1.045  2.904  0.000    19.675     6.309
 439   6 C      0.297  1.038  2.665  0.000    21.957     7.674
 440   8 O     -0.536  1.746  4.790  0.000    24.605     6.651
 441   6 C     -0.094  1.059  3.035  0.000    22.278     6.719
 442   6 C      0.288  1.047  2.665  0.000    22.115     7.700
 443   8 O     -0.475  1.752  4.723  0.000    23.248     6.464
 444   7 N     -0.271  1.281  3.990  0.000    27.015     7.719
 445   1 H      0.219  0.781  0.000  0.000     1.012     1.576
 446   1 H      0.061  0.939  0.000  0.000     2.188     2.313
 447   1 H      0.079  0.921  0.000  0.000     1.992     2.207
 448   1 H      0.066  0.934  0.000  0.000     2.127     2.281
 449   1 H      0.216  0.784  0.000  0.000     1.029     1.589
 450   1 H      0.214  0.786  0.000  0.000     1.036     1.595
 451   7 N     -0.193  1.255  3.939  0.000    25.197     7.455
 452   6 C      0.047  1.055  2.898  0.000    19.786     6.332
 453   6 C      0.288  1.036  2.676  0.000    22.114     7.701
 454   8 O     -0.514  1.741  4.774  0.000    24.101     6.582
 455   6 C     -0.055  1.053  3.002  0.000    21.541     6.606
 456   6 C     -0.089  1.061  3.028  0.000    22.189     6.707
 457   6 C      0.365  1.023  2.612  0.000    20.808     7.466
 458   8 O     -0.593  1.742  4.851  0.000    25.949     6.830
 459   8 O     -0.628  1.759  4.870  0.000    26.828     6.944
 460   1 H      0.236  0.764  0.000  0.000     0.941     1.520
 461   1 H      0.027  0.973  0.000  0.000     2.625     2.534
 462   1 H      0.080  0.920  0.000  0.000     1.978     2.199
 463   1 H      0.033  0.967  0.000  0.000     2.541     2.493
 464   1 H     -0.014  1.014  0.000  0.000     3.319     2.849
 465   1 H      0.025  0.975  0.000  0.000     2.653     2.547
 466   7 N     -0.180  1.239  3.941  0.000    24.897     7.411
 467   6 C      0.039  1.043  2.918  0.000    19.918     6.353
 468   6 C      0.270  1.040  2.690  0.000    22.436     7.757
 469   8 O     -0.504  1.738  4.766  0.000    23.880     6.552
 470   6 C     -0.074  1.054  3.020  0.000    21.901     6.661
 471   6 C     -0.078  1.062  3.016  0.000    21.999     6.679
 472   6 C     -0.017  1.058  2.959  0.000    20.985     6.540
 473   7 N     -0.160  1.237  3.923  0.000    24.461     7.345
 474   6 C      0.235  1.022  2.743  0.000    23.073     7.864
 475   7 N     -0.235  1.242  3.993  0.000    26.159     7.596
 476   7 N     -0.253  1.260  3.993  0.000    26.575     7.656
 477   1 H      0.216  0.784  0.000  0.000     1.026     1.587
 478   1 H      0.070  0.930  0.000  0.000     2.089     2.260
 479   1 H      0.051  0.949  0.000  0.000     2.302     2.373
 480   1 H      0.067  0.933  0.000  0.000     2.114     2.274
 481   1 H      0.048  0.952  0.000  0.000     2.351     2.398
 482   1 H      0.076  0.924  0.000  0.000     2.023     2.224
 483   1 H      0.066  0.934  0.000  0.000     2.128     2.281
 484   1 H      0.105  0.895  0.000  0.000     1.740     2.063
 485   1 H      0.223  0.777  0.000  0.000     0.998     1.565
 486   1 H      0.247  0.753  0.000  0.000     0.896     1.483
 487   1 H      0.216  0.784  0.000  0.000     1.028     1.588
 488   1 H      0.241  0.759  0.000  0.000     0.919     1.502
 489   1 H      0.247  0.753  0.000  0.000     0.895     1.482
 490   7 N     -0.202  1.263  3.939  0.000    25.382     7.482
 491   6 C      0.025  1.066  2.910  0.000    20.173     6.397
 492   6 C      0.264  1.053  2.683  0.000    22.538     7.774
 493   8 O     -0.484  1.737  4.746  0.000    23.427     6.489
 494   6 C     -0.069  1.054  3.016  0.000    21.830     6.653
 495   6 C     -0.067  1.053  3.014  0.000    21.798     6.648
 496   6 C     -0.015  1.055  2.960  0.000    20.941     6.533
 497   7 N     -0.149  1.220  3.929  0.000    24.229     7.311
 498   6 C      0.241  1.024  2.735  0.000    22.960     7.845
 499   7 N     -0.248  1.264  3.984  0.000    26.463     7.640
 500   7 N     -0.251  1.243  4.008  0.000    26.525     7.649
 501   1 H      0.229  0.771  0.000  0.000     0.969     1.542
 502   1 H      0.078  0.922  0.000  0.000     1.997     2.210
 503   1 H      0.056  0.944  0.000  0.000     2.241     2.341
 504   1 H      0.053  0.947  0.000  0.000     2.284     2.363
 505   1 H      0.059  0.941  0.000  0.000     2.216     2.328
 506   1 H      0.058  0.942  0.000  0.000     2.224     2.332
 507   1 H      0.076  0.924  0.000  0.000     2.022     2.224
 508   1 H      0.088  0.912  0.000  0.000     1.902     2.157
 509   1 H      0.225  0.775  0.000  0.000     0.988     1.557
 510   1 H      0.233  0.767  0.000  0.000     0.954     1.530
 511   1 H      0.241  0.759  0.000  0.000     0.919     1.502
 512   1 H      0.240  0.760  0.000  0.000     0.922     1.504
 513   1 H      0.248  0.752  0.000  0.000     0.889     1.477
 514   7 N     -0.186  1.253  3.933  0.000    25.024     7.430
 515   6 C      0.030  1.066  2.904  0.000    20.061     6.376
 516   6 C      0.271  1.044  2.684  0.000    22.413     7.752
 517   8 O     -0.480  1.744  4.736  0.000    23.339     6.477
 518   6 C     -0.053  1.052  3.001  0.000    21.521     6.605
 519   6 C     -0.093  1.073  3.020  0.000    22.274     6.720
 520   6 C      0.368  1.029  2.603  0.000    20.761     7.456
 521   8 O     -0.620  1.764  4.856  0.000    26.623     6.918
 522   8 O     -0.640  1.768  4.872  0.000    27.116     6.982
 523   1 H      0.213  0.787  0.000  0.000     1.043     1.600
 524   1 H      0.073  0.927  0.000  0.000     2.053     2.241
 525   1 H      0.033  0.967  0.000  0.000     2.538     2.491
 526   1 H      0.055  0.945  0.000  0.000     2.258     2.350
 527   1 H      0.018  0.982  0.000  0.000     2.769     2.602
 528   1 H      0.003  0.997  0.000  0.000     3.003     2.710
 529   7 N     -0.192  1.256  3.936  0.000    25.172     7.451
 530   6 C      0.029  1.070  2.901  0.000    20.103     6.385
 531   6 C      0.296  1.036  2.667  0.000    21.971     7.676
 532   8 O     -0.491  1.734  4.757  0.000    23.587     6.512
 533   6 C     -0.050  1.053  2.997  0.000    21.476     6.599
 534   6 C     -0.101  1.072  3.029  0.000    22.442     6.746
 535   6 C      0.365  1.026  2.609  0.000    20.815     7.466
 536   8 O     -0.595  1.748  4.848  0.000    26.004     6.837
 537   8 O     -0.640  1.777  4.863  0.000    27.112     6.981
 538   1 H      0.206  0.794  0.000  0.000     1.074     1.624
 539   1 H      0.067  0.933  0.000  0.000     2.122     2.278
 540   1 H      0.027  0.973  0.000  0.000     2.625     2.534
 541   1 H      0.070  0.930  0.000  0.000     2.088     2.260
 542   1 H      0.023  0.977  0.000  0.000     2.682     2.561
 543   1 H      0.014  0.986  0.000  0.000     2.823     2.627
 544   7 N     -0.168  1.245  3.923  0.000    24.626     7.370
 545   6 C      0.035  1.055  2.909  0.000    19.979     6.364
 546   6 C      0.275  1.050  2.675  0.000    22.350     7.744
 547   8 O     -0.487  1.738  4.749  0.000    23.494     6.499
 548   6 C     -0.056  1.055  3.001  0.000    21.577     6.613
 549   6 C     -0.101  1.073  3.028  0.000    22.434     6.745
 550   6 C      0.360  1.030  2.609  0.000    20.886     7.479
 551   8 O     -0.612  1.752  4.860  0.000    26.413     6.890
 552   8 O     -0.628  1.779  4.849  0.000    26.816     6.943
 553   1 H      0.175  0.825  0.000  0.000     1.241     1.745
 554   1 H      0.083  0.917  0.000  0.000     1.949     2.183
 555   1 H      0.038  0.962  0.000  0.000     2.470     2.458
 556   1 H      0.041  0.959  0.000  0.000     2.433     2.439
 557   1 H      0.039  0.961  0.000  0.000     2.468     2.457
 558   1 H      0.034  0.966  0.000  0.000     2.524     2.484
 559   7 N     -0.181  1.260  3.922  0.000    24.926     7.415
 560   6 C      0.018  1.056  2.926  0.000    20.251     6.403
 561   6 C      0.207  1.085  2.707  0.000    23.598     7.955
 562   8 O     -0.345  1.732  4.612  0.000    20.604     6.086
 563   6 C      0.077  1.036  2.887  0.000    19.513     6.330
 564   8 O     -0.475  1.722  4.753  0.000    22.368     6.384
 565   1 H      0.206  0.794  0.000  0.000     1.077     1.626
 566   1 H      0.143  0.857  0.000  0.000     1.440     1.877
 567   1 H      0.048  0.952  0.000  0.000     2.347     2.396
 568   1 H      0.045  0.955  0.000  0.000     2.384     2.415
 569   1 H      0.352  0.648  0.000  0.000     0.583     1.200
 570   7 N     -0.390  1.298  4.092  0.000    30.092     8.147
 571   6 C      0.038  1.056  2.906  0.000    19.925     6.353
 572   6 C      0.266  1.049  2.685  0.000    22.517     7.770
 573   8 O     -0.521  1.766  4.755  0.000    24.257     6.603
 574   6 C     -0.050  1.050  2.999  0.000    21.449     6.591
 575   6 C     -0.081  1.060  3.021  0.000    22.018     6.677
 576   6 C      0.363  1.024  2.614  0.000    20.848     7.472
 577   8 O     -0.631  1.764  4.867  0.000    26.893     6.953
 578   8 O     -0.656  1.774  4.881  0.000    27.530     7.035
 579   1 H      0.181  0.819  0.000  0.000     1.206     1.720
 580   1 H      0.011  0.989  0.000  0.000     2.878     2.653
 581   1 H      0.068  0.932  0.000  0.000     2.104     2.268
 582   1 H      0.008  0.992  0.000  0.000     2.926     2.675
 583   1 H     -0.002  1.002  0.000  0.000     3.091     2.749
 584   1 H      0.034  0.966  0.000  0.000     2.526     2.485
 585   7 N     -0.177  1.253  3.924  0.000    24.822     7.400
 586   6 C      0.022  1.071  2.907  0.000    20.229     6.408
 587   6 C      0.196  1.092  2.712  0.000    23.818     7.992
 588   8 O     -0.376  1.783  4.594  0.000    21.216     6.176
 589   6 C     -0.083  1.063  3.020  0.000    22.082     6.692
 590   6 C     -0.075  1.054  3.021  0.000    21.936     6.669
 591   6 C     -0.086  1.054  3.032  0.000    22.138     6.699
 592   6 C     -0.040  1.056  2.983  0.000    21.382     6.602
 593   7 N     -0.172  1.257  3.915  0.000    24.709     7.383
 594   1 H      0.240  0.760  0.000  0.000     0.924     1.506
 595   1 H      0.063  0.937  0.000  0.000     2.163     2.300
 596   1 H      0.091  0.909  0.000  0.000     1.872     2.139
 597   1 H      0.069  0.931  0.000  0.000     2.097     2.264
 598   1 H      0.045  0.955  0.000  0.000     2.381     2.413
 599   1 H      0.059  0.941  0.000  0.000     2.208     2.324
 600   1 H      0.091  0.909  0.000  0.000     1.874     2.141
 601   1 H      0.069  0.931  0.000  0.000     2.099     2.265
 602   1 H      0.106  0.894  0.000  0.000     1.732     2.058
 603   1 H      0.119  0.881  0.000  0.000     1.622     1.992
 604   1 H      0.285  0.715  0.000  0.000     0.760     1.365
 605   1 H      0.262  0.738  0.000  0.000     0.837     1.433
 606   1 H      0.287  0.713  0.000  0.000     0.754     1.361
 607   7 N     -0.372  1.287  4.085  0.000    29.604     8.081
 608   6 C      0.046  1.048  2.906  0.000    19.817     6.340
 609   6 C      0.198  1.095  2.708  0.000    23.788     7.988
 610   8 O     -0.385  1.754  4.631  0.000    21.391     6.201
 611   6 C     -0.001  1.057  2.944  0.000    20.560     6.449
 612   6 C     -0.110  1.038  3.073  0.000    22.664     6.788
 613   6 C     -0.107  1.034  3.073  0.000    22.600     6.778
 614   1 H      0.182  0.818  0.000  0.000     1.205     1.720
 615   1 H      0.030  0.970  0.000  0.000     2.587     2.516
 616   1 H     -0.010  1.010  0.000  0.000     3.238     2.814
 617   1 H      0.017  0.983  0.000  0.000     2.774     2.604
 618   1 H      0.019  0.981  0.000  0.000     2.743     2.590
 619   1 H      0.093  0.907  0.000  0.000     1.846     2.125
 620   1 H      0.028  0.972  0.000  0.000     2.615     2.529
 621   1 H      0.084  0.916  0.000  0.000     1.943     2.180
 622   1 H      0.019  0.981  0.000  0.000     2.752     2.594
 623   7 N     -0.381  1.301  4.080  0.000    29.847     8.114
 624   6 C      0.046  1.056  2.898  0.000    19.788     6.330
 625   6 C      0.261  1.048  2.691  0.000    22.607     7.787
 626   8 O     -0.506  1.753  4.752  0.000    23.908     6.556
 627   6 C     -0.091  1.057  3.034  0.000    22.218     6.709
 628   6 C      0.296  1.036  2.668  0.000    21.975     7.678
 629   8 O     -0.484  1.739  4.745  0.000    23.433     6.490
 630   7 N     -0.291  1.267  4.024  0.000    27.507     7.789
 631   1 H      0.161  0.839  0.000  0.000     1.329     1.806
 632   1 H      0.039  0.961  0.000  0.000     2.466     2.456
 633   1 H      0.069  0.931  0.000  0.000     2.095     2.263
 634   1 H      0.041  0.959  0.000  0.000     2.431     2.438
 635   1 H      0.218  0.782  0.000  0.000     1.021     1.583
 636   1 H      0.212  0.788  0.000  0.000     1.048     1.604
 637   7 N     -0.174  1.254  3.920  0.000    24.755     7.390
 638   6 C      0.038  1.055  2.907  0.000    19.934     6.356
 639   6 C      0.204  1.083  2.713  0.000    23.656     7.965
 640   8 O     -0.359  1.753  4.606  0.000    20.881     6.127
 641   6 C     -0.052  1.056  2.996  0.000    21.500     6.600
 642   6 C     -0.091  1.068  3.023  0.000    22.236     6.713
 643   6 C      0.371  1.026  2.603  0.000    20.710     7.448
 644   8 O     -0.652  1.772  4.880  0.000    27.431     7.022
 645   8 O     -0.648  1.778  4.870  0.000    27.330     7.009
 646   1 H      0.254  0.746  0.000  0.000     0.866     1.458
 647   1 H      0.054  0.946  0.000  0.000     2.271     2.357
 648   1 H      0.074  0.926  0.000  0.000     2.041     2.234
 649   1 H      0.045  0.955  0.000  0.000     2.380     2.413
 650   1 H      0.009  0.991  0.000  0.000     2.911     2.668
 651   1 H      0.038  0.962  0.000  0.000     2.475     2.460
 652   7 N     -0.389  1.300  4.089  0.000    30.075     8.145
 653   6 C      0.047  1.050  2.903  0.000    19.794     6.335
 654   6 C      0.206  1.088  2.706  0.000    23.630     7.961
 655   8 O     -0.364  1.746  4.618  0.000    20.977     6.141
 656   6 C     -0.050  1.051  2.999  0.000    21.473     6.596
 657   6 C     -0.104  1.070  3.034  0.000    22.477     6.750
 658   6 C      0.377  1.027  2.596  0.000    20.616     7.430
 659   8 O     -0.632  1.768  4.864  0.000    26.926     6.957
 660   8 O     -0.654  1.775  4.879  0.000    27.475     7.028
 661   1 H      0.171  0.829  0.000  0.000     1.269     1.764
 662   1 H      0.056  0.944  0.000  0.000     2.251     2.346
 663   1 H      0.033  0.967  0.000  0.000     2.547     2.496
 664   1 H      0.024  0.976  0.000  0.000     2.679     2.560
 665   1 H      0.012  0.988  0.000  0.000     2.857     2.643
 666   1 H      0.015  0.985  0.000  0.000     2.817     2.625
 667   1 H      0.183  0.817  0.000  0.000     1.196     1.713
 668   1 H      0.085  0.915  0.000  0.000     1.932     2.174
 669   1 H      0.183  0.817  0.000  0.000     1.197     1.714
 670   1 H      0.097  0.903  0.000  0.000     1.811     2.104
 671   1 H      0.176  0.824  0.000  0.000     1.240     1.744
 672   1 H      0.068  0.932  0.000  0.000     2.107     2.270
 673   1 H      0.195  0.805  0.000  0.000     1.130     1.665
 674   1 H      0.076  0.924  0.000  0.000     2.022     2.224
 675   1 H      0.185  0.815  0.000  0.000     1.186     1.706
 676   1 H      0.107  0.893  0.000  0.000     1.725     2.054
 677   1 H      0.144  0.856  0.000  0.000     1.443     1.882
 678   1 H      0.066  0.934  0.000  0.000     2.131     2.283
 679   1 H      0.179  0.821  0.000  0.000     1.218     1.729
 680   1 H      0.096  0.904  0.000  0.000     1.819     2.109
 681   1 H      0.175  0.825  0.000  0.000     1.241     1.745
 682   1 H      0.097  0.903  0.000  0.000     1.815     2.107
 683   1 H      0.200  0.800  0.000  0.000     1.104     1.646
 684   1 H      0.085  0.915  0.000  0.000     1.926     2.170
 685   1 H      0.175  0.825  0.000  0.000     1.244     1.747
 686   1 H      0.070  0.930  0.000  0.000     2.089     2.260

 Mol. C6AA /au·bohr⁶  :    4390439.234308
 Mol. C8AA /au·bohr⁸  :   96838952.345212
 Mol. α(0) /au        :       3111.446863

 
molecular dipole:
                 x           y           z       tot (Debye)
 q only:      145.365   -1103.274     -47.416
   full:      144.969   -1108.606     -48.070    2844.472
molecular quadrupole (traceless):
                xx          xy          yy          xz          yz          zz
 q only:    74595.610   31926.373 -149839.741    1738.462   -8189.718   75244.131
  q+dip:    75427.301   31886.557 -151523.591    1780.701   -8433.669   76096.290
   full:    75424.807   31883.214 -151520.007    1785.345   -8434.588   76095.201
speedup  1.83
cpu  time for grad    1 m 33.3 s
wall time for grad    0 m 51.0 s

SCC energy    :   -1102.0479632
rep           :      12.3672204
ES            :       6.4736930
AES           :      -0.3412275
AXC           :       0.3010375
disp          :      -0.9299241
XB            :       0.0000000
fix           :       0.0000000
Gborn         :       0.0000000
Gsasa         :       0.0000000
Ghb           :       0.0000000
Gshift        :       0.0000000
Gsolv         :      -3.0180832    -1893.88
Etot ala COSMO:   -1102.0479632
grad norm     :       0.7294127
total E       :   -1089.5909547
atomizationE  :     193.8291938   121629.66
(atE without considering molecular charge,
 total energy contains solvation terms)
H-L gap (eV)  :          1.2406

------------------------------------------------------------------------
 * finished run on 2019/05/11 at 23:19:29.153     
------------------------------------------------------------------------
 total:
 * wall-time:     0 d,  0 h,  0 min, 53.287 sec
 *  cpu-time:     0 d,  0 h,  1 min, 36.127 sec
 * ratio c/w:     1.804 speedup
 SCF:
 * wall-time:     0 d,  0 h,  0 min, 52.500 sec
 *  cpu-time:     0 d,  0 h,  1 min, 35.332 sec
 * ratio c/w:     1.816 speedup

