      -----------------------------------------------------------      
     |                   =====================                   |     
     |                           x T B                           |     
     |                   =====================                   |     
     |                         S. Grimme                         |     
     |          Mulliken Center for Theoretical Chemistry        |     
     |                    University of Bonn                     |     
     |                 Version 6.0.1 (SAW181210)                 |     
      -----------------------------------------------------------      

   This program is distributed in the hope that it will be useful,
   but WITHOUT ANY WARRANTY; without even the implied warranty of
   MERCHANTABILITY or FITNESS FOR A PARTICULAR PURPOSE.
   
   FOR NON-COMMERCIAL, ACADEMIA USE ONLY.
   
   Cite this work as:
   S. Grimme, C. Bannwarth, P. Shushkov, J. Comput. Theory Chem., 2017,
   13, 1989-2009.
   C. Bannwarth, S. Ehlert and S. Grimme., ChemRxiv, 2018, preprint.
   http://doi.org/10.26434/chemrxiv.7246238.v1
   
   for sTDA-xTB:
   S. Grimme and C. Bannwarth, J. Chem. Phys., 2016, 145, 054103.
   
   in the mass-spec context:
   V. Asgeirsson, C. Bauer and S. Grimme, Chem. Sci., 2017, 8, 4879.
   
   if GBSA is used:
   P. Shushkov, F. März and S. Grimme, unpublished.
   
   for ANC optimizer:
   S. Grimme, unpublished.
   Rational Function algorithm used in ANCopt:
   F. Eckert, P. Pulay, H.-J. Werner, J. Comput. Chem., 1997, 18, 1473.
   
   with help from (in alphabetical order)
   C. Bannwarth, F. Bohle, G. Brandenburg, E. Caldeweyher, M. Checinski,
   S. Dohm, S. Ehlert, S. Ehrlich, F. März, H. Neugebauer, J. Pisarek,
   P. Pracht, P. Shushkov, and S. Spicher.
   
 * started run on 2019/05/04 at 19:50:59.709     
========================================================================
 # omp threads = 2
========================================================================
number of atoms            : 251
number of electrons        : 690
charge                     : -2
spin                       : .0
first test random number   : .3779

########################################################################
# WARNING! Please study the warnings concerning your input carefully
#  - Process number higher than OMP_NUM_THREADS, I hope you know what you are doing.
########################################################################

           ------------------------------------------------- 
          |                 G F N 2 - x T B                 |
          | Geometry, Frequencies, Noncovalent interactions |
          |            JCTC 2018 parametrisation            |
           ------------------------------------------------- 
 
      method parameters     
 k(s)        :  1.8500
 k(p)        :  2.2300
 k(d)        :  2.2300
 k(f)        :  2.0000
 kEN (H0ij)  : -2.0000
 D4 a1       :  0.5200
 D4 a2       :  5.0000
 D4 s6       :  1.0000
 D4 s8       :  2.7000
 D4 s9       :  5.0000
 alphaj      :  2.0000

 Solvent             : h2o
 Using internal parameter file: .param_gbsa2_h2o
 Gsolv ref. state (COSMO-RS): gsolv [1 M gas/solution]
 temperature (mdtemp)       :    298.150000000000     
 dielectric constant        :    80.2000000000000     
 rho                        :    1.00000000000000     
 mass                       :    18.0000000000000     
 surface tension            :    15.5689454083859     
 probe radius               :   0.975313790000000     
 vdW radii scaling          :    1.00000000000000     
 Gshift (Eh)                :   1.857443126794793E-003
 c1                         :    1.55243817000000     
 soset                      :   0.130326360000000     
 HB correction              :  T

            Z     q(EN)     CN     RAES       Cart. coordinates
     1  N   5.0   -0.20    3.24    1.97    47.16567    77.65262    30.05231
     2  C   4.0    0.02    4.22    4.04    46.19435    75.24511    30.99906
     3  C   4.0    0.07    3.23    3.04    45.12288    73.71443    28.79564
     4  O   6.0   -0.30    1.14    1.80    44.01739    74.81614    27.07977
     5  C   4.0   -0.04    4.31    4.21    44.02495    75.91974    32.76596
     6  C   4.0   -0.04    4.17    3.95    43.01772    73.55569    34.21349
     7  C   4.0    0.24    3.13    3.03    41.27917    74.44575    36.32242
     8  O   6.0   -0.34    1.28    1.80    42.14656    75.87250    38.03451
     9  O   6.0   -0.34    1.29    1.80    39.05875    73.68419    36.28085
    10  H   1.0    0.08    1.03    1.43    46.01483    79.17196    30.26018
    11  H   1.0    0.03    1.04    1.44    47.70046    74.21521    31.95527
    12  H   1.0    0.05    1.03    1.43    44.72225    77.23310    34.18892
    13  H   1.0    0.05    1.02    1.43    42.49427    76.79468    31.69637
    14  H   1.0    0.04    1.02    1.43    41.98026    72.28769    32.97383
    15  H   1.0    0.04    1.02    1.43    44.59942    72.52957    35.04875
    16  N   5.0   -0.22    3.16    1.95    37.28429    80.77634    34.38923
    17  C   4.0    0.04    4.19    3.98    35.41724    79.23810    35.74228
    18  C   4.0    0.08    3.24    3.04    34.10199    77.32003    34.04719
    19  O   6.0   -0.30    1.22    1.80    31.99495    76.46587    34.64435
    20  C   4.0   -0.02    4.28    4.15    33.27052    80.70075    37.07264
    21  C   4.0    0.25    3.15    3.03    31.89479    79.22487    39.14756
    22  O   6.0   -0.35    1.43    1.80    33.26107    78.23087    40.88233
    23  O   6.0   -0.34    1.35    1.80    29.54209    79.06802    39.14378
    24  H   1.0    0.11    1.07    1.44    39.02662    80.99176    35.19237
    25  H   1.0    0.06    1.06    1.44    36.46793    78.15907    37.16335
    26  H   1.0    0.04    1.03    1.43    34.08877    82.35237    38.01184
    27  H   1.0    0.05    1.03    1.43    31.87590    81.33003    35.69692
    28  N   5.0   -0.20    3.22    1.96    34.88623    71.34093    33.46894
    29  C   4.0    0.03    4.34    4.28    34.11333    68.91075    34.52151
    30  C   4.0    0.15    3.45    3.09    31.52630    69.20365    35.81787
    31  O   6.0   -0.32    1.24    1.80    29.80476    67.74101    35.21882
    32  C   4.0   -0.02    4.23    4.07    36.09943    67.96777    36.53596
    33  C   4.0   -0.07    4.13    3.85    35.09221    65.72845    38.00428
    34  C   4.0   -0.07    4.10    3.80    38.55419    67.22511    35.16969
    35  H   1.0    0.11    1.05    1.44    36.32431    72.31225    34.28152
    36  H   1.0    0.04    1.05    1.44    33.91491    67.52936    33.00028
    37  H   1.0    0.06    1.05    1.44    36.49628    69.54947    37.79830
    38  H   1.0    0.05    1.00    1.43    36.53029    65.01413    39.28740
    39  H   1.0    0.05    1.00    1.43    33.41035    66.21978    39.07386
    40  H   1.0    0.05    1.00    1.43    34.59521    64.19399    36.72682
    41  H   1.0    0.04    1.00    1.43    39.98660    66.66575    36.53029
    42  H   1.0    0.04    1.00    1.43    38.23294    65.62073    33.92814
    43  H   1.0    0.04    1.00    1.43    39.29118    68.78791    34.06609
    44  N   5.0   -0.14    3.45    2.05    31.32599    70.98945    37.61122
    45  C   4.0    0.04    4.46    4.48    28.90903    71.21999    38.93024
    46  C   4.0    0.16    3.48    3.11    26.77364    72.12328    37.24650
    47  O   6.0   -0.31    1.29    1.80    24.66092    71.12740    37.44492
    48  C   4.0   -0.04    4.27    4.13    29.05643    72.99822    41.21492
    49  C   4.0   -0.04    4.22    4.05    30.67403    71.93053    43.34275
    50  C   4.0   -0.05    4.15    3.89    29.84444    69.34727    44.41801
    51  C   4.0   -0.03    4.10    3.81    32.03463    67.51991    44.91501
    52  N   5.0   -0.11    4.15    3.29    34.47616    68.88051    44.90367
    53  H   1.0    0.10    1.09    1.44    32.79619    72.12328    38.10632
    54  H   1.0    0.05    1.06    1.44    28.36101    69.31515    39.53874
    55  H   1.0    0.07    1.03    1.43    29.81610    74.80858    40.60643
    56  H   1.0    0.06    1.03    1.43    27.12513    73.32326    41.86499
    57  H   1.0    0.06    1.07    1.44    32.56187    71.89273    42.56230
    58  H   1.0    0.05    1.03    1.43    30.64947    73.31570    44.85831
    59  H   1.0    0.04    1.03    1.43    28.84100    69.70632    46.17734
    60  H   1.0    0.04    1.03    1.43    28.48384    68.45343    43.16701
    61  H   1.0    0.05    1.02    1.43    31.80220    66.62796    46.74993
    62  H   1.0    0.05    1.02    1.43    32.11589    66.01758    43.50716
    63  H   1.0    0.09    1.08    1.44    36.02574    67.77313    45.48003
    64  H   1.0    0.07    1.04    1.43    34.92403    69.43987    43.11032
    65  H   1.0    0.09    1.07    1.44    34.37600    70.50568    46.06018
    66  N   5.0   -0.14    3.52    2.09    27.34056    73.97899    35.71393
    67  C   4.0    0.04    4.49    4.52    25.40170    74.98055    34.03963
    68  C   4.0    0.15    3.47    3.10    24.68549    73.00200    32.04408
    69  O   6.0   -0.30    1.24    1.80    22.47262    72.77713    31.30898
    70  C   4.0    0.05    4.20    4.01    26.23318    77.50711    32.87178
    71  O   6.0   -0.26    2.11    1.84    26.35979    79.29479    34.89757
    72  C   4.0   -0.07    4.09    3.78    24.37558    78.43874    30.89135
    73  H   1.0    0.12    1.10    1.44    29.06021    74.81425    35.69692
    74  H   1.0    0.06    1.06    1.44    23.69338    75.32259    35.16969
    75  H   1.0    0.05    1.03    1.43    28.12290    77.27467    32.03841
    76  H   1.0    0.15    1.04    1.43    27.73362    78.94897    36.08054
    77  H   1.0    0.04    1.00    1.43    24.94249    80.31146    30.27530
    78  H   1.0    0.04    1.00    1.43    24.35290    77.15751    29.29453
    79  H   1.0    0.05    1.00    1.43    22.49530    78.54835    31.70582
    80  N   5.0   -0.14    3.40    2.02    26.53553    71.45621    31.29764
    81  C   4.0    0.01    4.27    4.13    25.86468    69.45877    29.52130
    82  C   4.0    0.16    3.37    3.07    24.03542    67.55581    30.71939
    83  O   6.0   -0.29    1.23    1.80    22.27609    66.60528    29.47217
    84  H   1.0    0.08    1.05    1.44    28.41581    71.71888    31.56976
    85  H   1.0    0.05    1.02    1.43    24.94438    70.23733    27.84322
    86  H   1.0    0.04    1.02    1.43    27.60134    68.48745    28.98462
    87  N   5.0   -0.14    3.50    2.08    24.41715    67.00968    33.15524
    88  C   4.0    0.04    4.45    4.46    22.63325    65.26169    34.35522
    89  C   4.0    0.16    3.45    3.09    20.01409    66.43143    34.49506
    90  O   6.0   -0.29    1.22    1.80    18.08090    65.13318    34.36278
    91  C   4.0   -0.04    4.25    4.10    23.59890    64.70422    37.08398
    92  C   4.0   -0.04    4.22    4.04    25.93271    63.03181    36.87611
    93  C   4.0   -0.02    4.21    4.03    25.50563    60.21990    36.64557
    94  N   5.0   -0.15    3.40    2.02    24.71384    59.15976    39.06064
    95  C   4.0    0.09    3.34    3.06    24.64203    56.69934    39.54818
    96  N   5.0   -0.20    3.26    1.97    25.70216    55.01181    38.03262
    97  N   5.0   -0.19    3.24    1.97    23.37780    55.89242    41.58531
    98  H   1.0    0.11    1.07    1.44    25.95539    67.61628    34.11900
    99  H   1.0    0.05    1.05    1.44    22.51231    63.53070    33.23272
   100  H   1.0    0.06    1.03    1.43    24.02976    66.49757    37.98916
   101  H   1.0    0.05    1.03    1.43    22.10034    63.77447    38.14034
   102  H   1.0    0.05    1.04    1.43    27.05332    63.63652    35.26040
   103  H   1.0    0.05    1.03    1.43    27.11757    63.33228    38.53907
   104  H   1.0    0.04    1.02    1.43    24.07322    59.80227    35.21126
   105  H   1.0    0.04    1.03    1.43    27.28386    59.34873    36.07676
   106  H   1.0    0.07    1.07    1.44    23.66504    60.32383    40.15290
   107  H   1.0    0.07    1.03    1.43    26.69805    55.46157    36.46037
   108  H   1.0    0.07    1.03    1.43    25.68327    53.17500    38.53340
   109  H   1.0    0.08    1.03    1.43    22.74852    57.14342    42.87221
   110  H   1.0    0.08    1.03    1.43    23.46851    54.06506    42.11443
   111  N   5.0   -0.13    3.46    2.05    19.96495    68.89563    35.05253
   112  C   4.0    0.05    4.38    4.35    17.55555    70.26568    34.99772
   113  C   4.0    0.09    3.23    3.04    16.22519    70.23355    32.41636
   114  O   6.0   -0.30    1.12    1.80    13.94240    69.92364    32.35967
   115  C   4.0    0.05    4.23    4.06    17.92405    72.99822    35.87078
   116  O   6.0   -0.24    2.12    1.84    18.90482    72.91886    38.35766
   117  C   4.0   -0.08    4.08    3.76    15.54867    74.60638    35.64968
   118  H   1.0    0.11    1.08    1.44    21.55232    69.89718    35.42480
   119  H   1.0    0.06    1.06    1.44    16.25731    69.30948    36.30919
   120  H   1.0    0.06    1.04    1.44    19.41882    73.83726    34.70104
   121  H   1.0    0.11    1.01    1.43    17.59524    72.40107    39.55007
   122  H   1.0    0.04    1.00    1.43    15.88882    76.47343    36.43014
   123  H   1.0    0.04    1.00    1.43    15.00820    74.82559    33.68437
   124  H   1.0    0.04    1.00    1.43    13.98775    73.75222    36.67769
   125  N   5.0   -0.21    3.23    1.96    33.11178    56.91099    38.53907
   126  C   4.0    0.04    4.30    4.19    31.88724    57.93711    40.77462
   127  C   4.0    0.16    3.46    3.10    33.61256    59.57361    42.37710
   128  O   6.0   -0.31    1.26    1.80    32.68848    60.83784    44.09864
   129  C   4.0   -0.03    4.25    4.09    30.84600    55.81684    42.51694
   130  C   4.0    0.25    3.10    3.02    32.85667    53.92333    43.51661
   131  O   6.0   -0.28    1.19    1.80    35.15835    54.40710    43.23504
   132  O   6.0   -0.29    1.16    1.80    32.01385    51.99959    44.60698
   133  H   1.0    0.09    1.02    1.43    34.01696    55.23669    38.65623
   134  H   1.0    0.04    1.05    1.44    30.34522    59.15409    40.11888
   135  H   1.0    0.06    1.03    1.43    29.99751    56.71446    44.16667
   136  H   1.0    0.05    1.03    1.43    29.43815    54.70946    41.50594
   137  N   5.0   -0.12    3.51    2.08    35.97093    59.87219    41.68357
   138  C   4.0    0.04    4.41    4.39    37.67736    61.50680    43.09520
   139  C   4.0    0.15    3.47    3.10    39.93747    62.15309    41.47948
   140  O   6.0   -0.28    1.26    1.80    40.42502    60.91910    39.53496
   141  C   4.0    0.05    4.15    3.91    38.62600    60.20667    45.51594
   142  O   6.0   -0.22    2.05    1.83    40.35321    58.30938    44.84698
   143  H   1.0    0.11    1.08    1.44    36.79107    58.72134    40.40801
   144  H   1.0    0.05    1.06    1.44    36.60966    63.18488    43.66023
   145  H   1.0    0.06    1.01    1.43    39.55952    61.61829    46.72347
   146  H   1.0    0.07    1.01    1.43    37.01595    59.38842    46.54017
   147  H   1.0    0.12    0.98    1.43    40.94658    57.36830    46.39655
   148  N   5.0   -0.15    3.43    2.04    41.36799    64.19021    42.19569
   149  C   4.0    0.04    4.40    4.38    43.58842    64.80815    40.65178
   150  C   4.0    0.09    3.26    3.05    45.45925    62.63686    40.52895
   151  O   6.0   -0.30    1.11    1.80    46.55718    62.04915    38.52584
   152  C   4.0   -0.02    4.26    4.13    44.72225    67.26480    41.74216
   153  C   4.0   -0.08    4.12    3.84    47.46992    67.59739    40.97682
   154  C   4.0   -0.07    4.09    3.79    43.06874    69.52680    40.99194
   155  H   1.0    0.10    1.09    1.44    41.11477    65.01791    43.90211
   156  H   1.0    0.05    1.06    1.44    42.97993    65.10862    38.69403
   157  H   1.0    0.05    1.06    1.44    44.66367    67.04370    43.80385
   158  H   1.0    0.03    1.00    1.43    48.14833    69.44365    41.56452
   159  H   1.0    0.04    1.00    1.43    48.62454    66.14608    41.86310
   160  H   1.0    0.04    1.00    1.43    47.61165    67.41975    38.93402
   161  H   1.0    0.05    1.00    1.43    43.76605    71.24645    41.86499
   162  H   1.0    0.04    1.00    1.43    43.12355    69.76301    38.95103
   163  H   1.0    0.05    1.00    1.43    41.12422    69.20554    41.54940
   164  O   6.0   -0.32    1.99    1.83    37.12367    80.19430    42.96481
   165  H   1.0    0.13    0.97    1.43    36.48683    80.44941    44.64478
   166  H   1.0    0.16    1.09    1.44    35.70448    79.46865    42.01806
   167  O   6.0   -0.29    1.97    1.82    21.36146    76.66618    40.81430
   168  H   1.0    0.13    0.96    1.43    21.38225    77.71876    39.30063
   169  H   1.0    0.12    0.97    1.43    19.75142    76.98932    41.59476
   170  O   6.0   -0.32    1.98    1.82    40.79729    76.41107    43.00449
   171  H   1.0    0.16    1.02    1.43    41.21681    76.13706    41.23760
   172  H   1.0    0.15    1.01    1.43    39.59354    77.80569    43.01961
   173  O   6.0   -0.32    1.96    1.82    32.20282    77.87750    45.96191
   174  H   1.0    0.16    1.02    1.43    32.48439    77.88317    44.13833
   175  H   1.0    0.13    0.97    1.43    30.41514    78.11560    46.16600
   176  O   6.0   -0.33    2.05    1.83    35.46449    73.55191    39.91479
   177  H   1.0    0.16    1.02    1.43    36.85910    73.76734    38.70537
   178  H   1.0    0.16    1.01    1.43    34.77852    75.22054    40.29085
   179  O   6.0   -0.30    1.92    1.82    25.91192    78.52000    42.94024
   180  H   1.0    0.16    1.01    1.43    27.10245    78.55969    41.55129
   181  H   1.0    0.15    1.00    1.43    24.35101    77.85104    42.23349
   182  O   6.0   -0.31    1.92    1.82    22.25152    69.33971    41.93491
   183  H   1.0    0.16    1.00    1.43    22.90915    70.32804    40.54596
   184  H   1.0    0.13    0.97    1.43    20.49408    69.13562    41.53618
   185  O   6.0   -0.33    1.99    1.82    42.00105    81.02578    36.70604
   186  H   1.0    0.15    1.01    1.43    42.16168    79.25700    37.22004
   187  H   1.0    0.12    0.97    1.43    42.05963    81.96686    38.26128
   188  O   6.0   -0.30    1.94    1.82    44.20069    63.38141    47.49637
   189  H   1.0    0.15    1.04    1.43    45.25516    64.69477    48.23337
   190  H   1.0    0.15    1.00    1.43    44.09298    62.02647    48.70580
   191  O   6.0   -0.33    2.09    1.84    39.17780    67.38196    45.80507
   192  H   1.0    0.14    0.99    1.43    39.45748    69.19043    45.70113
   193  H   1.0    0.15    1.02    1.43    38.94158    66.91709    47.56251
   194  O   6.0   -0.32    1.99    1.83    36.85344    65.52247    49.80184
   195  H   1.0    0.14    0.97    1.43    37.61122    64.48879    51.08874
   196  H   1.0    0.13    0.97    1.43    35.14134    65.78325    50.35175
   197  O   6.0   -0.32    2.02    1.83    37.81531    72.38784    44.35376
   198  H   1.0    0.15    1.03    1.43    36.92713    72.76390    42.79284
   199  H   1.0    0.14    1.01    1.43    39.12300    73.68797    44.34620
   200  O   6.0   -0.32    1.99    1.83    34.14357    73.26845    48.01605
   201  H   1.0    0.13    0.97    1.43    35.91235    73.58971    48.27683
   202  H   1.0    0.14    1.00    1.43    33.45760    74.83315    47.34330
   203  O   6.0   -0.31    1.95    1.82    43.32891    60.03160    51.64810
   204  H   1.0    0.12    0.97    1.43    44.83716    59.99683    52.67611
   205  H   1.0    0.14    0.97    1.43    41.92665    60.37413    52.76115
   206  O   6.0   -0.33    2.01    1.83    46.63491    67.32566    49.35586
   207  H   1.0    0.11    0.96    1.43    46.76334    67.32998    51.19457
   208  H   1.0    0.12    0.97    1.43    45.78092    68.87284    48.90989
   209  N   5.0   -0.23    3.16    1.95    22.51844    89.57196    36.37533
   210  C   4.0    0.02    4.19    3.98    23.19306    87.24696    37.80019
   211  C   4.0    0.06    3.19    3.04    21.03333    86.35790    39.57842
   212  O   6.0   -0.31    1.12    1.80    20.84310    84.12492    40.16990
   213  C   4.0   -0.05    4.35    4.29    25.57048    87.78165    39.34976
   214  C   4.0   -0.02    4.19    3.98    26.38044    85.54352    40.99760
   215  C   4.0   -0.06    4.17    3.94    27.71879    83.65627    39.30063
   216  C   4.0   -0.09    4.06    3.73    28.07677    86.38106    43.24638
   217  H   1.0    0.06    1.02    1.43    23.42882    91.20388    36.81753
   218  H   1.0    0.04    1.05    1.44    23.49165    85.72825    36.43203
   219  H   1.0    0.03    1.03    1.43    27.08920    88.29189    38.05530
   220  H   1.0    0.03    1.03    1.43    25.16729    89.42108    40.54029
   221  H   1.0    0.06    1.07    1.44    24.72222    84.62106    41.80641
   222  H   1.0    0.08    1.06    1.44    28.32004    82.01773    40.37588
   223  H   1.0    0.06    1.00    1.43    26.49180    83.01115    37.78696
   224  H   1.0    0.04    1.00    1.43    29.38836    84.50237    38.45025
   225  H   1.0    0.04    1.00    1.43    28.62678    84.72165    44.31785
   226  H   1.0    0.03    1.00    1.43    29.76161    87.32543    42.54907
   227  H   1.0    0.03    1.00    1.43    27.02783    87.64985    44.47092
   228  N   5.0   -0.22    3.19    1.95    34.12425    58.66465    61.79593
   229  C   4.0    0.03    4.21    4.01    32.62334    59.21207    59.56038
   230  C   4.0    0.09    3.24    3.04    32.06874    56.89965    57.95789
   231  O   6.0   -0.29    1.13    1.80    30.51185    57.06781    56.23635
   232  C   4.0   -0.03    4.24    4.09    33.93893    61.17395    57.81806
   233  C   4.0    0.25    3.10    3.02    36.58408    60.37941    56.81839
   234  O   6.0   -0.29    1.18    1.80    37.31597    58.14420    57.09996
   235  O   6.0   -0.30    1.16    1.80    37.82868    62.07118    55.72802
   236  H   1.0    0.09    1.02    1.43    36.02683    58.71789    61.67877
   237  H   1.0    0.03    1.05    1.44    30.79839    59.93900    60.21612
   238  H   1.0    0.06    1.03    1.43    32.73732    61.45995    56.16832
   239  H   1.0    0.04    1.03    1.43    34.19402    62.94687    58.82906
   240  H   1.0    0.08    1.07    1.44    48.60717    78.04274    30.86623
   241  H   1.0    0.04    1.04    1.43    45.32626    71.83597    28.76285
   242  H   1.0    0.09    1.08    1.44    37.58163    80.09350    32.86022
   243  H   1.0    0.05    1.04    1.43    34.93216    76.74451    32.45011
   244  H   1.0    0.09    1.07    1.44    35.38677    71.12828    31.85748
   245  H   1.0    0.07    1.04    1.43    17.23005    70.46371    30.83259
   246  H   1.0    0.08    1.07    1.44    31.95508    56.67957    37.31390
   247  H   1.0    0.06    1.04    1.44    45.84253    61.63088    42.08207
   248  H   1.0    0.08    1.07    1.44    22.82703    89.33296    34.71998
   249  H   1.0    0.04    1.04    1.43    19.78618    87.60925    40.24911
   250  H   1.0    0.08    1.07    1.44    33.74631    59.78209    63.02110
   251  H   1.0    0.06    1.04    1.43    32.96226    55.27157    58.30725

  Z AO/shell   Hii/eV     exponent
  1     Wed Apr 25 08:07:45 CEST 2018   EN: 2.200 GM2: 0.406  GM3: 0.0800  RAES: 1.40
     1s    -10.707211    1.230000
  6     Wed Apr 25 08:07:45 CEST 2018   EN: 2.550 GM2: 0.538  GM3: 0.1500  RAES: 3.00
     2s    -13.970922    2.096432
     2p    -10.063292    1.800000
  7     Wed Apr 25 08:07:45 CEST 2018   EN: 3.040 GM2: 0.461  GM3:-0.0640  RAES: 1.90
     2s    -16.686243    2.339881
     2p    -12.523956    2.014332
  8     Wed Apr 25 08:07:45 CEST 2018   EN: 3.440 GM2: 0.452  GM3:-0.0517  RAES: 1.80
     2s    -20.229985    2.439742
     2p    -15.503117    2.137023
 no old-style atom pair restraining (fixing) potential

molecular fragmentation (1/2 indicates fragments):
111111111111111222222222222222222222222222222222222222222222222222222222
222222222222222222222222222222222222222222222222222222222222222222222222
222222222222222222222222222222222222222222222222222222222222222222222222
22222222222222222222222112222222222
# atoms in fragment 1/2:    17   234
 fragment masses (1/2) :      130.12     1566.69
CMA distance (Bohr)    :  15.877
constraining FC (au)   :  0.0500
           ------------------------------------------------- 
          |        Self-Consistent Charge Iterations        |
           ------------------------------------------------- 

 Ncao       : 593
 Nao        : 593
 Nshell     : 365
 Nel        : 690
 T(el)      :   500.0
 intcut     :    35.0
 scfconv/Eh :  0.100E-06
   qconv/e  :  0.100E-04
 intneglect :  0.100E-08
 broydamp   :      0.400
 iter      E             dE          RMSdq      gap      omega  full diag
   1   -405.9271350 -0.405927E+03  0.510E+00    3.27       0.0  T
   2   -406.9921007 -0.106497E+01  0.239E+00    1.92       1.0  T
   3   -407.0699234 -0.778227E-01  0.130E+00    2.15       1.0  T
   4   -407.1532328 -0.833094E-01  0.315E-01    1.55       1.0  T
   5   -407.1564375 -0.320471E-02  0.142E-01    1.63       1.0  T
   6   -407.1576204 -0.118286E-02  0.503E-02    1.52       1.0  T
   7   -407.1577353 -0.114945E-03  0.258E-02    1.52       1.0  T
   8   -407.1577599 -0.246010E-04  0.896E-03    1.50       1.0  T
   9   -407.1577651 -0.524116E-05  0.428E-03    1.51       1.5  T
  10   -407.1577659 -0.799229E-06  0.174E-03    1.50       3.6  T
  11   -407.1577661 -0.168835E-06  0.740E-04    1.50       8.5  T
  12   -407.1577661 -0.242999E-07  0.294E-04    1.50      21.5  T
  13   -407.1577661 -0.336422E-08  0.135E-04    1.50      46.7  T
  14   -407.1577661 -0.805812E-09  0.490E-05    1.50     128.8  T
  15   -407.1577661 -0.110333E-09  0.196E-05    1.50     322.8  T
speedup  1.13
cpu  time for SCC    5.07 s
wall time for SCC    4.50 s

   *** convergence criteria satisfied after 15 iterations ***

          eigenvalues
 #    :         333        334        335        336        337        338        339        340
 occ. :        2.000      2.000      2.000      2.000      2.000      2.000      2.000      2.000
 eps  :       -10.566    -10.560    -10.398    -10.356    -10.123    -10.076    -10.034     -9.953
 #    :         341        342        343        344        345        346        347        348
 occ. :        2.000      2.000      2.000      2.000      2.000      0.000      0.000      0.000
 eps  :        -9.939     -9.932     -9.780     -9.744     -9.554     -8.056     -7.849     -7.678
 #    :         349        350        351        352        353        354        355        356
 occ. :        0.000      0.000      0.000      0.000      0.000      0.000      0.000      0.000
 eps  :        -7.648     -7.548     -7.514     -6.432     -6.158     -6.071     -5.972     -5.959


   #   Z            q   n(s)   n(p)   n(d)      C6AA      α(0)
   1   7 N     -0.385  1.318  4.068  0.000    29.970     8.131
   2   6 C      0.039  1.056  2.904  0.000    19.930     6.359
   3   6 C      0.200  1.087  2.712  0.000    23.735     7.979
   4   8 O     -0.364  1.755  4.608  0.000    20.966     6.139
   5   6 C     -0.048  1.058  2.990  0.000    21.425     6.588
   6   6 C     -0.092  1.063  3.030  0.000    22.266     6.719
   7   6 C      0.371  1.025  2.604  0.000    20.715     7.449
   8   8 O     -0.622  1.768  4.853  0.000    26.655     6.922
   9   8 O     -0.594  1.755  4.839  0.000    25.979     6.834
  10   1 H      0.165  0.835  0.000  0.000     1.305     1.790
  11   1 H      0.050  0.950  0.000  0.000     2.321     2.383
  12   1 H      0.060  0.940  0.000  0.000     2.194     2.316
  13   1 H      0.034  0.966  0.000  0.000     2.524     2.484
  14   1 H      0.017  0.983  0.000  0.000     2.778     2.607
  15   1 H      0.040  0.960  0.000  0.000     2.452     2.449
  16   7 N     -0.413  1.327  4.087  0.000    30.751     8.236
  17   6 C      0.054  1.051  2.895  0.000    19.700     6.323
  18   6 C      0.195  1.092  2.713  0.000    23.846     7.998
  19   8 O     -0.396  1.749  4.647  0.000    21.595     6.230
  20   6 C     -0.090  1.063  3.027  0.000    22.218     6.710
  21   6 C      0.369  1.026  2.606  0.000    20.751     7.455
  22   8 O     -0.613  1.762  4.851  0.000    26.440     6.894
  23   8 O     -0.543  1.760  4.783  0.000    24.771     6.673
  24   1 H      0.197  0.803  0.000  0.000     1.121     1.659
  25   1 H      0.077  0.923  0.000  0.000     2.006     2.215
  26   1 H      0.063  0.937  0.000  0.000     2.164     2.300
  27   1 H      0.045  0.955  0.000  0.000     2.379     2.412
  28   7 N     -0.407  1.314  4.093  0.000    30.578     8.213
  29   6 C      0.027  1.071  2.902  0.000    20.141     6.393
  30   6 C      0.260  1.056  2.684  0.000    22.622     7.789
  31   8 O     -0.507  1.741  4.766  0.000    23.951     6.562
  32   6 C     -0.022  1.069  2.953  0.000    20.935     6.508
  33   6 C     -0.120  1.039  3.081  0.000    22.854     6.816
  34   6 C     -0.102  1.037  3.065  0.000    22.511     6.765
  35   1 H      0.167  0.833  0.000  0.000     1.292     1.781
  36   1 H      0.037  0.963  0.000  0.000     2.493     2.469
  37   1 H      0.053  0.947  0.000  0.000     2.282     2.362
  38   1 H      0.040  0.960  0.000  0.000     2.452     2.449
  39   1 H      0.043  0.957  0.000  0.000     2.404     2.424
  40   1 H      0.045  0.955  0.000  0.000     2.388     2.417
  41   1 H      0.034  0.966  0.000  0.000     2.534     2.490
  42   1 H      0.035  0.965  0.000  0.000     2.515     2.480
  43   1 H      0.029  0.971  0.000  0.000     2.596     2.520
  44   7 N     -0.190  1.258  3.933  0.000    25.131     7.445
  45   6 C      0.016  1.062  2.922  0.000    20.308     6.415
  46   6 C      0.275  1.038  2.687  0.000    22.353     7.743
  47   8 O     -0.500  1.738  4.762  0.000    23.789     6.539
  48   6 C     -0.073  1.053  3.021  0.000    21.891     6.660
  49   6 C     -0.101  1.054  3.047  0.000    22.420     6.741
  50   6 C     -0.093  1.052  3.042  0.000    22.281     6.721
  51   6 C     -0.034  1.051  2.983  0.000    21.281     6.585
  52   7 N     -0.193  1.251  3.942  0.000    25.178     7.453
  53   1 H      0.226  0.774  0.000  0.000     0.984     1.554
  54   1 H      0.083  0.917  0.000  0.000     1.950     2.184
  55   1 H      0.061  0.939  0.000  0.000     2.188     2.313
  56   1 H      0.064  0.936  0.000  0.000     2.156     2.296
  57   1 H      0.077  0.923  0.000  0.000     2.007     2.215
  58   1 H      0.083  0.917  0.000  0.000     1.944     2.180
  59   1 H      0.077  0.923  0.000  0.000     2.006     2.215
  60   1 H      0.070  0.930  0.000  0.000     2.082     2.256
  61   1 H      0.098  0.902  0.000  0.000     1.802     2.099
  62   1 H      0.083  0.917  0.000  0.000     1.951     2.184
  63   1 H      0.287  0.713  0.000  0.000     0.755     1.361
  64   1 H      0.257  0.743  0.000  0.000     0.856     1.450
  65   1 H      0.308  0.692  0.000  0.000     0.691     1.303
  66   7 N     -0.179  1.244  3.936  0.000    24.886     7.409
  67   6 C      0.012  1.067  2.921  0.000    20.371     6.425
  68   6 C      0.269  1.045  2.685  0.000    22.450     7.759
  69   8 O     -0.481  1.752  4.729  0.000    23.372     6.482
  70   6 C      0.119  1.047  2.833  0.000    18.731     6.180
  71   8 O     -0.480  1.714  4.766  0.000    22.469     6.399
  72   6 C     -0.127  1.040  3.087  0.000    23.002     6.839
  73   1 H      0.228  0.772  0.000  0.000     0.973     1.545
  74   1 H      0.088  0.912  0.000  0.000     1.900     2.156
  75   1 H      0.020  0.980  0.000  0.000     2.728     2.583
  76   1 H      0.319  0.681  0.000  0.000     0.666     1.282
  77   1 H      0.073  0.927  0.000  0.000     2.051     2.240
  78   1 H      0.052  0.948  0.000  0.000     2.293     2.368
  79   1 H      0.068  0.932  0.000  0.000     2.107     2.270
  80   7 N     -0.170  1.242  3.928  0.000    24.679     7.378
  81   6 C     -0.032  1.055  2.977  0.000    21.198     6.565
  82   6 C      0.276  1.042  2.683  0.000    22.334     7.739
  83   8 O     -0.509  1.762  4.747  0.000    23.991     6.567
  84   1 H      0.204  0.796  0.000  0.000     1.084     1.631
  85   1 H      0.092  0.908  0.000  0.000     1.856     2.131
  86   1 H      0.090  0.910  0.000  0.000     1.876     2.142
  87   7 N     -0.173  1.248  3.925  0.000    24.739     7.387
  88   6 C      0.015  1.069  2.915  0.000    20.317     6.417
  89   6 C      0.281  1.040  2.679  0.000    22.241     7.723
  90   8 O     -0.502  1.751  4.751  0.000    23.831     6.545
  91   6 C     -0.087  1.061  3.026  0.000    22.150     6.700
  92   6 C     -0.088  1.047  3.041  0.000    22.171     6.703
  93   6 C     -0.024  1.051  2.973  0.000    21.082     6.551
  94   7 N     -0.144  1.222  3.922  0.000    24.111     7.293
  95   6 C      0.232  1.019  2.749  0.000    23.124     7.873
  96   7 N     -0.240  1.221  4.019  0.000    26.268     7.612
  97   7 N     -0.259  1.240  4.019  0.000    26.728     7.678
  98   1 H      0.224  0.776  0.000  0.000     0.993     1.561
  99   1 H      0.087  0.913  0.000  0.000     1.909     2.161
 100   1 H      0.087  0.913  0.000  0.000     1.912     2.162
 101   1 H      0.077  0.923  0.000  0.000     2.007     2.215
 102   1 H      0.081  0.919  0.000  0.000     1.973     2.197
 103   1 H      0.074  0.926  0.000  0.000     2.042     2.235
 104   1 H      0.086  0.914  0.000  0.000     1.922     2.168
 105   1 H      0.079  0.921  0.000  0.000     1.987     2.205
 106   1 H      0.237  0.763  0.000  0.000     0.936     1.516
 107   1 H      0.240  0.760  0.000  0.000     0.923     1.505
 108   1 H      0.245  0.755  0.000  0.000     0.904     1.489
 109   1 H      0.252  0.748  0.000  0.000     0.876     1.466
 110   1 H      0.247  0.753  0.000  0.000     0.893     1.481
 111   7 N     -0.174  1.245  3.929  0.000    24.759     7.390
 112   6 C      0.017  1.067  2.916  0.000    20.305     6.417
 113   6 C      0.209  1.083  2.707  0.000    23.567     7.950
 114   8 O     -0.353  1.744  4.608  0.000    20.761     6.109
 115   6 C      0.112  1.045  2.843  0.000    18.837     6.196
 116   8 O     -0.452  1.724  4.728  0.000    21.879     6.314
 117   6 C     -0.137  1.042  3.095  0.000    23.197     6.868
 118   1 H      0.222  0.778  0.000  0.000     1.000     1.566
 119   1 H      0.089  0.911  0.000  0.000     1.885     2.147
 120   1 H      0.057  0.943  0.000  0.000     2.237     2.339
 121   1 H      0.328  0.672  0.000  0.000     0.641     1.258
 122   1 H      0.074  0.926  0.000  0.000     2.042     2.235
 123   1 H      0.048  0.952  0.000  0.000     2.341     2.393
 124   1 H      0.065  0.935  0.000  0.000     2.137     2.286
 125   7 N     -0.393  1.310  4.083  0.000    30.181     8.159
 126   6 C      0.033  1.062  2.905  0.000    20.036     6.376
 127   6 C      0.277  1.043  2.680  0.000    22.323     7.738
 128   8 O     -0.526  1.738  4.787  0.000    24.358     6.617
 129   6 C     -0.104  1.075  3.028  0.000    22.477     6.750
 130   6 C      0.367  1.027  2.607  0.000    20.780     7.460
 131   8 O     -0.652  1.784  4.868  0.000    27.441     7.023
 132   8 O     -0.663  1.777  4.887  0.000    27.724     7.059
 133   1 H      0.142  0.858  0.000  0.000     1.458     1.892
 134   1 H      0.063  0.937  0.000  0.000     2.164     2.300
 135   1 H      0.035  0.965  0.000  0.000     2.511     2.478
 136   1 H      0.041  0.959  0.000  0.000     2.441     2.443
 137   7 N     -0.148  1.230  3.919  0.000    24.212     7.308
 138   6 C      0.023  1.057  2.920  0.000    20.187     6.397
 139   6 C      0.276  1.046  2.677  0.000    22.330     7.739
 140   8 O     -0.500  1.762  4.739  0.000    23.792     6.540
 141   6 C      0.086  1.037  2.877  0.000    19.352     6.301
 142   8 O     -0.479  1.732  4.747  0.000    22.457     6.397
 143   1 H      0.210  0.790  0.000  0.000     1.056     1.610
 144   1 H      0.094  0.906  0.000  0.000     1.843     2.123
 145   1 H      0.060  0.940  0.000  0.000     2.202     2.321
 146   1 H      0.024  0.976  0.000  0.000     2.673     2.557
 147   1 H      0.327  0.673  0.000  0.000     0.645     1.262
 148   7 N     -0.189  1.264  3.925  0.000    25.092     7.440
 149   6 C      0.033  1.062  2.905  0.000    20.031     6.373
 150   6 C      0.212  1.087  2.701  0.000    23.517     7.942
 151   8 O     -0.392  1.764  4.628  0.000    21.516     6.219
 152   6 C     -0.020  1.067  2.953  0.000    20.902     6.503
 153   6 C     -0.119  1.039  3.080  0.000    22.832     6.813
 154   6 C     -0.122  1.041  3.081  0.000    22.900     6.824
 155   1 H      0.250  0.750  0.000  0.000     0.884     1.473
 156   1 H      0.076  0.924  0.000  0.000     2.022     2.224
 157   1 H      0.076  0.924  0.000  0.000     2.021     2.223
 158   1 H      0.065  0.935  0.000  0.000     2.141     2.288
 159   1 H      0.043  0.957  0.000  0.000     2.413     2.429
 160   1 H      0.041  0.959  0.000  0.000     2.436     2.441
 161   1 H      0.064  0.936  0.000  0.000     2.158     2.297
 162   1 H      0.029  0.971  0.000  0.000     2.599     2.521
 163   1 H      0.070  0.930  0.000  0.000     2.086     2.259
 164   8 O     -0.672  1.770  4.902  0.000    26.971     7.009
 165   1 H      0.318  0.682  0.000  0.000     0.669     1.284
 166   1 H      0.323  0.677  0.000  0.000     0.656     1.272
 167   8 O     -0.610  1.766  4.844  0.000    25.425     6.805
 168   1 H      0.301  0.699  0.000  0.000     0.718     1.331
 169   1 H      0.334  0.666  0.000  0.000     0.627     1.244
 170   8 O     -0.657  1.760  4.897  0.000    26.590     6.959
 171   1 H      0.304  0.696  0.000  0.000     0.708     1.322
 172   1 H      0.316  0.684  0.000  0.000     0.675     1.290
 173   8 O     -0.636  1.752  4.884  0.000    26.075     6.892
 174   1 H      0.320  0.680  0.000  0.000     0.665     1.281
 175   1 H      0.309  0.691  0.000  0.000     0.695     1.310
 176   8 O     -0.625  1.745  4.880  0.000    25.794     6.854
 177   1 H      0.311  0.689  0.000  0.000     0.688     1.303
 178   1 H      0.314  0.686  0.000  0.000     0.680     1.296
 179   8 O     -0.661  1.763  4.897  0.000    26.684     6.972
 180   1 H      0.301  0.699  0.000  0.000     0.718     1.331
 181   1 H      0.309  0.691  0.000  0.000     0.694     1.309
 182   8 O     -0.635  1.760  4.875  0.000    26.038     6.887
 183   1 H      0.309  0.691  0.000  0.000     0.695     1.310
 184   1 H      0.309  0.691  0.000  0.000     0.693     1.308
 185   8 O     -0.628  1.762  4.867  0.000    25.876     6.865
 186   1 H      0.309  0.691  0.000  0.000     0.695     1.310
 187   1 H      0.331  0.669  0.000  0.000     0.634     1.251
 188   8 O     -0.673  1.764  4.908  0.000    26.997     7.013
 189   1 H      0.323  0.677  0.000  0.000     0.655     1.271
 190   1 H      0.292  0.708  0.000  0.000     0.745     1.355
 191   8 O     -0.629  1.758  4.871  0.000    25.889     6.867
 192   1 H      0.341  0.659  0.000  0.000     0.609     1.225
 193   1 H      0.341  0.659  0.000  0.000     0.609     1.226
 194   8 O     -0.609  1.735  4.874  0.000    25.401     6.802
 195   1 H      0.300  0.700  0.000  0.000     0.721     1.333
 196   1 H      0.332  0.668  0.000  0.000     0.631     1.248
 197   8 O     -0.658  1.752  4.906  0.000    26.627     6.964
 198   1 H      0.308  0.692  0.000  0.000     0.697     1.312
 199   1 H      0.308  0.692  0.000  0.000     0.698     1.313
 200   8 O     -0.629  1.751  4.879  0.000    25.895     6.868
 201   1 H      0.326  0.674  0.000  0.000     0.649     1.265
 202   1 H      0.324  0.676  0.000  0.000     0.653     1.269
 203   8 O     -0.632  1.759  4.873  0.000    25.968     6.878
 204   1 H      0.342  0.658  0.000  0.000     0.607     1.224
 205   1 H      0.306  0.694  0.000  0.000     0.702     1.316
 206   8 O     -0.640  1.776  4.863  0.000    26.158     6.903
 207   1 H      0.343  0.657  0.000  0.000     0.604     1.221
 208   1 H      0.339  0.661  0.000  0.000     0.614     1.231
 209   7 N     -0.400  1.323  4.076  0.000    30.365     8.184
 210   6 C      0.035  1.065  2.900  0.000    20.008     6.373
 211   6 C      0.198  1.095  2.707  0.000    23.785     7.987
 212   8 O     -0.375  1.760  4.615  0.000    21.181     6.170
 213   6 C     -0.066  1.061  3.005  0.000    21.764     6.640
 214   6 C     -0.014  1.059  2.956  0.000    20.797     6.487
 215   6 C     -0.120  1.042  3.078  0.000    22.856     6.816
 216   6 C     -0.115  1.045  3.070  0.000    22.764     6.804
 217   1 H      0.166  0.834  0.000  0.000     1.298     1.785
 218   1 H      0.057  0.943  0.000  0.000     2.234     2.337
 219   1 H      0.050  0.950  0.000  0.000     2.321     2.383
 220   1 H      0.045  0.955  0.000  0.000     2.389     2.417
 221   1 H      0.035  0.965  0.000  0.000     2.513     2.479
 222   1 H      0.068  0.932  0.000  0.000     2.103     2.268
 223   1 H      0.042  0.958  0.000  0.000     2.421     2.433
 224   1 H      0.014  0.986  0.000  0.000     2.827     2.630
 225   1 H      0.037  0.963  0.000  0.000     2.483     2.464
 226   1 H      0.036  0.964  0.000  0.000     2.504     2.474
 227   1 H      0.038  0.962  0.000  0.000     2.475     2.460
 228   7 N     -0.390  1.308  4.082  0.000    30.105     8.149
 229   6 C      0.045  1.058  2.896  0.000    19.836     6.345
 230   6 C      0.212  1.087  2.701  0.000    23.517     7.942
 231   8 O     -0.406  1.756  4.650  0.000    21.806     6.261
 232   6 C     -0.096  1.076  3.020  0.000    22.324     6.727
 233   6 C      0.364  1.028  2.608  0.000    20.820     7.467
 234   8 O     -0.645  1.781  4.864  0.000    27.248     6.999
 235   8 O     -0.644  1.765  4.879  0.000    27.223     6.995
 236   1 H      0.150  0.850  0.000  0.000     1.398     1.852
 237   1 H      0.072  0.928  0.000  0.000     2.064     2.247
 238   1 H      0.036  0.964  0.000  0.000     2.504     2.475
 239   1 H      0.043  0.957  0.000  0.000     2.403     2.424
 240   1 H      0.189  0.811  0.000  0.000     1.164     1.690
 241   1 H      0.065  0.935  0.000  0.000     2.136     2.285
 242   1 H      0.164  0.836  0.000  0.000     1.310     1.793
 243   1 H      0.059  0.941  0.000  0.000     2.207     2.323
 244   1 H      0.166  0.834  0.000  0.000     1.297     1.784
 245   1 H      0.067  0.933  0.000  0.000     2.119     2.276
 246   1 H      0.192  0.808  0.000  0.000     1.147     1.678
 247   1 H      0.071  0.929  0.000  0.000     2.076     2.253
 248   1 H      0.182  0.818  0.000  0.000     1.200     1.716
 249   1 H      0.079  0.921  0.000  0.000     1.986     2.204
 250   1 H      0.195  0.805  0.000  0.000     1.133     1.667
 251   1 H      0.065  0.935  0.000  0.000     2.145     2.290

 Mol. C6AA /au·bohr⁶  :     517483.349674
 Mol. C8AA /au·bohr⁸  :   11001872.841708
 Mol. α(0) /au        :       1059.653048

 
molecular dipole:
                 x           y           z       tot (Debye)
 q only:      -74.079    -128.875     -86.544
   full:      -71.931    -128.182     -86.214     433.134
molecular quadrupole (traceless):
                xx          xy          yy          xz          yz          zz
 q only:     3425.198   -7049.121   -5133.286   -4836.868   -8128.266    1708.089
  q+dip:     3470.517   -6788.984   -5108.429   -4682.676   -8057.059    1637.912
   full:     3469.157   -6789.479   -5108.676   -4681.235   -8059.541    1639.519
speedup  1.10
cpu  time for grad    6.08 s
wall time for grad    5.52 s

SCC energy    :    -407.1632043
rep           :       4.1786637
ES            :       1.9189924
AES           :      -0.1260977
AXC           :       0.0859416
disp          :      -0.2837041
XB            :       0.0000000
fix           :       0.0000000
Gborn         :       0.0000000
Gsasa         :       0.0000000
Ghb           :       0.0000000
Gshift        :       0.0000000
Gsolv         :      -0.4443416     -278.83
Etot ala COSMO:    -407.1632043
grad norm     :       0.5784603
total E       :    -402.9610817
atomizationE  :      65.0395156    40812.91
(atE without considering molecular charge,
 total energy contains solvation terms)
H-L gap (eV)  :          1.4975

------------------------------------------------------------------------
 * finished run on 2019/05/04 at 19:51:05.898     
------------------------------------------------------------------------
 total:
 * wall-time:     0 d,  0 h,  0 min,  6.187 sec
 *  cpu-time:     0 d,  0 h,  0 min,  6.646 sec
 * ratio c/w:     1.074 speedup
 SCF:
 * wall-time:     0 d,  0 h,  0 min,  5.843 sec
 *  cpu-time:     0 d,  0 h,  0 min,  6.483 sec
 * ratio c/w:     1.109 speedup

