      -----------------------------------------------------------      
     |                   =====================                   |     
     |                           x T B                           |     
     |                   =====================                   |     
     |                         S. Grimme                         |     
     |          Mulliken Center for Theoretical Chemistry        |     
     |                    University of Bonn                     |     
     |                 Version 6.0.1 (SAW181210)                 |     
      -----------------------------------------------------------      

   This program is distributed in the hope that it will be useful,
   but WITHOUT ANY WARRANTY; without even the implied warranty of
   MERCHANTABILITY or FITNESS FOR A PARTICULAR PURPOSE.
   
   FOR NON-COMMERCIAL, ACADEMIA USE ONLY.
   
   Cite this work as:
   S. Grimme, C. Bannwarth, P. Shushkov, J. Comput. Theory Chem., 2017,
   13, 1989-2009.
   C. Bannwarth, S. Ehlert and S. Grimme., ChemRxiv, 2018, preprint.
   http://doi.org/10.26434/chemrxiv.7246238.v1
   
   for sTDA-xTB:
   S. Grimme and C. Bannwarth, J. Chem. Phys., 2016, 145, 054103.
   
   in the mass-spec context:
   V. Asgeirsson, C. Bauer and S. Grimme, Chem. Sci., 2017, 8, 4879.
   
   if GBSA is used:
   P. Shushkov, F. März and S. Grimme, unpublished.
   
   for ANC optimizer:
   S. Grimme, unpublished.
   Rational Function algorithm used in ANCopt:
   F. Eckert, P. Pulay, H.-J. Werner, J. Comput. Chem., 1997, 18, 1473.
   
   with help from (in alphabetical order)
   C. Bannwarth, F. Bohle, G. Brandenburg, E. Caldeweyher, M. Checinski,
   S. Dohm, S. Ehlert, S. Ehrlich, F. März, H. Neugebauer, J. Pisarek,
   P. Pracht, P. Shushkov, and S. Spicher.
   
 * started run on 2019/05/12 at 07:56:54.780     
========================================================================
 # omp threads = 2
========================================================================
number of atoms            : 559
number of electrons        : 1496
charge                     : 1
spin                       : .0
first test random number   : .4131

########################################################################
# WARNING! Please study the warnings concerning your input carefully
#  - Process number higher than OMP_NUM_THREADS, I hope you know what you are doing.
########################################################################

           ------------------------------------------------- 
          |                 G F N 2 - x T B                 |
          | Geometry, Frequencies, Noncovalent interactions |
          |            JCTC 2018 parametrisation            |
           ------------------------------------------------- 
 
      method parameters     
 k(s)        :  1.8500
 k(p)        :  2.2300
 k(d)        :  2.2300
 k(f)        :  2.0000
 kEN (H0ij)  : -2.0000
 D4 a1       :  0.5200
 D4 a2       :  5.0000
 D4 s6       :  1.0000
 D4 s8       :  2.7000
 D4 s9       :  5.0000
 alphaj      :  2.0000

 Solvent             : h2o
 Using internal parameter file: .param_gbsa2_h2o
 Gsolv ref. state (COSMO-RS): gsolv [1 M gas/solution]
 temperature (mdtemp)       :    298.150000000000     
 dielectric constant        :    80.2000000000000     
 rho                        :    1.00000000000000     
 mass                       :    18.0000000000000     
 surface tension            :    15.5689454083859     
 probe radius               :   0.975313790000000     
 vdW radii scaling          :    1.00000000000000     
 Gshift (Eh)                :   1.857443126794793E-003
 c1                         :    1.55243817000000     
 soset                      :   0.130326360000000     
 HB correction              :  T

            Z     q(EN)     CN     RAES       Cart. coordinates
     1  N   5.0   -0.20    3.22    1.96    13.29114    51.92973   -15.17857
     2  C   4.0    0.03    4.28    4.16    11.86321    51.23987   -13.03153
     3  C   4.0    0.11    3.23    3.04    12.54846    48.52972   -12.01507
     4  O   6.0   -0.30    1.23    1.80    12.39948    47.00774   -13.13911
     5  C   4.0   -0.04    4.32    4.24     9.03020    51.17983   -13.55816
     6  C   4.0   -0.05    4.22    4.05     7.34775    50.46085   -11.33053
     7  C   4.0   -0.04    4.19    3.99     5.16697    48.89798   -12.31062
     8  C   4.0   -0.03    4.12    3.84     3.34513    48.33106   -10.17176
     9  N   5.0   -0.11    3.88    2.58     1.43872    46.23312   -10.77089
    10  H   1.0    0.11    1.07    1.44    14.32507    50.48265   -15.69828
    11  H   1.0    0.04    1.07    1.44    12.14993    52.57126   -11.52191
    12  H   1.0    0.04    1.01    1.43     8.39038    53.16290   -13.98041
    13  H   1.0    0.06    1.04    1.43     8.58333    49.92959   -15.11757
    14  H   1.0    0.05    1.06    1.44     8.41023    49.26055   -10.12816
    15  H   1.0    0.04    1.04    1.43     6.47455    52.14128   -10.54483
    16  H   1.0    0.04    1.02    1.43     4.06216    49.81628   -13.82173
    17  H   1.0    0.06    1.02    1.43     5.71353    47.01682   -13.03466
    18  H   1.0    0.05    1.04    1.43     4.30621    47.76929    -8.50672
    19  H   1.0    0.04    1.02    1.43     2.16638    50.00017    -9.86796
    20  H   1.0    0.05    0.97    1.43     0.19063    45.95549    -9.13940
    21  H   1.0    0.06    0.97    1.43     0.31568    46.68138   -12.43017
    22  H   1.0    0.07    0.98    1.43     2.35171    44.46014   -11.13784
    23  N   5.0   -0.19    3.12    1.94    11.55107    42.97018    -7.48163
    24  C   4.0    0.01    4.24    4.08     9.68026    41.62811    -5.88214
    25  C   4.0    0.15    3.40    3.08     7.15669    42.05142    -6.98673
    26  O   6.0   -0.31    1.33    1.80     6.80705    43.18922    -8.71581
    27  H   1.0    0.10    1.01    1.43    12.36777    41.64434    -8.70372
    28  H   1.0    0.05    1.02    1.43     9.99371    39.54528    -5.82526
    29  H   1.0    0.04    1.04    1.43     9.58210    42.15356    -3.92325
    30  N   5.0   -0.08    3.70    2.27     5.16488    40.61200    -5.98925
    31  C   4.0    0.02    4.60    4.66     5.71490    38.79708    -4.01759
    32  C   4.0    0.17    3.49    3.11     5.77613    36.26442    -5.18458
    33  O   6.0   -0.30    1.34    1.80     5.74509    36.09430    -7.42303
    34  C   4.0   -0.03    4.35    4.28     3.24019    39.04718    -2.31770
    35  C   4.0   -0.04    4.30    4.20     1.27752    39.97746    -3.91251
    36  C   4.0   -0.01    4.26    4.11     2.28077    41.20278    -6.22474
    37  H   1.0    0.05    1.05    1.44     7.29719    39.31447    -2.78704
    38  H   1.0    0.07    1.02    1.43     2.75702    37.13328    -1.61090
    39  H   1.0    0.06    1.02    1.43     3.53860    40.37054    -0.70476
    40  H   1.0    0.06    1.04    1.43     0.08171    38.45034    -4.61657
    41  H   1.0    0.04    1.03    1.43     0.15530    41.45172    -2.95703
    42  H   1.0    0.06    1.03    1.43     1.69038    40.38316    -7.96941
    43  H   1.0    0.04    1.01    1.43     1.88717    43.24214    -6.28698
    44  N   5.0   -0.13    3.44    2.04     6.26528    34.39818    -3.51794
    45  C   4.0    0.04    4.37    4.33     6.32053    31.82227    -4.56152
    46  C   4.0    0.10    3.23    3.04     3.91887    30.99493    -5.84152
    47  O   6.0   -0.27    1.18    1.80     2.05364    31.40314    -4.81928
    48  C   4.0   -0.04    4.29    4.18     7.07813    29.94767    -2.39532
    49  C   4.0   -0.03    4.20    3.99     9.95195    29.92157    -1.76000
    50  C   4.0   -0.07    4.06    3.72    10.63868    28.59841     0.68404
    51  C   4.0   -0.06    4.05    3.72    11.49147    28.83919    -3.96617
    52  H   1.0    0.09    1.07    1.44     6.79224    34.35275    -1.69885
    53  H   1.0    0.05    1.09    1.44     7.82086    31.46556    -5.93403
    54  H   1.0    0.05    1.03    1.43     6.19474    30.45500    -0.60920
    55  H   1.0    0.05    1.02    1.43     6.68658    27.97529    -2.95752
    56  H   1.0    0.05    1.07    1.44    10.60183    31.83891    -1.52291
    57  H   1.0    0.04    1.00    1.43    12.66982    28.77179     0.99410
    58  H   1.0    0.04    0.98    1.43     9.53124    29.61179     2.18079
    59  H   1.0    0.05    0.99    1.43     9.93063    26.64507     0.47901
    60  H   1.0    0.05    0.99    1.43    13.50208    28.94607    -3.54396
    61  H   1.0    0.05    0.99    1.43    10.74611    26.88913    -4.24460
    62  H   1.0    0.06    0.98    1.43    10.86903    29.98051    -5.67374
    63  N   5.0   -0.20    3.19    1.95     7.81126    31.89643   -10.15075
    64  C   4.0    0.04    4.13    3.86     9.41179    33.47494   -11.84671
    65  C   4.0    0.13    3.11    3.02    11.69443    34.67239   -10.13508
    66  O   6.0   -0.31    1.19    1.80    11.79376    34.50274    -8.23563
    67  C   4.0    0.04    4.11    3.82     8.09140    35.63137   -13.25737
    68  O   6.0   -0.24    1.99    1.83     9.35459    36.72787   -15.32493
    69  H   1.0    0.11    1.07    1.44     6.48552    33.06000    -9.43664
    70  H   1.0    0.05    1.05    1.44    10.31645    32.32770   -13.27892
    71  H   1.0    0.05    1.03    1.43     6.29207    34.98374   -13.87395
    72  H   1.0    0.07    1.04    1.43     7.93150    37.16053   -11.96201
    73  H   1.0    0.12    0.97    1.43     8.18648    37.16023   -16.78579
    74  N   5.0   -0.21    3.18    1.95    23.57042    45.16898    -2.88166
    75  C   4.0    0.03    4.22    4.03    22.62035    47.37090    -1.29700
    76  C   4.0    0.07    3.33    3.06    23.97945    49.51194    -1.80552
    77  O   6.0   -0.28    1.13    1.80    23.65680    51.76986    -1.13409
    78  C   4.0   -0.02    4.30    4.20    22.56157    46.70652     1.55328
    79  C   4.0   -0.01    3.64    3.19    20.71648    44.83641     2.52755
    80  C   4.0   -0.01    3.49    3.11    21.23800    42.36858     3.05989
    81  C   4.0    0.00    3.77    3.30    18.00557    45.13480     2.21363
    82  N   5.0   -0.11    3.38    2.01    18.91422    41.08465     3.40888
    83  C   4.0    0.03    3.80    3.33    16.88271    42.80124     2.84736
    84  C   4.0   -0.05    3.40    3.08    16.24762    47.03631     1.51041
    85  C   4.0   -0.05    3.35    3.07    14.21378    42.33650     2.89349
    86  C   4.0   -0.05    3.37    3.07    13.70284    46.58976     1.31420
    87  C   4.0   -0.04    3.38    3.07    12.67768    44.28176     2.05959
    88  H   1.0    0.09    1.03    1.43    22.44073    44.86370    -4.33530
    89  H   1.0    0.05    1.09    1.44    20.70071    47.84852    -1.80268
    90  H   1.0    0.05    1.03    1.43    24.41891    45.85414     2.03013
    91  H   1.0    0.06    1.06    1.44    21.98518    48.36366     2.57919
    92  H   1.0    0.06    1.01    1.43    23.07833    41.54225     3.16351
    93  H   1.0    0.07    1.00    1.43    18.65808    39.16583     3.95261
    94  H   1.0    0.05    1.02    1.43    17.04729    48.81220     0.78658
    95  H   1.0    0.05    1.01    1.43    13.54296    40.42735     3.36582
    96  H   1.0    0.05    1.04    1.44    12.41025    48.08800     0.95642
    97  H   1.0    0.06    1.05    1.44    10.74148    43.98023     2.26052
    98  N   5.0   -0.20    3.25    1.97     1.90768    54.93409     2.92958
    99  C   4.0    0.03    4.45    4.46     0.65797    54.49244     5.38472
   100  C   4.0    0.16    3.54    3.13     1.71637    52.32769     6.78327
   101  O   6.0   -0.31    1.29    1.80     2.62121    50.50507     5.91363
   102  C   4.0   -0.04    4.48    4.51    -1.95983    53.83672     5.04303
   103  C   4.0   -0.03    4.40    4.38    -2.50620    51.76783     3.47597
   104  C   4.0    0.17    3.21    3.04    -4.32511    49.83237     4.52695
   105  O   6.0   -0.27    1.25    1.80    -3.95725    47.97682     5.32327
   106  N   5.0   -0.18    3.16    1.95    -6.84560    50.69107     4.17479
   107  H   1.0    0.11    1.04    1.43     2.33554    53.28295     2.10849
   108  H   1.0    0.05    1.07    1.44     1.06690    56.23274     6.43626
   109  H   1.0    0.06    1.06    1.44    -2.87380    53.43013     6.87128
   110  H   1.0    0.04    1.03    1.43    -2.94595    55.53911     4.24636
   111  H   1.0    0.05    1.03    1.43    -3.31569    52.50452     1.66002
   112  H   1.0    0.07    1.08    1.44    -0.78318    50.79096     3.04888
   113  H   1.0    0.09    1.03    1.43    -7.29463    52.13127     3.09314
   114  H   1.0    0.09    0.95    1.42    -8.39678    49.36655     4.65711
   115  N   5.0   -0.14    3.47    2.06     1.75877    52.78566     9.36363
   116  C   4.0    0.04    4.51    4.54     2.82903    50.75209    11.00819
   117  C   4.0    0.15    3.49    3.11     0.74943    49.77799    12.64682
   118  O   6.0   -0.33    1.34    1.80    -0.28243    51.19012    14.08507
   119  C   4.0   -0.02    4.29    4.17     5.00372    51.64399    12.81767
   120  C   4.0   -0.07    4.11    3.82     5.28831    49.81934    15.04361
   121  C   4.0   -0.08    4.05    3.72     7.47228    51.86020    11.35677
   122  H   1.0    0.11    1.11    1.45     1.59717    54.36804    10.37301
   123  H   1.0    0.05    1.07    1.44     3.52979    49.14293     9.80827
   124  H   1.0    0.04    1.08    1.44     4.59792    53.46292    13.50745
   125  H   1.0    0.04    1.00    1.43     6.85174    50.59326    16.18019
   126  H   1.0    0.06    1.01    1.43     3.40988    49.85268    15.99497
   127  H   1.0    0.04    0.99    1.43     5.74426    47.91904    14.24482
   128  H   1.0    0.03    1.00    1.43     8.96106    52.47508    12.60490
   129  H   1.0    0.03    0.97    1.43     7.81028    49.90575    10.50679
   130  H   1.0    0.04    0.98    1.43     7.10029    53.17402     9.73276
   131  N   5.0   -0.14    3.39    2.02    -0.01519    47.40420    12.03062
   132  C   4.0    0.03    4.33    4.26    -1.88962    46.04829    13.62625
   133  C   4.0    0.14    3.49    3.11    -0.68916    44.44761    15.59109
   134  O   6.0   -0.30    1.27    1.80     0.35988    42.37822    14.99811
   135  C   4.0   -0.05    4.07    3.74    -3.63348    44.38320    11.96244
   136  H   1.0    0.10    1.06    1.44     0.68266    46.22475    10.66250
   137  H   1.0    0.04    1.06    1.44    -3.16861    47.38109    14.62813
   138  H   1.0    0.05    1.00    1.43    -5.03356    43.50882    13.15053
   139  H   1.0    0.06    0.97    1.43    -4.48893    45.77180    10.55558
   140  H   1.0    0.08    0.99    1.43    -2.27265    43.06469    11.01709
   141  N   5.0   -0.09    3.72    2.30    -0.80797    45.20277    18.03885
   142  C   4.0    0.03    4.56    4.62     0.58309    43.89584    19.97278
   143  C   4.0    0.17    3.47    3.10    -0.54595    41.34802    20.31756
   144  O   6.0   -0.30    1.31    1.80    -2.58888    40.90461    19.71550
   145  C   4.0   -0.04    4.46    4.48    -0.31885    45.63458    22.33199
   146  C   4.0   -0.04    4.37    4.33    -0.94667    47.96407    21.33847
   147  C   4.0   -0.02    4.41    4.39    -2.16035    47.61548    19.03108
   148  H   1.0    0.04    1.04    1.44     2.61384    43.98640    19.87870
   149  H   1.0    0.06    1.02    1.43    -1.83182    44.57585    23.31877
   150  H   1.0    0.04    1.00    1.43     1.40507    45.62158    23.61424
   151  H   1.0    0.05    1.06    1.44    -2.20067    48.79459    22.77090
   152  H   1.0    0.04    1.04    1.43     0.84673    49.04589    21.27565
   153  H   1.0    0.04    1.05    1.44    -4.09030    47.17136    19.19804
   154  H   1.0    0.05    1.03    1.43    -1.84579    49.13528    17.67119
   155  N   5.0   -0.14    3.51    2.08     1.11927    39.55908    21.13899
   156  C   4.0    0.04    4.55    4.61     0.19344    36.92339    21.47542
   157  C   4.0    0.18    3.44    3.09    -1.00907    36.81215    23.97983
   158  O   6.0   -0.27    1.26    1.80     0.00302    37.36695    25.81277
   159  C   4.0   -0.02    4.43    4.43     2.24786    35.02174    21.13161
   160  C   4.0    0.18    3.26    3.05     1.80202    32.41005    22.03620
   161  O   6.0   -0.31    1.36    1.80    -0.07952    31.68092    21.75568
   162  N   5.0   -0.16    3.15    1.95     3.55773    31.29996    23.65609
   163  H   1.0    0.11    1.11    1.45     2.92408    39.66647    21.42878
   164  H   1.0    0.05    1.10    1.44    -1.02745    36.70014    19.86439
   165  H   1.0    0.05    1.05    1.44     2.64613    34.73475    19.13818
   166  H   1.0    0.06    1.05    1.44     3.92290    35.71523    22.08027
   167  H   1.0    0.10    0.99    1.43     2.92871    29.69399    24.68504
   168  H   1.0    0.11    1.03    1.43     5.05166    32.43767    24.08545
   169  N   5.0   -0.13    3.38    2.01    -3.30551    35.57184    23.79867
   170  C   4.0    0.04    4.28    4.16    -4.91081    35.09108    26.15367
   171  C   4.0    0.12    3.22    3.04    -3.83296    33.62846    28.32124
   172  O   6.0   -0.26    1.19    1.80    -3.50668    34.68955    30.10297
   173  C   4.0   -0.07    4.09    3.79    -7.40800    33.77847    25.48454
   174  H   1.0    0.08    1.05    1.44    -4.04863    34.45025    22.41414
   175  H   1.0    0.07    1.09    1.44    -5.29131    36.95860    26.71315
   176  H   1.0    0.06    1.00    1.43    -8.51129    33.65924    27.22053
   177  H   1.0    0.05    0.99    1.43    -8.27804    34.93537    23.98804
   178  H   1.0    0.05    0.99    1.43    -6.85845    31.91787    24.69698
   179  N   5.0   -0.19    3.17    1.95    13.21875    48.05841    33.80632
   180  C   4.0    0.03    4.21    4.02    12.22001    48.44457    31.30767
   181  C   4.0    0.12    3.19    3.03    12.91754    51.18795    30.28395
   182  O   6.0   -0.29    1.18    1.80    12.55446    52.87725    31.23161
   183  C   4.0   -0.03    4.40    4.38     9.31043    48.24747    31.13309
   184  C   4.0   -0.02    3.55    3.14     8.06573    48.44570    28.79736
   185  C   4.0   -0.03    3.52    3.12     7.10529    46.38042    27.42279
   186  C   4.0   -0.02    3.51    3.12     7.73634    50.67329    27.53000
   187  C   4.0   -0.04    3.35    3.06     6.11701    46.39272    25.02595
   188  C   4.0   -0.03    3.38    3.07     6.73782    50.78905    25.10698
   189  C   4.0   -0.05    3.31    3.06     5.90710    48.68989    23.69702
   190  H   1.0    0.10    1.06    1.44    11.76821    48.13886    34.98051
   191  H   1.0    0.05    1.03    1.43    12.95437    47.06740    29.87060
   192  H   1.0    0.05    1.07    1.44     8.81620    46.43712    31.90203
   193  H   1.0    0.06    1.08    1.44     8.57139    49.70532    32.24987
   194  H   1.0    0.06    1.01    1.43     7.44329    44.45977    28.25534
   195  H   1.0    0.07    1.03    1.43     8.54259    52.40880    28.29281
   196  H   1.0    0.06    1.01    1.43     5.43638    44.66255    24.07304
   197  H   1.0    0.06    0.99    1.43     6.54117    52.67910    24.10560
   198  H   1.0    0.05    1.03    1.43     4.90019    48.84788    21.96313
   199  N   5.0   -0.17    3.21    1.96    14.85254    54.23428    22.26864
   200  C   4.0    0.03    4.25    4.11    15.70898    53.83159    19.70036
   201  C   4.0    0.10    3.27    3.05    16.58290    56.44152    18.83215
   202  O   6.0   -0.31    1.26    1.80    15.68028    58.33322    19.25156
   203  C   4.0   -0.03    4.24    4.08    13.63761    52.90418    17.73129
   204  C   4.0   -0.08    4.06    3.74    14.52825    52.94669    14.96330
   205  C   4.0   -0.08    4.04    3.70    12.71897    50.23376    18.46850
   206  H   1.0    0.11    1.04    1.43    13.05093    55.09475    22.26835
   207  H   1.0    0.05    1.06    1.44    17.12045    52.39368    19.51355
   208  H   1.0    0.04    1.06    1.44    11.93967    54.06255    17.90339
   209  H   1.0    0.03    1.00    1.43    12.89598    52.32966    13.84557
   210  H   1.0    0.04    1.01    1.43    15.00649    54.95558    14.72427
   211  H   1.0    0.05    1.01    1.43    16.13814    51.67661    14.98693
   212  H   1.0    0.03    0.98    1.43    11.22584    49.65951    17.07716
   213  H   1.0    0.04    0.99    1.43    14.37245    48.95560    18.22939
   214  H   1.0    0.05    0.99    1.43    11.97668    50.28263    20.40535
   215  N   5.0   -0.18    3.14    1.94    12.14355    61.26630    21.04735
   216  C   4.0    0.03    4.19    3.98     9.59650    60.13439    21.66436
   217  C   4.0    0.10    3.15    3.03     9.40373    58.65304    24.18480
   218  O   6.0   -0.30    1.23    1.80    10.56267    56.90198    24.27336
   219  C   4.0   -0.04    4.28    4.15     8.69338    58.40890    19.45526
   220  C   4.0   -0.03    4.19    3.97     8.37658    59.77136    16.79520
   221  C   4.0   -0.08    4.07    3.75     7.86657    57.96368    14.67552
   222  C   4.0   -0.07    4.02    3.66     6.41721    61.88932    16.85095
   223  H   1.0    0.13    1.07    1.44    13.46551    59.80219    21.27267
   224  H   1.0    0.04    1.04    1.43     8.18835    61.68443    21.73118
   225  H   1.0    0.05    1.04    1.43    10.20924    57.08457    19.09612
   226  H   1.0    0.05    1.06    1.44     6.86855    57.75782    19.81162
   227  H   1.0    0.04    1.06    1.44    10.14698    60.75685    16.31745
   228  H   1.0    0.04    1.00    1.43     7.70075    59.02610    12.91434
   229  H   1.0    0.03    0.99    1.43     9.46843    56.60177    14.74513
   230  H   1.0    0.04    1.01    1.43     6.10234    57.03851    15.28582
   231  H   1.0    0.04    0.96    1.42     6.49628    62.93465    14.96204
   232  H   1.0    0.04    1.00    1.43     4.64003    60.97834    17.42480
   233  H   1.0    0.04    0.97    1.43     7.03135    63.22544    18.40234
   234  N   5.0   -0.19    3.25    1.97    -7.57552    52.43259    18.06257
   235  C   4.0    0.03    4.41    4.39    -6.24631    52.34040    15.67003
   236  C   4.0    0.17    3.43    3.09    -5.70248    55.09254    15.05112
   237  O   6.0   -0.30    1.29    1.80    -7.25551    56.45985    14.74522
   238  C   4.0   -0.02    4.34    4.28    -8.00263    51.31776    13.54099
   239  C   4.0   -0.06    4.17    3.93    -8.83388    48.53958    14.07059
   240  C   4.0   -0.06    4.06    3.73    -6.85308    51.58530    10.78083
   241  C   4.0   -0.07    4.00    3.63    -9.38458    47.05875    11.62484
   242  H   1.0    0.08    1.04    1.43    -9.01102    51.16323    18.07168
   243  H   1.0    0.04    1.04    1.43    -4.67416    50.97021    15.68697
   244  H   1.0    0.06    1.06    1.44    -9.74946    52.38747    13.59911
   245  H   1.0    0.04    1.05    1.44    -7.28891    47.64478    14.99824
   246  H   1.0    0.05    1.04    1.43   -10.62778    48.62863    15.03644
   247  H   1.0    0.05    0.99    1.43    -8.32144    50.83196     9.47321
   248  H   1.0    0.06    1.00    1.43    -6.44780    53.62319    10.64966
   249  H   1.0    0.05    1.00    1.43    -5.14775    50.41050    10.91417
   250  H   1.0    0.05    0.99    1.43    -9.89657    45.12285    12.17387
   251  H   1.0    0.05    0.98    1.43   -10.84970    48.09699    10.54409
   252  H   1.0    0.05    0.98    1.43    -7.50059    47.16086    10.54997
   253  N   5.0   -0.13    3.41    2.03    -3.12886    55.42910    14.75456
   254  C   4.0    0.03    4.32    4.24    -2.19527    58.08508    14.27271
   255  C   4.0    0.09    3.20    3.04    -1.29684    58.58478    11.66070
   256  O   6.0   -0.32    1.30    1.80    -0.49439    56.98184    10.51963
   257  C   4.0   -0.05    4.28    4.16    -0.21400    58.77874    16.30551
   258  C   4.0   -0.02    4.38    4.34    -0.91715    59.08229    19.01502
   259  C   4.0    0.18    3.24    3.04     1.03221    58.70885    20.98089
   260  O   6.0   -0.31    1.48    1.80     1.72334    57.01071    21.26379
   261  N   5.0   -0.17    3.38    2.01     1.63768    60.66712    22.10706
   262  H   1.0    0.11    1.08    1.44    -1.53479    54.24537    14.74640
   263  H   1.0    0.06    1.06    1.44    -3.83561    59.32238    14.61575
   264  H   1.0    0.05    1.07    1.44     1.15263    57.37180    16.29613
   265  H   1.0    0.04    1.04    1.43     0.45587    60.66128    15.76522
   266  H   1.0    0.04    1.03    1.43    -1.81868    60.97841    19.22940
   267  H   1.0    0.06    1.01    1.43    -2.61419    57.81611    19.34266
   268  H   1.0    0.08    1.04    1.43     0.87210    62.38690    21.87188
   269  H   1.0    0.08    1.00    1.43     3.12732    60.67097    23.49781
   270  N   5.0   -0.18    3.34    2.00     3.47011    62.00740     6.79609
   271  C   4.0    0.03    4.38    4.34     6.03194    62.90157     6.68165
   272  C   4.0    0.10    3.39    3.08     6.43199    64.40783     4.22464
   273  O   6.0   -0.28    1.23    1.80     5.01628    64.13699     2.70645
   274  C   4.0   -0.03    4.33    4.25     7.87504    60.74074     6.51082
   275  C   4.0   -0.07    4.13    3.87     6.62397    58.36156     7.58121
   276  C   4.0   -0.06    4.15    3.89     8.82630    60.37766     3.73314
   277  H   1.0    0.10    1.05    1.44     3.08979    60.76054     5.42051
   278  H   1.0    0.04    1.03    1.43     6.60408    64.09491     8.31400
   279  H   1.0    0.03    1.04    1.43     9.56293    61.10978     7.68655
   280  H   1.0    0.04    0.98    1.43     8.07159    56.81856     7.41896
   281  H   1.0    0.04    0.99    1.43     6.20343    58.75423     9.59105
   282  H   1.0    0.05    1.01    1.43     4.95046    58.06363     6.33068
   283  H   1.0    0.04    0.97    1.43    10.17460    58.72921     3.84008
   284  H   1.0    0.06    1.00    1.43     7.14271    59.91501     2.63546
   285  H   1.0    0.05    1.01    1.43     9.82906    62.14670     3.22952
   286  N   5.0   -0.18    3.14    1.94    22.73317    54.23577     5.13259
   287  C   4.0    0.03    4.37    4.33    20.94322    53.54565     7.15912
   288  C   4.0    0.18    3.40    3.08    21.80589    51.26004     8.66675
   289  O   6.0   -0.32    1.32    1.80    22.46106    49.71787     7.67430
   290  C   4.0   -0.05    4.43    4.43    18.30346    52.74384     6.25040
   291  C   4.0   -0.03    4.21    4.03    15.92537    52.90946     7.77267
   292  C   4.0   -0.08    4.05    3.71    15.57605    55.66326     8.79960
   293  C   4.0   -0.08    4.06    3.73    13.56589    51.91825     6.49160
   294  H   1.0    0.10    1.03    1.43    22.14788    53.19951     3.56527
   295  H   1.0    0.03    1.06    1.44    20.23911    55.07719     8.47212
   296  H   1.0    0.04    1.04    1.43    17.75933    54.00994     4.66613
   297  H   1.0    0.05    1.06    1.44    18.31242    50.88472     5.47802
   298  H   1.0    0.04    1.09    1.44    16.24086    51.80501     9.42983
   299  H   1.0    0.03    0.97    1.43    13.87908    55.56444    10.08788
   300  H   1.0    0.04    0.99    1.43    17.31378    56.16641     9.82263
   301  H   1.0    0.04    0.99    1.43    15.14310    56.86060     7.15349
   302  H   1.0    0.04    0.98    1.43    12.01137    52.08158     7.92630
   303  H   1.0    0.04    1.00    1.43    13.22591    53.17101     4.87684
   304  H   1.0    0.04    1.01    1.43    13.94813    49.97645     5.98373
   305  N   5.0   -0.16    3.44    2.04    21.92029    52.09809    11.22706
   306  C   4.0    0.03    4.45    4.46    23.33621    50.54032    13.02991
   307  C   4.0    0.14    3.40    3.08    21.87243    49.86182    15.35335
   308  O   6.0   -0.30    1.23    1.80    21.75297    51.28098    17.18485
   309  C   4.0   -0.02    4.35    4.30    25.71051    51.95699    13.97526
   310  C   4.0   -0.05    4.19    3.98    27.45783    52.66678    11.67696
   311  C   4.0   -0.06    4.07    3.74    27.34167    50.30492    15.87731
   312  C   4.0   -0.06    4.02    3.65    29.12561    50.60879    10.72922
   313  H   1.0    0.08    1.05    1.44    20.71459    53.15160    12.34204
   314  H   1.0    0.05    1.04    1.44    23.89467    48.70877    12.13539
   315  H   1.0    0.06    1.08    1.44    25.19290    53.58743    14.93102
   316  H   1.0    0.06    1.06    1.44    26.12025    53.00720    10.14658
   317  H   1.0    0.05    1.02    1.43    28.55407    54.33023    12.27283
   318  H   1.0    0.05    0.98    1.43    28.92076    51.57746    16.48812
   319  H   1.0    0.07    1.00    1.43    26.05943    49.99533    17.49290
   320  H   1.0    0.05    0.99    1.43    27.95405    48.57132    14.89358
   321  H   1.0    0.05    1.00    1.43    30.24759    51.42869     9.18541
   322  H   1.0    0.05    1.00    1.43    30.35793    50.17803    12.40496
   323  H   1.0    0.05    1.00    1.43    27.94536    48.97226    10.28688
   324  N   5.0   -0.13    3.40    2.02    21.02373    47.32344    15.47129
   325  C   4.0    0.03    4.48    4.50    19.32502    46.44796    17.73455
   326  C   4.0    0.18    3.49    3.11    20.91138    45.51201    19.56235
   327  O   6.0   -0.25    1.37    1.80    22.59611    44.26328    19.20048
   328  C   4.0   -0.03    4.33    4.24    17.44554    44.37743    16.90593
   329  C   4.0   -0.02    3.52    3.12    16.76299    44.43359    14.07363
   330  C   4.0   -0.05    3.44    3.09    14.95872    46.18318    13.12649
   331  C   4.0   -0.03    3.43    3.09    18.12312    43.03308    12.23634
   332  C   4.0   -0.05    3.31    3.06    14.24185    46.35466    10.52888
   333  C   4.0   -0.03    3.37    3.07    17.50968    43.25911     9.70349
   334  C   4.0   -0.04    3.38    3.07    15.50104    44.77110     8.90974
   335  H   1.0    0.09    1.08    1.44    21.11002    46.05062    14.20175
   336  H   1.0    0.04    1.09    1.44    18.20869    48.02172    18.26309
   337  H   1.0    0.08    1.07    1.44    18.38573    42.59045    16.99924
   338  H   1.0    0.04    1.06    1.44    15.67582    44.71128    17.76157
   339  H   1.0    0.04    1.02    1.43    13.89213    47.30274    14.48902
   340  H   1.0    0.08    1.06    1.44    19.56101    41.87367    12.80375
   341  H   1.0    0.04    1.04    1.43    12.71196    47.48754     9.99072
   342  H   1.0    0.06    1.04    1.43    18.38265    42.09369     8.31161
   343  H   1.0    0.05    1.04    1.43    15.05141    44.86076     6.92489
   344  N   5.0   -0.13    3.43    2.04    20.30969    46.29988    21.92370
   345  C   4.0    0.05    4.42    4.41    21.84740    45.32069    24.25463
   346  C   4.0    0.19    3.31    3.06    22.39592    42.44222    24.54471
   347  O   6.0   -0.28    1.27    1.80    24.31031    41.93571    24.28947
   348  C   4.0   -0.04    4.23    4.06    20.61483    46.57602    26.66174
   349  C   4.0    0.16    3.18    3.03    22.12322    48.85409    27.63878
   350  O   6.0   -0.27    1.23    1.80    23.89068    49.73822    26.51516
   351  N   5.0   -0.17    3.14    1.94    21.39375    49.88695    29.89216
   352  H   1.0    0.09    1.06    1.44    18.74943    47.14160    22.56805
   353  H   1.0    0.09    1.11    1.45    23.49245    46.32622    24.00376
   354  H   1.0    0.06    1.04    1.43    18.69068    47.07675    26.45658
   355  H   1.0    0.05    1.01    1.43    20.82145    45.08926    28.16792
   356  H   1.0    0.11    0.99    1.43    22.33511    51.51517    30.61891
   357  H   1.0    0.09    1.03    1.43    19.91726    49.14714    30.77814
   358  N   5.0   -0.12    3.55    2.12    19.98714    41.29150    24.49310
   359  C   4.0    0.04    4.44    4.44    20.28364    38.53617    24.15682
   360  C   4.0    0.21    3.42    3.08    19.24073    38.35527    21.38138
   361  O   6.0   -0.31    1.39    1.80    18.86924    39.85496    20.33259
   362  C   4.0    0.02    4.18    3.95    18.51123    37.18953    25.97955
   363  O   6.0   -0.26    2.05    1.83    17.93957    34.63310    25.06896
   364  H   1.0    0.07    1.09    1.44    18.22244    41.62246    25.41306
   365  H   1.0    0.06    1.03    1.43    22.07972    37.56419    24.60711
   366  H   1.0    0.05    1.02    1.43    19.53549    36.58836    27.67266
   367  H   1.0    0.03    1.31    1.50    16.69568    38.30996    26.18185
   368  H   1.0    0.11    0.95    1.42    16.60239    33.65058    26.05972
   369  N   5.0   -0.13    3.46    2.05    19.85243    35.81627    20.47729
   370  C   4.0    0.04    4.48    4.51    18.66411    35.42917    18.00521
   371  C   4.0    0.17    3.28    3.05    15.85163    34.35996    18.08331
   372  O   6.0   -0.32    1.25    1.80    14.54515    35.00549    16.71034
   373  C   4.0   -0.04    4.44    4.45    20.25854    33.47089    16.56958
   374  C   4.0   -0.03    4.32    4.24    22.80900    34.36590    15.44449
   375  C   4.0    0.23    3.43    3.09    22.40678    36.19433    14.17686
   376  O   6.0   -0.28    1.38    1.80    21.97642    36.14839    11.73912
   377  O   6.0   -0.25    1.35    1.80    22.62274    38.44130    14.63310
   378  H   1.0    0.08    1.03    1.43    20.57199    34.18278    21.27120
   379  H   1.0    0.07    1.13    1.45    18.82312    36.78074    16.60746
   380  H   1.0    0.04    1.00    1.43    20.64379    31.83571    17.88760
   381  H   1.0    0.05    1.00    1.43    19.13592    32.57730    15.00366
   382  H   1.0    0.06    1.08    1.44    23.85949    34.81546    17.16633
   383  H   1.0    0.05    1.06    1.44    23.66238    32.74133    14.52401
   384  N   5.0   -0.14    3.48    2.06    15.44849    33.29706    20.51597
   385  C   4.0    0.03    4.49    4.53    12.82780    32.28860    21.08032
   386  C   4.0    0.16    3.36    3.07    11.11475    34.22964    22.48957
   387  O   6.0   -0.31    1.26    1.80     9.37294    33.54264    23.60612
   388  C   4.0   -0.02    4.43    4.44    12.98426    29.98390    22.65532
   389  C   4.0   -0.01    3.59    3.16    14.46410    28.18737    21.68345
   390  N   5.0   -0.06    3.10    1.94    16.33093    26.76982    22.68078
   391  C   4.0    0.01    3.87    3.42    14.88177    27.09347    19.45274
   392  C   4.0    0.01    3.37    3.07    17.82776    24.83445    21.65105
   393  N   5.0   -0.11    3.48    2.06    16.97051    24.93661    19.53114
   394  H   1.0    0.09    1.08    1.44    16.61134    33.12811    22.05265
   395  H   1.0    0.06    1.10    1.44    12.04868    31.68255    19.38517
   396  H   1.0    0.05    1.05    1.44    13.83587    30.57133    24.48028
   397  H   1.0    0.06    1.08    1.44    11.18160    29.11287    22.92042
   398  H   1.0    0.05    1.05    1.44    13.89516    27.56766    17.91829
   399  H   1.0    0.06    1.01    1.43    19.29926    23.67728    22.40413
   400  H   1.0    0.09    1.13    1.45    17.36891    24.26908    18.21010
   401  N   5.0   -0.14    3.45    2.05    11.96364    36.65945    22.14739
   402  C   4.0    0.03    4.35    4.29    10.20696    38.67981    23.18294
   403  C   4.0    0.17    3.48    3.11     8.11791    39.58239    21.27708
   404  O   6.0   -0.34    1.33    1.80     6.35909    40.44013    22.03239
   405  C   4.0   -0.04    4.22    4.03    12.06264    41.04667    23.76020
   406  C   4.0   -0.03    4.25    4.09    14.10352    40.76201    25.84606
   407  C   4.0    0.16    3.17    3.03    15.00863    43.55664    26.71500
   408  O   6.0   -0.33    1.27    1.80    14.73627    44.97861    25.35982
   409  N   5.0   -0.20    3.12    1.94    15.90062    43.42847    29.25926
   410  H   1.0    0.09    1.05    1.44    13.50152    37.45429    21.29363
   411  H   1.0    0.06    1.06    1.44     9.70930    38.31544    25.11093
   412  H   1.0    0.06    1.03    1.43    13.02792    41.49664    22.03582
   413  H   1.0    0.06    1.00    1.43    10.72942    42.62457    24.26422
   414  H   1.0    0.04    1.02    1.43    12.92698    39.98062    27.38935
   415  H   1.0    0.04    1.32    1.50    15.74371    39.57617    25.29886
   416  H   1.0    0.08    1.01    1.43    16.04243    41.65556    30.05923
   417  H   1.0    0.09    1.03    1.43    16.66530    45.14532    29.69185
   418  N   5.0   -0.15    3.62    2.18     8.53172    38.35822    19.07795
   419  C   4.0    0.06    4.66    4.72     7.17542    39.33240    17.29827
   420  C   4.0    0.15    3.52    3.12     5.92626    37.38879    15.48368
   421  O   6.0   -0.31    1.34    1.80     6.89369    35.54302    15.52542
   422  C   4.0   -0.03    4.27    4.15     8.61277    41.03870    15.27324
   423  C   4.0   -0.07    4.09    3.78     8.32545    40.46986    12.38324
   424  C   4.0   -0.08    4.02    3.65     8.10928    43.94033    15.69714
   425  H   1.0    0.11    1.12    1.45     9.65077    36.98734    18.62300
   426  H   1.0    0.05    1.11    1.44     5.47335    40.41551    17.67700
   427  H   1.0    0.05    1.04    1.43    10.65944    40.86274    15.72057
   428  H   1.0    0.04    0.98    1.43     9.70048    41.76727    11.44473
   429  H   1.0    0.05    1.01    1.43     8.98862    38.48246    12.30709
   430  H   1.0    0.06    1.03    1.43     6.35468    40.73261    12.05447
   431  H   1.0    0.03    0.98    1.43     9.44340    45.04146    14.52523
   432  H   1.0    0.05    1.00    1.43     6.12929    44.23473    15.31913
   433  H   1.0    0.04    0.98    1.43     8.55239    44.21569    17.75857
   434  N   5.0   -0.15    3.44    2.04     3.66999    37.96326    14.22654
   435  C   4.0    0.04    4.49    4.53     2.47394    36.18786    12.45958
   436  C   4.0    0.15    3.45    3.09     3.33225    36.64114     9.82550
   437  O   6.0   -0.33    1.39    1.80     2.39104    38.33694     8.77519
   438  C   4.0   -0.04    4.39    4.36    -0.40608    36.37660    12.62576
   439  C   4.0   -0.02    4.20    4.00    -1.42573    35.51227    15.18688
   440  C   4.0   -0.07    4.04    3.70    -4.26396    35.94675    15.56170
   441  C   4.0   -0.07    4.06    3.72    -0.73653    32.69357    15.62519
   442  H   1.0    0.11    1.09    1.44     2.76499    39.58512    14.36229
   443  H   1.0    0.05    1.09    1.44     2.95980    34.27861    12.99879
   444  H   1.0    0.07    1.05    1.44    -0.90012    38.34189    12.58568
   445  H   1.0    0.04    1.06    1.44    -1.24058    35.17476    11.28198
   446  H   1.0    0.05    1.04    1.43    -0.51802    36.46179    16.89008
   447  H   1.0    0.05    0.98    1.43    -4.72128    35.22043    17.50767
   448  H   1.0    0.06    1.00    1.43    -4.49125    38.00161    15.42654
   449  H   1.0    0.05    1.01    1.43    -5.14476    34.87728    14.06071
   450  H   1.0    0.06    0.98    1.43    -1.45118    32.13382    17.54947
   451  H   1.0    0.05    1.00    1.43    -1.60674    31.61538    14.10258
   452  H   1.0    0.05    0.98    1.43     1.39116    32.58786    15.53821
   453  N   5.0   -0.15    3.52    2.09     5.20369    35.08187     9.05247
   454  C   4.0    0.04    4.59    4.65     6.26212    35.57557     6.47990
   455  C   4.0    0.17    3.51    3.12     4.75969    34.85731     4.37010
   456  O   6.0   -0.32    1.40    1.80     5.09780    35.62722     2.53954
   457  C   4.0   -0.05    4.38    4.35     8.83059    34.20262     6.52459
   458  C   4.0   -0.05    4.26    4.12    10.63703    34.78333     8.55849
   459  C   4.0   -0.05    4.21    4.03    13.23169    34.25126     7.83345
   460  C   4.0   -0.04    4.12    3.84    15.16152    35.81038     9.33224
   461  N   5.0   -0.12    3.90    2.63    17.95868    35.73802     8.49836
   462  H   1.0    0.08    1.06    1.44     5.77291    33.41923     9.79364
   463  H   1.0    0.05    1.11    1.45     6.95135    37.42395     6.39549
   464  H   1.0    0.04    1.03    1.43     8.50883    32.13407     6.64759
   465  H   1.0    0.04    1.02    1.43     9.86851    34.51783     4.69733
   466  H   1.0    0.04    1.06    1.44    10.54221    36.78461     8.91558
   467  H   1.0    0.05    1.05    1.44    10.26195    33.55698    10.14768
   468  H   1.0    0.04    1.03    1.43    13.86801    32.32343     8.28154
   469  H   1.0    0.04    1.04    1.43    13.74237    34.70083     5.88777
   470  H   1.0    0.04    1.00    1.43    14.57107    37.83195     9.27394
   471  H   1.0    0.06    1.01    1.43    15.28348    35.18190    11.31645
   472  H   1.0    0.10    1.09    1.44    18.92370    35.79037     9.94149
   473  H   1.0    0.06    0.97    1.43    18.09563    33.98241     7.38314
   474  H   1.0    0.06    0.97    1.43    18.14023    37.31145     7.13734
   475  N   5.0   -0.14    3.60    2.16     2.91502    33.29605     5.02057
   476  C   4.0    0.03    4.42    4.42     0.97716    32.73233     3.01661
   477  C   4.0    0.16    3.35    3.06    -0.89576    34.92046     2.41178
   478  O   6.0   -0.31    1.27    1.80    -2.37648    34.95640     0.80199
   479  C   4.0   -0.03    4.37    4.32    -0.69688    30.41122     3.87568
   480  C   4.0    0.17    3.22    3.04    -1.68412    28.76413     1.92928
   481  O   6.0   -0.28    1.29    1.80    -1.00997    26.78249     1.71514
   482  N   5.0   -0.15    3.19    1.95    -3.16572    29.87201     0.04151
   483  H   1.0    0.08    1.08    1.44     2.30026    32.53197     6.61428
   484  H   1.0    0.06    1.10    1.44     1.68177    31.80678     1.40575
   485  H   1.0    0.05    1.03    1.43     0.31433    29.31235     5.28811
   486  H   1.0    0.05    1.04    1.43    -2.38648    31.23008     4.79763
   487  H   1.0    0.11    0.99    1.43    -3.85791    28.77734    -1.46202
   488  H   1.0    0.11    1.05    1.44    -3.73841    31.74125     0.34262
   489  N   5.0   -0.14    3.53    2.10    -0.16809    36.97667     3.86180
   490  C   4.0    0.03    4.46    4.48    -1.79194    39.31217     3.77832
   491  C   4.0    0.19    3.38    3.07    -0.66555    41.97380     4.50881
   492  O   6.0   -0.28    1.46    1.80    -1.62735    43.42762     5.01216
   493  C   4.0   -0.02    4.45    4.47    -3.94776    38.97177     5.20242
   494  C   4.0    0.21    3.24    3.04    -5.80945    41.30944     5.51077
   495  O   6.0   -0.30    1.33    1.80    -5.63975    42.51931     6.87153
   496  N   5.0   -0.17    3.11    1.94    -7.36083    41.54155     3.17916
   497  H   1.0    0.11    1.12    1.45     1.42199    37.24386     4.87787
   498  H   1.0    0.06    1.09    1.44    -2.20119    39.54033     1.79906
   499  H   1.0    0.05    1.02    1.43    -5.22332    37.44479     4.44562
   500  H   1.0    0.06    1.04    1.44    -3.64698    38.46982     7.17883
   501  H   1.0    0.10    1.00    1.43    -8.48533    43.16046     3.14461
   502  H   1.0    0.09    1.00    1.43    -7.14264    40.25438     1.72413
   503  N   5.0   -0.12    3.47    2.06     2.06805    41.64969     4.55083
   504  C   4.0    0.04    4.41    4.40     3.53268    44.01249     4.87905
   505  C   4.0    0.13    3.41    3.08     5.41131    44.40223     2.61806
   506  O   6.0   -0.32    1.26    1.80     6.31990    42.78270     1.34820
   507  C   4.0    0.04    4.19    3.99     5.12951    43.85775     7.15731
   508  O   6.0   -0.24    1.96    1.82     3.36341    43.40298     9.50623
   509  C   4.0   -0.07    4.05    3.71     6.64871    46.23698     7.69691
   510  H   1.0    0.10    1.06    1.44     3.21143    40.33452     3.79135
   511  H   1.0    0.07    1.06    1.44     2.43746    45.76909     5.06053
   512  H   1.0    0.04    1.06    1.44     6.41325    42.32726     7.08432
   513  H   1.0    0.15    1.02    1.43     2.96525    41.52359     9.52331
   514  H   1.0    0.04    0.97    1.43     7.76511    45.95116     9.50633
   515  H   1.0    0.04    1.00    1.43     8.00591    46.52968     6.16760
   516  H   1.0    0.05    0.99    1.43     5.38913    47.90160     8.14191
   517  N   5.0   -0.13    3.52    2.09     5.91127    46.93101     2.06156
   518  C   4.0    0.02    4.31    4.22     7.38790    47.60261    -0.34113
   519  C   4.0    0.09    3.21    3.04     7.67370    50.64017    -0.05859
   520  O   6.0   -0.31    1.17    1.80     7.20670    52.00245     1.39428
   521  C   4.0   -0.03    4.40    4.38     6.07119    46.75473    -2.25829
   522  C   4.0   -0.02    3.61    3.17     3.52092    48.11496    -2.50388
   523  C   4.0   -0.04    3.51    3.12     3.05868    50.44069    -3.74986
   524  C   4.0   -0.03    3.48    3.11     1.21303    47.19519    -1.38956
   525  C   4.0   -0.04    3.40    3.08     0.78731    51.76254    -3.92606
   526  C   4.0   -0.04    3.44    3.09    -1.04347    48.28839    -1.67385
   527  C   4.0    0.07    3.49    3.11    -1.21471    50.61374    -2.87086
   528  O   6.0   -0.23    2.08    1.84    -3.58637    51.65361    -3.00683
   529  H   1.0    0.10    1.06    1.44     5.88132    48.40289     3.32768
   530  H   1.0    0.04    1.05    1.44     9.29536    46.75472     0.02647
   531  H   1.0    0.04    1.06    1.44     6.90092    47.38409    -4.08308
   532  H   1.0    0.06    1.06    1.44     5.52864    44.77545    -2.33635
   533  H   1.0    0.05    1.02    1.43     4.75492    51.41576    -4.48346
   534  H   1.0    0.06    1.02    1.43     1.38386    45.24969    -0.62510
   535  H   1.0    0.06    1.04    1.43     0.70443    53.57120    -4.75818
   536  H   1.0    0.06    1.01    1.43    -2.73373    47.39184    -0.82330
   537  H   1.0    0.11    0.96    1.43    -4.94135    50.71632    -1.96421
   538  H   1.0    0.10    1.09    1.44    12.24063    52.37008   -16.44154
   539  H   1.0    0.05    1.07    1.44    13.13914    48.31024   -10.23350
   540  H   1.0    0.12    1.09    1.44    10.76630    44.18746    -8.37322
   541  H   1.0    0.05    1.05    1.44     3.99264    30.12616    -7.51808
   542  H   1.0    0.10    1.06    1.44     7.10105    30.63882   -11.04885
   543  H   1.0    0.06    1.07    1.44    13.09308    35.63444   -10.96531
   544  H   1.0    0.10    1.07    1.44    25.12974    45.51930    -3.46336
   545  H   1.0    0.06    1.08    1.44    25.52533    49.41496    -2.88807
   546  H   1.0    0.10    1.07    1.44     0.86403    55.80863     1.91049
   547  H   1.0    0.06    1.06    1.44    -3.44466    31.78998    28.12048
   548  H   1.0    0.10    1.07    1.44    13.97827    46.53873    33.88552
   549  H   1.0    0.06    1.07    1.44    13.77158    51.38269    28.60951
   550  H   1.0    0.10    1.07    1.44    14.75498    52.74024    23.07540
   551  H   1.0    0.06    1.07    1.44    18.12896    56.61164    17.75893
   552  H   1.0    0.10    1.06    1.44    12.13561    61.84404    19.44775
   553  H   1.0    0.06    1.05    1.44     8.29655    59.29441    25.57544
   554  H   1.0    0.09    1.07    1.44    -6.49795    52.06258    19.32531
   555  H   1.0    0.05    1.06    1.44    -1.41021    60.32790    10.93976
   556  H   1.0    0.09    1.09    1.44     3.20143    61.24431     8.29211
   557  H   1.0    0.05    1.05    1.44     7.91709    65.56422     4.05646
   558  H   1.0    0.10    1.06    1.44    22.64855    55.91012     4.84629
   559  H   1.0    0.06    1.09    1.44     8.43964    51.65148    -1.45918

  Z AO/shell   Hii/eV     exponent
  1     Wed Apr 25 08:07:45 CEST 2018   EN: 2.200 GM2: 0.406  GM3: 0.0800  RAES: 1.40
     1s    -10.707211    1.230000
  6     Wed Apr 25 08:07:45 CEST 2018   EN: 2.550 GM2: 0.538  GM3: 0.1500  RAES: 3.00
     2s    -13.970922    2.096432
     2p    -10.063292    1.800000
  7     Wed Apr 25 08:07:45 CEST 2018   EN: 3.040 GM2: 0.461  GM3:-0.0640  RAES: 1.90
     2s    -16.686243    2.339881
     2p    -12.523956    2.014332
  8     Wed Apr 25 08:07:45 CEST 2018   EN: 3.440 GM2: 0.452  GM3:-0.0517  RAES: 1.80
     2s    -20.229985    2.439742
     2p    -15.503117    2.137023
 no old-style atom pair restraining (fixing) potential

molecular fragmentation (1/2 indicates fragments):
111111111111111111111122222222222222222222222222222222222222222222222222
222222222222222222222222222222222222222222222222222222222222222222222222
222222222222222222222222222222222222222222222222222222222222222222222222
222222222222222222222222222222222222222222222222222222222222222222222222
222222222222222222222222222222222222222222222222222222222222222222222222
222222222222222222222222222222222222222222222222222222222222222222222222
222222222222222222222222222222222222222222222222222222222222222222222222
2222222222222222222222222222222221122222222222222222222
# atoms in fragment 1/2:    24   535
 fragment masses (1/2) :      131.20     3643.32
CMA distance (Bohr)    :  24.654
constraining FC (au)   :  0.0500
           ------------------------------------------------- 
          |        Self-Consistent Charge Iterations        |
           ------------------------------------------------- 

 Ncao       : 1360
 Nao        : 1360
 Nshell     : 826
 Nel        : 1496
 T(el)      :   500.0
 intcut     :    35.0
 scfconv/Eh :  0.100E-06
   qconv/e  :  0.100E-04
 intneglect :  0.100E-08
 broydamp   :      0.400
 iter      E             dE          RMSdq      gap      omega  full diag
   1   -852.2927709 -0.852293E+03  0.455E+00    2.75       0.0  T
   2   -854.2256796 -0.193291E+01  0.221E+00    0.45       1.0  T
   3   -854.3034685 -0.777889E-01  0.113E+00    1.19       1.0  T
   4   -854.3911622 -0.876937E-01  0.309E-01    0.47       1.0  T
   5   -854.4142630 -0.231008E-01  0.147E-01    0.71       1.0  T
   6   -854.4183314 -0.406841E-02  0.596E-02    0.66       1.0  T
   7   -854.4188054 -0.473971E-03  0.250E-02    0.64       1.0  T
   8   -854.4188613 -0.559933E-04  0.110E-02    0.66       1.0  T
   9   -854.4188766 -0.152664E-04  0.517E-03    0.65       1.0  T
  10   -854.4188801 -0.352245E-05  0.275E-03    0.66       1.5  T
  11   -854.4188813 -0.113574E-05  0.140E-03    0.66       3.0  T
  12   -854.4188816 -0.297096E-06  0.706E-04    0.66       6.0  T
  13   -854.4188817 -0.817873E-07  0.351E-04    0.66      12.1  T
  14   -854.4188817 -0.212880E-07  0.182E-04    0.66      23.3  T
  15   -854.4188817 -0.459681E-08  0.803E-05    0.66      52.7  T
  16   -854.4188817 -0.101079E-08  0.332E-05    0.66     127.4  T
speedup  1.99
cpu  time for SCC   32.60 s
wall time for SCC   16.40 s

   *** convergence criteria satisfied after 16 iterations ***

          eigenvalues
 #    :         736        737        738        739        740        741        742        743
 occ. :        2.000      2.000      2.000      2.000      2.000      2.000      2.000      2.000
 eps  :        -9.875     -9.870     -9.851     -9.807     -9.759     -9.755     -9.713     -9.704
 #    :         744        745        746        747        748        749        750        751
 occ. :        2.000      2.000      2.000      2.000      1.999      0.001      0.000      0.000
 eps  :        -9.620     -9.603     -9.602     -8.571     -8.275     -7.618     -7.152     -7.094
 #    :         752        753        754        755        756        757        758        759
 occ. :        0.000      0.000      0.000      0.000      0.000      0.000      0.000      0.000
 eps  :        -6.887     -6.868     -6.859     -6.480     -6.475     -6.442     -6.360     -6.347


   #   Z            q   n(s)   n(p)   n(d)      C6AA      α(0)
   1   7 N     -0.396  1.323  4.073  0.000    30.262     8.170
   2   6 C      0.001  1.053  2.946  0.000    20.576     6.461
   3   6 C      0.251  1.040  2.709  0.000    22.790     7.818
   4   8 O     -0.250  1.627  4.623  0.000    18.902     5.829
   5   6 C     -0.078  1.062  3.016  0.000    21.985     6.674
   6   6 C     -0.079  1.047  3.032  0.000    21.998     6.676
   7   6 C     -0.084  1.058  3.027  0.000    22.104     6.693
   8   6 C     -0.047  1.070  2.977  0.000    21.507     6.619
   9   7 N     -0.146  1.267  3.879  0.000    24.155     7.300
  10   1 H      0.155  0.845  0.000  0.000     1.369     1.833
  11   1 H      0.028  0.972  0.000  0.000     2.613     2.528
  12   1 H      0.039  0.961  0.000  0.000     2.458     2.452
  13   1 H      0.050  0.950  0.000  0.000     2.318     2.381
  14   1 H      0.054  0.946  0.000  0.000     2.265     2.353
  15   1 H      0.069  0.931  0.000  0.000     2.100     2.266
  16   1 H      0.068  0.932  0.000  0.000     2.103     2.268
  17   1 H      0.070  0.930  0.000  0.000     2.091     2.261
  18   1 H      0.112  0.888  0.000  0.000     1.683     2.029
  19   1 H      0.114  0.886  0.000  0.000     1.663     2.016
  20   1 H      0.286  0.714  0.000  0.000     0.758     1.365
  21   1 H      0.303  0.697  0.000  0.000     0.706     1.317
  22   1 H      0.284  0.716  0.000  0.000     0.763     1.369
  23   7 N     -0.371  1.336  4.035  0.000    29.567     8.076
  24   6 C     -0.024  1.040  2.983  0.000    21.085     6.553
  25   6 C      0.285  1.033  2.682  0.000    22.181     7.712
  26   8 O     -0.401  1.667  4.734  0.000    21.685     6.244
  27   1 H      0.146  0.854  0.000  0.000     1.432     1.875
  28   1 H      0.042  0.958  0.000  0.000     2.426     2.436
  29   1 H      0.071  0.929  0.000  0.000     2.078     2.254
  30   7 N     -0.174  1.278  3.896  0.000    24.762     7.391
  31   6 C     -0.000  1.068  2.932  0.000    20.577     6.457
  32   6 C      0.294  1.023  2.682  0.000    22.010     7.684
  33   8 O     -0.461  1.727  4.734  0.000    22.945     6.422
  34   6 C     -0.064  1.059  3.005  0.000    21.722     6.633
  35   6 C     -0.057  1.031  3.026  0.000    21.581     6.610
  36   6 C     -0.012  1.069  2.943  0.000    20.875     6.519
  37   1 H      0.074  0.926  0.000  0.000     2.047     2.238
  38   1 H      0.045  0.955  0.000  0.000     2.383     2.414
  39   1 H      0.060  0.940  0.000  0.000     2.196     2.318
  40   1 H      0.049  0.951  0.000  0.000     2.336     2.390
  41   1 H      0.051  0.949  0.000  0.000     2.308     2.376
  42   1 H      0.071  0.929  0.000  0.000     2.077     2.254
  43   1 H      0.062  0.938  0.000  0.000     2.173     2.305
  44   7 N     -0.188  1.248  3.940  0.000    25.065     7.436
  45   6 C     -0.003  1.059  2.944  0.000    20.628     6.466
  46   6 C      0.224  1.061  2.715  0.000    23.292     7.904
  47   8 O     -0.335  1.710  4.625  0.000    20.418     6.058
  48   6 C     -0.077  1.069  3.008  0.000    21.978     6.676
  49   6 C     -0.028  1.062  2.966  0.000    21.035     6.524
  50   6 C     -0.120  1.055  3.065  0.000    22.876     6.822
  51   6 C     -0.124  1.061  3.063  0.000    22.959     6.836
  52   1 H      0.223  0.777  0.000  0.000     0.995     1.562
  53   1 H      0.093  0.907  0.000  0.000     1.848     2.126
  54   1 H      0.056  0.944  0.000  0.000     2.244     2.343
  55   1 H      0.049  0.951  0.000  0.000     2.336     2.390
  56   1 H      0.043  0.957  0.000  0.000     2.415     2.430
  57   1 H      0.064  0.936  0.000  0.000     2.154     2.295
  58   1 H      0.040  0.960  0.000  0.000     2.456     2.451
  59   1 H      0.041  0.959  0.000  0.000     2.437     2.441
  60   1 H      0.055  0.945  0.000  0.000     2.262     2.352
  61   1 H      0.033  0.967  0.000  0.000     2.550     2.497
  62   1 H      0.044  0.956  0.000  0.000     2.404     2.425
  63   7 N     -0.397  1.346  4.051  0.000    30.296     8.175
  64   6 C     -0.018  1.078  2.940  0.000    20.942     6.524
  65   6 C      0.245  1.052  2.703  0.000    22.900     7.835
  66   8 O     -0.230  1.625  4.606  0.000    18.571     5.778
  67   6 C      0.078  1.027  2.895  0.000    19.485     6.322
  68   8 O     -0.508  1.737  4.771  0.000    23.075     6.484
  69   1 H      0.177  0.823  0.000  0.000     1.230     1.737
  70   1 H      0.039  0.961  0.000  0.000     2.462     2.454
  71   1 H      0.033  0.967  0.000  0.000     2.539     2.492
  72   1 H      0.035  0.965  0.000  0.000     2.515     2.480
  73   1 H      0.348  0.652  0.000  0.000     0.593     1.211
  74   7 N     -0.401  1.339  4.062  0.000    30.415     8.191
  75   6 C      0.038  1.040  2.922  0.000    19.961     6.365
  76   6 C      0.199  1.064  2.736  0.000    23.755     7.983
  77   8 O     -0.451  1.780  4.671  0.000    22.731     6.392
  78   6 C     -0.060  1.047  3.013  0.000    21.644     6.622
  79   6 C     -0.024  1.076  2.949  0.000    28.576     8.768
  80   6 C     -0.002  1.082  2.921  0.000    28.083     8.690
  81   6 C     -0.017  1.081  2.936  0.000    28.389     8.739
  82   7 N     -0.133  1.257  3.876  0.000    23.885     7.258
  83   6 C      0.038  1.090  2.873  0.000    27.140     8.546
  84   6 C     -0.034  1.084  2.950  0.000    28.844     8.807
  85   6 C     -0.058  1.089  2.970  0.000    29.443     8.897
  86   6 C     -0.047  1.070  2.977  0.000    29.170     8.856
  87   6 C     -0.046  1.071  2.974  0.000    29.132     8.851
  88   1 H      0.176  0.824  0.000  0.000     1.235     1.741
  89   1 H      0.103  0.897  0.000  0.000     1.762     2.076
  90   1 H      0.056  0.944  0.000  0.000     2.241     2.341
  91   1 H      0.070  0.930  0.000  0.000     2.085     2.258
  92   1 H      0.053  0.947  0.000  0.000     2.283     2.363
  93   1 H      0.180  0.820  0.000  0.000     1.213     1.726
  94   1 H      0.014  0.986  0.000  0.000     2.825     2.629
  95   1 H      0.055  0.945  0.000  0.000     2.254     2.348
  96   1 H      0.035  0.965  0.000  0.000     2.514     2.480
  97   1 H      0.050  0.950  0.000  0.000     2.318     2.381
  98   7 N     -0.392  1.333  4.059  0.000    30.151     8.155
  99   6 C      0.027  1.040  2.933  0.000    20.120     6.385
 100   6 C      0.296  1.032  2.671  0.000    21.980     7.681
 101   8 O     -0.436  1.708  4.728  0.000    22.413     6.347
 102   6 C     -0.043  1.026  3.017  0.000    21.293     6.562
 103   6 C     -0.097  1.038  3.059  0.000    22.328     6.724
 104   6 C      0.311  1.023  2.666  0.000    21.710     7.629
 105   8 O     -0.353  1.680  4.674  0.000    20.769     6.110
 106   7 N     -0.356  1.309  4.047  0.000    29.185     8.023
 107   1 H      0.153  0.847  0.000  0.000     1.378     1.839
 108   1 H      0.055  0.945  0.000  0.000     2.260     2.351
 109   1 H      0.031  0.969  0.000  0.000     2.569     2.507
 110   1 H      0.035  0.965  0.000  0.000     2.512     2.479
 111   1 H      0.050  0.950  0.000  0.000     2.318     2.381
 112   1 H      0.068  0.932  0.000  0.000     2.111     2.272
 113   1 H      0.196  0.804  0.000  0.000     1.127     1.663
 114   1 H      0.173  0.827  0.000  0.000     1.257     1.757
 115   7 N     -0.240  1.279  3.961  0.000    26.264     7.611
 116   6 C     -0.000  1.078  2.923  0.000    20.597     6.463
 117   6 C      0.290  1.035  2.675  0.000    22.081     7.695
 118   8 O     -0.467  1.720  4.746  0.000    23.058     6.438
 119   6 C     -0.025  1.060  2.964  0.000    20.974     6.514
 120   6 C     -0.119  1.056  3.062  0.000    22.850     6.819
 121   6 C     -0.121  1.058  3.063  0.000    22.904     6.828
 122   1 H      0.224  0.776  0.000  0.000     0.989     1.558
 123   1 H      0.076  0.924  0.000  0.000     2.020     2.223
 124   1 H      0.045  0.955  0.000  0.000     2.380     2.413
 125   1 H      0.056  0.944  0.000  0.000     2.251     2.346
 126   1 H      0.033  0.967  0.000  0.000     2.547     2.496
 127   1 H      0.048  0.952  0.000  0.000     2.343     2.394
 128   1 H      0.053  0.947  0.000  0.000     2.286     2.364
 129   1 H      0.045  0.955  0.000  0.000     2.385     2.415
 130   1 H      0.044  0.956  0.000  0.000     2.392     2.419
 131   7 N     -0.198  1.270  3.928  0.000    25.301     7.471
 132   6 C      0.030  1.055  2.915  0.000    20.077     6.382
 133   6 C      0.253  1.055  2.692  0.000    22.751     7.811
 134   8 O     -0.512  1.756  4.756  0.000    24.047     6.575
 135   6 C     -0.120  1.066  3.054  0.000    22.884     6.825
 136   1 H      0.229  0.771  0.000  0.000     0.970     1.543
 137   1 H      0.048  0.952  0.000  0.000     2.351     2.398
 138   1 H      0.062  0.938  0.000  0.000     2.181     2.309
 139   1 H      0.076  0.924  0.000  0.000     2.022     2.224
 140   1 H      0.070  0.930  0.000  0.000     2.092     2.262
 141   7 N     -0.100  1.260  3.840  0.000    23.204     7.154
 142   6 C      0.012  1.062  2.925  0.000    20.361     6.423
 143   6 C      0.306  1.019  2.675  0.000    21.809     7.648
 144   8 O     -0.434  1.705  4.729  0.000    22.364     6.341
 145   6 C     -0.053  1.061  2.991  0.000    21.464     6.586
 146   6 C     -0.053  1.013  3.041  0.000    21.493     6.594
 147   6 C     -0.002  1.050  2.953  0.000    20.608     6.461
 148   1 H      0.054  0.946  0.000  0.000     2.273     2.358
 149   1 H      0.037  0.963  0.000  0.000     2.488     2.467
 150   1 H      0.048  0.952  0.000  0.000     2.341     2.393
 151   1 H      0.077  0.923  0.000  0.000     2.007     2.216
 152   1 H      0.062  0.938  0.000  0.000     2.175     2.307
 153   1 H      0.070  0.930  0.000  0.000     2.082     2.257
 154   1 H      0.078  0.922  0.000  0.000     1.996     2.209
 155   7 N     -0.246  1.261  3.986  0.000    26.418     7.634
 156   6 C      0.022  1.049  2.929  0.000    20.190     6.395
 157   6 C      0.308  1.018  2.673  0.000    21.770     7.641
 158   8 O     -0.425  1.712  4.713  0.000    22.191     6.316
 159   6 C     -0.103  1.044  3.058  0.000    22.428     6.738
 160   6 C      0.315  1.013  2.672  0.000    21.645     7.618
 161   8 O     -0.391  1.657  4.734  0.000    21.493     6.216
 162   7 N     -0.352  1.301  4.051  0.000    29.065     8.007
 163   1 H      0.212  0.788  0.000  0.000     1.047     1.602
 164   1 H      0.088  0.912  0.000  0.000     1.897     2.154
 165   1 H      0.073  0.927  0.000  0.000     2.056     2.243
 166   1 H      0.049  0.951  0.000  0.000     2.329     2.386
 167   1 H      0.223  0.777  0.000  0.000     0.996     1.564
 168   1 H      0.209  0.791  0.000  0.000     1.060     1.613
 169   7 N     -0.242  1.292  3.950  0.000    26.315     7.619
 170   6 C      0.001  1.065  2.934  0.000    20.580     6.460
 171   6 C      0.234  1.051  2.715  0.000    23.102     7.872
 172   8 O     -0.313  1.694  4.619  0.000    20.022     5.999
 173   6 C     -0.135  1.058  3.077  0.000    23.156     6.861
 174   1 H      0.210  0.790  0.000  0.000     1.055     1.609
 175   1 H      0.074  0.926  0.000  0.000     2.039     2.233
 176   1 H      0.075  0.925  0.000  0.000     2.035     2.231
 177   1 H      0.080  0.920  0.000  0.000     1.976     2.198
 178   1 H      0.068  0.932  0.000  0.000     2.103     2.268
 179   7 N     -0.386  1.328  4.058  0.000    29.998     8.134
 180   6 C      0.009  1.070  2.921  0.000    20.465     6.447
 181   6 C      0.240  1.053  2.708  0.000    22.992     7.852
 182   8 O     -0.268  1.655  4.613  0.000    19.222     5.878
 183   6 C     -0.076  1.030  3.046  0.000    21.934     6.664
 184   6 C      0.013  1.065  2.921  0.000    27.714     8.635
 185   6 C     -0.041  1.088  2.953  0.000    29.020     8.836
 186   6 C     -0.041  1.078  2.963  0.000    29.021     8.836
 187   6 C     -0.036  1.088  2.948  0.000    28.888     8.814
 188   6 C     -0.028  1.095  2.933  0.000    28.691     8.784
 189   6 C     -0.046  1.088  2.958  0.000    29.139     8.851
 190   1 H      0.176  0.824  0.000  0.000     1.234     1.740
 191   1 H      0.023  0.977  0.000  0.000     2.691     2.565
 192   1 H      0.056  0.944  0.000  0.000     2.252     2.347
 193   1 H      0.062  0.938  0.000  0.000     2.177     2.307
 194   1 H      0.018  0.982  0.000  0.000     2.769     2.602
 195   1 H      0.020  0.980  0.000  0.000     2.727     2.583
 196   1 H      0.036  0.964  0.000  0.000     2.505     2.475
 197   1 H      0.020  0.980  0.000  0.000     2.742     2.590
 198   1 H      0.046  0.954  0.000  0.000     2.364     2.404
 199   7 N     -0.386  1.347  4.038  0.000    29.982     8.132
 200   6 C      0.022  1.057  2.921  0.000    20.230     6.408
 201   6 C      0.228  1.064  2.708  0.000    23.203     7.889
 202   8 O     -0.320  1.696  4.623  0.000    20.139     6.017
 203   6 C     -0.030  1.079  2.951  0.000    21.072     6.530
 204   6 C     -0.115  1.048  3.067  0.000    22.770     6.806
 205   6 C     -0.109  1.057  3.052  0.000    22.669     6.793
 206   1 H      0.181  0.819  0.000  0.000     1.208     1.722
 207   1 H      0.043  0.957  0.000  0.000     2.415     2.430
 208   1 H      0.027  0.973  0.000  0.000     2.626     2.534
 209   1 H      0.067  0.933  0.000  0.000     2.115     2.274
 210   1 H      0.038  0.962  0.000  0.000     2.476     2.461
 211   1 H      0.042  0.958  0.000  0.000     2.420     2.433
 212   1 H      0.050  0.950  0.000  0.000     2.321     2.383
 213   1 H      0.031  0.969  0.000  0.000     2.567     2.506
 214   1 H      0.043  0.957  0.000  0.000     2.412     2.429
 215   7 N     -0.415  1.369  4.046  0.000    30.802     8.243
 216   6 C      0.012  1.076  2.912  0.000    20.394     6.434
 217   6 C      0.225  1.064  2.711  0.000    23.260     7.898
 218   8 O     -0.297  1.687  4.610  0.000    19.724     5.955
 219   6 C     -0.078  1.057  3.021  0.000    21.993     6.678
 220   6 C     -0.017  1.064  2.953  0.000    20.848     6.495
 221   6 C     -0.110  1.050  3.060  0.000    22.661     6.789
 222   6 C     -0.113  1.062  3.050  0.000    22.745     6.807
 223   1 H      0.184  0.816  0.000  0.000     1.191     1.710
 224   1 H      0.026  0.974  0.000  0.000     2.640     2.541
 225   1 H      0.044  0.956  0.000  0.000     2.398     2.421
 226   1 H      0.047  0.953  0.000  0.000     2.353     2.399
 227   1 H      0.012  0.988  0.000  0.000     2.866     2.647
 228   1 H      0.054  0.946  0.000  0.000     2.270     2.356
 229   1 H      0.039  0.961  0.000  0.000     2.463     2.455
 230   1 H      0.040  0.960  0.000  0.000     2.452     2.449
 231   1 H      0.037  0.963  0.000  0.000     2.492     2.469
 232   1 H      0.043  0.957  0.000  0.000     2.408     2.427
 233   1 H      0.030  0.970  0.000  0.000     2.584     2.514
 234   7 N     -0.398  1.336  4.061  0.000    30.306     8.176
 235   6 C      0.017  1.066  2.917  0.000    20.297     6.416
 236   6 C      0.318  1.019  2.663  0.000    21.606     7.612
 237   8 O     -0.401  1.691  4.711  0.000    21.706     6.247
 238   6 C     -0.034  1.081  2.953  0.000    21.147     6.541
 239   6 C     -0.071  1.051  3.019  0.000    21.852     6.656
 240   6 C     -0.117  1.061  3.057  0.000    22.840     6.820
 241   6 C     -0.119  1.065  3.054  0.000    22.880     6.828
 242   1 H      0.159  0.841  0.000  0.000     1.342     1.815
 243   1 H      0.011  0.989  0.000  0.000     2.870     2.649
 244   1 H      0.029  0.971  0.000  0.000     2.596     2.520
 245   1 H      0.033  0.967  0.000  0.000     2.547     2.496
 246   1 H      0.033  0.967  0.000  0.000     2.551     2.498
 247   1 H      0.067  0.933  0.000  0.000     2.122     2.278
 248   1 H      0.030  0.970  0.000  0.000     2.582     2.513
 249   1 H      0.040  0.960  0.000  0.000     2.443     2.445
 250   1 H      0.047  0.953  0.000  0.000     2.364     2.404
 251   1 H      0.038  0.962  0.000  0.000     2.475     2.460
 252   1 H      0.057  0.943  0.000  0.000     2.242     2.342
 253   7 N     -0.256  1.290  3.966  0.000    26.637     7.665
 254   6 C      0.003  1.066  2.931  0.000    20.536     6.454
 255   6 C      0.222  1.058  2.720  0.000    23.325     7.909
 256   8 O     -0.316  1.686  4.630  0.000    20.066     6.006
 257   6 C     -0.062  1.037  3.025  0.000    21.687     6.629
 258   6 C     -0.121  1.070  3.051  0.000    22.779     6.788
 259   6 C      0.377  0.950  2.673  0.000    20.619     7.435
 260   8 O     -0.372  1.600  4.771  0.000    21.056     6.156
 261   7 N     -0.320  1.265  4.054  0.000    28.210     7.888
 262   1 H      0.234  0.766  0.000  0.000     0.948     1.525
 263   1 H      0.067  0.933  0.000  0.000     2.123     2.279
 264   1 H      0.065  0.935  0.000  0.000     2.144     2.290
 265   1 H      0.056  0.944  0.000  0.000     2.251     2.346
 266   1 H      0.020  0.980  0.000  0.000     2.731     2.584
 267   1 H      0.038  0.962  0.000  0.000     2.483     2.465
 268   1 H      0.202  0.798  0.000  0.000     1.097     1.640
 269   1 H      0.189  0.811  0.000  0.000     1.163     1.690
 270   7 N     -0.379  1.315  4.064  0.000    29.800     8.108
 271   6 C      0.022  1.055  2.923  0.000    20.209     6.402
 272   6 C      0.229  1.057  2.714  0.000    23.193     7.888
 273   8 O     -0.316  1.687  4.629  0.000    20.064     6.006
 274   6 C     -0.027  1.069  2.958  0.000    21.017     6.520
 275   6 C     -0.115  1.060  3.055  0.000    22.777     6.808
 276   6 C     -0.120  1.062  3.057  0.000    22.871     6.823
 277   1 H      0.172  0.828  0.000  0.000     1.263     1.761
 278   1 H      0.027  0.973  0.000  0.000     2.633     2.538
 279   1 H      0.019  0.981  0.000  0.000     2.746     2.592
 280   1 H      0.044  0.956  0.000  0.000     2.399     2.423
 281   1 H      0.039  0.961  0.000  0.000     2.456     2.451
 282   1 H      0.062  0.938  0.000  0.000     2.176     2.307
 283   1 H      0.047  0.953  0.000  0.000     2.357     2.401
 284   1 H      0.057  0.943  0.000  0.000     2.232     2.336
 285   1 H      0.036  0.964  0.000  0.000     2.508     2.476
 286   7 N     -0.383  1.358  4.025  0.000    29.901     8.121
 287   6 C     -0.007  1.067  2.940  0.000    20.694     6.476
 288   6 C      0.335  1.009  2.657  0.000    21.317     7.561
 289   8 O     -0.290  1.640  4.649  0.000    19.586     5.934
 290   6 C     -0.075  1.053  3.022  0.000    21.916     6.662
 291   6 C     -0.021  1.053  2.968  0.000    20.915     6.505
 292   6 C     -0.117  1.062  3.055  0.000    22.817     6.816
 293   6 C     -0.115  1.050  3.065  0.000    22.766     6.806
 294   1 H      0.158  0.842  0.000  0.000     1.346     1.818
 295   1 H      0.031  0.969  0.000  0.000     2.581     2.512
 296   1 H      0.030  0.970  0.000  0.000     2.591     2.517
 297   1 H      0.029  0.971  0.000  0.000     2.601     2.522
 298   1 H      0.017  0.983  0.000  0.000     2.776     2.605
 299   1 H      0.040  0.960  0.000  0.000     2.452     2.449
 300   1 H      0.032  0.968  0.000  0.000     2.563     2.504
 301   1 H      0.042  0.958  0.000  0.000     2.419     2.432
 302   1 H      0.050  0.950  0.000  0.000     2.325     2.385
 303   1 H      0.045  0.955  0.000  0.000     2.384     2.414
 304   1 H      0.052  0.948  0.000  0.000     2.293     2.368
 305   7 N     -0.277  1.300  3.977  0.000    27.157     7.740
 306   6 C      0.029  1.059  2.912  0.000    20.100     6.386
 307   6 C      0.271  1.060  2.669  0.000    22.419     7.754
 308   8 O     -0.473  1.753  4.720  0.000    23.188     6.456
 309   6 C     -0.032  1.072  2.960  0.000    21.107     6.535
 310   6 C     -0.070  1.055  3.015  0.000    21.845     6.655
 311   6 C     -0.111  1.060  3.051  0.000    22.717     6.802
 312   6 C     -0.112  1.046  3.065  0.000    22.708     6.798
 313   1 H      0.184  0.816  0.000  0.000     1.190     1.709
 314   1 H      0.036  0.964  0.000  0.000     2.501     2.473
 315   1 H      0.053  0.947  0.000  0.000     2.278     2.360
 316   1 H      0.048  0.952  0.000  0.000     2.347     2.396
 317   1 H      0.036  0.964  0.000  0.000     2.506     2.475
 318   1 H      0.045  0.955  0.000  0.000     2.387     2.416
 319   1 H      0.026  0.974  0.000  0.000     2.642     2.542
 320   1 H      0.047  0.953  0.000  0.000     2.353     2.399
 321   1 H      0.052  0.948  0.000  0.000     2.291     2.367
 322   1 H      0.039  0.961  0.000  0.000     2.463     2.455
 323   1 H      0.039  0.961  0.000  0.000     2.460     2.453
 324   7 N     -0.235  1.280  3.955  0.000    26.146     7.594
 325   6 C      0.030  1.055  2.915  0.000    20.047     6.372
 326   6 C      0.330  0.992  2.678  0.000    21.400     7.577
 327   8 O     -0.446  1.704  4.741  0.000    22.603     6.375
 328   6 C     -0.089  1.049  3.039  0.000    22.170     6.700
 329   6 C     -0.004  1.101  2.903  0.000    28.118     8.697
 330   6 C     -0.054  1.100  2.954  0.000    29.330     8.881
 331   6 C     -0.044  1.078  2.966  0.000    29.094     8.845
 332   6 C     -0.042  1.082  2.960  0.000    29.040     8.836
 333   6 C     -0.039  1.080  2.959  0.000    28.971     8.826
 334   6 C     -0.039  1.081  2.958  0.000    28.972     8.827
 335   1 H      0.201  0.799  0.000  0.000     1.102     1.644
 336   1 H      0.059  0.941  0.000  0.000     2.205     2.322
 337   1 H      0.077  0.923  0.000  0.000     2.009     2.217
 338   1 H      0.078  0.922  0.000  0.000     2.002     2.213
 339   1 H      0.042  0.958  0.000  0.000     2.424     2.435
 340   1 H      0.041  0.959  0.000  0.000     2.438     2.441
 341   1 H      0.060  0.940  0.000  0.000     2.193     2.316
 342   1 H      0.047  0.953  0.000  0.000     2.357     2.401
 343   1 H      0.050  0.950  0.000  0.000     2.324     2.384
 344   7 N     -0.253  1.295  3.958  0.000    26.579     7.657
 345   6 C     -0.025  1.100  2.925  0.000    21.022     6.530
 346   6 C      0.334  1.006  2.660  0.000    21.320     7.562
 347   8 O     -0.311  1.672  4.639  0.000    19.982     5.994
 348   6 C     -0.114  1.074  3.040  0.000    22.682     6.782
 349   6 C      0.289  1.041  2.670  0.000    22.096     7.696
 350   8 O     -0.483  1.751  4.732  0.000    23.408     6.487
 351   7 N     -0.297  1.277  4.020  0.000    27.654     7.810
 352   1 H      0.193  0.807  0.000  0.000     1.141     1.673
 353   1 H      0.077  0.923  0.000  0.000     2.008     2.216
 354   1 H      0.087  0.913  0.000  0.000     1.911     2.162
 355   1 H      0.067  0.933  0.000  0.000     2.121     2.278
 356   1 H      0.238  0.762  0.000  0.000     0.932     1.512
 357   1 H      0.216  0.784  0.000  0.000     1.026     1.586
 358   7 N     -0.272  1.317  3.955  0.000    27.028     7.721
 359   6 C     -0.028  1.076  2.952  0.000    21.061     6.532
 360   6 C      0.335  1.012  2.653  0.000    21.318     7.562
 361   8 O     -0.236  1.622  4.615  0.000    18.664     5.793
 362   6 C     -0.000  1.087  2.913  0.000    20.858     6.551
 363   8 O     -0.502  1.745  4.757  0.000    22.948     6.466
 364   1 H      0.204  0.796  0.000  0.000     1.087     1.633
 365   1 H      0.066  0.934  0.000  0.000     2.127     2.281
 366   1 H      0.058  0.942  0.000  0.000     2.227     2.334
 367   1 H      0.116  0.884  0.000  0.000     1.638     1.999
 368   1 H      0.329  0.671  0.000  0.000     0.643     1.260
 369   7 N     -0.298  1.302  3.996  0.000    27.678     7.814
 370   6 C     -0.013  1.062  2.951  0.000    20.799     6.493
 371   6 C      0.298  1.031  2.671  0.000    21.947     7.670
 372   8 O     -0.326  1.650  4.676  0.000    20.256     6.034
 373   6 C     -0.040  1.072  2.968  0.000    21.231     6.550
 374   6 C     -0.058  1.024  3.035  0.000    21.600     6.613
 375   6 C      0.380  0.982  2.637  0.000    20.571     7.430
 376   8 O     -0.739  1.769  4.970  0.000    29.775     7.317
 377   8 O     -0.646  1.759  4.887  0.000    27.244     6.999
 378   1 H      0.189  0.811  0.000  0.000     1.167     1.692
 379   1 H      0.071  0.929  0.000  0.000     2.069     2.249
 380   1 H      0.019  0.981  0.000  0.000     2.746     2.592
 381   1 H      0.030  0.970  0.000  0.000     2.588     2.516
 382   1 H      0.024  0.976  0.000  0.000     2.669     2.555
 383   1 H      0.044  0.956  0.000  0.000     2.401     2.423
 384   7 N     -0.278  1.284  3.993  0.000    27.170     7.742
 385   6 C     -0.003  1.062  2.940  0.000    20.614     6.462
 386   6 C      0.289  1.032  2.679  0.000    22.108     7.700
 387   8 O     -0.411  1.713  4.698  0.000    21.904     6.275
 388   6 C     -0.064  1.021  3.043  0.000    21.705     6.630
 389   6 C      0.098  1.025  2.877  0.000    25.818     8.332
 390   7 N     -0.378  1.367  4.011  0.000    29.753     8.101
 391   6 C     -0.054  1.054  3.000  0.000    24.129     7.427
 392   6 C      0.099  1.052  2.848  0.000    25.786     8.320
 393   7 N     -0.113  1.214  3.899  0.000    23.464     7.194
 394   1 H      0.216  0.784  0.000  0.000     1.029     1.589
 395   1 H      0.083  0.917  0.000  0.000     1.952     2.185
 396   1 H      0.060  0.940  0.000  0.000     2.194     2.316
 397   1 H      0.098  0.902  0.000  0.000     1.802     2.099
 398   1 H      0.026  0.974  0.000  0.000     2.641     2.541
 399   1 H      0.059  0.941  0.000  0.000     2.206     2.323
 400   1 H      0.196  0.804  0.000  0.000     1.129     1.664
 401   7 N     -0.218  1.264  3.953  0.000    25.748     7.536
 402   6 C     -0.037  1.107  2.930  0.000    21.250     6.567
 403   6 C      0.309  1.014  2.678  0.000    21.776     7.652
 404   8 O     -0.377  1.682  4.696  0.000    21.234     6.178
 405   6 C     -0.071  1.068  3.003  0.000    21.884     6.664
 406   6 C     -0.190  1.108  3.082  0.000    24.242     7.014
 407   6 C      0.302  1.023  2.675  0.000    21.869     7.656
 408   8 O     -0.314  1.662  4.652  0.000    20.033     6.001
 409   7 N     -0.356  1.294  4.062  0.000    29.182     8.023
 410   1 H      0.199  0.801  0.000  0.000     1.110     1.650
 411   1 H      0.091  0.909  0.000  0.000     1.867     2.137
 412   1 H      0.047  0.953  0.000  0.000     2.356     2.400
 413   1 H      0.052  0.948  0.000  0.000     2.293     2.368
 414   1 H      0.063  0.937  0.000  0.000     2.162     2.300
 415   1 H      0.128  0.872  0.000  0.000     1.545     1.941
 416   1 H      0.230  0.770  0.000  0.000     0.964     1.538
 417   1 H      0.202  0.798  0.000  0.000     1.098     1.642
 418   7 N     -0.165  1.197  3.968  0.000    24.572     7.362
 419   6 C      0.007  1.020  2.973  0.000    20.397     6.417
 420   6 C      0.285  1.037  2.678  0.000    22.179     7.712
 421   8 O     -0.400  1.673  4.727  0.000    21.678     6.243
 422   6 C     -0.053  1.097  2.956  0.000    21.492     6.595
 423   6 C     -0.136  1.060  3.076  0.000    23.197     6.871
 424   6 C     -0.115  1.061  3.055  0.000    22.793     6.812
 425   1 H      0.222  0.778  0.000  0.000     0.999     1.566
 426   1 H      0.054  0.946  0.000  0.000     2.271     2.357
 427   1 H      0.031  0.969  0.000  0.000     2.574     2.509
 428   1 H      0.063  0.937  0.000  0.000     2.169     2.303
 429   1 H      0.050  0.950  0.000  0.000     2.318     2.381
 430   1 H      0.069  0.931  0.000  0.000     2.099     2.266
 431   1 H      0.057  0.943  0.000  0.000     2.232     2.337
 432   1 H      0.047  0.953  0.000  0.000     2.356     2.400
 433   1 H      0.025  0.975  0.000  0.000     2.658     2.550
 434   7 N     -0.239  1.255  3.984  0.000    26.248     7.609
 435   6 C      0.014  1.054  2.932  0.000    20.335     6.420
 436   6 C      0.283  1.024  2.693  0.000    22.202     7.717
 437   8 O     -0.429  1.711  4.718  0.000    22.269     6.327
 438   6 C     -0.078  1.046  3.032  0.000    21.980     6.673
 439   6 C     -0.023  1.072  2.951  0.000    20.953     6.512
 440   6 C     -0.117  1.053  3.063  0.000    22.803     6.812
 441   6 C     -0.123  1.064  3.058  0.000    22.934     6.834
 442   1 H      0.213  0.787  0.000  0.000     1.040     1.597
 443   1 H      0.053  0.947  0.000  0.000     2.279     2.361
 444   1 H      0.073  0.927  0.000  0.000     2.048     2.238
 445   1 H      0.059  0.941  0.000  0.000     2.208     2.323
 446   1 H      0.018  0.982  0.000  0.000     2.761     2.599
 447   1 H      0.033  0.967  0.000  0.000     2.551     2.498
 448   1 H      0.047  0.953  0.000  0.000     2.363     2.404
 449   1 H      0.054  0.946  0.000  0.000     2.265     2.353
 450   1 H      0.043  0.957  0.000  0.000     2.411     2.428
 451   1 H      0.047  0.953  0.000  0.000     2.362     2.403
 452   1 H      0.027  0.973  0.000  0.000     2.637     2.540
 453   7 N     -0.215  1.266  3.949  0.000    25.693     7.528
 454   6 C     -0.016  1.058  2.958  0.000    20.832     6.491
 455   6 C      0.329  0.981  2.690  0.000    21.403     7.577
 456   8 O     -0.375  1.650  4.725  0.000    21.167     6.169
 457   6 C     -0.079  1.059  3.020  0.000    21.992     6.674
 458   6 C     -0.077  1.031  3.046  0.000    21.964     6.670
 459   6 C     -0.087  1.053  3.034  0.000    22.146     6.698
 460   6 C     -0.051  1.076  2.975  0.000    21.601     6.638
 461   7 N     -0.142  1.253  3.888  0.000    24.058     7.285
 462   1 H      0.217  0.783  0.000  0.000     1.022     1.584
 463   1 H      0.099  0.901  0.000  0.000     1.794     2.095
 464   1 H      0.051  0.949  0.000  0.000     2.305     2.374
 465   1 H      0.075  0.925  0.000  0.000     2.033     2.230
 466   1 H      0.072  0.928  0.000  0.000     2.063     2.246
 467   1 H      0.069  0.931  0.000  0.000     2.091     2.261
 468   1 H      0.077  0.923  0.000  0.000     2.015     2.220
 469   1 H      0.085  0.915  0.000  0.000     1.926     2.171
 470   1 H      0.102  0.898  0.000  0.000     1.765     2.078
 471   1 H      0.092  0.908  0.000  0.000     1.856     2.130
 472   1 H      0.282  0.718  0.000  0.000     0.768     1.372
 473   1 H      0.297  0.703  0.000  0.000     0.723     1.333
 474   1 H      0.270  0.730  0.000  0.000     0.813     1.413
 475   7 N     -0.240  1.253  3.987  0.000    26.265     7.612
 476   6 C     -0.008  1.072  2.936  0.000    20.723     6.482
 477   6 C      0.292  1.032  2.676  0.000    22.054     7.689
 478   8 O     -0.404  1.713  4.691  0.000    21.758     6.254
 479   6 C     -0.106  1.065  3.042  0.000    22.523     6.755
 480   6 C      0.315  1.012  2.672  0.000    21.640     7.617
 481   8 O     -0.432  1.691  4.741  0.000    22.325     6.335
 482   7 N     -0.350  1.306  4.044  0.000    29.013     8.000
 483   1 H      0.200  0.800  0.000  0.000     1.106     1.647
 484   1 H      0.092  0.908  0.000  0.000     1.864     2.135
 485   1 H      0.079  0.921  0.000  0.000     1.985     2.203
 486   1 H      0.053  0.947  0.000  0.000     2.284     2.364
 487   1 H      0.203  0.797  0.000  0.000     1.090     1.636
 488   1 H      0.217  0.783  0.000  0.000     1.023     1.584
 489   7 N     -0.224  1.265  3.959  0.000    25.887     7.557
 490   6 C     -0.010  1.052  2.958  0.000    20.762     6.488
 491   6 C      0.339  1.004  2.657  0.000    21.246     7.548
 492   8 O     -0.196  1.606  4.590  0.000    17.996     5.688
 493   6 C     -0.123  1.049  3.074  0.000    22.835     6.800
 494   6 C      0.331  1.017  2.652  0.000    21.380     7.570
 495   8 O     -0.211  1.606  4.605  0.000    18.248     5.727
 496   7 N     -0.418  1.314  4.104  0.000    30.880     8.253
 497   1 H      0.205  0.795  0.000  0.000     1.082     1.630
 498   1 H      0.060  0.940  0.000  0.000     2.193     2.316
 499   1 H      0.036  0.964  0.000  0.000     2.502     2.474
 500   1 H      0.043  0.957  0.000  0.000     2.410     2.428
 501   1 H      0.179  0.821  0.000  0.000     1.221     1.731
 502   1 H      0.189  0.811  0.000  0.000     1.163     1.690
 503   7 N     -0.305  1.295  4.010  0.000    27.858     7.839
 504   6 C      0.010  1.061  2.929  0.000    20.424     6.437
 505   6 C      0.267  1.060  2.673  0.000    22.495     7.766
 506   8 O     -0.428  1.721  4.707  0.000    22.251     6.324
 507   6 C      0.098  1.061  2.840  0.000    19.108     6.251
 508   8 O     -0.523  1.783  4.740  0.000    23.420     6.531
 509   6 C     -0.130  1.061  3.069  0.000    23.079     6.856
 510   1 H      0.184  0.816  0.000  0.000     1.190     1.709
 511   1 H      0.072  0.928  0.000  0.000     2.065     2.247
 512   1 H      0.045  0.955  0.000  0.000     2.379     2.412
 513   1 H      0.310  0.690  0.000  0.000     0.695     1.310
 514   1 H      0.051  0.949  0.000  0.000     2.312     2.378
 515   1 H      0.056  0.944  0.000  0.000     2.245     2.343
 516   1 H      0.078  0.922  0.000  0.000     2.004     2.214
 517   7 N     -0.231  1.284  3.947  0.000    26.059     7.582
 518   6 C      0.022  1.066  2.912  0.000    20.211     6.403
 519   6 C      0.218  1.067  2.715  0.000    23.406     7.922
 520   8 O     -0.284  1.687  4.597  0.000    19.489     5.919
 521   6 C     -0.061  1.021  3.040  0.000    21.655     6.621
 522   6 C     -0.026  1.103  2.923  0.000    28.650     8.780
 523   6 C     -0.051  1.094  2.957  0.000    29.272     8.875
 524   6 C     -0.033  1.089  2.944  0.000    28.833     8.807
 525   6 C     -0.062  1.063  2.999  0.000    29.553     8.914
 526   6 C     -0.066  1.075  2.991  0.000    29.649     8.929
 527   6 C      0.152  1.043  2.805  0.000    24.713     8.150
 528   8 O     -0.440  1.730  4.710  0.000    21.644     6.280
 529   1 H      0.198  0.802  0.000  0.000     1.115     1.654
 530   1 H      0.087  0.913  0.000  0.000     1.910     2.161
 531   1 H      0.076  0.924  0.000  0.000     2.024     2.225
 532   1 H      0.089  0.911  0.000  0.000     1.889     2.149
 533   1 H      0.044  0.956  0.000  0.000     2.393     2.419
 534   1 H      0.019  0.981  0.000  0.000     2.756     2.596
 535   1 H      0.072  0.928  0.000  0.000     2.059     2.244
 536   1 H      0.035  0.965  0.000  0.000     2.519     2.482
 537   1 H      0.328  0.672  0.000  0.000     0.646     1.264
 538   1 H      0.186  0.814  0.000  0.000     1.180     1.701
 539   1 H      0.005  0.995  0.000  0.000     2.967     2.694
 540   1 H      0.184  0.816  0.000  0.000     1.189     1.708
 541   1 H      0.050  0.950  0.000  0.000     2.317     2.380
 542   1 H      0.173  0.827  0.000  0.000     1.256     1.755
 543   1 H      0.015  0.985  0.000  0.000     2.806     2.619
 544   1 H      0.174  0.826  0.000  0.000     1.251     1.752
 545   1 H      0.054  0.946  0.000  0.000     2.264     2.353
 546   1 H      0.181  0.819  0.000  0.000     1.208     1.721
 547   1 H      0.050  0.950  0.000  0.000     2.317     2.380
 548   1 H      0.191  0.809  0.000  0.000     1.155     1.683
 549   1 H      0.016  0.984  0.000  0.000     2.793     2.613
 550   1 H      0.168  0.832  0.000  0.000     1.282     1.773
 551   1 H      0.031  0.969  0.000  0.000     2.575     2.509
 552   1 H      0.178  0.822  0.000  0.000     1.223     1.732
 553   1 H      0.048  0.952  0.000  0.000     2.343     2.394
 554   1 H      0.173  0.827  0.000  0.000     1.251     1.752
 555   1 H      0.059  0.941  0.000  0.000     2.208     2.323
 556   1 H      0.175  0.825  0.000  0.000     1.243     1.746
 557   1 H      0.028  0.972  0.000  0.000     2.613     2.528
 558   1 H      0.188  0.812  0.000  0.000     1.169     1.694
 559   1 H      0.059  0.941  0.000  0.000     2.211     2.325

 Mol. C6AA /au·bohr⁶  :    2870486.991605
 Mol. C8AA /au·bohr⁸  :   63773438.713057
 Mol. α(0) /au        :       2546.888425

 
molecular dipole:
                 x           y           z       tot (Debye)
 q only:       -4.888      40.059      -9.907
   full:       -4.989      37.515      -9.242      99.022
molecular quadrupole (traceless):
                xx          xy          yy          xz          yz          zz
 q only:    -1209.118    -507.625    1724.507    -182.546    -787.311    -515.388
  q+dip:    -1121.389    -581.702    1506.510    -143.912    -791.865    -385.121
   full:    -1117.789    -575.889    1497.783    -147.490    -790.699    -379.994
speedup  1.99
cpu  time for grad   39.09 s
wall time for grad   19.65 s

SCC energy    :    -854.4461268
rep           :      13.1462457
ES            :       1.9326533
AES           :       0.0310985
AXC           :       0.3020323
disp          :      -0.7501183
XB            :       0.0000000
fix           :       0.0000000
Gborn         :       0.0000000
Gsasa         :       0.0000000
Ghb           :       0.0000000
Gshift        :       0.0000000
Gsolv         :      -0.3799376     -238.41
Etot ala COSMO:    -854.4461268
grad norm     :       3.5658628
total E       :    -841.2181231
atomizationE  :     153.5874624    96377.59
(atE without considering molecular charge,
 total energy contains solvation terms)
H-L gap (eV)  :          0.6578

------------------------------------------------------------------------
 * finished run on 2019/05/12 at 07:57:15.523     
------------------------------------------------------------------------
 total:
 * wall-time:     0 d,  0 h,  0 min, 20.741 sec
 *  cpu-time:     0 d,  0 h,  0 min, 40.981 sec
 * ratio c/w:     1.976 speedup
 SCF:
 * wall-time:     0 d,  0 h,  0 min, 20.308 sec
 *  cpu-time:     0 d,  0 h,  0 min, 40.359 sec
 * ratio c/w:     1.987 speedup

