      -----------------------------------------------------------      
     |                   =====================                   |     
     |                           x T B                           |     
     |                   =====================                   |     
     |                         S. Grimme                         |     
     |          Mulliken Center for Theoretical Chemistry        |     
     |                    University of Bonn                     |     
     |                 Version 6.0.1 (SAW181210)                 |     
      -----------------------------------------------------------      

   This program is distributed in the hope that it will be useful,
   but WITHOUT ANY WARRANTY; without even the implied warranty of
   MERCHANTABILITY or FITNESS FOR A PARTICULAR PURPOSE.
   
   FOR NON-COMMERCIAL, ACADEMIA USE ONLY.
   
   Cite this work as:
   S. Grimme, C. Bannwarth, P. Shushkov, J. Comput. Theory Chem., 2017,
   13, 1989-2009.
   C. Bannwarth, S. Ehlert and S. Grimme., ChemRxiv, 2018, preprint.
   http://doi.org/10.26434/chemrxiv.7246238.v1
   
   for sTDA-xTB:
   S. Grimme and C. Bannwarth, J. Chem. Phys., 2016, 145, 054103.
   
   in the mass-spec context:
   V. Asgeirsson, C. Bauer and S. Grimme, Chem. Sci., 2017, 8, 4879.
   
   if GBSA is used:
   P. Shushkov, F. März and S. Grimme, unpublished.
   
   for ANC optimizer:
   S. Grimme, unpublished.
   Rational Function algorithm used in ANCopt:
   F. Eckert, P. Pulay, H.-J. Werner, J. Comput. Chem., 1997, 18, 1473.
   
   with help from (in alphabetical order)
   C. Bannwarth, F. Bohle, G. Brandenburg, E. Caldeweyher, M. Checinski,
   S. Dohm, S. Ehlert, S. Ehrlich, F. März, H. Neugebauer, J. Pisarek,
   P. Pracht, P. Shushkov, and S. Spicher.
   
 * started run on 2019/05/10 at 11:23:15.501     
========================================================================
 # omp threads = 2
========================================================================
number of atoms            : 391
number of electrons        : 1052
charge                     : -1
spin                       : .0
first test random number   : .5060

########################################################################
# WARNING! Please study the warnings concerning your input carefully
#  - Process number higher than OMP_NUM_THREADS, I hope you know what you are doing.
########################################################################

           ------------------------------------------------- 
          |                 G F N 2 - x T B                 |
          | Geometry, Frequencies, Noncovalent interactions |
          |            JCTC 2018 parametrisation            |
           ------------------------------------------------- 
 
      method parameters     
 k(s)        :  1.8500
 k(p)        :  2.2300
 k(d)        :  2.2300
 k(f)        :  2.0000
 kEN (H0ij)  : -2.0000
 D4 a1       :  0.5200
 D4 a2       :  5.0000
 D4 s6       :  1.0000
 D4 s8       :  2.7000
 D4 s9       :  5.0000
 alphaj      :  2.0000

 Solvent             : h2o
 Using internal parameter file: .param_gbsa2_h2o
 Gsolv ref. state (COSMO-RS): gsolv [1 M gas/solution]
 temperature (mdtemp)       :    298.150000000000     
 dielectric constant        :    80.2000000000000     
 rho                        :    1.00000000000000     
 mass                       :    18.0000000000000     
 surface tension            :    15.5689454083859     
 probe radius               :   0.975313790000000     
 vdW radii scaling          :    1.00000000000000     
 Gshift (Eh)                :   1.857443126794793E-003
 c1                         :    1.55243817000000     
 soset                      :   0.130326360000000     
 HB correction              :  T

            Z     q(EN)     CN     RAES       Cart. coordinates
     1  N   5.0   -0.11    4.09    3.11   142.92160   102.34575   396.51076
     2  C   4.0   -0.00    4.22    4.04   141.64872   103.98722   394.58728
     3  C   4.0    0.15    3.40    3.08   139.46584   105.45744   395.93949
     4  O   6.0   -0.29    1.25    1.80   138.29875   104.42186   397.64274
     5  C   4.0    0.02    4.07    3.75   140.53700   102.32540   392.37790
     6  O   6.0   -0.26    2.04    1.83   138.98524   100.27013   393.24143
     7  H   1.0    0.05    1.02    1.43   143.98865   100.94380   395.67252
     8  H   1.0    0.06    1.02    1.43   144.04758   103.40851   397.69538
     9  H   1.0    0.08    1.03    1.43   141.49050   101.54206   397.59210
    10  H   1.0    0.03    1.04    1.43   143.00462   105.29808   393.75630
    11  H   1.0    0.04    1.01    1.43   139.41132   103.58149   391.18440
    12  H   1.0    0.03    1.01    1.43   142.12667   101.60320   391.28252
    13  H   1.0    0.11    1.02    1.43   139.31318    98.79224   392.23102
    14  N   5.0   -0.15    3.43    2.03   138.84728   107.69623   394.86483
    15  C   4.0    0.04    4.38    4.35   136.41986   108.79915   395.60511
    16  C   4.0    0.15    3.36    3.07   134.32345   106.89342   394.73746
    17  O   6.0   -0.31    1.28    1.80   132.84845   105.99587   396.27421
    18  C   4.0   -0.04    4.21    4.03   136.24666   111.53964   394.72937
    19  C   4.0   -0.04    4.13    3.87   133.81761   112.90776   395.52959
    20  C   4.0    0.24    3.09    3.02   134.17313   115.86156   395.35718
    21  O   6.0   -0.30    1.16    1.80   134.82337   116.78610   393.30614
    22  O   6.0   -0.32    1.27    1.80   133.74542   117.11508   397.33100
    23  H   1.0    0.07    1.05    1.44   140.06948   108.74876   393.85119
    24  H   1.0    0.07    1.06    1.44   136.28928   108.80865   397.67627
    25  H   1.0    0.06    1.03    1.43   137.82123   112.53471   395.62989
    26  H   1.0    0.04    1.02    1.43   136.46643   111.70535   392.68313
    27  H   1.0    0.04    1.02    1.43   132.22672   112.38568   394.32559
    28  H   1.0    0.05    1.02    1.43   133.35390   112.44407   397.48403
    29  N   5.0   -0.15    3.39    2.02   134.44935   106.08673   392.32196
    30  C   4.0    0.03    4.30    4.20   132.80877   104.24817   391.01152
    31  C   4.0    0.16    3.45    3.10   131.69200   102.03165   392.59522
    32  O   6.0   -0.32    1.27    1.80   129.40389   101.61276   392.69685
    33  C   4.0   -0.04    4.29    4.18   134.32549   103.13215   388.73200
    34  C   4.0   -0.02    3.53    3.13   132.59362   101.81078   386.84216
    35  C   4.0   -0.03    3.44    3.09   131.81110    99.31468   387.19892
    36  C   4.0   -0.04    3.45    3.10   131.69072   103.15499   384.75061
    37  C   4.0   -0.04    3.38    3.07   130.11356    98.23143   385.52656
    38  C   4.0   -0.04    3.36    3.07   129.97823   102.07944   383.09854
    39  C   4.0   -0.04    3.37    3.07   129.17305    99.62071   383.50284
    40  H   1.0    0.07    1.07    1.44   135.66650   106.99316   391.15660
    41  H   1.0    0.04    1.05    1.44   131.14047   105.23238   390.26399
    42  H   1.0    0.04    1.03    1.43   135.26626   104.68657   387.76241
    43  H   1.0    0.04    1.03    1.43   135.71304   101.78344   389.42663
    44  H   1.0    0.06    1.03    1.43   132.49282    98.19155   388.75857
    45  H   1.0    0.05    1.03    1.43   132.30560   105.07741   384.45132
    46  H   1.0    0.06    1.03    1.43   129.60264    96.27203   385.77220
    47  H   1.0    0.05    1.03    1.43   129.26108   103.15626   381.52171
    48  H   1.0    0.06    1.03    1.43   127.80562    98.77484   382.24682
    49  N   5.0   -0.15    3.55    2.11   133.38115   100.48121   393.65486
    50  C   4.0    0.05    4.58    4.64   132.41783    98.26445   394.87315
    51  C   4.0    0.16    3.44    3.09   130.77395    99.00993   397.09658
    52  O   6.0   -0.30    1.21    1.80   129.04953    97.66297   397.86378
    53  C   4.0   -0.04    4.30    4.21   134.59105    96.49333   395.49446
    54  C   4.0   -0.04    4.20    3.99   134.97886    94.84707   393.19364
    55  C   4.0    0.24    3.16    3.03   132.38633    93.43418   392.63682
    56  O   6.0   -0.29    1.18    1.80   131.11139    92.78163   394.52987
    57  O   6.0   -0.30    1.14    1.80   131.89592    93.13484   390.31387
    58  H   1.0    0.10    1.08    1.44   135.28232   100.76026   393.55998
    59  H   1.0    0.07    1.10    1.44   131.11754    97.31048   393.56958
    60  H   1.0    0.05    1.03    1.43   136.26445    97.57785   396.00701
    61  H   1.0    0.06    1.04    1.43   134.04477    95.27559   397.06560
    62  H   1.0    0.05    1.02    1.43   135.46206    95.93501   391.51569
    63  H   1.0    0.04    1.02    1.43   136.40559    93.39232   393.50530
    64  N   5.0   -0.14    3.48    2.06   131.47554   101.20662   398.22570
    65  C   4.0    0.04    4.34    4.27   130.21005   102.16207   400.47824
    66  C   4.0    0.15    3.45    3.10   127.69830   103.51108   400.02129
    67  O   6.0   -0.32    1.27    1.80   125.98727   103.18733   401.55591
    68  C   4.0   -0.06    4.13    3.85   131.80289   104.02019   402.00243
    69  H   1.0    0.11    1.10    1.44   132.73172   102.39189   397.41203
    70  H   1.0    0.05    1.06    1.44   129.75508   100.51073   401.64483
    71  H   1.0    0.04    1.01    1.43   130.66886   104.62081   403.59851
    72  H   1.0    0.05    1.00    1.43   133.53815   103.14973   402.66735
    73  H   1.0    0.07    1.00    1.43   132.27944   105.67052   400.87770
    74  N   5.0   -0.14    3.51    2.08   127.61547   105.03135   397.99777
    75  C   4.0    0.04    4.50    4.54   125.33006   106.26518   397.13415
    76  C   4.0    0.15    3.48    3.11   123.35628   104.16484   396.69610
    77  O   6.0   -0.31    1.28    1.80   121.19814   104.34756   397.54116
    78  C   4.0   -0.02    4.26    4.12   125.85813   108.03845   394.93627
    79  C   4.0   -0.07    4.17    3.94   123.37641   108.79931   393.75906
    80  C   4.0   -0.07    4.14    3.87   127.19155   110.40253   395.87756
    81  H   1.0    0.11    1.09    1.44   129.23389   105.28218   397.00687
    82  H   1.0    0.06    1.06    1.44   124.53205   107.39973   398.68432
    83  H   1.0    0.05    1.05    1.44   127.02864   107.04197   393.54380
    84  H   1.0    0.05    1.00    1.43   123.65060   110.09119   392.18139
    85  H   1.0    0.04    1.01    1.43   122.33106   107.16228   393.10181
    86  H   1.0    0.05    1.01    1.43   122.22136   109.76137   395.16216
    87  H   1.0    0.04    1.01    1.43   127.55348   111.69667   394.32355
    88  H   1.0    0.05    1.01    1.43   125.99821   111.37119   397.23130
    89  H   1.0    0.05    1.00    1.43   128.97623   109.95635   396.79536
    90  N   5.0   -0.14    3.45    2.05   124.20350   102.03177   395.60731
    91  C   4.0    0.04    4.52    4.56   122.47388    99.87513   395.38577
    92  C   4.0    0.16    3.49    3.11   121.37894    99.06541   397.95575
    93  O   6.0   -0.29    1.23    1.80   119.12764    98.55602   398.15292
    94  C   4.0   -0.02    4.32    4.24   123.52425    97.55075   394.00003
    95  C   4.0   -0.05    4.19    3.99   124.43869    98.29190   391.36958
    96  C   4.0   -0.07    4.17    3.93   121.42117    95.57935   393.94600
    97  C   4.0   -0.07    4.02    3.65   125.81170    96.17628   389.99661
    98  H   1.0    0.10    1.07    1.44   125.92823   101.92104   394.80026
    99  H   1.0    0.05    1.06    1.44   120.82772   100.54026   394.29826
   100  H   1.0    0.06    1.05    1.44   125.15394    96.81972   395.05233
   101  H   1.0    0.03    1.03    1.43   122.80759    98.86205   390.23409
   102  H   1.0    0.06    1.04    1.43   125.72261    99.89307   391.48115
   103  H   1.0    0.04    1.00    1.43   122.02133    93.97434   392.81703
   104  H   1.0    0.06    1.01    1.43   120.97385    94.92796   395.83500
   105  H   1.0    0.04    1.00    1.43   119.73609    96.38569   393.09554
   106  H   1.0    0.04    1.01    1.43   126.50120    96.87189   388.19519
   107  H   1.0    0.07    1.00    1.43   127.43007    95.49793   391.06728
   108  H   1.0    0.04    1.00    1.43   124.57532    94.57608   389.63001
   109  N   5.0   -0.13    3.44    2.04   123.05254    98.78907   399.85520
   110  C   4.0    0.04    4.32    4.24   122.22095    98.01213   402.39318
   111  C   4.0    0.16    3.42    3.08   120.19433    99.95318   403.37893
   112  O   6.0   -0.28    1.24    1.80   118.16093    99.26716   404.25704
   113  C   4.0   -0.05    4.16    3.92   124.48142    97.53321   404.16103
   114  C   4.0   -0.05    4.05    3.72   124.29302    95.07890   405.79300
   115  C   4.0   -0.06    4.04    3.69   126.48823    94.75573   407.81597
   116  C   4.0   -0.05    4.02    3.65   128.52494    92.66288   407.36446
   117  N   5.0   -0.12    3.94    2.71   129.95705    92.72663   404.80593
   118  H   1.0    0.10    1.07    1.44   124.88322    99.23887   399.57978
   119  H   1.0    0.06    1.06    1.44   121.14900    96.25146   402.14180
   120  H   1.0    0.05    1.03    1.43   126.19825    97.54010   403.02337
   121  H   1.0    0.05    1.03    1.43   124.61334    99.13387   405.46587
   122  H   1.0    0.04    1.02    1.43   122.50659    95.13023   406.79958
   123  H   1.0    0.04    1.02    1.43   124.28021    93.44835   404.53263
   124  H   1.0    0.04    1.02    1.43   127.42959    96.57436   408.02543
   125  H   1.0    0.03    1.03    1.43   125.64489    94.28321   409.62459
   126  H   1.0    0.03    1.02    1.43   129.92766    92.82258   408.85667
   127  H   1.0    0.04    1.02    1.43   127.61403    90.82033   407.45754
   128  H   1.0    0.05    1.02    1.43   131.19083    91.22664   404.75968
   129  H   1.0    0.06    1.01    1.43   128.70829    92.59904   403.32144
   130  H   1.0    0.05    1.01    1.43   130.95859    94.38216   404.64598
   131  N   5.0   -0.13    3.52    2.09   120.75107   102.40692   403.10956
   132  C   4.0    0.04    4.59    4.65   119.13906   104.21799   404.32136
   133  C   4.0    0.16    3.54    3.13   116.52726   104.19151   403.12894
   134  O   6.0   -0.28    1.22    1.80   114.59003   104.26074   404.42643
   135  C   4.0   -0.02    4.32    4.23   120.15982   106.87839   404.13133
   136  C   4.0   -0.07    4.17    3.94   118.26033   108.68243   405.32640
   137  C   4.0   -0.07    4.13    3.87   122.70418   107.07030   405.44157
   138  H   1.0    0.11    1.09    1.44   122.47169   102.95297   402.47842
   139  H   1.0    0.06    1.06    1.44   118.89430   103.71432   406.32482
   140  H   1.0    0.06    1.06    1.44   120.40885   107.38678   402.13876
   141  H   1.0    0.04    1.00    1.43   119.06983   110.56276   405.46283
   142  H   1.0    0.05    1.00    1.43   116.52665   108.82768   404.23676
   143  H   1.0    0.05    1.00    1.43   117.78683   108.06009   407.22627
   144  H   1.0    0.06    1.00    1.43   123.40832   108.99482   405.29658
   145  H   1.0    0.04    1.00    1.43   122.52148   106.59601   407.43558
   146  H   1.0    0.06    1.01    1.43   124.09607   105.82999   404.58371
   147  N   5.0   -0.14    3.51    2.09   116.52248   104.16770   400.58154
   148  C   4.0    0.04    4.42    4.41   114.15600   104.41666   399.16906
   149  C   4.0    0.10    3.24    3.04   112.47804   102.11857   399.74385
   150  O   6.0   -0.28    1.10    1.80   110.17726   102.17109   400.10586
   151  C   4.0   -0.02    4.41    4.40   114.84822   104.76470   396.42237
   152  C   4.0   -0.05    4.25    4.09   115.72857   107.47694   396.17843
   153  C   4.0   -0.07    4.14    3.88   112.71821   104.09279   394.59407
   154  C   4.0   -0.08    4.08    3.77   116.67516   107.72850   393.46878
   155  H   1.0    0.11    1.10    1.44   118.17953   104.20964   399.62211
   156  H   1.0    0.05    1.06    1.44   113.12477   106.07490   399.87224
   157  H   1.0    0.06    1.07    1.44   116.45566   103.51569   396.03377
   158  H   1.0    0.04    1.03    1.43   114.18423   108.79217   396.52755
   159  H   1.0    0.05    1.03    1.43   117.25910   107.85018   397.50193
   160  H   1.0    0.04    1.00    1.43   113.40155   104.04125   392.66636
   161  H   1.0    0.05    1.01    1.43   111.93436   102.25354   395.05563
   162  H   1.0    0.04    1.00    1.43   111.21023   105.48042   394.72611
   163  H   1.0    0.04    1.00    1.43   117.72873   109.47880   393.21928
   164  H   1.0    0.04    1.00    1.43   117.93429   106.17271   393.01364
   165  H   1.0    0.04    1.00    1.43   115.11036   107.74788   392.14864
   166  N   5.0   -0.22    3.11    1.94   119.50315    95.78734   385.10789
   167  C   4.0    0.00    4.05    3.71   121.99429    96.02022   383.99135
   168  C   4.0    0.07    3.12    3.03   121.86000    96.39316   381.14396
   169  O   6.0   -0.33    1.23    1.80   123.22873    97.94514   380.08250
   170  H   1.0    0.08    1.02    1.43   119.10021    94.20895   386.12270
   171  H   1.0    0.04    1.02    1.43   123.00647    97.64295   384.78608
   172  H   1.0    0.04    1.03    1.43   123.05575    94.30471   384.40631
   173  N   5.0   -0.21    3.22    1.96   119.60202   102.97010   380.33370
   174  C   4.0    0.03    4.37    4.33   121.73535   104.51766   381.03057
   175  C   4.0    0.15    3.43    3.09   123.79807   104.48801   379.02581
   176  O   6.0   -0.31    1.24    1.80   124.94780   106.46589   378.60299
   177  C   4.0   -0.05    4.41    4.40   122.86039   103.79540   383.55583
   178  C   4.0   -0.03    4.21    4.01   121.82090   105.39581   385.68281
   179  C   4.0   -0.08    4.13    3.86   123.07544   104.52511   388.12180
   180  C   4.0   -0.07    4.14    3.88   122.36937   108.17397   385.23171
   181  H   1.0    0.08    1.02    1.43   118.99964   101.61379   381.55912
   182  H   1.0    0.05    1.07    1.44   121.12358   106.50038   381.06730
   183  H   1.0    0.04    1.03    1.43   122.48395   101.80031   383.89410
   184  H   1.0    0.05    1.04    1.43   124.90639   104.06864   383.48374
   185  H   1.0    0.03    1.05    1.44   119.77726   105.11614   385.82797
   186  H   1.0    0.04    1.00    1.43   122.16383   105.38647   389.74347
   187  H   1.0    0.04    1.00    1.43   122.95874   102.48693   388.30639
   188  H   1.0    0.04    1.00    1.43   125.05638   105.07115   388.13921
   189  H   1.0    0.04    1.00    1.43   122.21041   109.25703   386.97606
   190  H   1.0    0.05    1.00    1.43   124.27243   108.45618   384.50350
   191  H   1.0    0.04    1.00    1.43   121.06763   109.02596   383.89278
   192  N   5.0   -0.15    3.47    2.06   124.25709   102.28315   377.88244
   193  C   4.0    0.04    4.28    4.16   126.41782   101.95538   376.23943
   194  C   4.0    0.09    3.16    3.03   125.95805   103.22334   373.62205
   195  O   6.0   -0.29    1.13    1.80   127.49219   104.79570   372.80950
   196  C   4.0    0.03    4.12    3.85   127.18619    99.16373   376.15391
   197  O   6.0   -0.25    2.04    1.83   129.63865    99.00274   375.10751
   198  H   1.0    0.12    1.14    1.45   123.35399   100.70075   378.47507
   199  H   1.0    0.06    1.06    1.44   128.02690   103.00927   377.03570
   200  H   1.0    0.05    1.02    1.43   127.13686    98.44380   378.08627
   201  H   1.0    0.05    1.01    1.43   125.82448    98.10345   375.00207
   202  H   1.0    0.11    1.02    1.43   130.45764    97.49018   375.71859
   203  N   5.0   -0.19    3.22    1.96   126.73540   109.92253   374.20155
   204  C   4.0    0.04    4.20    4.01   129.34220   110.80026   374.27260
   205  C   4.0    0.09    3.27    3.05   130.11494   111.12740   371.53204
   206  O   6.0   -0.29    1.12    1.80   131.04072   113.09556   370.75401
   207  C   4.0   -0.04    4.25    4.11   131.22256   108.91974   375.39176
   208  C   4.0   -0.03    4.19    3.97   131.26712   108.62957   378.29289
   209  C   4.0    0.15    3.21    3.04   132.28013   110.87994   379.73018
   210  O   6.0   -0.29    1.20    1.80   130.98072   112.19898   381.10141
   211  N   5.0   -0.19    3.18    1.95   134.80117   111.21790   379.59719
   212  H   1.0    0.12    1.04    1.43   126.20575   108.51581   375.40055
   213  H   1.0    0.06    1.04    1.43   129.47547   112.64815   375.21729
   214  H   1.0    0.06    1.04    1.43   130.79742   107.05971   374.60472
   215  H   1.0    0.05    1.04    1.43   133.08867   109.50853   374.73815
   216  H   1.0    0.07    1.03    1.43   129.35138   108.26279   378.96503
   217  H   1.0    0.04    1.03    1.43   132.47924   107.02337   378.74209
   218  H   1.0    0.08    1.03    1.43   135.76881   110.46044   378.13868
   219  H   1.0    0.09    1.03    1.43   135.45082   112.91470   380.19977
   220  N   5.0   -0.18    3.30    1.98   132.88533   118.99636   383.29645
   221  C   4.0    0.03    4.22    4.04   133.57896   118.02624   385.75186
   222  C   4.0    0.15    3.57    3.15   131.07334   116.84364   386.60764
   223  O   6.0   -0.28    1.34    1.80   129.02682   117.94376   386.28380
   224  C   4.0    0.03    4.04    3.69   134.71151   120.25615   387.42048
   225  O   6.0   -0.25    2.01    1.83   135.09833   122.68133   386.25042
   226  H   1.0    0.10    1.04    1.43   131.50689   120.31986   383.43692
   227  H   1.0    0.04    1.05    1.44   135.03716   116.59269   385.47427
   228  H   1.0    0.06    1.00    1.43   133.48017   120.50018   389.07844
   229  H   1.0    0.05    1.01    1.43   136.57453   119.68984   388.09543
   230  H   1.0    0.12    1.01    1.43   133.50617   123.57618   386.15309
   231  N   5.0   -0.10    3.69    2.25   130.98132   114.49583   387.41914
   232  C   4.0    0.04    4.64    4.71   128.48539   113.49529   387.87057
   233  C   4.0    0.15    3.43    3.09   127.01933   114.89331   389.91784
   234  O   6.0   -0.29    1.24    1.80   124.72009   115.06648   389.61801
   235  C   4.0   -0.05    4.29    4.17   128.78689   110.67407   388.38756
   236  C   4.0   -0.05    4.25    4.09   131.60670   110.16804   388.05900
   237  C   4.0   -0.01    4.32    4.24   132.96479   112.73830   387.91384
   238  H   1.0    0.07    1.07    1.44   127.35029   113.83938   386.17180
   239  H   1.0    0.04    1.03    1.43   128.14181   110.23231   390.29087
   240  H   1.0    0.04    1.02    1.43   127.65817   109.60629   387.04638
   241  H   1.0    0.04    1.03    1.43   132.35375   109.08091   389.62828
   242  H   1.0    0.04    1.03    1.43   131.92036   109.16424   386.29111
   243  H   1.0    0.05    1.02    1.43   133.91708   113.25612   389.68137
   244  H   1.0    0.04    1.02    1.43   134.34482   112.78177   386.38157
   245  N   5.0   -0.15    3.33    1.99   128.14747   115.76779   392.14382
   246  C   4.0    0.04    4.25    4.10   126.79200   117.58998   393.70461
   247  C   4.0    0.10    3.28    3.05   125.21505   119.69406   392.43920
   248  O   6.0   -0.31    1.16    1.80   123.37500   120.60249   393.52741
   249  C   4.0    0.04    4.18    3.95   128.62035   119.20703   395.31381
   250  O   6.0   -0.23    2.05    1.83   129.89289   121.13222   393.93457
   251  H   1.0    0.09    1.07    1.44   130.02233   116.15621   392.03200
   252  H   1.0    0.05    1.05    1.44   125.48313   116.55603   394.93827
   253  H   1.0    0.04    1.01    1.43   127.50061   120.04062   396.84633
   254  H   1.0    0.07    1.04    1.43   130.13118   118.04201   396.12628
   255  H   1.0    0.12    1.01    1.43   129.04869   122.75316   394.05358
   256  N   5.0   -0.21    3.21    1.96   118.08937   120.19929   392.38183
   257  C   4.0    0.03    4.24    4.07   116.52359   120.85328   394.52682
   258  C   4.0    0.08    3.25    3.04   115.49865   123.52157   394.32741
   259  O   6.0   -0.29    1.13    1.80   113.51279   124.07928   395.33507
   260  C   4.0   -0.02    4.35    4.29   118.03787   120.85574   396.99813
   261  C   4.0   -0.01    3.52    3.12   119.10551   118.33252   397.78708
   262  C   4.0   -0.05    3.45    3.10   117.83192   116.02984   397.61606
   263  C   4.0   -0.03    3.49    3.11   121.52582   118.31273   398.76673
   264  C   4.0   -0.05    3.43    3.09   118.96560   113.78924   398.37822
   265  C   4.0   -0.05    3.43    3.09   122.70655   116.10870   399.52022
   266  C   4.0    0.07    3.44    3.09   121.43985   113.82198   399.32158
   267  O   6.0   -0.26    2.13    1.84   122.56432   111.65347   400.02776
   268  H   1.0    0.12    1.06    1.44   119.96223   120.54142   392.51827
   269  H   1.0    0.05    1.05    1.44   114.93050   119.53501   394.59270
   270  H   1.0    0.06    1.03    1.43   119.58608   122.21250   396.77497
   271  H   1.0    0.06    1.03    1.43   116.78919   121.58745   398.48230
   272  H   1.0    0.05    1.03    1.43   115.92376   115.99326   396.89887
   273  H   1.0    0.06    1.03    1.43   122.52578   120.09769   398.90874
   274  H   1.0    0.05    1.03    1.43   117.97739   112.01792   398.22337
   275  H   1.0    0.05    1.03    1.43   124.60423   116.19828   400.26258
   276  H   1.0    0.14    1.07    1.44   124.05195   111.98893   401.08218
   277  O   6.0   -0.33    1.97    1.82   126.49032   112.22997   403.56102
   278  H   1.0    0.14    0.99    1.43   128.26683   111.77775   403.54186
   279  H   1.0    0.15    1.00    1.43   126.12926   113.01728   405.17294
   280  N   5.0   -0.18    3.26    1.97   137.72081   129.54660   393.08315
   281  C   4.0    0.04    4.20    3.99   138.13675   126.81159   393.01209
   282  C   4.0    0.08    3.23    3.04   140.30993   126.42770   391.19165
   283  O   6.0   -0.28    1.16    1.80   140.21645   127.65596   389.20762
   284  C   4.0    0.04    4.11    3.82   135.72913   125.47715   392.03599
   285  O   6.0   -0.25    2.02    1.83   133.63246   126.09754   393.64861
   286  H   1.0    0.09    1.03    1.43   136.07977   130.12382   392.31329
   287  H   1.0    0.04    1.04    1.43   138.54751   126.15619   394.93829
   288  H   1.0    0.06    1.01    1.43   135.33559   126.11073   390.09707
   289  H   1.0    0.05    1.00    1.43   136.01267   123.41981   392.02727
   290  H   1.0    0.12    1.01    1.43   132.01984   125.69549   392.88229
   291  N   5.0   -0.21    3.20    1.96   127.28010   102.02438   415.60538
   292  C   4.0    0.03    4.30    4.20   129.58118   103.51259   415.77175
   293  C   4.0    0.07    3.26    3.05   128.80041   106.18194   416.60057
   294  O   6.0   -0.30    1.13    1.80   127.77510   107.64350   415.10043
   295  C   4.0   -0.02    4.26    4.12   131.18565   103.85327   413.37069
   296  C   4.0   -0.08    4.10    3.81   133.69125   105.10829   414.15004
   297  C   4.0   -0.08    4.08    3.76   131.44714   101.40588   411.86126
   298  H   1.0    0.09    1.02    1.43   125.98348   102.52977   414.30515
   299  H   1.0    0.03    1.05    1.44   130.70782   102.60180   417.24941
   300  H   1.0    0.05    1.07    1.44   130.16833   105.19890   412.16640
   301  H   1.0    0.04    1.00    1.43   134.83382   105.51808   412.49215
   302  H   1.0    0.04    1.00    1.43   133.31866   106.87245   415.13577
   303  H   1.0    0.04    1.00    1.43   134.76380   103.87699   415.39572
   304  H   1.0    0.04    1.00    1.43   132.51764   101.77443   410.14898
   305  H   1.0    0.03    1.00    1.43   132.41898    99.98032   412.97492
   306  H   1.0    0.04    1.00    1.43   129.57854   100.72226   411.36894
   307  N   5.0   -0.20    3.20    1.96   130.20680   112.06970   411.85613
   308  C   4.0    0.04    4.23    4.05   128.83238   111.77224   409.50211
   309  C   4.0    0.08    3.23    3.04   126.07253   112.45058   410.03264
   310  O   6.0   -0.33    1.17    1.80   124.87353   113.77980   408.53709
   311  C   4.0   -0.05    4.23    4.05   128.95520   109.13034   408.31743
   312  C   4.0   -0.04    4.16    3.93   131.58943   108.35262   407.41810
   313  C   4.0    0.24    3.13    3.03   132.97234   110.40543   405.85570
   314  O   6.0   -0.33    1.40    1.80   132.01283   111.04491   403.72559
   315  O   6.0   -0.29    1.17    1.80   134.91245   111.27599   406.83342
   316  H   1.0    0.09    1.02    1.43   131.10072   110.55081   412.58240
   317  H   1.0    0.05    1.05    1.44   129.56693   113.16563   408.14665
   318  H   1.0    0.05    1.03    1.43   128.26248   107.75846   409.69451
   319  H   1.0    0.05    1.03    1.43   127.66559   109.12008   406.71226
   320  H   1.0    0.05    1.03    1.43   132.83415   107.97630   409.01553
   321  H   1.0    0.04    1.03    1.43   131.43003   106.65393   406.28090
   322  N   5.0   -0.20    3.23    1.96   125.68806   119.59692   410.38236
   323  C   4.0    0.03    4.28    4.15   126.01150   120.70573   407.85143
   324  C   4.0    0.15    3.44    3.09   123.47296   120.67616   406.37935
   325  O   6.0   -0.29    1.23    1.80   122.68433   122.39228   405.02617
   326  C   4.0   -0.05    4.29    4.17   128.02905   119.17955   406.45425
   327  C   4.0   -0.05    4.15    3.91   128.91764   120.16439   403.90862
   328  C   4.0   -0.05    4.19    3.99   130.28827   118.08743   402.41469
   329  C   4.0   -0.02    4.15    3.89   132.82195   117.40367   403.56436
   330  N   5.0   -0.11    4.06    3.02   133.89775   115.25743   402.17860
   331  H   1.0    0.09    1.03    1.43   126.77375   118.08239   410.82032
   332  H   1.0    0.04    1.04    1.44   126.59249   122.68827   408.01479
   333  H   1.0    0.04    1.03    1.43   129.65310   119.02921   407.71862
   334  H   1.0    0.05    1.04    1.43   127.26765   117.27512   406.19389
   335  H   1.0    0.05    1.03    1.43   127.29291   120.80493   402.80723
   336  H   1.0    0.04    1.03    1.43   130.18587   121.76939   404.15467
   337  H   1.0    0.05    1.03    1.43   129.10724   116.39819   402.32323
   338  H   1.0    0.05    1.03    1.43   130.63895   118.72899   400.48999
   339  H   1.0    0.05    1.02    1.43   134.10673   119.01740   403.46732
   340  H   1.0    0.05    1.02    1.43   132.64714   116.85526   405.54837
   341  H   1.0    0.10    1.05    1.44   135.78077   115.06423   402.62410
   342  H   1.0    0.12    1.17    1.46   133.03822   113.43974   402.70107
   343  H   1.0    0.10    1.09    1.44   133.78979   115.68789   400.23697
   344  N   5.0   -0.15    3.54    2.11   122.16129   118.56994   406.79686
   345  C   4.0    0.04    4.42    4.42   119.74800   118.31680   405.60360
   346  C   4.0    0.10    3.36    3.07   118.07110   120.35729   406.67067
   347  O   6.0   -0.28    1.13    1.80   116.75878   121.64952   405.30989
   348  C   4.0   -0.04    4.35    4.30   118.76439   115.64880   405.96977
   349  C   4.0   -0.01    3.61    3.17   115.99133   115.55816   405.58273
   350  C   4.0   -0.04    3.52    3.12   114.95134   114.59403   403.42259
   351  C   4.0   -0.03    3.53    3.13   114.32411   116.35015   407.41139
   352  C   4.0   -0.04    3.41    3.08   112.36123   114.26770   403.13471
   353  C   4.0   -0.03    3.43    3.09   111.74595   116.05141   407.10220
   354  C   4.0   -0.04    3.35    3.06   110.69100   114.94674   404.98288
   355  H   1.0    0.10    1.09    1.44   122.92466   117.08352   407.72902
   356  H   1.0    0.06    1.06    1.44   119.92735   118.74247   403.57176
   357  H   1.0    0.05    1.03    1.43   119.75989   114.42370   404.64624
   358  H   1.0    0.05    1.04    1.43   119.22292   115.07314   407.90152
   359  H   1.0    0.05    1.05    1.44   116.18541   113.99446   401.91228
   360  H   1.0    0.05    1.03    1.43   115.01341   117.10846   409.17437
   361  H   1.0    0.05    1.03    1.43   111.70111   113.41880   401.39779
   362  H   1.0    0.05    1.03    1.43   110.51570   116.70738   408.59768
   363  H   1.0    0.05    1.03    1.43   108.68425   114.64993   404.82713
   364  N   5.0   -0.21    3.08    1.93   142.29447   119.59307   401.34373
   365  C   4.0    0.01    4.04    3.69   142.15317   117.15036   400.10216
   366  C   4.0    0.24    3.03    3.02   140.32910   115.10395   401.49923
   367  O   6.0   -0.29    1.16    1.80   139.54812   115.54547   403.69538
   368  O   6.0   -0.29    1.15    1.80   139.81903   113.21981   400.17271
   369  H   1.0    0.09    1.02    1.43   140.81683   120.76026   401.01498
   370  H   1.0    0.05    1.02    1.43   141.46779   117.37405   398.18025
   371  H   1.0    0.05    1.02    1.43   144.02119   116.28184   400.10417
   372  H   1.0    0.07    1.05    1.44   113.24240   100.39363   399.85072
   373  H   1.0    0.09    1.07    1.44   119.24181    97.07593   386.18668
   374  H   1.0    0.05    1.04    1.44   120.64980    95.37136   380.11322
   375  H   1.0    0.09    1.07    1.44   118.24048   103.95864   380.08560
   376  H   1.0    0.05    1.04    1.43   124.43105   102.76736   372.60645
   377  H   1.0    0.10    1.07    1.44   125.69105   111.21520   374.56332
   378  H   1.0    0.06    1.05    1.44   129.87158   109.71006   370.30607
   379  H   1.0    0.10    1.08    1.44   134.24494   119.70652   382.56181
   380  H   1.0    0.07    1.04    1.43   125.68834   120.32681   390.72261
   381  H   1.0    0.10    1.07    1.44   117.96011   118.53201   392.07193
   382  H   1.0    0.06    1.05    1.44   116.45839   124.83276   393.36265
   383  H   1.0    0.09    1.07    1.44   137.71795   130.07863   394.69854
   384  H   1.0    0.05    1.04    1.43   141.70914   125.23509   391.62864
   385  H   1.0    0.08    1.07    1.44   127.67264   100.41148   415.23525
   386  H   1.0    0.05    1.04    1.43   129.12157   106.75272   418.37318
   387  H   1.0    0.10    1.07    1.44   131.42628   113.23849   411.65773
   388  H   1.0    0.06    1.04    1.44   125.22805   111.81624   411.59965
   389  H   1.0    0.09    1.07    1.44   126.04432   120.76670   411.56442
   390  H   1.0    0.05    1.05    1.44   118.02714   120.66549   408.53457
   391  H   1.0    0.11    1.07    1.44   142.36906   119.37028   403.02818

  Z AO/shell   Hii/eV     exponent
  1     Wed Apr 25 08:07:45 CEST 2018   EN: 2.200 GM2: 0.406  GM3: 0.0800  RAES: 1.40
     1s    -10.707211    1.230000
  6     Wed Apr 25 08:07:45 CEST 2018   EN: 2.550 GM2: 0.538  GM3: 0.1500  RAES: 3.00
     2s    -13.970922    2.096432
     2p    -10.063292    1.800000
  7     Wed Apr 25 08:07:45 CEST 2018   EN: 3.040 GM2: 0.461  GM3:-0.0640  RAES: 1.90
     2s    -16.686243    2.339881
     2p    -12.523956    2.014332
  8     Wed Apr 25 08:07:45 CEST 2018   EN: 3.440 GM2: 0.452  GM3:-0.0517  RAES: 1.80
     2s    -20.229985    2.439742
     2p    -15.503117    2.137023
 no old-style atom pair restraining (fixing) potential

molecular fragmentation (1/2 indicates fragments):
111111111111111111111111111111111111111111111111111111111111111111111111
111111111111111111111111111111111111111111111111111111111111111111111111
111111111111111111111222222222222222222222222222222222222222222222222222
222222222222222222222222222222222222222222222222222222222222222222222222
222222222222222222222222222222222222222222222222222222222222222222222222
2222222222212222222222222222222
# atoms in fragment 1/2:   166   225
 fragment masses (1/2) :     1118.33     1520.76
CMA distance (Bohr)    :  11.001
constraining FC (au)   :  0.0500
           ------------------------------------------------- 
          |        Self-Consistent Charge Iterations        |
           ------------------------------------------------- 

 Ncao       : 946
 Nao        : 946
 Nshell     : 576
 Nel        : 1052
 T(el)      :   500.0
 intcut     :    35.0
 scfconv/Eh :  0.100E-06
   qconv/e  :  0.100E-04
 intneglect :  0.100E-08
 broydamp   :      0.400
 iter      E             dE          RMSdq      gap      omega  full diag
   1   -603.1548122 -0.603155E+03  0.472E+00    3.16       0.0  T
   2   -604.6242329 -0.146942E+01  0.223E+00    1.84       1.0  T
   3   -604.7153325 -0.910996E-01  0.128E+00    1.74       1.0  T
   4   -604.8289410 -0.113609E+00  0.258E-01    1.00       1.0  T
   5   -604.8351551 -0.621412E-02  0.122E-01    1.15       1.0  T
   6   -604.8363218 -0.116661E-02  0.533E-02    1.16       1.0  T
   7   -604.8366448 -0.323045E-03  0.225E-02    1.16       1.0  T
   8   -604.8366830 -0.382168E-04  0.100E-02    1.17       1.0  T
   9   -604.8366928 -0.976919E-05  0.474E-03    1.17       1.1  T
  10   -604.8366949 -0.210869E-05  0.220E-03    1.18       2.3  T
  11   -604.8366952 -0.331313E-06  0.101E-03    1.18       5.0  T
  12   -604.8366953 -0.102117E-06  0.490E-04    1.18      10.3  T
  13   -604.8366954 -0.267964E-07  0.237E-04    1.18      21.4  T
  14   -604.8366954 -0.461853E-08  0.112E-04    1.18      45.1  T
  15   -604.8366954 -0.132786E-08  0.503E-05    1.18     100.5  T
  16   -604.8366954 -0.228056E-09  0.224E-05    1.18     225.4  T
speedup  2.00
cpu  time for SCC   18.20 s
wall time for SCC    9.12 s

   *** convergence criteria satisfied after 16 iterations ***

          eigenvalues
 #    :         514        515        516        517        518        519        520        521
 occ. :        2.000      2.000      2.000      2.000      2.000      2.000      2.000      2.000
 eps  :       -10.285    -10.264    -10.249    -10.233    -10.167    -10.138    -10.126    -10.094
 #    :         522        523        524        525        526        527        528        529
 occ. :        2.000      2.000      2.000      2.000      2.000      0.000      0.000      0.000
 eps  :        -9.874     -9.823     -9.777     -9.554     -9.404     -8.228     -8.206     -8.041
 #    :         530        531        532        533        534        535        536        537
 occ. :        0.000      0.000      0.000      0.000      0.000      0.000      0.000      0.000
 eps  :        -7.982     -7.818     -7.797     -7.633     -7.543     -7.506     -7.442     -7.264


   #   Z            q   n(s)   n(p)   n(d)      C6AA      α(0)
   1   7 N     -0.143  1.226  3.917  0.000    24.076     7.288
   2   6 C     -0.038  1.088  2.950  0.000    21.285     6.575
   3   6 C      0.267  1.039  2.695  0.000    22.499     7.767
   4   8 O     -0.434  1.750  4.684  0.000    22.369     6.341
   5   6 C      0.042  1.050  2.908  0.000    20.117     6.432
   6   8 O     -0.465  1.720  4.745  0.000    22.153     6.354
   7   1 H      0.324  0.676  0.000  0.000     0.646     1.259
   8   1 H      0.305  0.695  0.000  0.000     0.700     1.310
   9   1 H      0.309  0.691  0.000  0.000     0.688     1.299
  10   1 H      0.140  0.860  0.000  0.000     1.458     1.888
  11   1 H      0.081  0.919  0.000  0.000     1.971     2.196
  12   1 H      0.108  0.892  0.000  0.000     1.712     2.046
  13   1 H      0.349  0.651  0.000  0.000     0.590     1.206
  14   7 N     -0.187  1.251  3.936  0.000    25.052     7.434
  15   6 C      0.018  1.071  2.911  0.000    20.277     6.412
  16   6 C      0.271  1.053  2.676  0.000    22.420     7.753
  17   8 O     -0.469  1.739  4.730  0.000    23.113     6.446
  18   6 C     -0.059  1.050  3.009  0.000    21.627     6.621
  19   6 C     -0.101  1.068  3.033  0.000    22.430     6.744
  20   6 C      0.365  1.029  2.606  0.000    20.811     7.465
  21   8 O     -0.607  1.766  4.841  0.000    26.304     6.876
  22   8 O     -0.616  1.768  4.847  0.000    26.505     6.903
  23   1 H      0.232  0.768  0.000  0.000     0.959     1.534
  24   1 H      0.079  0.921  0.000  0.000     1.992     2.207
  25   1 H      0.050  0.950  0.000  0.000     2.316     2.380
  26   1 H      0.055  0.945  0.000  0.000     2.262     2.352
  27   1 H      0.035  0.965  0.000  0.000     2.521     2.483
  28   1 H      0.023  0.977  0.000  0.000     2.693     2.566
  29   7 N     -0.181  1.252  3.929  0.000    24.926     7.415
  30   6 C      0.008  1.077  2.915  0.000    20.470     6.446
  31   6 C      0.278  1.041  2.681  0.000    22.304     7.734
  32   8 O     -0.500  1.755  4.745  0.000    23.787     6.539
  33   6 C     -0.094  1.068  3.026  0.000    22.299     6.723
  34   6 C      0.005  1.083  2.911  0.000    27.901     8.664
  35   6 C     -0.031  1.081  2.950  0.000    28.763     8.795
  36   6 C     -0.043  1.083  2.960  0.000    29.064     8.841
  37   6 C     -0.028  1.081  2.946  0.000    28.695     8.784
  38   6 C     -0.030  1.079  2.951  0.000    28.742     8.791
  39   6 C     -0.034  1.081  2.953  0.000    28.858     8.809
  40   1 H      0.220  0.780  0.000  0.000     1.011     1.575
  41   1 H      0.070  0.930  0.000  0.000     2.086     2.259
  42   1 H      0.084  0.916  0.000  0.000     1.935     2.175
  43   1 H      0.080  0.920  0.000  0.000     1.977     2.199
  44   1 H      0.028  0.972  0.000  0.000     2.616     2.529
  45   1 H      0.044  0.956  0.000  0.000     2.391     2.418
  46   1 H      0.035  0.965  0.000  0.000     2.514     2.480
  47   1 H      0.035  0.965  0.000  0.000     2.511     2.478
  48   1 H      0.042  0.958  0.000  0.000     2.428     2.437
  49   7 N     -0.187  1.254  3.933  0.000    25.049     7.433
  50   6 C      0.040  1.052  2.908  0.000    19.877     6.344
  51   6 C      0.275  1.047  2.679  0.000    22.354     7.742
  52   8 O     -0.485  1.745  4.740  0.000    23.453     6.493
  53   6 C     -0.069  1.053  3.016  0.000    21.813     6.648
  54   6 C     -0.101  1.068  3.033  0.000    22.423     6.741
  55   6 C      0.362  1.032  2.606  0.000    20.855     7.473
  56   8 O     -0.632  1.779  4.853  0.000    26.926     6.957
  57   8 O     -0.658  1.788  4.870  0.000    27.584     7.041
  58   1 H      0.237  0.763  0.000  0.000     0.936     1.515
  59   1 H      0.067  0.933  0.000  0.000     2.123     2.278
  60   1 H      0.074  0.926  0.000  0.000     2.044     2.236
  61   1 H      0.067  0.933  0.000  0.000     2.124     2.279
  62   1 H      0.026  0.974  0.000  0.000     2.639     2.541
  63   1 H      0.036  0.964  0.000  0.000     2.506     2.476
  64   7 N     -0.197  1.251  3.946  0.000    25.278     7.467
  65   6 C      0.022  1.059  2.919  0.000    20.209     6.402
  66   6 C      0.266  1.046  2.688  0.000    22.512     7.770
  67   8 O     -0.488  1.736  4.753  0.000    23.524     6.503
  68   6 C     -0.124  1.041  3.083  0.000    22.928     6.825
  69   1 H      0.214  0.786  0.000  0.000     1.036     1.595
  70   1 H      0.086  0.914  0.000  0.000     1.917     2.165
  71   1 H      0.062  0.938  0.000  0.000     2.175     2.306
  72   1 H      0.081  0.919  0.000  0.000     1.971     2.196
  73   1 H      0.057  0.943  0.000  0.000     2.236     2.338
  74   7 N     -0.185  1.248  3.937  0.000    25.011     7.428
  75   6 C      0.019  1.066  2.915  0.000    20.260     6.408
  76   6 C      0.276  1.047  2.677  0.000    22.326     7.738
  77   8 O     -0.482  1.741  4.741  0.000    23.392     6.484
  78   6 C     -0.008  1.054  2.955  0.000    20.692     6.470
  79   6 C     -0.112  1.036  3.076  0.000    22.686     6.789
  80   6 C     -0.120  1.039  3.082  0.000    22.850     6.814
  81   1 H      0.217  0.783  0.000  0.000     1.024     1.585
  82   1 H      0.087  0.913  0.000  0.000     1.912     2.163
  83   1 H      0.036  0.964  0.000  0.000     2.508     2.476
  84   1 H      0.044  0.956  0.000  0.000     2.397     2.421
  85   1 H      0.042  0.958  0.000  0.000     2.420     2.433
  86   1 H      0.055  0.945  0.000  0.000     2.254     2.348
  87   1 H      0.037  0.963  0.000  0.000     2.486     2.466
  88   1 H      0.058  0.942  0.000  0.000     2.219     2.330
  89   1 H      0.040  0.960  0.000  0.000     2.444     2.445
  90   7 N     -0.190  1.252  3.938  0.000    25.129     7.445
  91   6 C      0.026  1.069  2.906  0.000    20.143     6.390
  92   6 C      0.282  1.043  2.675  0.000    22.226     7.720
  93   8 O     -0.491  1.752  4.739  0.000    23.580     6.510
  94   6 C     -0.016  1.061  2.954  0.000    20.817     6.489
  95   6 C     -0.060  1.049  3.010  0.000    21.645     6.623
  96   6 C     -0.114  1.038  3.076  0.000    22.734     6.798
  97   6 C     -0.096  1.032  3.063  0.000    22.384     6.747
  98   1 H      0.210  0.790  0.000  0.000     1.059     1.612
  99   1 H      0.058  0.942  0.000  0.000     2.221     2.331
 100   1 H      0.045  0.955  0.000  0.000     2.379     2.412
 101   1 H      0.031  0.969  0.000  0.000     2.573     2.508
 102   1 H      0.050  0.950  0.000  0.000     2.323     2.383
 103   1 H      0.057  0.943  0.000  0.000     2.230     2.335
 104   1 H      0.041  0.959  0.000  0.000     2.430     2.438
 105   1 H      0.047  0.953  0.000  0.000     2.352     2.398
 106   1 H      0.043  0.957  0.000  0.000     2.413     2.429
 107   1 H      0.026  0.974  0.000  0.000     2.646     2.544
 108   1 H      0.035  0.965  0.000  0.000     2.511     2.478
 109   7 N     -0.185  1.250  3.935  0.000    25.009     7.427
 110   6 C      0.017  1.075  2.908  0.000    20.311     6.420
 111   6 C      0.277  1.048  2.675  0.000    22.311     7.735
 112   8 O     -0.500  1.759  4.741  0.000    23.773     6.537
 113   6 C     -0.080  1.061  3.018  0.000    22.029     6.683
 114   6 C     -0.080  1.062  3.018  0.000    22.046     6.688
 115   6 C     -0.092  1.063  3.030  0.000    22.276     6.722
 116   6 C     -0.056  1.079  2.977  0.000    21.699     6.655
 117   7 N     -0.148  1.234  3.915  0.000    24.201     7.306
 118   1 H      0.201  0.799  0.000  0.000     1.101     1.644
 119   1 H      0.075  0.925  0.000  0.000     2.035     2.231
 120   1 H      0.070  0.930  0.000  0.000     2.085     2.258
 121   1 H      0.058  0.942  0.000  0.000     2.221     2.331
 122   1 H      0.056  0.944  0.000  0.000     2.247     2.344
 123   1 H      0.067  0.933  0.000  0.000     2.118     2.276
 124   1 H      0.078  0.922  0.000  0.000     2.003     2.213
 125   1 H      0.096  0.904  0.000  0.000     1.819     2.109
 126   1 H      0.135  0.865  0.000  0.000     1.496     1.913
 127   1 H      0.126  0.874  0.000  0.000     1.566     1.957
 128   1 H      0.305  0.695  0.000  0.000     0.698     1.308
 129   1 H      0.282  0.718  0.000  0.000     0.771     1.376
 130   1 H      0.288  0.712  0.000  0.000     0.751     1.358
 131   7 N     -0.188  1.253  3.935  0.000    25.071     7.437
 132   6 C      0.033  1.055  2.912  0.000    20.000     6.364
 133   6 C      0.286  1.043  2.672  0.000    22.162     7.709
 134   8 O     -0.509  1.757  4.752  0.000    23.980     6.565
 135   6 C     -0.016  1.056  2.960  0.000    20.817     6.488
 136   6 C     -0.115  1.039  3.076  0.000    22.752     6.800
 137   6 C     -0.125  1.041  3.084  0.000    22.948     6.829
 138   1 H      0.226  0.774  0.000  0.000     0.983     1.553
 139   1 H      0.061  0.939  0.000  0.000     2.190     2.314
 140   1 H      0.045  0.955  0.000  0.000     2.382     2.414
 141   1 H      0.057  0.943  0.000  0.000     2.233     2.337
 142   1 H      0.031  0.969  0.000  0.000     2.574     2.509
 143   1 H      0.047  0.953  0.000  0.000     2.360     2.402
 144   1 H      0.055  0.945  0.000  0.000     2.258     2.350
 145   1 H      0.048  0.952  0.000  0.000     2.351     2.398
 146   1 H      0.056  0.944  0.000  0.000     2.251     2.346
 147   7 N     -0.193  1.257  3.936  0.000    25.182     7.453
 148   6 C      0.035  1.062  2.904  0.000    19.989     6.365
 149   6 C      0.214  1.086  2.701  0.000    23.478     7.935
 150   8 O     -0.377  1.756  4.622  0.000    21.230     6.178
 151   6 C     -0.015  1.062  2.953  0.000    20.802     6.485
 152   6 C     -0.060  1.049  3.011  0.000    21.644     6.621
 153   6 C     -0.119  1.038  3.081  0.000    22.844     6.815
 154   6 C     -0.111  1.038  3.073  0.000    22.668     6.786
 155   1 H      0.227  0.773  0.000  0.000     0.979     1.550
 156   1 H      0.074  0.926  0.000  0.000     2.044     2.236
 157   1 H      0.056  0.944  0.000  0.000     2.249     2.345
 158   1 H      0.044  0.956  0.000  0.000     2.399     2.422
 159   1 H      0.041  0.959  0.000  0.000     2.433     2.439
 160   1 H      0.067  0.933  0.000  0.000     2.119     2.276
 161   1 H      0.037  0.963  0.000  0.000     2.486     2.466
 162   1 H      0.054  0.946  0.000  0.000     2.267     2.355
 163   1 H      0.039  0.961  0.000  0.000     2.459     2.452
 164   1 H      0.035  0.965  0.000  0.000     2.519     2.482
 165   1 H      0.055  0.945  0.000  0.000     2.262     2.352
 166   7 N     -0.379  1.303  4.075  0.000    29.788     8.106
 167   6 C     -0.004  1.042  2.962  0.000    20.740     6.500
 168   6 C      0.197  1.095  2.708  0.000    23.798     7.989
 169   8 O     -0.367  1.743  4.624  0.000    21.042     6.150
 170   1 H      0.170  0.830  0.000  0.000     1.276     1.769
 171   1 H      0.057  0.943  0.000  0.000     2.229     2.335
 172   1 H      0.083  0.917  0.000  0.000     1.946     2.182
 173   7 N     -0.394  1.312  4.082  0.000    30.210     8.163
 174   6 C      0.032  1.053  2.915  0.000    20.052     6.377
 175   6 C      0.267  1.050  2.683  0.000    22.488     7.766
 176   8 O     -0.515  1.751  4.764  0.000    24.125     6.585
 177   6 C     -0.065  1.056  3.009  0.000    21.727     6.633
 178   6 C     -0.009  1.052  2.956  0.000    20.692     6.470
 179   6 C     -0.113  1.041  3.072  0.000    22.700     6.791
 180   6 C     -0.107  1.038  3.070  0.000    22.602     6.778
 181   1 H      0.159  0.841  0.000  0.000     1.343     1.815
 182   1 H      0.041  0.959  0.000  0.000     2.440     2.443
 183   1 H      0.048  0.952  0.000  0.000     2.347     2.396
 184   1 H      0.039  0.961  0.000  0.000     2.467     2.456
 185   1 H      0.036  0.964  0.000  0.000     2.500     2.473
 186   1 H      0.035  0.965  0.000  0.000     2.516     2.481
 187   1 H      0.040  0.960  0.000  0.000     2.453     2.449
 188   1 H      0.036  0.964  0.000  0.000     2.501     2.473
 189   1 H      0.038  0.962  0.000  0.000     2.477     2.461
 190   1 H      0.033  0.967  0.000  0.000     2.540     2.492
 191   1 H      0.032  0.968  0.000  0.000     2.552     2.498
 192   7 N     -0.188  1.255  3.933  0.000    25.072     7.437
 193   6 C      0.026  1.063  2.911  0.000    20.142     6.392
 194   6 C      0.196  1.092  2.712  0.000    23.823     7.993
 195   8 O     -0.339  1.761  4.578  0.000    20.507     6.071
 196   6 C      0.072  1.041  2.887  0.000    19.594     6.342
 197   8 O     -0.485  1.727  4.758  0.000    22.565     6.413
 198   1 H      0.251  0.749  0.000  0.000     0.881     1.470
 199   1 H      0.084  0.916  0.000  0.000     1.936     2.176
 200   1 H      0.064  0.936  0.000  0.000     2.154     2.295
 201   1 H      0.051  0.949  0.000  0.000     2.311     2.377
 202   1 H      0.355  0.645  0.000  0.000     0.577     1.193
 203   7 N     -0.381  1.309  4.071  0.000    29.835     8.112
 204   6 C      0.049  1.051  2.900  0.000    19.771     6.334
 205   6 C      0.204  1.093  2.703  0.000    23.669     7.969
 206   8 O     -0.391  1.754  4.637  0.000    21.505     6.217
 207   6 C     -0.070  1.056  3.014  0.000    21.831     6.651
 208   6 C     -0.099  1.057  3.042  0.000    22.378     6.735
 209   6 C      0.290  1.039  2.671  0.000    22.075     7.693
 210   8 O     -0.496  1.759  4.737  0.000    23.703     6.527
 211   7 N     -0.295  1.289  4.006  0.000    27.606     7.803
 212   1 H      0.174  0.826  0.000  0.000     1.250     1.751
 213   1 H      0.028  0.972  0.000  0.000     2.615     2.529
 214   1 H      0.089  0.911  0.000  0.000     1.891     2.151
 215   1 H      0.045  0.955  0.000  0.000     2.382     2.413
 216   1 H      0.072  0.928  0.000  0.000     2.069     2.249
 217   1 H      0.080  0.920  0.000  0.000     1.983     2.202
 218   1 H      0.224  0.776  0.000  0.000     0.991     1.559
 219   1 H      0.212  0.788  0.000  0.000     1.046     1.602
 220   7 N     -0.377  1.323  4.054  0.000    29.749     8.101
 221   6 C      0.023  1.068  2.908  0.000    20.212     6.406
 222   6 C      0.260  1.050  2.690  0.000    22.619     7.792
 223   8 O     -0.531  1.760  4.771  0.000    24.479     6.634
 224   6 C      0.069  1.046  2.885  0.000    19.684     6.365
 225   8 O     -0.470  1.729  4.740  0.000    22.249     6.367
 226   1 H      0.162  0.838  0.000  0.000     1.325     1.803
 227   1 H      0.048  0.952  0.000  0.000     2.346     2.395
 228   1 H      0.014  0.986  0.000  0.000     2.824     2.628
 229   1 H      0.049  0.951  0.000  0.000     2.332     2.388
 230   1 H      0.322  0.678  0.000  0.000     0.658     1.274
 231   7 N     -0.073  1.224  3.849  0.000    22.646     7.068
 232   6 C      0.033  1.059  2.908  0.000    19.985     6.359
 233   6 C      0.280  1.059  2.661  0.000    22.265     7.727
 234   8 O     -0.463  1.752  4.711  0.000    22.971     6.426
 235   6 C     -0.067  1.050  3.018  0.000    21.778     6.642
 236   6 C     -0.075  1.053  3.022  0.000    21.920     6.662
 237   6 C     -0.014  1.051  2.963  0.000    20.873     6.514
 238   1 H      0.087  0.913  0.000  0.000     1.911     2.162
 239   1 H      0.054  0.946  0.000  0.000     2.270     2.356
 240   1 H      0.076  0.924  0.000  0.000     2.024     2.225
 241   1 H      0.069  0.931  0.000  0.000     2.092     2.262
 242   1 H      0.081  0.919  0.000  0.000     1.973     2.196
 243   1 H      0.059  0.941  0.000  0.000     2.211     2.326
 244   1 H      0.077  0.923  0.000  0.000     2.008     2.216
 245   7 N     -0.199  1.286  3.913  0.000    25.317     7.473
 246   6 C      0.026  1.060  2.914  0.000    20.152     6.394
 247   6 C      0.208  1.083  2.708  0.000    23.585     7.955
 248   8 O     -0.356  1.746  4.610  0.000    20.822     6.118
 249   6 C      0.078  1.042  2.880  0.000    19.454     6.310
 250   8 O     -0.474  1.722  4.753  0.000    22.345     6.381
 251   1 H      0.188  0.812  0.000  0.000     1.167     1.692
 252   1 H      0.091  0.909  0.000  0.000     1.872     2.140
 253   1 H      0.049  0.951  0.000  0.000     2.335     2.390
 254   1 H      0.081  0.919  0.000  0.000     1.970     2.195
 255   1 H      0.324  0.676  0.000  0.000     0.654     1.270
 256   7 N     -0.394  1.315  4.080  0.000    30.216     8.164
 257   6 C      0.042  1.054  2.903  0.000    19.882     6.351
 258   6 C      0.204  1.087  2.709  0.000    23.672     7.969
 259   8 O     -0.381  1.749  4.632  0.000    21.312     6.189
 260   6 C     -0.064  1.056  3.008  0.000    21.707     6.630
 261   6 C      0.007  1.078  2.915  0.000    27.861     8.658
 262   6 C     -0.040  1.082  2.959  0.000    29.006     8.832
 263   6 C     -0.037  1.083  2.954  0.000    28.912     8.818
 264   6 C     -0.063  1.074  2.989  0.000    29.571     8.917
 265   6 C     -0.081  1.076  3.005  0.000    30.034     8.987
 266   6 C      0.144  1.043  2.814  0.000    24.868     8.173
 267   8 O     -0.422  1.703  4.719  0.000    21.276     6.227
 268   1 H      0.173  0.827  0.000  0.000     1.258     1.757
 269   1 H      0.065  0.935  0.000  0.000     2.139     2.287
 270   1 H      0.048  0.952  0.000  0.000     2.341     2.393
 271   1 H      0.051  0.949  0.000  0.000     2.311     2.377
 272   1 H      0.046  0.954  0.000  0.000     2.367     2.406
 273   1 H      0.022  0.978  0.000  0.000     2.702     2.571
 274   1 H      0.054  0.946  0.000  0.000     2.267     2.354
 275   1 H      0.035  0.965  0.000  0.000     2.514     2.480
 276   1 H      0.339  0.661  0.000  0.000     0.614     1.231
 277   8 O     -0.625  1.744  4.881  0.000    25.799     6.855
 278   1 H      0.309  0.691  0.000  0.000     0.694     1.309
 279   1 H      0.308  0.692  0.000  0.000     0.698     1.312
 280   7 N     -0.377  1.316  4.062  0.000    29.744     8.100
 281   6 C      0.039  1.056  2.905  0.000    19.944     6.362
 282   6 C      0.196  1.088  2.717  0.000    23.826     7.995
 283   8 O     -0.342  1.755  4.587  0.000    20.552     6.078
 284   6 C      0.085  1.043  2.873  0.000    19.398     6.313
 285   8 O     -0.475  1.717  4.758  0.000    22.366     6.384
 286   1 H      0.174  0.826  0.000  0.000     1.246     1.748
 287   1 H      0.046  0.954  0.000  0.000     2.369     2.407
 288   1 H      0.046  0.954  0.000  0.000     2.368     2.406
 289   1 H      0.023  0.977  0.000  0.000     2.684     2.562
 290   1 H      0.320  0.680  0.000  0.000     0.663     1.279
 291   7 N     -0.384  1.322  4.062  0.000    29.921     8.124
 292   6 C      0.031  1.061  2.908  0.000    20.068     6.381
 293   6 C      0.200  1.093  2.707  0.000    23.744     7.981
 294   8 O     -0.372  1.763  4.609  0.000    21.128     6.163
 295   6 C     -0.024  1.064  2.960  0.000    20.965     6.512
 296   6 C     -0.110  1.040  3.070  0.000    22.667     6.789
 297   6 C     -0.122  1.040  3.082  0.000    22.896     6.823
 298   1 H      0.158  0.842  0.000  0.000     1.350     1.820
 299   1 H      0.058  0.942  0.000  0.000     2.227     2.334
 300   1 H      0.033  0.967  0.000  0.000     2.545     2.495
 301   1 H      0.036  0.964  0.000  0.000     2.498     2.472
 302   1 H      0.018  0.982  0.000  0.000     2.771     2.603
 303   1 H      0.052  0.948  0.000  0.000     2.294     2.369
 304   1 H      0.048  0.952  0.000  0.000     2.341     2.393
 305   1 H      0.057  0.943  0.000  0.000     2.230     2.335
 306   1 H      0.054  0.946  0.000  0.000     2.267     2.355
 307   7 N     -0.372  1.301  4.071  0.000    29.605     8.081
 308   6 C      0.049  1.052  2.899  0.000    19.768     6.334
 309   6 C      0.194  1.104  2.702  0.000    23.866     8.001
 310   8 O     -0.375  1.747  4.628  0.000    21.190     6.172
 311   6 C     -0.064  1.053  3.010  0.000    21.722     6.635
 312   6 C     -0.093  1.061  3.032  0.000    22.284     6.721
 313   6 C      0.366  1.027  2.608  0.000    20.797     7.463
 314   8 O     -0.601  1.767  4.835  0.000    26.135     6.855
 315   8 O     -0.597  1.780  4.817  0.000    26.045     6.842
 316   1 H      0.163  0.837  0.000  0.000     1.319     1.799
 317   1 H      0.030  0.970  0.000  0.000     2.583     2.513
 318   1 H      0.063  0.937  0.000  0.000     2.160     2.298
 319   1 H      0.058  0.942  0.000  0.000     2.218     2.329
 320   1 H      0.041  0.959  0.000  0.000     2.441     2.443
 321   1 H      0.054  0.946  0.000  0.000     2.269     2.355
 322   7 N     -0.391  1.317  4.074  0.000    30.123     8.151
 323   6 C      0.023  1.065  2.912  0.000    20.198     6.402
 324   6 C      0.269  1.048  2.684  0.000    22.463     7.762
 325   8 O     -0.510  1.762  4.748  0.000    24.003     6.569
 326   6 C     -0.071  1.058  3.013  0.000    21.852     6.654
 327   6 C     -0.064  1.048  3.016  0.000    21.725     6.636
 328   6 C     -0.078  1.052  3.025  0.000    21.979     6.674
 329   6 C      0.006  1.039  2.955  0.000    20.570     6.473
 330   7 N     -0.210  1.268  3.941  0.000    25.550     7.507
 331   1 H      0.157  0.843  0.000  0.000     1.357     1.825
 332   1 H      0.039  0.961  0.000  0.000     2.462     2.454
 333   1 H      0.043  0.957  0.000  0.000     2.404     2.425
 334   1 H      0.053  0.947  0.000  0.000     2.289     2.366
 335   1 H      0.044  0.956  0.000  0.000     2.402     2.423
 336   1 H      0.046  0.954  0.000  0.000     2.368     2.406
 337   1 H      0.061  0.939  0.000  0.000     2.184     2.311
 338   1 H      0.059  0.941  0.000  0.000     2.214     2.327
 339   1 H      0.059  0.941  0.000  0.000     2.208     2.324
 340   1 H      0.065  0.935  0.000  0.000     2.140     2.288
 341   1 H      0.228  0.772  0.000  0.000     0.973     1.545
 342   1 H      0.289  0.711  0.000  0.000     0.745     1.351
 343   1 H      0.260  0.740  0.000  0.000     0.846     1.441
 344   7 N     -0.169  1.244  3.925  0.000    24.659     7.375
 345   6 C      0.036  1.050  2.914  0.000    19.960     6.359
 346   6 C      0.218  1.076  2.706  0.000    23.401     7.923
 347   8 O     -0.370  1.752  4.618  0.000    21.086     6.157
 348   6 C     -0.078  1.054  3.023  0.000    21.966     6.670
 349   6 C      0.013  1.070  2.917  0.000    27.716     8.636
 350   6 C     -0.044  1.080  2.965  0.000    29.098     8.847
 351   6 C     -0.045  1.079  2.966  0.000    29.112     8.849
 352   6 C     -0.030  1.079  2.952  0.000    28.750     8.794
 353   6 C     -0.033  1.080  2.953  0.000    28.818     8.805
 354   6 C     -0.035  1.077  2.958  0.000    28.870     8.811
 355   1 H      0.235  0.765  0.000  0.000     0.944     1.522
 356   1 H      0.072  0.928  0.000  0.000     2.064     2.247
 357   1 H      0.066  0.934  0.000  0.000     2.129     2.282
 358   1 H      0.079  0.921  0.000  0.000     1.992     2.207
 359   1 H      0.040  0.960  0.000  0.000     2.446     2.446
 360   1 H      0.036  0.964  0.000  0.000     2.507     2.476
 361   1 H      0.032  0.968  0.000  0.000     2.552     2.498
 362   1 H      0.038  0.962  0.000  0.000     2.477     2.461
 363   1 H      0.045  0.955  0.000  0.000     2.386     2.415
 364   7 N     -0.388  1.320  4.069  0.000    30.055     8.142
 365   6 C     -0.021  1.063  2.959  0.000    21.085     6.561
 366   6 C      0.347  1.045  2.608  0.000    21.100     7.516
 367   8 O     -0.637  1.780  4.857  0.000    27.049     6.973
 368   8 O     -0.635  1.767  4.867  0.000    26.992     6.966
 369   1 H      0.145  0.855  0.000  0.000     1.438     1.878
 370   1 H      0.010  0.990  0.000  0.000     2.898     2.662
 371   1 H      0.026  0.974  0.000  0.000     2.645     2.543
 372   1 H      0.063  0.937  0.000  0.000     2.158     2.297
 373   1 H      0.176  0.824  0.000  0.000     1.234     1.740
 374   1 H      0.092  0.908  0.000  0.000     1.857     2.131
 375   1 H      0.181  0.819  0.000  0.000     1.206     1.720
 376   1 H      0.084  0.916  0.000  0.000     1.935     2.175
 377   1 H      0.172  0.828  0.000  0.000     1.259     1.758
 378   1 H      0.080  0.920  0.000  0.000     1.976     2.198
 379   1 H      0.195  0.805  0.000  0.000     1.130     1.665
 380   1 H      0.070  0.930  0.000  0.000     2.090     2.260
 381   1 H      0.180  0.820  0.000  0.000     1.214     1.726
 382   1 H      0.070  0.930  0.000  0.000     2.088     2.260
 383   1 H      0.187  0.813  0.000  0.000     1.173     1.696
 384   1 H      0.076  0.924  0.000  0.000     2.018     2.221
 385   1 H      0.201  0.799  0.000  0.000     1.099     1.642
 386   1 H      0.067  0.933  0.000  0.000     2.121     2.277
 387   1 H      0.173  0.827  0.000  0.000     1.255     1.755
 388   1 H      0.099  0.901  0.000  0.000     1.793     2.094
 389   1 H      0.189  0.811  0.000  0.000     1.164     1.690
 390   1 H      0.072  0.928  0.000  0.000     2.063     2.246
 391   1 H      0.174  0.826  0.000  0.000     1.247     1.749

 Mol. C6AA /au·bohr⁶  :    1379616.183096
 Mol. C8AA /au·bohr⁸  :   30450779.322399
 Mol. α(0) /au        :       1759.309869

 
molecular dipole:
                 x           y           z       tot (Debye)
 q only:     -113.280    -136.233    -391.805
   full:     -110.005    -135.593    -391.139    1088.758
molecular quadrupole (traceless):
                xx          xy          yy          xz          yz          zz
 q only:    73048.937  -24033.306   65203.502  -66441.701  -80367.536 -138252.438
  q+dip:    73556.644  -23378.648   64683.163  -64324.700  -79854.378 -138239.807
   full:    73556.009  -23382.455   64684.705  -64325.643  -79851.552 -138240.714
speedup  2.00
cpu  time for grad   23.61 s
wall time for grad   11.82 s

SCC energy    :    -604.8519141
rep           :       7.2644980
ES            :       2.0521381
AES           :      -0.0624786
AXC           :       0.2034557
disp          :      -0.4979945
XB            :       0.0000000
fix           :       0.0000000
Gborn         :       0.0000000
Gsasa         :       0.0000000
Ghb           :       0.0000000
Gshift        :       0.0000000
Gsolv         :      -0.5322425     -333.99
Etot ala COSMO:    -604.8519141
grad norm     :       0.7255719
total E       :    -597.5372724
atomizationE  :     108.1629841    67873.30
(atE without considering molecular charge,
 total energy contains solvation terms)
H-L gap (eV)  :          1.1756

------------------------------------------------------------------------
 * finished run on 2019/05/10 at 11:23:28.241     
------------------------------------------------------------------------
 total:
 * wall-time:     0 d,  0 h,  0 min, 12.738 sec
 *  cpu-time:     0 d,  0 h,  0 min, 25.247 sec
 * ratio c/w:     1.982 speedup
 SCF:
 * wall-time:     0 d,  0 h,  0 min, 12.488 sec
 *  cpu-time:     0 d,  0 h,  0 min, 24.944 sec
 * ratio c/w:     1.997 speedup

