      -----------------------------------------------------------      
     |                   =====================                   |     
     |                           x T B                           |     
     |                   =====================                   |     
     |                         S. Grimme                         |     
     |          Mulliken Center for Theoretical Chemistry        |     
     |                    University of Bonn                     |     
     |                 Version 6.0.1 (SAW181210)                 |     
      -----------------------------------------------------------      

   This program is distributed in the hope that it will be useful,
   but WITHOUT ANY WARRANTY; without even the implied warranty of
   MERCHANTABILITY or FITNESS FOR A PARTICULAR PURPOSE.
   
   FOR NON-COMMERCIAL, ACADEMIA USE ONLY.
   
   Cite this work as:
   S. Grimme, C. Bannwarth, P. Shushkov, J. Comput. Theory Chem., 2017,
   13, 1989-2009.
   C. Bannwarth, S. Ehlert and S. Grimme., ChemRxiv, 2018, preprint.
   http://doi.org/10.26434/chemrxiv.7246238.v1
   
   for sTDA-xTB:
   S. Grimme and C. Bannwarth, J. Chem. Phys., 2016, 145, 054103.
   
   in the mass-spec context:
   V. Asgeirsson, C. Bauer and S. Grimme, Chem. Sci., 2017, 8, 4879.
   
   if GBSA is used:
   P. Shushkov, F. März and S. Grimme, unpublished.
   
   for ANC optimizer:
   S. Grimme, unpublished.
   Rational Function algorithm used in ANCopt:
   F. Eckert, P. Pulay, H.-J. Werner, J. Comput. Chem., 1997, 18, 1473.
   
   with help from (in alphabetical order)
   C. Bannwarth, F. Bohle, G. Brandenburg, E. Caldeweyher, M. Checinski,
   S. Dohm, S. Ehlert, S. Ehrlich, F. März, H. Neugebauer, J. Pisarek,
   P. Pracht, P. Shushkov, and S. Spicher.
   
 * started run on 2019/05/04 at 16:29:04.814     
========================================================================
 # omp threads = 2
========================================================================
number of atoms            : 144
number of electrons        : 390
charge                     : -1
spin                       : .0
first test random number   : .6221

########################################################################
# WARNING! Please study the warnings concerning your input carefully
#  - Process number higher than OMP_NUM_THREADS, I hope you know what you are doing.
########################################################################

           ------------------------------------------------- 
          |                 G F N 2 - x T B                 |
          | Geometry, Frequencies, Noncovalent interactions |
          |            JCTC 2018 parametrisation            |
           ------------------------------------------------- 
 
      method parameters     
 k(s)        :  1.8500
 k(p)        :  2.2300
 k(d)        :  2.2300
 k(f)        :  2.0000
 kEN (H0ij)  : -2.0000
 D4 a1       :  0.5200
 D4 a2       :  5.0000
 D4 s6       :  1.0000
 D4 s8       :  2.7000
 D4 s9       :  5.0000
 alphaj      :  2.0000

 Solvent             : h2o
 Using internal parameter file: .param_gbsa2_h2o
 Gsolv ref. state (COSMO-RS): gsolv [1 M gas/solution]
 temperature (mdtemp)       :    298.150000000000     
 dielectric constant        :    80.2000000000000     
 rho                        :    1.00000000000000     
 mass                       :    18.0000000000000     
 surface tension            :    15.5689454083859     
 probe radius               :   0.975313790000000     
 vdW radii scaling          :    1.00000000000000     
 Gshift (Eh)                :   1.857443126794793E-003
 c1                         :    1.55243817000000     
 soset                      :   0.130326360000000     
 HB correction              :  T

            Z     q(EN)     CN     RAES       Cart. coordinates
     1  N   5.0   -0.22    3.20    1.96    78.68819    52.63832     2.06925
     2  C   4.0    0.02    4.28    4.16    80.34737    53.65877     0.10771
     3  C   4.0    0.14    3.40    3.08    80.26989    52.06384    -2.29791
     4  O   6.0   -0.32    1.27    1.80    82.24087    51.39488    -3.32025
     5  C   4.0   -0.04    4.38    4.35    83.08936    53.81562     1.06392
     6  C   4.0   -0.03    4.16    3.93    84.01155    56.05872     2.66262
     7  C   4.0   -0.09    4.10    3.81    86.56646    55.41810     3.82481
     8  C   4.0   -0.09    4.10    3.80    84.22698    58.43411     1.03935
     9  H   1.0    0.07    1.03    1.43    79.61982    51.69345     3.46765
    10  H   1.0    0.03    1.05    1.44    79.68407    55.55416    -0.35338
    11  H   1.0    0.04    1.04    1.43    83.41628    52.13754     2.21287
    12  H   1.0    0.05    1.05    1.44    84.30445    53.77782    -0.59904
    13  H   1.0    0.03    1.05    1.44    82.65850    56.43667     4.17063
    14  H   1.0    0.03    1.00    1.43    87.20896    57.01492     4.95486
    15  H   1.0    0.03    1.00    1.43    86.36237    53.75136     5.01722
    16  H   1.0    0.03    1.00    1.43    87.91383    55.04016     2.31491
    17  H   1.0    0.03    1.00    1.43    84.88460    59.99313     2.21476
    18  H   1.0    0.03    1.00    1.43    85.57057    58.08640    -0.48188
    19  H   1.0    0.03    1.00    1.43    82.37504    58.87819     0.25322
    20  N   5.0   -0.15    3.43    2.04    78.00222    51.47047    -3.20498
    21  C   4.0    0.03    4.40    4.38    77.70742    49.94735    -5.49532
    22  C   4.0    0.15    3.38    3.07    77.70931    51.47613    -7.95386
    23  O   6.0   -0.30    1.25    1.80    75.69864    51.99581    -9.01210
    24  C   4.0   -0.03    4.40    4.37    75.25645    48.41478    -5.37438
    25  C   4.0   -0.04    4.06    3.74    75.25645    46.31718    -3.43741
    26  S   6.0   -0.04    2.50    3.10    72.29336    44.66367    -3.39773
    27  C   4.0   -0.05    3.88    3.43    72.79791    42.32986    -5.83358
    28  H   1.0    0.07    1.06    1.44    76.33548    52.01282    -2.40184
    29  H   1.0    0.06    1.07    1.44    79.38928    48.75871    -5.50855
    30  H   1.0    0.05    1.04    1.43    73.70876    49.69034    -4.90762
    31  H   1.0    0.06    1.04    1.43    74.92952    47.55684    -7.21875
    32  H   1.0    0.04    1.07    1.44    76.74555    44.96792    -3.89284
    33  H   1.0    0.04    1.07    1.44    75.57770    47.11654    -1.56658
    34  H   1.0    0.05    1.04    1.43    71.10472    41.16957    -6.01122
    35  H   1.0    0.06    1.04    1.43    73.17964    43.29173    -7.61371
    36  H   1.0    0.04    1.04    1.43    74.40607    41.15256    -5.31202
    37  N   5.0   -0.13    3.42    2.03    79.95242    52.18100    -8.86092
    38  C   4.0    0.03    4.39    4.36    80.18107    53.61908   -11.21741
    39  C   4.0    0.15    3.39    3.07    80.19052    51.84085   -13.50020
    40  O   6.0   -0.29    1.23    1.80    81.19774    49.74515   -13.36792
    41  C   4.0   -0.05    4.27    4.13    82.60937    55.21968   -11.22497
    42  C   4.0   -0.05    4.19    3.97    82.41095    57.73680    -9.84169
    43  C   4.0   -0.05    4.19    3.98    84.85814    59.22590   -10.01744
    44  C   4.0   -0.05    4.14    3.89    84.64460    61.69199    -8.57747
    45  N   5.0   -0.13    4.01    2.88    87.05401    63.11496    -8.60959
    46  H   1.0    0.09    1.06    1.44    81.63994    51.78983    -8.01433
    47  H   1.0    0.05    1.06    1.44    78.56914    54.89087   -11.37804
    48  H   1.0    0.05    1.03    1.43    84.10792    54.13498   -10.31979
    49  H   1.0    0.04    1.03    1.43    83.11582    55.62786   -13.17895
    50  H   1.0    0.04    1.03    1.43    80.90484    58.86307   -10.68451
    51  H   1.0    0.04    1.03    1.43    82.00277    57.39287    -7.85181
    52  H   1.0    0.04    1.03    1.43    86.39638    58.12230    -9.20297
    53  H   1.0    0.04    1.03    1.43    85.26443    59.65298   -11.99031
    54  H   1.0    0.03    1.02    1.43    83.18952    62.86362    -9.44485
    55  H   1.0    0.03    1.02    1.43    84.15328    61.29515    -6.61593
    56  H   1.0    0.04    1.01    1.43    86.85558    64.79492    -7.60993
    57  H   1.0    0.04    1.02    1.43    88.47886    62.04348    -7.78000
    58  H   1.0    0.04    1.02    1.43    87.56423    63.53070   -10.46152
    59  N   5.0   -0.14    3.43    2.04    79.04724    52.68556   -15.58079
    60  C   4.0    0.03    4.37    4.33    78.92062    51.21346   -17.92216
    61  C   4.0    0.15    3.38    3.07    80.37571    52.69690   -19.97062
    62  O   6.0   -0.29    1.22    1.80    79.62927    54.80016   -20.66793
    63  C   4.0   -0.04    4.25    4.10    76.14084    50.83741   -18.68561
    64  C   4.0   -0.05    4.17    3.94    75.62683    48.69068   -20.55833
    65  C   4.0   -0.04    4.18    3.95    75.90084    46.08475   -19.35835
    66  C   4.0   -0.04    4.13    3.86    75.20353    44.01361   -21.22918
    67  N   5.0   -0.12    4.00    2.87    75.63817    41.42846   -20.20873
    68  H   1.0    0.08    1.06    1.44    78.18174    54.40332   -15.70551
    69  H   1.0    0.05    1.06    1.44    79.80313    49.36531   -17.69917
    70  H   1.0    0.05    1.03    1.43    75.05236    50.43490   -16.98297
    71  H   1.0    0.05    1.03    1.43    75.46999    52.57973   -19.55488
    72  H   1.0    0.04    1.03    1.43    73.70120    48.86453   -21.27076
    73  H   1.0    0.05    1.03    1.43    76.96854    48.81918   -22.11546
    74  H   1.0    0.05    1.03    1.43    77.85482    45.80129   -18.76876
    75  H   1.0    0.06    1.04    1.43    74.64606    45.94302   -17.73130
    76  H   1.0    0.03    1.02    1.43    73.20609    44.18179   -21.70350
    77  H   1.0    0.04    1.02    1.43    76.35060    44.22904   -22.92616
    78  H   1.0    0.05    1.01    1.43    75.13550    40.08298   -21.55043
    79  H   1.0    0.06    1.01    1.43    77.53546    41.19603   -19.75142
    80  H   1.0    0.08    1.04    1.43    74.55347    41.15256   -18.59301
    81  N   5.0   -0.14    3.40    2.02    82.45252    51.60086   -20.90037
    82  C   4.0    0.03    4.35    4.29    84.06635    52.81784   -22.80332
    83  C   4.0    0.25    3.19    3.04    83.38416    52.24336   -25.55476
    84  O   6.0   -0.30    1.23    1.80    85.05845    51.30228   -26.93237
    85  C   4.0   -0.04    4.28    4.16    86.84614    52.10919   -22.30821
    86  C   4.0   -0.02    4.20    4.01    87.44140    49.27271   -22.48963
    87  C   4.0    0.24    3.11    3.03    89.92261    48.54328   -21.22729
    88  O   6.0   -0.29    1.17    1.80    90.03788    48.56785   -18.87080
    89  O   6.0   -0.29    1.17    1.80    91.75564    47.94046   -22.58789
    90  O   6.0   -0.28    1.17    1.80    81.19963    52.74792   -26.31254
    91  H   1.0    0.08    1.06    1.44    83.07613    49.85475   -20.37125
    92  H   1.0    0.06    1.06    1.44    83.78478    54.84930   -22.60679
    93  H   1.0    0.05    1.03    1.43    88.02154    53.07673   -23.69527
    94  H   1.0    0.05    1.03    1.43    87.34691    52.72524   -20.40715
    95  H   1.0    0.05    1.03    1.43    85.93151    48.21447   -21.57122
    96  H   1.0    0.07    1.04    1.43    87.56423    48.74359   -24.47573
    97  N   5.0   -0.21    3.18    1.95    67.44621    39.73905   -21.10068
    98  C   4.0    0.03    4.27    4.15    67.33849    40.26061   -18.37192
    99  C   4.0    0.14    3.37    3.07    64.58138    40.14156   -17.40816
   100  O   6.0   -0.29    1.23    1.80    63.12441    41.91790   -17.80122
   101  C   4.0   -0.04    4.28    4.16    68.45532    42.89111   -17.85980
   102  C   4.0   -0.03    4.19    3.98    69.00145    43.49960   -15.10080
   103  C   4.0    0.24    3.13    3.03    71.44109    42.32608   -14.17105
   104  O   6.0   -0.32    1.24    1.80    73.41396    42.70592   -15.41449
   105  O   6.0   -0.29    1.17    1.80    71.38818    41.03729   -12.19251
   106  H   1.0    0.09    1.02    1.43    66.23678    40.82753   -22.13436
   107  H   1.0    0.04    1.05    1.44    68.38351    38.78663   -17.38359
   108  H   1.0    0.04    1.04    1.43    70.23544    43.04796   -18.88403
   109  H   1.0    0.05    1.03    1.43    67.12118    44.30274   -18.54388
   110  H   1.0    0.05    1.03    1.43    69.15263    45.54240   -14.88159
   111  H   1.0    0.06    1.03    1.43    67.46322    42.77773   -13.93673
   112  N   5.0   -0.15    3.39    2.02    63.88785    38.06664   -16.14204
   113  C   4.0    0.03    4.36    4.30    61.30082    37.68114   -15.17261
   114  C   4.0    0.15    3.37    3.07    60.35785    39.56897   -13.14871
   115  O   6.0   -0.31    1.25    1.80    58.12986    40.26628   -13.13737
   116  C   4.0   -0.04    4.29    4.19    60.99091    34.95993   -14.16539
   117  C   4.0   -0.02    3.52    3.12    61.24413    32.91525   -16.16472
   118  C   4.0   -0.05    3.45    3.09    63.59495    31.88535   -16.74864
   119  C   4.0   -0.05    3.44    3.09    59.11819    32.01007   -17.43839
   120  C   4.0   -0.05    3.35    3.07    63.82360    29.97861   -18.55522
   121  C   4.0   -0.05    3.35    3.07    59.32984    30.10900   -19.24686
   122  C   4.0   -0.05    3.36    3.07    61.68632    29.09611   -19.80622
   123  H   1.0    0.07    1.06    1.44    65.07271    36.59832   -15.74709
   124  H   1.0    0.06    1.06    1.44    60.09706    38.00428   -16.81100
   125  H   1.0    0.04    1.03    1.43    62.43844    34.61978   -12.74053
   126  H   1.0    0.04    1.03    1.43    59.11819    34.78041   -13.32635
   127  H   1.0    0.04    1.03    1.43    65.26169    32.57132   -15.79055
   128  H   1.0    0.04    1.03    1.43    57.28326    32.79619   -17.01509
   129  H   1.0    0.04    1.03    1.43    65.65664    29.18871   -18.98230
   130  H   1.0    0.04    1.03    1.43    57.66688    29.42492   -20.21062
   131  H   1.0    0.04    1.03    1.43    61.85829    27.62590   -21.21028
   132  N   5.0   -0.14    3.41    2.03    62.02836    40.36644   -11.44040
   133  C   4.0    0.04    4.23    4.06    61.37263    42.18057    -9.43918
   134  C   4.0    0.07    3.21    3.04    63.56849    42.41112    -7.57213
   135  O   6.0   -0.29    1.11    1.80    65.06515    44.19313    -7.69118
   136  C   4.0   -0.07    4.13    3.87    58.98780    41.33398    -8.05023
   137  H   1.0    0.08    1.06    1.44    63.86707    39.79196   -11.38371
   138  H   1.0    0.06    1.05    1.44    61.00224    44.02495   -10.27822
   139  H   1.0    0.04    1.00    1.43    58.54371    42.70781    -6.58192
   140  H   1.0    0.06    1.02    1.43    57.43255    41.21870    -9.39572
   141  H   1.0    0.04    1.00    1.43    59.32417    39.48582    -7.20553
   142  H   1.0    0.08    1.07    1.44    77.83167    53.90950     2.80615
   143  H   1.0    0.09    1.07    1.44    69.01940    40.03725   -21.67401
   144  H   1.0    0.05    1.04    1.44    63.80729    41.10417    -6.22829

  Z AO/shell   Hii/eV     exponent
  1     Wed Apr 25 08:07:45 CEST 2018   EN: 2.200 GM2: 0.406  GM3: 0.0800  RAES: 1.40
     1s    -10.707211    1.230000
  6     Wed Apr 25 08:07:45 CEST 2018   EN: 2.550 GM2: 0.538  GM3: 0.1500  RAES: 3.00
     2s    -13.970922    2.096432
     2p    -10.063292    1.800000
  7     Wed Apr 25 08:07:45 CEST 2018   EN: 3.040 GM2: 0.461  GM3:-0.0640  RAES: 1.90
     2s    -16.686243    2.339881
     2p    -12.523956    2.014332
  8     Wed Apr 25 08:07:45 CEST 2018   EN: 3.440 GM2: 0.452  GM3:-0.0517  RAES: 1.80
     2s    -20.229985    2.439742
     2p    -15.503117    2.137023
 16     Tue Apr 24 11:44:34 CEST 2018   EN: 2.580 GM2: 0.340  GM3:-0.0502  RAES: 3.10
     3s    -20.029654    1.981333
     3p    -11.377694    2.025643
     3d     -0.420282    1.702555
 no old-style atom pair restraining (fixing) potential

molecular fragmentation (1/2 indicates fragments):
111111111111111111111111111111111111111111111111111111111111111111111111
111111111111111111111111222222222222222222222222222222222222222222222122
# atoms in fragment 1/2:    97    47
 fragment masses (1/2) :      647.83      348.38
CMA distance (Bohr)    :  21.253
constraining FC (au)   :  0.0500
           ------------------------------------------------- 
          |        Self-Consistent Charge Iterations        |
           ------------------------------------------------- 

 Ncao       : 357
 Nao        : 356
 Nshell     : 214
 Nel        : 390
 T(el)      :   500.0
 intcut     :    35.0
 scfconv/Eh :  0.100E-06
   qconv/e  :  0.100E-04
 intneglect :  0.100E-08
 broydamp   :      0.400
 iter      E             dE          RMSdq      gap      omega  full diag
   1   -222.3223473 -0.222322E+03  0.461E+00    3.15       0.0  T
   2   -222.8798861 -0.557539E+00  0.220E+00    1.43       1.0  T
   3   -222.9118004 -0.319143E-01  0.121E+00    1.78       1.0  T
   4   -222.9411812 -0.293808E-01  0.287E-01    1.09       1.0  T
   5   -222.9436095 -0.242839E-02  0.146E-01    1.27       1.0  T
   6   -222.9439391 -0.329519E-03  0.607E-02    1.25       1.0  T
   7   -222.9440515 -0.112404E-03  0.228E-02    1.27       1.0  T
   8   -222.9440623 -0.108481E-04  0.122E-02    1.28       1.0  T
   9   -222.9440668 -0.447177E-05  0.547E-03    1.28       1.5  T
  10   -222.9440676 -0.762618E-06  0.275E-03    1.28       3.0  T
  11   -222.9440677 -0.155082E-06  0.115E-03    1.28       7.3  T
  12   -222.9440677 -0.221390E-07  0.516E-04    1.28      16.1  T
  13   -222.9440677 -0.620477E-08  0.243E-04    1.28      34.3  T
  14   -222.9440677 -0.977877E-09  0.647E-05    1.28     128.7  T
  15   -222.9440677 -0.919158E-10  0.294E-05    1.28     283.3  T
speedup  1.04
cpu  time for SCC    0.95 s
wall time for SCC    0.92 s

   *** convergence criteria satisfied after 15 iterations ***

          eigenvalues
 #    :         183        184        185        186        187        188        189        190
 occ. :        2.000      2.000      2.000      2.000      2.000      2.000      2.000      2.000
 eps  :       -10.809    -10.788    -10.667    -10.523    -10.352    -10.253    -10.124     -9.983
 #    :         191        192        193        194        195        196        197        198
 occ. :        2.000      2.000      2.000      2.000      2.000      0.000      0.000      0.000
 eps  :        -9.964     -9.904     -9.792     -9.696     -9.591     -8.312     -6.426     -6.340
 #    :         199        200        201        202        203        204        205        206
 occ. :        0.000      0.000      0.000      0.000      0.000      0.000      0.000      0.000
 eps  :        -6.269     -6.237     -6.171     -6.060     -6.004     -5.935     -5.287     -4.829


   #   Z            q   n(s)   n(p)   n(d)      C6AA      α(0)
   1   7 N     -0.400  1.330  4.069  0.000    30.365     8.184
   2   6 C      0.027  1.059  2.914  0.000    20.135     6.392
   3   6 C      0.271  1.047  2.682  0.000    22.413     7.752
   4   8 O     -0.500  1.749  4.751  0.000    23.789     6.539
   5   6 C     -0.076  1.058  3.018  0.000    21.952     6.669
   6   6 C     -0.013  1.058  2.955  0.000    20.768     6.482
   7   6 C     -0.114  1.044  3.069  0.000    22.727     6.797
   8   6 C     -0.121  1.046  3.074  0.000    22.867     6.818
   9   1 H      0.160  0.840  0.000  0.000     1.335     1.810
  10   1 H      0.051  0.949  0.000  0.000     2.312     2.378
  11   1 H      0.032  0.968  0.000  0.000     2.558     2.501
  12   1 H      0.058  0.942  0.000  0.000     2.225     2.333
  13   1 H      0.024  0.976  0.000  0.000     2.667     2.554
  14   1 H      0.046  0.954  0.000  0.000     2.368     2.407
  15   1 H      0.030  0.970  0.000  0.000     2.591     2.517
  16   1 H      0.042  0.958  0.000  0.000     2.428     2.437
  17   1 H      0.048  0.952  0.000  0.000     2.350     2.397
  18   1 H      0.048  0.952  0.000  0.000     2.346     2.395
  19   1 H      0.039  0.961  0.000  0.000     2.461     2.453
  20   7 N     -0.171  1.248  3.924  0.000    24.711     7.383
  21   6 C      0.017  1.062  2.921  0.000    20.298     6.416
  22   6 C      0.272  1.043  2.685  0.000    22.398     7.750
  23   8 O     -0.497  1.756  4.741  0.000    23.728     6.531
  24   6 C     -0.057  1.047  3.010  0.000    21.569     6.606
  25   6 C     -0.011  1.060  2.951  0.000    20.779     6.491
  26  16 S     -0.212  1.905  4.258  0.050   150.092    20.620
  27   6 C     -0.037  1.050  2.987  0.000    21.309     6.585
  28   1 H      0.217  0.783  0.000  0.000     1.021     1.583
  29   1 H      0.068  0.932  0.000  0.000     2.108     2.270
  30   1 H      0.069  0.931  0.000  0.000     2.097     2.264
  31   1 H      0.039  0.961  0.000  0.000     2.460     2.453
  32   1 H      0.046  0.954  0.000  0.000     2.367     2.406
  33   1 H      0.077  0.923  0.000  0.000     2.011     2.217
  34   1 H      0.054  0.946  0.000  0.000     2.267     2.355
  35   1 H      0.032  0.968  0.000  0.000     2.557     2.501
  36   1 H      0.051  0.949  0.000  0.000     2.313     2.378
  37   7 N     -0.158  1.245  3.913  0.000    24.420     7.339
  38   6 C      0.015  1.064  2.921  0.000    20.334     6.421
  39   6 C      0.276  1.042  2.682  0.000    22.327     7.737
  40   8 O     -0.505  1.759  4.746  0.000    23.902     6.555
  41   6 C     -0.075  1.055  3.020  0.000    21.936     6.667
  42   6 C     -0.076  1.051  3.025  0.000    21.947     6.669
  43   6 C     -0.092  1.052  3.040  0.000    22.242     6.714
  44   6 C     -0.051  1.057  2.994  0.000    21.578     6.630
  45   7 N     -0.147  1.234  3.913  0.000    24.176     7.303
  46   1 H      0.218  0.782  0.000  0.000     1.017     1.580
  47   1 H      0.081  0.919  0.000  0.000     1.974     2.197
  48   1 H      0.065  0.935  0.000  0.000     2.144     2.290
  49   1 H      0.052  0.948  0.000  0.000     2.295     2.369
  50   1 H      0.062  0.938  0.000  0.000     2.171     2.304
  51   1 H      0.065  0.935  0.000  0.000     2.142     2.288
  52   1 H      0.076  0.924  0.000  0.000     2.024     2.225
  53   1 H      0.071  0.929  0.000  0.000     2.078     2.254
  54   1 H      0.121  0.879  0.000  0.000     1.607     1.982
  55   1 H      0.121  0.879  0.000  0.000     1.602     1.979
  56   1 H      0.312  0.688  0.000  0.000     0.680     1.292
  57   1 H      0.299  0.701  0.000  0.000     0.716     1.325
  58   1 H      0.297  0.703  0.000  0.000     0.723     1.332
  59   7 N     -0.172  1.248  3.924  0.000    24.727     7.385
  60   6 C      0.022  1.063  2.915  0.000    20.224     6.405
  61   6 C      0.273  1.043  2.683  0.000    22.381     7.747
  62   8 O     -0.497  1.752  4.745  0.000    23.708     6.528
  63   6 C     -0.073  1.055  3.019  0.000    21.902     6.663
  64   6 C     -0.069  1.050  3.018  0.000    21.814     6.649
  65   6 C     -0.083  1.051  3.032  0.000    22.077     6.690
  66   6 C     -0.036  1.056  2.980  0.000    21.305     6.588
  67   7 N     -0.144  1.235  3.909  0.000    24.116     7.294
  68   1 H      0.219  0.781  0.000  0.000     1.015     1.579
  69   1 H      0.062  0.938  0.000  0.000     2.174     2.306
  70   1 H      0.065  0.935  0.000  0.000     2.144     2.290
  71   1 H      0.063  0.937  0.000  0.000     2.161     2.299
  72   1 H      0.067  0.933  0.000  0.000     2.118     2.276
  73   1 H      0.036  0.964  0.000  0.000     2.500     2.473
  74   1 H      0.049  0.951  0.000  0.000     2.330     2.387
  75   1 H      0.084  0.916  0.000  0.000     1.939     2.178
  76   1 H      0.104  0.896  0.000  0.000     1.750     2.069
  77   1 H      0.107  0.893  0.000  0.000     1.727     2.055
  78   1 H      0.300  0.700  0.000  0.000     0.715     1.324
  79   1 H      0.290  0.710  0.000  0.000     0.745     1.352
  80   1 H      0.289  0.711  0.000  0.000     0.749     1.355
  81   7 N     -0.180  1.259  3.921  0.000    24.901     7.411
  82   6 C      0.019  1.072  2.908  0.000    20.260     6.411
  83   6 C      0.367  1.023  2.611  0.000    20.779     7.460
  84   8 O     -0.635  1.776  4.860  0.000    27.006     6.967
  85   6 C     -0.039  1.049  2.989  0.000    21.262     6.565
  86   6 C     -0.078  1.061  3.017  0.000    21.991     6.677
  87   6 C      0.370  1.025  2.605  0.000    20.728     7.451
  88   8 O     -0.651  1.765  4.886  0.000    27.408     7.019
  89   8 O     -0.659  1.774  4.885  0.000    27.605     7.044
  90   8 O     -0.635  1.769  4.866  0.000    27.006     6.967
  91   1 H      0.187  0.813  0.000  0.000     1.175     1.698
  92   1 H      0.045  0.955  0.000  0.000     2.384     2.415
  93   1 H      0.027  0.973  0.000  0.000     2.632     2.537
  94   1 H      0.026  0.974  0.000  0.000     2.648     2.545
  95   1 H      0.007  0.993  0.000  0.000     2.943     2.683
  96   1 H      0.024  0.976  0.000  0.000     2.680     2.560
  97   7 N     -0.389  1.332  4.057  0.000    30.058     8.142
  98   6 C      0.030  1.063  2.907  0.000    20.091     6.385
  99   6 C      0.273  1.050  2.677  0.000    22.384     7.747
 100   8 O     -0.502  1.759  4.743  0.000    23.830     6.545
 101   6 C     -0.060  1.054  3.006  0.000    21.655     6.625
 102   6 C     -0.082  1.056  3.026  0.000    22.071     6.688
 103   6 C      0.363  1.025  2.611  0.000    20.836     7.470
 104   8 O     -0.629  1.750  4.880  0.000    26.850     6.947
 105   8 O     -0.654  1.780  4.874  0.000    27.474     7.027
 106   1 H      0.162  0.838  0.000  0.000     1.323     1.802
 107   1 H      0.031  0.969  0.000  0.000     2.570     2.507
 108   1 H      0.048  0.952  0.000  0.000     2.351     2.398
 109   1 H      0.042  0.958  0.000  0.000     2.422     2.434
 110   1 H      0.023  0.977  0.000  0.000     2.683     2.561
 111   1 H     -0.001  1.001  0.000  0.000     3.068     2.739
 112   7 N     -0.186  1.257  3.930  0.000    25.035     7.431
 113   6 C      0.021  1.069  2.910  0.000    20.228     6.406
 114   6 C      0.281  1.044  2.676  0.000    22.248     7.723
 115   8 O     -0.474  1.750  4.724  0.000    23.215     6.460
 116   6 C     -0.078  1.057  3.021  0.000    21.985     6.675
 117   6 C      0.009  1.084  2.908  0.000    27.822     8.652
 118   6 C     -0.040  1.082  2.958  0.000    29.005     8.832
 119   6 C     -0.039  1.085  2.954  0.000    28.966     8.826
 120   6 C     -0.033  1.084  2.949  0.000    28.818     8.803
 121   6 C     -0.032  1.084  2.948  0.000    28.794     8.799
 122   6 C     -0.033  1.083  2.950  0.000    28.833     8.805
 123   1 H      0.206  0.794  0.000  0.000     1.076     1.625
 124   1 H      0.083  0.917  0.000  0.000     1.949     2.183
 125   1 H      0.061  0.939  0.000  0.000     2.186     2.312
 126   1 H      0.075  0.925  0.000  0.000     2.029     2.227
 127   1 H      0.029  0.971  0.000  0.000     2.596     2.520
 128   1 H      0.041  0.959  0.000  0.000     2.438     2.442
 129   1 H      0.043  0.957  0.000  0.000     2.414     2.429
 130   1 H      0.044  0.956  0.000  0.000     2.392     2.419
 131   1 H      0.043  0.957  0.000  0.000     2.415     2.430
 132   7 N     -0.158  1.236  3.922  0.000    24.418     7.339
 133   6 C      0.032  1.057  2.910  0.000    20.047     6.377
 134   6 C      0.198  1.089  2.713  0.000    23.789     7.988
 135   8 O     -0.359  1.771  4.589  0.000    20.888     6.128
 136   6 C     -0.137  1.045  3.093  0.000    23.203     6.868
 137   1 H      0.183  0.817  0.000  0.000     1.197     1.714
 138   1 H      0.079  0.921  0.000  0.000     1.993     2.208
 139   1 H      0.067  0.933  0.000  0.000     2.114     2.274
 140   1 H      0.099  0.901  0.000  0.000     1.792     2.094
 141   1 H      0.067  0.933  0.000  0.000     2.120     2.277
 142   1 H      0.186  0.814  0.000  0.000     1.179     1.701
 143   1 H      0.192  0.808  0.000  0.000     1.148     1.678
 144   1 H      0.094  0.906  0.000  0.000     1.839     2.121

 Mol. C6AA /au·bohr⁶  :     197607.122755
 Mol. C8AA /au·bohr⁸  :    4496765.008562
 Mol. α(0) /au        :        667.163417

 
molecular dipole:
                 x           y           z       tot (Debye)
 q only:      -82.426     -39.067      33.260
   full:      -81.614     -39.057      33.220     244.988
molecular quadrupole (traceless):
                xx          xy          yy          xz          yz          zz
 q only:    -5937.321   -4691.325    2720.712    4273.281    2488.775    3216.610
  q+dip:    -5827.467   -4640.565    2667.990    4261.104    2487.578    3159.477
   full:    -5830.380   -4637.295    2671.091    4259.727    2487.818    3159.289
speedup  1.10
cpu  time for grad    1.17 s
wall time for grad    1.06 s

SCC energy    :    -222.9498769
rep           :       2.5953864
ES            :       1.0843597
AES           :      -0.0275156
AXC           :       0.0758826
disp          :      -0.1433885
XB            :       0.0000000
fix           :       0.0000000
Gborn         :       0.0000000
Gsasa         :       0.0000000
Ghb           :       0.0000000
Gshift        :       0.0000000
Gsolv         :      -0.4234170     -265.70
Etot ala COSMO:    -222.9498769
grad norm     :       0.3255883
total E       :    -220.3516139
atomizationE  :      40.4041173    25353.97
(atE without considering molecular charge,
 total energy contains solvation terms)
H-L gap (eV)  :          1.2793

------------------------------------------------------------------------
 * finished run on 2019/05/04 at 16:29:06.305     
------------------------------------------------------------------------
 total:
 * wall-time:     0 d,  0 h,  0 min,  1.489 sec
 *  cpu-time:     0 d,  0 h,  0 min,  1.420 sec
 * ratio c/w:     0.954 speedup
 SCF:
 * wall-time:     0 d,  0 h,  0 min,  1.191 sec
 *  cpu-time:     0 d,  0 h,  0 min,  1.275 sec
 * ratio c/w:     1.070 speedup

