 
        ______________________________________
       |                                      |
       |           ==================         |
       |                 x T B                |
       |           ==================         |
       |               S. Grimme              |
       |        Universitaet Bonn, MCTC       |
       |         2015-18, Version 5.8.2       |
       |      Thu Jul 12 08:31:35 CEST 2018   |
       |______________________________________|
 
        This code comes without any warranty
        for non-commercial, academia use only.
        Preliminary GFN2 test version.
        Cite GFN-xTB work as:
        S. Grimme, C. Bannwarth, P. Shushkov
        JCTC, 13 (2017) 1989-2009
        for GFN2:
        C. Bannwarth, S. Ehlert, S. Grimme
        to be published.
        sTDA-xTB:
        S. Grimme  &  C. Bannwarth, JCP 145 (2016) 054103
        in the mass-spec context additionally:
        V. Asgeirsson, C.Bauer, S. Grimme, Chem. Sci. 8 (2017) 4879
 
        with help from
        P. Shushkov, G. Brandenburg, S. Dohm, J. Pisarek,
        F. März, M. Checinski, S. Ehrlich, S. Spicher, 
        P. Pracht, E. Caldeweyher, S. Ehlert, and C. Bannwarth.
 
        usage        :
        xtb <coord_file> [options]
        where <coord_file> is a valid file of TM)
        (*coord, Bohr) or xmol (*xyz, Angstroem)
        format.

        options:
        -chrg <int>   : molecular charge
        -uhf  <int>   : # of unpaired electrons(=2*S)
        -nox          : skip second, extended part in sTDA-xTB
        -pop          : do population analysis
                      : (default for -nox)
        -mowr <real>  : cut MO write above (def.3 Eh)
        -molden       : write formatted molden file
        -parx <file>  : read parameters for sTDA-xTB
                        calc (def:~/.param_stda2.xtb)
        -parv <file>  : read parameters for vTB part in
                        sTDA-xTB (def: ~/.param_stda1.xtb)
        -xtemp <real> : el. temp for xTB (def. 0 K)
        -etemp <real> : el. temp for GFN (def. 300 K)
        -fod          : calculate the FOD and write
                        molden.input file with
                        appropriate occupations
                        for plotting. Def. T=12500 K
 
        -gfn1         : use GFN-xTB
        -gfn2         : use GFN2-xTB
        -gfn2d3       : GFN2-xTB with D3 instead of D4
        -grad         : GFNn-xTB gradient
        -acc <real>   : GFNn-xTB accuracy (def. 1.0)
        -opt [level]  : optimize at GFNn-xTB
                      : level=crude,vloose,loose,
                      :       tight,vtight
        -hess         : compute Hessian at GFNn-xTB
        -ohess        : optimize and compute Hessian
        -omd          : optimize and do MD
        -siman        : conformational search
        -screen       : opt. loop over ensemble
        -gmd          : annealed MD for GMD procedure
        -modef        : vib mode following
        -gbsa [string1] [string2]
                        use GBSA implicit solvent
                        for solvent [string1] and
                        solvation state [string2]=
                        reference, bar1M (default=1M)
        additional GFN/opt/MD/siman options read from
        $XTBHOME/.xtbrc or $set in coordinate file
 
       spin and charge state information can be on:
       <.CHRG> (charge) and <.UHF> (=nalpha-nbeta)
       -uhf and -chrg override the file info.
       useful machine settings:
       setenv MKL_NUM_THREADS <NCORE_ON_YOUR_MACHINE>
       setenv OMP_STACKSIZE 500m
       limit stacksize unlimited
 
       total energies in Eh, gaps/HL energies in eV
       please read REVISION and HOWTO files carefully
          88  days left until this code expires
 =============================
  # OMP threads =           2
 =============================
 
 xtbhome directory:/home/kruse/Progs/XTB/
 
 argument            1 :-chrg
 argument            2 :-2
 argument            3 :-grad
 argument            4 :-gfn2
 argument            5 :-gbsa
 argument            6 :h2o
 argument            7 :-acc
 argument            8 :1
 argument            9 :-etemp
 argument           10 :500
 
 name of molecule           :
 comment line               :
 number of atoms            :   189
 number of electrons        :   550
 charge                     : -2
 spin                       : 0.0
 first test random number   :  0.7125
 
 
 -----------------------------------------
  G F N (Geometry, Frequency, Non-covalent)
        parametrization, gfnver=           3
     D4 dispersion model
 /home/kruse/Progs/XTB/.param_gfn2.xtb
 -----------------------------------------
      method parameters     
 k(s)        :  1.8500
 k(p)        :  2.2300
 k(d)        :  2.2300
 k(f)        :  2.0000
 kEN (H0ij)  : -2.0000
 D3 a1       :  0.5200
 D3 a2       :  5.0000
 D3 s8       :  2.7000
 D3atm       :  5.0000
 alphaj      :  2.0000
 
 Solvent             : h2o
 GBSA parameter file : /home/kruse/Progs/XTB/.param_gbsa_h2o
 Gsolv ref. state (COSMO-RS): gsolv [1 M gas/solution]
 temperature (mdtemp)       :    298.150000000000     
 dielectric constant        :    78.5000000000000     
 rho                        :   0.998000000000000     
 mass                       :    18.0000000000000     
 surface tension            :    15.5689470637553     
 probe radius               :   0.976041290000000     
 vdW radii scaling          :    1.00000000000000     
 Gshift (Eh)                :   2.075470419022681E-003
 c1                         :    1.58079374000000     
 soset                      :   7.194512000000000E-002
 HB correction              :  T
 
 doing EN charges ...
 sum q : -0.2000000D+01
 point charge moment (au)
     X       Y       Z   
-267.1467-322.1640-415.2407  total (Debye): 1498.545
 
            Z     q(EN)     CN     RAES       Cart. coordinates
     1  N   5.0   -0.41    3.30    1.98   123.95802   166.72362   201.22698
     2  C   4.0    0.02    4.41    4.40   125.41408   166.11006   203.06246
     3  C   4.0    0.16    3.35    3.06   123.95457   166.37213   205.57950
     4  O   6.0   -0.14    1.13    1.80   122.25951   168.02107   205.81061
     5  C   4.0   -0.06    4.31    4.22   127.82719   167.50192   203.20362
     6  C   4.0   -0.16    4.29    4.17   127.34702   170.07834   203.51870
     7  C   4.0   -0.16    4.20    4.00   129.61645   166.55119   205.09097
     8  H   1.0    0.11    1.04    1.43   122.78544   168.17090   201.50360
     9  H   1.0    0.05    1.05    1.44   125.94127   164.11936   202.95388
    10  H   1.0    0.05    1.06    1.44   128.80847   167.29264   201.41921
    11  H   1.0    0.04    1.00    1.43   129.01783   171.27918   203.53652
    12  H   1.0    0.05    1.01    1.43   126.16256   170.87828   202.09795
    13  H   1.0    0.05    1.01    1.43   126.43143   170.47390   205.28294
    14  H   1.0    0.05    1.00    1.43   131.38592   167.54423   205.13397
    15  H   1.0    0.05    1.01    1.43   128.86305   166.67950   206.94173
    16  H   1.0    0.05    1.00    1.43   130.10749   164.60317   204.81267
    17  N   5.0   -0.30    3.32    1.99   124.62445   164.77496   207.58842
    18  C   4.0   -0.01    4.25    4.10   123.29273   164.47234   209.85895
    19  C   4.0    0.11    3.22    3.04   124.97663   164.92299   212.05777
    20  O   6.0   -0.22    1.11    1.80   126.97449   164.02930   212.15853
    21  C   4.0   -0.11    4.27    4.15   121.99183   161.98567   210.12175
    22  C   4.0   -0.10    4.24    4.08   120.76349   161.24236   212.49782
    23  C   4.0    0.22    3.17    3.03   119.82481   158.72812   212.75813
    24  O   6.0   -0.19    1.18    1.80   120.95115   156.90208   212.06891
    25  N   5.0   -0.34    3.19    1.95   117.43700   158.51211   213.61938
    26  H   1.0    0.17    1.07    1.44   126.03170   163.74518   207.43640
    27  H   1.0    0.04    1.04    1.43   121.79477   165.92275   209.84481
    28  H   1.0    0.05    1.02    1.43   120.62766   161.74627   208.62433
    29  H   1.0    0.05    1.03    1.43   123.36600   160.55672   209.67465
    30  H   1.0    0.04    1.03    1.43   122.10683   161.63993   214.02001
    31  H   1.0    0.04    1.02    1.43   119.31457   162.66274   212.90564
    32  H   1.0    0.13    1.03    1.43   116.45367   159.91782   214.18797
    33  H   1.0    0.11    1.02    1.43   116.62395   156.83182   213.68080
    34  N   5.0   -0.39    3.21    1.96   128.62780   165.01453   218.59539
    35  C   4.0   -0.02    4.19    3.98   129.49302   163.39113   220.50199
    36  C   4.0    0.05    3.13    3.03   128.93919   164.32605   223.21052
    37  O   6.0   -0.16    1.06    1.80   128.34641   162.87992   224.93879
    38  C   4.0   -0.11    4.26    4.12   132.14015   162.63123   220.03225
    39  C   4.0    0.24    3.10    3.02   132.74693   161.56939   217.50583
    40  O   6.0   -0.13    1.13    1.80   131.06927   160.18624   216.45868
    41  O   6.0   -0.17    1.14    1.80   134.74276   162.06366   216.49958
    42  H   1.0    0.12    1.07    1.44   129.89732   166.25916   218.06552
    43  H   1.0    0.05    1.05    1.44   128.32510   161.72563   220.35486
    44  H   1.0    0.05    1.03    1.43   133.33423   164.21497   220.42824
    45  H   1.0    0.04    1.01    1.43   132.73595   161.28881   221.49875
    46  N   5.0   -0.39    3.23    1.96   139.78627   166.46355   200.49438
    47  C   4.0   -0.01    4.23    4.06   137.65097   165.15999   201.28089
    48  C   4.0    0.24    3.34    3.06   138.09858   162.34683   201.69698
    49  O   6.0   -0.22    1.45    1.80   137.44062   161.29401   203.54457
    50  C   4.0   -0.15    4.20    3.99   135.54605   165.68594   199.76673
    51  H   1.0    0.11    1.03    1.43   139.89889   166.58782   198.64326
    52  H   1.0    0.04    1.05    1.44   137.26360   165.87748   203.17216
    53  H   1.0    0.04    1.00    1.43   133.80706   164.73634   200.36132
    54  H   1.0    0.05    1.01    1.43   135.03486   167.61655   199.58371
    55  H   1.0    0.04    1.00    1.43   135.79700   165.01259   197.83919
    56  N   5.0   -0.29    3.38    2.01   139.28855   161.08779   199.87772
    57  C   4.0   -0.01    4.36    4.30   139.90731   158.54193   200.07865
    58  C   4.0    0.20    3.30    3.05   142.00238   157.91683   201.91790
    59  O   6.0   -0.17    1.15    1.80   142.10995   155.95215   203.07011
    60  C   4.0   -0.11    4.27    4.14   140.23170   157.20783   197.61030
    61  C   4.0   -0.11    4.19    3.99   138.07635   156.44976   196.20035
    62  C   4.0    0.23    3.09    3.02   138.15499   156.73065   193.36640
    63  O   6.0   -0.15    1.14    1.80   140.32135   156.77768   192.43487
    64  O   6.0   -0.14    1.10    1.80   136.12855   156.93208   192.14304
    65  H   1.0    0.13    1.06    1.44   139.82213   161.86527   198.31894
    66  H   1.0    0.04    1.05    1.44   138.22767   157.67571   200.94408
    67  H   1.0    0.05    1.04    1.43   141.34966   158.44570   196.43774
    68  H   1.0    0.05    1.03    1.43   141.48662   155.62119   197.86277
    69  H   1.0    0.04    1.02    1.43   137.57421   154.51819   196.64411
    70  H   1.0    0.05    1.03    1.43   136.44600   157.46641   196.89778
    71  N   5.0   -0.28    3.39    2.02   143.86090   159.72823   202.20336
    72  C   4.0   -0.00    4.35    4.30   146.13904   159.28638   203.39880
    73  C   4.0    0.20    3.29    3.05   146.25927   160.02368   206.15111
    74  O   6.0   -0.17    1.15    1.80   147.14733   158.62761   207.74920
    75  C   4.0   -0.10    4.33    4.26   148.28164   160.08980   201.84431
    76  C   4.0    0.24    3.17    3.03   148.55882   158.92665   199.37154
    77  O   6.0   -0.20    1.19    1.80   146.91583   158.69639   197.89914
    78  N   5.0   -0.31    3.19    1.95   150.82981   157.95549   198.87157
    79  H   1.0    0.14    1.06    1.44   143.65118   161.39360   201.56106
    80  H   1.0    0.04    1.05    1.44   146.24193   157.18201   203.50955
    81  H   1.0    0.05    1.03    1.43   148.15331   162.10549   201.64556
    82  H   1.0    0.04    1.02    1.43   150.03955   159.93264   202.97295
    83  H   1.0    0.11    1.02    1.43   151.22327   157.02875   197.28354
    84  H   1.0    0.11    1.02    1.43   152.29570   158.08451   200.04303
    85  N   5.0   -0.29    3.36    2.01   145.27868   162.27881   206.77759
    86  C   4.0   -0.02    4.33    4.26   145.25345   163.37020   209.25979
    87  C   4.0    0.22    3.33    3.06   142.70473   163.73377   210.25393
    88  O   6.0   -0.19    1.20    1.80   140.94794   164.07191   208.88952
    89  C   4.0   -0.11    4.25    4.10   146.85084   165.70117   209.50109
    90  C   4.0   -0.11    4.17    3.94   149.63205   165.49683   209.50479
    91  C   4.0    0.23    3.09    3.02   150.84106   165.38019   206.93648
    92  O   6.0   -0.15    1.12    1.80   152.19878   167.17626   206.31212
    93  O   6.0   -0.14    1.14    1.80   150.32617   163.53443   205.51290
    94  H   1.0    0.15    1.06    1.44   144.52567   163.35902   205.57025
    95  H   1.0    0.04    1.04    1.44   146.26260   161.93441   210.39208
    96  H   1.0    0.05    1.03    1.43   146.34768   166.92226   207.97092
    97  H   1.0    0.05    1.03    1.43   146.25250   166.73046   211.13119
    98  H   1.0    0.05    1.03    1.43   150.48647   166.95889   210.57515
    99  H   1.0    0.05    1.02    1.43   150.13577   163.80722   210.53198
   100  N   5.0   -0.28    3.38    2.01   142.41326   163.74500   212.79290
   101  C   4.0   -0.01    4.37    4.32   140.11531   164.16348   214.04321
   102  C   4.0    0.27    3.30    3.05   138.93681   166.75993   213.48357
   103  O   6.0   -0.22    1.22    1.80   140.04857   168.38947   212.54512
   104  C   4.0   -0.10    4.30    4.19   140.29491   163.59034   216.76500
   105  C   4.0    0.23    3.10    3.02   140.88823   160.96952   217.51122
   106  O   6.0   -0.14    1.15    1.80   140.33922   159.34537   215.86858
   107  O   6.0   -0.15    1.12    1.80   141.88618   160.56065   219.58792
   108  H   1.0    0.14    1.06    1.44   143.82810   163.59029   213.90941
   109  H   1.0    0.05    1.04    1.44   138.81911   162.75120   213.26682
   110  H   1.0    0.05    1.03    1.43   141.64138   164.86270   217.59195
   111  H   1.0    0.04    1.02    1.43   138.55094   164.15550   217.72821
   112  N   5.0   -0.28    3.35    2.00   136.64601   167.02452   214.24800
   113  C   4.0   -0.02    4.26    4.12   135.18123   169.32343   213.82183
   114  C   4.0    0.00    3.14    3.03   133.65942   170.03480   216.16647
   115  O   6.0   -0.11    1.10    1.80   131.53230   168.71599   216.62248
   116  C   4.0   -0.27    4.26    4.13   133.83656   169.82184   211.28783
   117  C   4.0   -0.02    3.45    3.10   132.04218   171.87657   211.33856
   118  C   4.0   -0.27    3.39    3.08   133.33270   174.26217   210.50239
   119  C   4.0   -0.21    3.37    3.07   129.66270   172.08542   212.19243
   120  C   4.0   -0.14    3.30    3.05   132.01462   176.55759   210.55280
   121  C   4.0   -0.11    3.33    3.06   128.33463   174.34945   212.24594
   122  C   4.0    0.05    3.40    3.08   129.53603   176.45550   211.44687
   123  O   6.0   -0.29    2.11    1.84   128.39267   178.82686   211.40460
   124  H   1.0    0.13    1.06    1.44   135.51859   165.71141   214.85621
   125  H   1.0    0.04    1.05    1.44   136.71505   170.71719   213.62232
   126  H   1.0    0.21    1.06    1.44   134.63187   169.39821   209.97929
   127  H   1.0    0.04    1.05    1.44   132.62156   168.15294   211.29421
   128  H   1.0    0.26    1.08    1.44   134.76032   173.94867   210.12163
   129  H   1.0    0.19    1.09    1.44   129.02257   170.74791   212.76043
   130  H   1.0    0.12    1.06    1.44   132.80708   177.96480   210.00625
   131  H   1.0    0.10    1.05    1.44   126.64881   174.32746   212.81587
   132  H   1.0    0.19    1.07    1.44   126.86792   178.58758   211.98334
   133  N   5.0   -0.36    4.28    3.69   136.92174   159.55268   207.71918
   134  C   4.0    0.02    4.29    4.18   134.78316   159.04278   208.88378
   135  C   4.0    0.24    3.38    3.07   132.98084   157.60229   207.31636
   136  O   6.0   -0.19    1.20    1.80   133.51169   156.91112   205.24664
   137  C   4.0   -0.16    4.24    4.08   133.67733   161.25599   210.03142
   138  H   1.0    0.08    1.02    1.43   138.13803   160.87018   208.55961
   139  H   1.0    0.09    1.01    1.43   138.12983   158.06052   207.28276
   140  H   1.0    0.09    1.24    1.47   136.62685   160.37142   205.92781
   141  H   1.0    0.04    1.05    1.44   135.35704   157.80375   210.47347
   142  H   1.0    0.05    1.01    1.43   132.00306   160.85289   211.09839
   143  H   1.0    0.05    1.01    1.43   134.89593   162.24200   211.30653
   144  H   1.0    0.05    1.01    1.43   133.13731   162.57793   208.62950
   145  N   5.0   -0.35    3.33    1.99   130.81206   157.22504   208.43057
   146  C   4.0   -0.02    4.27    4.14   128.75694   156.00634   206.77567
   147  C   4.0    0.18    3.43    3.09   127.84082   157.83347   204.68619
   148  O   6.0   -0.12    1.15    1.80   127.07381   160.08658   205.38916
   149  C   4.0   -0.15    4.26    4.12   126.61524   155.00076   208.49565
   150  C   4.0   -0.25    4.26    4.12   127.32284   153.18226   210.37155
   151  C   4.0   -0.14    4.27    4.15   125.56854   152.88322   212.44619
   152  N   5.0   -0.49    3.29    1.98   125.75694   154.88289   214.37945
   153  C   4.0    0.17    3.33    3.06   124.32964   155.27542   216.34806
   154  N   5.0   -0.76    3.14    1.94   122.09208   153.62336   216.61181
   155  N   5.0   -0.83    3.16    1.95   124.74727   157.12532   218.01955
   156  H   1.0    0.21    1.06    1.44   130.24177   157.57277   209.97673
   157  H   1.0    0.04    1.00    1.43   129.65777   154.39636   205.68915
   158  H   1.0    0.05    1.04    1.43   125.89989   156.54807   209.55387
   159  H   1.0    0.08    1.06    1.44   125.30943   154.29419   207.39273
   160  H   1.0    0.11    1.09    1.44   127.45931   151.60301   209.60731
   161  H   1.0    0.12    1.08    1.44   128.91403   153.45050   211.00061
   162  H   1.0    0.06    1.05    1.44   123.76712   153.01680   211.72018
   163  H   1.0    0.10    1.05    1.44   125.59419   151.26859   213.25138
   164  H   1.0    0.34    1.11    1.45   126.94162   155.87181   214.21542
   165  H   1.0    0.30    1.04    1.43   121.94771   152.44261   215.56346
   166  H   1.0    0.40    1.05    1.44   121.33706   153.97985   217.86711
   167  H   1.0    0.50    1.09    1.44   125.92990   157.92814   217.75838
   168  H   1.0    0.24    1.06    1.44   123.67166   157.19430   219.26306
   169  N   5.0   -0.42    3.41    2.03   127.81704   157.06486   202.41443
   170  C   4.0   -0.17    4.31    4.21   126.72806   158.55883   200.76392
   171  C   4.0   -0.01    3.18    3.03   124.79941   157.31979   199.05811
   172  O   6.0   -0.09    1.06    1.80   124.47394   154.78476   199.48698
   173  C   4.0   -0.15    4.06    3.73   129.13225   159.28359   198.63448
   174  O   6.0   -0.29    2.01    1.83   129.70680   156.92280   197.06817
   175  C   4.0   -0.30    4.13    3.86   131.46900   159.93706   200.09305
   176  H   1.0    0.22    1.10    1.44   128.19202   155.46488   202.11988
   177  H   1.0    0.23    1.11    1.45   126.21873   160.00794   201.06468
   178  H   1.0    0.17    1.06    1.44   128.69304   160.36899   197.48311
   179  H   1.0    0.22    1.04    1.43   130.92810   157.34217   196.10630
   180  H   1.0    0.09    1.03    1.43   132.79424   160.40877   198.91630
   181  H   1.0    0.09    1.03    1.43   131.13755   161.47303   201.03527
   182  H   1.0    0.11    1.03    1.43   132.07998   158.63391   201.11191
   183  H   1.0    0.20    1.09    1.44   124.89771   167.15393   199.87628
   184  H   1.0    0.07    1.03    1.43   124.39370   166.01407   213.48634
   185  H   1.0    0.20    1.05    1.44   128.19864   164.10304   217.22515
   186  H   1.0    0.07    1.02    1.43   129.05559   166.16795   223.61661
   187  H   1.0    0.20    1.05    1.44   139.75180   168.04267   201.12505
   188  H   1.0    0.06    1.02    1.43   134.25500   171.43131   217.29168
   189  H   1.0    0.07    1.02    1.43   123.89025   158.34620   197.75774
 
  Z AO/shell   Hii/eV     exponent
  1     Wed Apr 25 08:07:45 CEST 2018   EN: 2.200 GM2: 0.406  GM3: 0.0800  RAES: 1.40
     1s    -10.707211    1.230000
  6     Wed Apr 25 08:07:45 CEST 2018   EN: 2.550 GM2: 0.538  GM3: 0.1500  RAES: 3.00
     2s    -13.970922    2.096432
     2p    -10.063292    1.800000
  7     Wed Apr 25 08:07:45 CEST 2018   EN: 3.040 GM2: 0.461  GM3:-0.0640  RAES: 1.90
     2s    -16.686243    2.339881
     2p    -12.523956    2.014332
  8     Wed Apr 25 08:07:45 CEST 2018   EN: 3.440 GM2: 0.452  GM3:-0.0517  RAES: 1.80
     2s    -20.229985    2.439742
     2p    -15.503117    2.137023
 no old-style atom pair restraing (fixing) potential
 
 molecular fragmentation (1/2 indicates fragments):
11111111111111111111111111111111122222222222222222222222222222222222222222222222
22222222222222222222222222222222222222222222222222222222222222222222222222222222
22222222222222222222221122222
# atoms in fragment 1/2:    35   154
 fragment masses (1/2) :      229.28     1169.17
CMA distance (Bohr)    :  12.488
constraining FC (au)   :  0.0500
 
             =======================================
             |                                     |
             |        S C C  calculation           |
             |                                     |
             =======================================
 #proc     :            2
 Ncao      :          483
 Nao       :          483
 Nel       :          550
 T(el)     :   500.0
 intcut    :    25.0
 scfconv   :  0.100E-05
   qconv   :  0.100E-03
 intneglect:  0.100E-07
 broydamp  :      0.400
 Nshell    :          287
 iter      E             dE          RMSdq      gap      omega  full diag
   1   -318.9039160 -0.318904E+03  0.554E+00    1.10       0.0  T
   2   -320.5986675 -0.169475E+01  0.250E+00    0.38       1.0  T
   3   -320.6569380 -0.582705E-01  0.147E+00    1.04       1.0  T
   4   -320.7044614 -0.475234E-01  0.643E-01    0.50       1.0  T
   5   -320.7436483 -0.391869E-01  0.253E-01    0.73       1.0  T
   6   -320.7475516 -0.390325E-02  0.122E-01    0.75       1.0  T
   7   -320.7479109 -0.359296E-03  0.430E-02    0.74       1.0  T
   8   -320.7480027 -0.918808E-04  0.199E-02    0.73       1.0  T
   9   -320.7480143 -0.115565E-04  0.102E-02    0.73       1.0  T
  10   -320.7480207 -0.640417E-05  0.418E-03    0.73       1.7  T
  11   -320.7480214 -0.741199E-06  0.179E-03    0.73       4.1  T
  12   -320.7480216 -0.189245E-06  0.792E-04    0.73       9.2  T
  13   -320.7480216 -0.261589E-07  0.367E-04    0.73      19.8  T
speedup  2.01
cpu  time for SCC    1.61 s
wall time for SCC    0.80 s

          eigenvalues
 #    :         263        264        265        266        267        268        269        270
 occ. :        2.000      2.000      2.000      2.000      2.000      2.000      2.000      2.000
 eps  :       -10.371    -10.267    -10.077     -9.998     -9.970     -9.964     -9.920     -9.754
 #    :         271        272        273        274        275        276        277        278
 occ. :        2.000      2.000      2.000      2.000      2.000      0.001      0.000      0.000
 eps  :        -9.662     -9.649     -9.618     -9.607     -9.559     -8.833     -8.787     -7.694
 #    :         279        280        281        282        283        284        285        286
 occ. :        0.000      0.000      0.000      0.000      0.000      0.000      0.000      0.000
 eps  :        -7.139     -6.729     -6.630     -6.450     -6.313     -6.246     -6.189     -6.096
 

   #   Z            q   n(s)   n(p)   n(d)      C6AA      α(0)    relVol
   1   7 N     -0.369  1.269  4.100  0.000    29.929     8.129     1.078
   2   6 C      0.063  1.017  2.919  0.000    19.482     6.275     0.508
   3   6 C      0.247  1.082  2.671  0.000    22.808     7.825     0.633
   4   8 O     -0.507  1.768  4.739  0.000    23.996     6.574     1.265
   5   6 C     -0.016  1.028  2.988  0.000    20.825     6.488     0.525
   6   6 C     -0.096  1.010  3.086  0.000    22.332     6.724     0.544
   7   6 C     -0.115  1.020  3.095  0.000    22.745     6.793     0.550
   8   1 H      0.166  0.834  0.000  0.000     1.254     1.753     0.347
   9   1 H      0.028  0.972  0.000  0.000     2.607     2.524     0.499
  10   1 H      0.042  0.958  0.000  0.000     2.416     2.430     0.481
  11   1 H      0.030  0.970  0.000  0.000     2.581     2.512     0.497
  12   1 H      0.042  0.958  0.000  0.000     2.418     2.431     0.481
  13   1 H      0.020  0.980  0.000  0.000     2.731     2.584     0.511
  14   1 H      0.045  0.955  0.000  0.000     2.382     2.413     0.477
  15   1 H      0.031  0.969  0.000  0.000     2.573     2.508     0.496
  16   1 H      0.034  0.966  0.000  0.000     2.525     2.485     0.492
  17   7 N     -0.185  1.221  3.964  0.000    25.308     7.475     0.992
  18   6 C      0.033  1.032  2.935  0.000    20.022     6.370     0.516
  19   6 C      0.217  1.061  2.722  0.000    23.375     7.916     0.641
  20   8 O     -0.333  1.724  4.608  0.000    20.494     6.075     1.169
  21   6 C     -0.055  1.024  3.031  0.000    21.560     6.605     0.535
  22   6 C     -0.094  1.033  3.062  0.000    22.299     6.720     0.544
  23   6 C      0.299  1.018  2.683  0.000    21.831     7.641     0.618
  24   8 O     -0.493  1.726  4.767  0.000    23.659     6.528     1.256
  25   7 N     -0.302  1.252  4.050  0.000    28.158     7.884     1.046
  26   1 H      0.219  0.781  0.000  0.000     0.960     1.534     0.304
  27   1 H      0.069  0.931  0.000  0.000     2.082     2.256     0.446
  28   1 H      0.049  0.951  0.000  0.000     2.321     2.382     0.471
  29   1 H      0.065  0.935  0.000  0.000     2.132     2.283     0.452
  30   1 H      0.074  0.926  0.000  0.000     2.027     2.226     0.440
  31   1 H      0.067  0.933  0.000  0.000     2.105     2.268     0.449
  32   1 H      0.227  0.773  0.000  0.000     0.927     1.508     0.298
  33   1 H      0.228  0.772  0.000  0.000     0.920     1.502     0.297
  34   7 N     -0.380  1.292  4.088  0.000    30.233     8.170     1.084
  35   6 C      0.052  1.035  2.912  0.000    19.735     6.330     0.512
  36   6 C      0.191  1.099  2.710  0.000    23.851     7.988     0.646
  37   8 O     -0.392  1.758  4.633  0.000    21.639     6.242     1.201
  38   6 C     -0.071  1.053  3.018  0.000    21.865     6.653     0.538
  39   6 C      0.371  1.014  2.615  0.000    20.567     7.407     0.599
  40   8 O     -0.648  1.758  4.890  0.000    27.268     7.008     1.349
  41   8 O     -0.621  1.765  4.855  0.000    26.584     6.920     1.332
  42   1 H      0.181  0.819  0.000  0.000     1.165     1.689     0.334
  43   1 H      0.066  0.934  0.000  0.000     2.113     2.272     0.450
  44   1 H      0.007  0.993  0.000  0.000     2.939     2.680     0.530
  45   1 H      0.012  0.988  0.000  0.000     2.858     2.643     0.523
  46   7 N     -0.410  1.312  4.098  0.000    31.100     8.286     1.099
  47   6 C      0.048  1.019  2.932  0.000    19.789     6.336     0.513
  48   6 C      0.275  1.042  2.683  0.000    22.304     7.738     0.626
  49   8 O     -0.456  1.689  4.767  0.000    22.753     6.405     1.233
  50   6 C     -0.120  1.019  3.101  0.000    22.849     6.810     0.551
  51   1 H      0.168  0.832  0.000  0.000     1.244     1.746     0.345
  52   1 H      0.056  0.944  0.000  0.000     2.234     2.337     0.462
  53   1 H      0.052  0.948  0.000  0.000     2.291     2.367     0.468
  54   1 H      0.074  0.926  0.000  0.000     2.030     2.228     0.441
  55   1 H      0.038  0.962  0.000  0.000     2.468     2.456     0.486
  56   7 N     -0.170  1.218  3.951  0.000    24.970     7.425     0.985
  57   6 C      0.026  1.040  2.935  0.000    20.123     6.380     0.516
  58   6 C      0.272  1.050  2.678  0.000    22.349     7.742     0.627
  59   8 O     -0.478  1.742  4.736  0.000    23.359     6.486     1.248
  60   6 C     -0.042  1.019  3.022  0.000    21.313     6.568     0.532
  61   6 C     -0.085  1.042  3.043  0.000    22.144     6.700     0.542
  62   6 C      0.365  1.021  2.614  0.000    20.671     7.425     0.601
  63   8 O     -0.657  1.778  4.879  0.000    27.500     7.038     1.354
  64   8 O     -0.653  1.773  4.881  0.000    27.413     7.026     1.352
  65   1 H      0.213  0.787  0.000  0.000     0.992     1.559     0.308
  66   1 H      0.084  0.916  0.000  0.000     1.915     2.163     0.428
  67   1 H      0.051  0.949  0.000  0.000     2.303     2.372     0.469
  68   1 H      0.034  0.966  0.000  0.000     2.527     2.486     0.492
  69   1 H      0.033  0.967  0.000  0.000     2.538     2.491     0.493
  70   1 H      0.040  0.960  0.000  0.000     2.443     2.444     0.483
  71   7 N     -0.190  1.220  3.970  0.000    25.434     7.493     0.994
  72   6 C      0.048  1.029  2.923  0.000    19.749     6.321     0.512
  73   6 C      0.281  1.044  2.675  0.000    22.165     7.708     0.624
  74   8 O     -0.500  1.745  4.755  0.000    23.830     6.551     1.261
  75   6 C     -0.095  1.037  3.059  0.000    22.297     6.715     0.543
  76   6 C      0.310  1.014  2.676  0.000    21.633     7.606     0.616
  77   8 O     -0.488  1.723  4.766  0.000    23.553     6.514     1.253
  78   7 N     -0.299  1.260  4.039  0.000    28.092     7.875     1.045
  79   1 H      0.207  0.793  0.000  0.000     1.022     1.582     0.313
  80   1 H      0.062  0.938  0.000  0.000     2.158     2.297     0.454
  81   1 H      0.086  0.914  0.000  0.000     1.900     2.155     0.426
  82   1 H      0.075  0.925  0.000  0.000     2.018     2.221     0.439
  83   1 H      0.233  0.767  0.000  0.000     0.901     1.486     0.294
  84   1 H      0.220  0.780  0.000  0.000     0.960     1.534     0.304
  85   7 N     -0.170  1.218  3.952  0.000    24.973     7.425     0.985
  86   6 C      0.029  1.040  2.931  0.000    20.070     6.373     0.516
  87   6 C      0.279  1.031  2.690  0.000    22.216     7.721     0.625
  88   8 O     -0.470  1.706  4.764  0.000    23.165     6.460     1.243
  89   6 C     -0.047  1.029  3.018  0.000    21.412     6.584     0.533
  90   6 C     -0.091  1.046  3.046  0.000    22.276     6.722     0.544
  91   6 C      0.363  1.022  2.615  0.000    20.705     7.431     0.601
  92   8 O     -0.637  1.764  4.873  0.000    27.013     6.975     1.342
  93   8 O     -0.668  1.777  4.891  0.000    27.775     7.073     1.361
  94   1 H      0.208  0.792  0.000  0.000     1.015     1.577     0.312
  95   1 H      0.059  0.941  0.000  0.000     2.193     2.315     0.458
  96   1 H      0.044  0.956  0.000  0.000     2.391     2.417     0.478
  97   1 H      0.053  0.947  0.000  0.000     2.269     2.355     0.466
  98   1 H      0.043  0.957  0.000  0.000     2.396     2.420     0.479
  99   1 H      0.022  0.978  0.000  0.000     2.702     2.570     0.508
 100   7 N     -0.181  1.226  3.955  0.000    25.222     7.462     0.990
 101   6 C      0.037  1.040  2.923  0.000    19.928     6.349     0.514
 102   6 C      0.299  1.019  2.682  0.000    21.860     7.657     0.620
 103   8 O     -0.461  1.705  4.756  0.000    22.963     6.432     1.238
 104   6 C     -0.083  1.051  3.032  0.000    22.074     6.683     0.541
 105   6 C      0.373  1.012  2.615  0.000    20.534     7.401     0.599
 106   8 O     -0.662  1.773  4.888  0.000    27.595     7.050     1.357
 107   8 O     -0.647  1.766  4.881  0.000    27.251     7.006     1.348
 108   1 H      0.191  0.809  0.000  0.000     1.107     1.647     0.326
 109   1 H      0.063  0.937  0.000  0.000     2.146     2.290     0.453
 110   1 H      0.028  0.972  0.000  0.000     2.607     2.524     0.499
 111   1 H      0.054  0.946  0.000  0.000     2.258     2.349     0.465
 112   7 N     -0.178  1.232  3.946  0.000    25.151     7.452     0.988
 113   6 C      0.037  1.045  2.918  0.000    19.960     6.359     0.515
 114   6 C      0.174  1.115  2.712  0.000    24.202     8.047     0.651
 115   8 O     -0.383  1.803  4.580  0.000    21.464     6.217     1.196
 116   6 C     -0.086  0.996  3.090  0.000    22.134     6.693     0.542
 117   6 C     -0.014  1.079  2.935  0.000    28.253     8.722     0.706
 118   6 C     -0.091  1.066  3.025  0.000    30.251     9.030     0.731
 119   6 C     -0.061  1.031  3.030  0.000    29.505     8.918     0.722
 120   6 C     -0.076  1.054  3.022  0.000    29.913     8.977     0.727
 121   6 C     -0.089  1.048  3.042  0.000    30.243     9.028     0.731
 122   6 C      0.135  1.054  2.811  0.000    25.042     8.213     0.665
 123   8 O     -0.463  1.708  4.755  0.000    22.632     6.437     1.239
 124   1 H      0.208  0.792  0.000  0.000     1.017     1.579     0.312
 125   1 H      0.073  0.927  0.000  0.000     2.038     2.232     0.442
 126   1 H      0.107  0.893  0.000  0.000     1.694     2.035     0.403
 127   1 H      0.059  0.941  0.000  0.000     2.203     2.320     0.459
 128   1 H      0.093  0.907  0.000  0.000     1.825     2.112     0.418
 129   1 H      0.081  0.919  0.000  0.000     1.946     2.180     0.431
 130   1 H      0.081  0.919  0.000  0.000     1.947     2.181     0.432
 131   1 H      0.083  0.917  0.000  0.000     1.930     2.172     0.430
 132   1 H      0.345  0.655  0.000  0.000     0.534     1.146     0.227
 133   7 N     -0.150  1.199  3.952  0.000    24.534     7.360     0.976
 134   6 C      0.027  1.004  2.969  0.000    20.123     6.385     0.517
 135   6 C      0.292  1.010  2.699  0.000    22.003     7.689     0.622
 136   8 O     -0.490  1.731  4.759  0.000    23.588     6.518     1.254
 137   6 C     -0.134  1.012  3.123  0.000    23.099     6.843     0.554
 138   1 H      0.258  0.742  0.000  0.000     0.799     1.400     0.277
 139   1 H      0.247  0.753  0.000  0.000     0.840     1.435     0.284
 140   1 H      0.341  0.659  0.000  0.000     0.537     1.145     0.226
 141   1 H      0.080  0.920  0.000  0.000     1.966     2.192     0.434
 142   1 H      0.096  0.904  0.000  0.000     1.801     2.098     0.415
 143   1 H      0.057  0.943  0.000  0.000     2.221     2.330     0.461
 144   1 H      0.075  0.925  0.000  0.000     2.021     2.222     0.440
 145   7 N     -0.180  1.223  3.957  0.000    25.194     7.458     0.989
 146   6 C      0.011  1.086  2.903  0.000    20.384     6.425     0.520
 147   6 C      0.246  1.050  2.704  0.000    22.846     7.844     0.635
 148   8 O     -0.536  1.778  4.758  0.000    24.617     6.659     1.281
 149   6 C     -0.080  1.016  3.065  0.000    22.032     6.679     0.541
 150   6 C     -0.108  0.964  3.144  0.000    22.565     6.761     0.547
 151   6 C     -0.034  1.010  3.023  0.000    21.220     6.564     0.531
 152   7 N     -0.124  1.177  3.948  0.000    23.972     7.275     0.965
 153   6 C      0.207  1.045  2.748  0.000    23.568     7.948     0.643
 154   7 N     -0.316  1.185  4.131  0.000    28.523     7.935     1.053
 155   7 N     -0.257  1.165  4.092  0.000    27.023     7.724     1.025
 156   1 H      0.238  0.762  0.000  0.000     0.875     1.464     0.290
 157   1 H      0.062  0.938  0.000  0.000     2.169     2.303     0.456
 158   1 H      0.081  0.919  0.000  0.000     1.946     2.181     0.431
 159   1 H      0.085  0.915  0.000  0.000     1.909     2.160     0.427
 160   1 H      0.101  0.899  0.000  0.000     1.747     2.066     0.409
 161   1 H      0.091  0.909  0.000  0.000     1.844     2.123     0.420
 162   1 H      0.112  0.888  0.000  0.000     1.657     2.012     0.398
 163   1 H      0.111  0.889  0.000  0.000     1.665     2.017     0.399
 164   1 H      0.237  0.763  0.000  0.000     0.879     1.466     0.290
 165   1 H      0.244  0.756  0.000  0.000     0.852     1.445     0.286
 166   1 H      0.251  0.749  0.000  0.000     0.822     1.419     0.281
 167   1 H      0.246  0.754  0.000  0.000     0.843     1.437     0.284
 168   1 H      0.267  0.733  0.000  0.000     0.763     1.367     0.270
 169   7 N     -0.070  1.165  3.905  0.000    22.835     7.100     0.942
 170   6 C      0.026  1.003  2.971  0.000    20.110     6.377     0.516
 171   6 C      0.162  1.116  2.722  0.000    24.438     8.090     0.655
 172   8 O     -0.443  1.827  4.616  0.000    22.671     6.390     1.230
 173   6 C      0.085  1.067  2.849  0.000    19.442     6.327     0.512
 174   8 O     -0.531  1.727  4.804  0.000    24.128     6.645     1.279
 175   6 C     -0.151  0.966  3.185  0.000    23.534     6.925     0.560
 176   1 H      0.233  0.767  0.000  0.000     0.896     1.481     0.293
 177   1 H      0.149  0.851  0.000  0.000     1.360     1.822     0.361
 178   1 H      0.110  0.890  0.000  0.000     1.671     2.021     0.400
 179   1 H      0.323  0.677  0.000  0.000     0.591     1.207     0.239
 180   1 H      0.081  0.919  0.000  0.000     1.954     2.185     0.432
 181   1 H      0.085  0.915  0.000  0.000     1.907     2.159     0.427
 182   1 H      0.082  0.918  0.000  0.000     1.941     2.178     0.431
 183   1 H      0.200  0.800  0.000  0.000     1.056     1.608     0.318
 184   1 H      0.070  0.930  0.000  0.000     2.077     2.253     0.446
 185   1 H      0.188  0.812  0.000  0.000     1.122     1.658     0.328
 186   1 H      0.070  0.930  0.000  0.000     2.075     2.252     0.446
 187   1 H      0.195  0.805  0.000  0.000     1.081     1.628     0.322
 188   1 H      0.101  0.899  0.000  0.000     1.749     2.068     0.409
 189   1 H      0.116  0.884  0.000  0.000     1.620     1.990     0.394

 Mol. C6AA /au*bohr^6 :     351342.577076
 Mol. C8AA /au*bohr^6 :    7831762.284887
 Mol. a(0) /au        :        884.728902

 
molecular dipole:
                 x           y           z       tot (Debye)
 q only:     -301.005    -323.646    -409.866
   full:      601.058    -322.750    -409.249    1527.769
molecular quadrupole (traceless):
                xx          xy          yy          xz          yz          zz
 q only:    23387.227  -72991.435   12240.189  -92777.005  -99656.256  -35627.416
  q+dip:    23549.114  -72419.767   12173.318  -92134.463  -99224.186  -35722.432
   full:    23550.663  -72419.189   12172.006  -92133.188  -99225.353  -35722.669
 SCC converged in           13  cycles
speedup  2.03
cpu  time for grad    0.43 s
wall time for grad    0.21 s
 
SCC energy    :    -320.6985099
rep           :       5.3829043
ES            :       1.5749979
AES           :      -0.0472134
AXC           :       0.0464361
disp          :      -0.2259135
XB            :       0.0000000
fix           :       0.0000000
Gborn         :      -0.5102029
Gsasa         :       0.0474363
Ghb           :      -0.0480555
Gshift        :       0.0020755
Gsolv         :      -0.5087467     -319.24
Etot ala COSMO:    -315.3027154
grad norm     :       1.9217340
total E       :    -315.3012592
atomizationE  :      53.5897742    33628.09
(atE without considerung molecular charge,
 total energy contains solvation terms)
H-L gap (eV)  :          0.7257
 
speedup  1.93
cpu  time for all    2.28 s
wall time for all    1.18 s
