      -----------------------------------------------------------      
     |                   =====================                   |     
     |                           x T B                           |     
     |                   =====================                   |     
     |                         S. Grimme                         |     
     |          Mulliken Center for Theoretical Chemistry        |     
     |                    University of Bonn                     |     
     |                 Version 6.0.1 (SAW181210)                 |     
      -----------------------------------------------------------      

   This program is distributed in the hope that it will be useful,
   but WITHOUT ANY WARRANTY; without even the implied warranty of
   MERCHANTABILITY or FITNESS FOR A PARTICULAR PURPOSE.
   
   FOR NON-COMMERCIAL, ACADEMIA USE ONLY.
   
   Cite this work as:
   S. Grimme, C. Bannwarth, P. Shushkov, J. Comput. Theory Chem., 2017,
   13, 1989-2009.
   C. Bannwarth, S. Ehlert and S. Grimme., ChemRxiv, 2018, preprint.
   http://doi.org/10.26434/chemrxiv.7246238.v1
   
   for sTDA-xTB:
   S. Grimme and C. Bannwarth, J. Chem. Phys., 2016, 145, 054103.
   
   in the mass-spec context:
   V. Asgeirsson, C. Bauer and S. Grimme, Chem. Sci., 2017, 8, 4879.
   
   if GBSA is used:
   P. Shushkov, F. März and S. Grimme, unpublished.
   
   for ANC optimizer:
   S. Grimme, unpublished.
   Rational Function algorithm used in ANCopt:
   F. Eckert, P. Pulay, H.-J. Werner, J. Comput. Chem., 1997, 18, 1473.
   
   with help from (in alphabetical order)
   C. Bannwarth, F. Bohle, G. Brandenburg, E. Caldeweyher, M. Checinski,
   S. Dohm, S. Ehlert, S. Ehrlich, F. März, H. Neugebauer, J. Pisarek,
   P. Pracht, P. Shushkov, and S. Spicher.
   
 * started run on 2019/05/05 at 21:57:46.985     
========================================================================
 # omp threads = 2
========================================================================
number of atoms            : 595
number of electrons        : 1590
charge                     : -1
spin                       : .0
first test random number   : .1023

########################################################################
# WARNING! Please study the warnings concerning your input carefully
#  - Process number higher than OMP_NUM_THREADS, I hope you know what you are doing.
########################################################################

           ------------------------------------------------- 
          |                 G F N 2 - x T B                 |
          | Geometry, Frequencies, Noncovalent interactions |
          |            JCTC 2018 parametrisation            |
           ------------------------------------------------- 
 
      method parameters     
 k(s)        :  1.8500
 k(p)        :  2.2300
 k(d)        :  2.2300
 k(f)        :  2.0000
 kEN (H0ij)  : -2.0000
 D4 a1       :  0.5200
 D4 a2       :  5.0000
 D4 s6       :  1.0000
 D4 s8       :  2.7000
 D4 s9       :  5.0000
 alphaj      :  2.0000

 Solvent             : h2o
 Using internal parameter file: .param_gbsa2_h2o
 Gsolv ref. state (COSMO-RS): gsolv [1 M gas/solution]
 temperature (mdtemp)       :    298.150000000000     
 dielectric constant        :    80.2000000000000     
 rho                        :    1.00000000000000     
 mass                       :    18.0000000000000     
 surface tension            :    15.5689454083859     
 probe radius               :   0.975313790000000     
 vdW radii scaling          :    1.00000000000000     
 Gshift (Eh)                :   1.857443126794793E-003
 c1                         :    1.55243817000000     
 soset                      :   0.130326360000000     
 HB correction              :  T

            Z     q(EN)     CN     RAES       Cart. coordinates
     1  N   5.0   -0.21    3.19    1.95   139.25768   107.39691   395.22106
     2  C   4.0    0.03    4.27    4.14   136.74057   108.36067   395.92593
     3  C   4.0    0.14    3.33    3.06   134.55983   106.58243   395.11524
     4  O   6.0   -0.32    1.23    1.80   132.77026   106.16858   396.54198
     5  C   4.0   -0.04    4.26    4.11   136.38719   110.98361   394.72407
     6  C   4.0   -0.03    4.14    3.88   134.18755   112.58798   395.71428
     7  C   4.0    0.24    3.10    3.02   134.50691   115.44903   395.18516
     8  O   6.0   -0.29    1.18    1.80   135.16832   116.20681   393.04788
     9  O   6.0   -0.31    1.24    1.80   134.11952   117.00427   396.91804
    10  H   1.0    0.08    1.03    1.43   140.37073   108.74617   394.41226
    11  H   1.0    0.06    1.05    1.44   136.64797   108.50428   397.97817
    12  H   1.0    0.06    1.03    1.43   138.11062   112.06642   395.03965
    13  H   1.0    0.04    1.03    1.43   136.07917   110.72282   392.70395
    14  H   1.0    0.04    1.03    1.43   132.44711   111.96815   394.80344
    15  H   1.0    0.06    1.03    1.43   134.04393   112.33476   397.75330
    16  N   5.0   -0.15    3.39    2.02   134.82439   105.54497   392.82678
    17  C   4.0    0.03    4.24    4.08   133.00458   103.87824   391.50397
    18  C   4.0    0.08    3.18    3.03   131.59674   101.76741   392.97418
    19  O   6.0   -0.31    1.12    1.80   129.25159   101.71639   392.98930
    20  C   4.0   -0.04    4.30    4.20   134.37085   102.68393   389.21741
    21  C   4.0   -0.02    3.51    3.12   132.63608   101.71450   387.16327
    22  C   4.0   -0.04    3.44    3.09   131.29060    99.44305   387.46185
    23  C   4.0   -0.05    3.43    3.09   132.42066   103.03164   384.86159
    24  C   4.0   -0.05    3.35    3.06   129.72969    98.56055   385.55134
    25  C   4.0   -0.05    3.34    3.06   130.85974   102.14536   382.94163
    26  C   4.0   -0.05    3.36    3.07   129.51804    99.90792   383.29689
    27  H   1.0    0.07    1.07    1.44   136.39097   105.83221   391.74208
    28  H   1.0    0.05    1.06    1.44   131.47579   105.16325   391.00509
    29  H   1.0    0.04    1.04    1.43   135.59918   104.10500   388.37270
    30  H   1.0    0.04    1.03    1.43   135.49335   101.09089   389.88448
    31  H   1.0    0.05    1.03    1.43   131.47390    98.37724   389.19284
    32  H   1.0    0.04    1.03    1.43   133.48079   104.75318   384.58380
    33  H   1.0    0.04    1.03    1.43   128.67900    96.82956   385.80834
    34  H   1.0    0.05    1.03    1.43   130.68967   103.18093   381.19174
    35  H   1.0    0.04    1.03    1.43   128.30294    99.21061   381.81346
    36  N   5.0   -0.20    3.22    1.96   131.37186   100.74696   398.85690
    37  C   4.0    0.03    4.26    4.11   130.29471   101.85812   401.16047
    38  C   4.0    0.15    3.42    3.08   127.81350   103.17337   400.58600
    39  O   6.0   -0.32    1.26    1.80   126.04661   103.06943   402.07321
    40  C   4.0   -0.07    4.11    3.82   132.13342   103.71194   402.36423
    41  H   1.0    0.09    1.03    1.43   132.86474   101.74096   398.15203
    42  H   1.0    0.04    1.06    1.44   129.96212   100.35012   402.52297
    43  H   1.0    0.05    1.00    1.43   131.27548   104.49807   404.06309
    44  H   1.0    0.04    1.00    1.43   133.87008   102.71416   402.84989
    45  H   1.0    0.07    1.00    1.43   132.54160   105.21994   401.02063
    46  N   5.0   -0.14    3.51    2.08   127.70579   104.43193   398.42226
    47  C   4.0    0.04    4.51    4.54   125.41355   105.76229   397.62669
    48  C   4.0    0.15    3.50    3.11   123.34619   103.86123   397.05977
    49  O   6.0   -0.32    1.28    1.80   121.13710   104.32232   397.63991
    50  C   4.0   -0.02    4.29    4.17   125.86142   107.44604   395.28909
    51  C   4.0   -0.07    4.15    3.90   123.40288   108.51184   394.28943
    52  C   4.0   -0.07    4.12    3.83   127.64532   109.61922   395.89192
    53  H   1.0    0.11    1.08    1.44   129.16466   104.57365   397.16937
    54  H   1.0    0.06    1.06    1.44   124.86175   106.99250   399.18382
    55  H   1.0    0.05    1.06    1.44   126.71746   106.25740   393.83967
    56  H   1.0    0.05    1.00    1.43   123.79973   109.68536   392.64348
    57  H   1.0    0.05    1.01    1.43   122.16322   106.95471   393.75842
    58  H   1.0    0.06    1.00    1.43   122.51471   109.64568   395.76342
    59  H   1.0    0.04    1.00    1.43   127.91177   110.75873   394.19683
    60  H   1.0    0.05    1.00    1.43   126.81951   110.77007   397.38858
    61  H   1.0    0.06    1.01    1.43   129.45190   108.85010   396.51364
    62  N   5.0   -0.15    3.47    2.06   124.05106   101.71261   395.96751
    63  C   4.0    0.03    4.49    4.52   122.21992    99.65659   395.64247
    64  C   4.0    0.15    3.46    3.10   121.09175    98.88936   398.21061
    65  O   6.0   -0.32    1.28    1.80   118.77872    98.62669   398.41848
    66  C   4.0   -0.03    4.32    4.24   123.35375    97.31900   394.30266
    67  C   4.0   -0.05    4.20    4.00   124.13421    97.95961   391.58712
    68  C   4.0   -0.08    4.15    3.90   121.42056    95.18739   394.25352
    69  C   4.0   -0.08    4.01    3.63   125.67433    95.93950   390.24542
    70  H   1.0    0.10    1.07    1.44   125.81984   101.33655   395.30232
    71  H   1.0    0.05    1.06    1.44   120.73648   100.39736   394.42171
    72  H   1.0    0.04    1.06    1.44   125.02427    96.73318   395.35335
    73  H   1.0    0.03    1.03    1.43   122.42779    98.27142   390.47596
    74  H   1.0    0.05    1.03    1.43   125.27182    99.67548   391.62492
    75  H   1.0    0.03    1.00    1.43   122.24448    93.55655   393.30488
    76  H   1.0    0.05    1.01    1.43   120.91789    94.69417   396.18860
    77  H   1.0    0.04    1.00    1.43   119.74815    95.82233   393.23307
    78  H   1.0    0.04    1.00    1.43   126.12031    96.58956   388.34246
    79  H   1.0    0.04    1.00    1.43   127.41288    95.60879   391.30177
    80  H   1.0    0.03    1.00    1.43   124.56884    94.20473   390.15282
    81  N   5.0   -0.14    3.43    2.04   122.73014    98.53409   400.11923
    82  C   4.0    0.03    4.38    4.35   121.88165    97.89914   402.68926
    83  C   4.0    0.16    3.46    3.10   119.93713    99.81343   403.63790
    84  O   6.0   -0.31    1.27    1.80   117.93213    99.11613   404.59599
    85  C   4.0   -0.05    4.26    4.11   124.07941    97.73852   404.57899
    86  C   4.0   -0.05    4.13    3.87   125.14710    95.10991   405.02307
    87  C   4.0   -0.05    4.11    3.81   127.09730    95.02298   407.22460
    88  C   4.0   -0.05    4.07    3.74   129.08907    92.88570   407.03752
    89  N   5.0   -0.12    3.97    2.78   130.71612    92.93294   404.68670
    90  H   1.0    0.08    1.06    1.44   124.64443    98.67204   399.94727
    91  H   1.0    0.05    1.06    1.44   121.03317    96.02453   402.58722
    92  H   1.0    0.05    1.04    1.43   125.61953    98.91393   403.87979
    93  H   1.0    0.05    1.04    1.43   123.42178    98.44716   406.39690
    94  H   1.0    0.04    1.03    1.43   123.60319    93.82867   405.49173
    95  H   1.0    0.04    1.03    1.43   126.09574    94.47307   403.30909
    96  H   1.0    0.04    1.03    1.43   128.11775    96.81255   407.26429
    97  H   1.0    0.04    1.02    1.43   126.07496    94.75653   408.99339
    98  H   1.0    0.03    1.02    1.43   130.35141    93.02743   408.65891
    99  H   1.0    0.03    1.02    1.43   128.10641    91.07534   407.06587
   100  H   1.0    0.04    1.01    1.43   131.99169    91.43817   404.72072
   101  H   1.0    0.05    1.01    1.43   129.58796    92.77232   403.08610
   102  H   1.0    0.05    1.01    1.43   131.71579    94.62236   404.59599
   103  N   5.0   -0.14    3.54    2.10   120.53239   102.22473   403.33744
   104  C   4.0    0.04    4.56    4.62   119.03951   104.19571   404.51663
   105  C   4.0    0.15    3.54    3.13   116.42035   104.28453   403.34878
   106  O   6.0   -0.31    1.26    1.80   114.44936   104.47161   404.64324
   107  C   4.0   -0.02    4.33    4.25   120.33586   106.74306   404.17081
   108  C   4.0   -0.06    4.14    3.87   118.56141   108.92569   404.84166
   109  C   4.0   -0.06    4.13    3.86   122.70935   106.81676   405.76951
   110  H   1.0    0.11    1.08    1.44   122.02338   102.86723   402.29809
   111  H   1.0    0.06    1.06    1.44   118.87321   103.77052   406.52541
   112  H   1.0    0.06    1.06    1.44   120.85175   106.98306   402.19037
   113  H   1.0    0.05    1.00    1.43   119.55729   110.70771   404.56954
   114  H   1.0    0.05    1.01    1.43   116.90979   108.85010   403.61145
   115  H   1.0    0.06    1.00    1.43   117.98126   108.73861   406.80886
   116  H   1.0    0.06    1.00    1.43   123.63154   108.64034   405.51629
   117  H   1.0    0.06    1.00    1.43   122.19346   106.55787   407.74617
   118  H   1.0    0.06    1.01    1.43   123.96980   105.30309   405.16858
   119  N   5.0   -0.14    3.60    2.16   116.46192   104.17681   400.86001
   120  C   4.0    0.04    4.61    4.68   114.20559   104.25051   399.41626
   121  C   4.0    0.16    3.56    3.14   112.61255   101.96394   399.96617
   122  O   6.0   -0.30    1.26    1.80   110.33921   102.17181   400.23451
   123  C   4.0   -0.02    4.42    4.41   114.86699   104.42626   396.63269
   124  C   4.0   -0.05    4.24    4.08   115.51895   107.17203   396.07711
   125  C   4.0   -0.07    4.17    3.94   112.70515   103.47194   394.98863
   126  C   4.0   -0.08    4.04    3.68   116.36554   107.60289   393.39748
   127  H   1.0    0.11    1.10    1.44   118.06630   104.03697   399.79987
   128  H   1.0    0.05    1.07    1.44   113.11522   105.91725   399.94160
   129  H   1.0    0.06    1.06    1.44   116.48271   103.22439   396.19616
   130  H   1.0    0.03    1.03    1.43   113.85032   108.33421   396.40970
   131  H   1.0    0.05    1.03    1.43   117.04774   107.75973   397.32622
   132  H   1.0    0.03    1.00    1.43   113.24939   103.62690   393.00820
   133  H   1.0    0.05    1.01    1.43   112.32153   101.50285   395.46106
   134  H   1.0    0.05    1.00    1.43   111.03274   104.61901   395.34768
   135  H   1.0    0.03    1.00    1.43   116.79640   109.60033   393.14426
   136  H   1.0    0.04    1.00    1.43   118.04740   106.46905   393.03465
   137  H   1.0    0.03    1.00    1.43   114.85187   107.04353   392.11813
   138  N   5.0   -0.14    3.53    2.10   113.82197    99.78887   400.13813
   139  C   4.0    0.05    4.39    4.37   112.49728    97.47017   400.75607
   140  C   4.0    0.17    3.40    3.08   111.21226    97.64214   403.39035
   141  O   6.0   -0.27    1.20    1.80   109.13545    96.61413   403.81176
   142  C   4.0    0.04    4.16    3.93   114.34543    95.26109   400.57844
   143  O   6.0   -0.24    2.05    1.83   113.00561    92.98586   400.55009
   144  H   1.0    0.11    1.11    1.44   115.71548    99.56399   399.86223
   145  H   1.0    0.06    1.06    1.44   110.98927    97.11869   399.39736
   146  H   1.0    0.05    1.02    1.43   115.44147    95.42738   398.84178
   147  H   1.0    0.06    1.02    1.43   115.60210    95.29132   402.21116
   148  H   1.0    0.11    1.01    1.43   114.18102    91.55911   400.43482
   149  N   5.0   -0.13    3.48    2.07   112.45570    98.97818   405.12134
   150  C   4.0    0.05    4.39    4.37   111.40123    99.51297   407.60822
   151  C   4.0    0.18    3.48    3.11   109.08632   101.20616   407.43058
   152  O   6.0   -0.27    1.23    1.80   107.14746   100.73940   408.64379
   153  C   4.0    0.04    4.15    3.90   113.40623   100.70539   409.34110
   154  O   6.0   -0.24    2.06    1.83   112.34421   102.58944   410.91902
   155  H   1.0    0.11    1.09    1.44   114.21315    99.72273   404.85678
   156  H   1.0    0.06    1.06    1.44   110.82298    97.72529   408.45104
   157  H   1.0    0.05    1.01    1.43   114.22449    99.23140   410.52407
   158  H   1.0    0.07    1.02    1.43   114.86888   101.56332   408.17325
   159  H   1.0    0.13    1.01    1.43   113.65568   103.31888   412.00372
   160  N   5.0   -0.13    3.49    2.07   109.31687   103.20171   405.95093
   161  C   4.0    0.05    4.29    4.18   107.24384   104.97995   405.66558
   162  C   4.0    0.10    3.25    3.04   104.92703   103.71194   404.55253
   163  O   6.0   -0.28    1.12    1.80   102.83133   104.21083   405.37834
   164  C   4.0   -0.07    4.12    3.85   108.02996   107.17581   404.03097
   165  H   1.0    0.12    1.09    1.44   110.89290   103.64202   404.93237
   166  H   1.0    0.06    1.06    1.44   106.76007   105.70749   407.53074
   167  H   1.0    0.04    1.00    1.43   106.44448   108.47783   403.84766
   168  H   1.0    0.05    1.00    1.43   109.62489   108.13201   404.91536
   169  H   1.0    0.06    1.00    1.43   108.57609   106.46905   402.17526
   170  N   5.0   -0.22    3.19    1.95   119.96169   103.07321   379.94074
   171  C   4.0    0.03    4.26    4.11   122.06874   104.74373   380.51900
   172  C   4.0    0.07    3.24    3.04   124.16066   104.63224   378.59904
   173  O   6.0   -0.30    1.12    1.80   125.18867   106.60889   377.89795
   174  C   4.0   -0.05    4.41    4.40   123.21202   104.09744   383.05879
   175  C   4.0   -0.03    4.20    4.00   121.86465   105.17459   385.35481
   176  C   4.0   -0.08    4.10    3.79   122.98336   104.10122   387.79255
   177  C   4.0   -0.08    4.12    3.84   122.05551   108.04319   385.33402
   178  H   1.0    0.07    1.03    1.43   119.57997   101.79198   381.32969
   179  H   1.0    0.04    1.07    1.44   121.27694   106.64479   380.54167
   180  H   1.0    0.04    1.04    1.43   123.21580   102.04709   383.25910
   181  H   1.0    0.04    1.04    1.44   125.14332   104.81176   383.09469
   182  H   1.0    0.03    1.06    1.44   119.87477   104.64357   385.29244
   183  H   1.0    0.04    1.00    1.43   121.98181   104.90814   389.40260
   184  H   1.0    0.04    1.00    1.43   122.76605   102.05276   387.78499
   185  H   1.0    0.04    1.00    1.43   124.98081   104.59633   387.88893
   186  H   1.0    0.04    1.00    1.43   121.08230   108.79152   386.98753
   187  H   1.0    0.04    1.00    1.43   124.04350   108.58365   385.38315
   188  H   1.0    0.04    1.00    1.43   121.17490   108.76129   383.61626
   189  N   5.0   -0.15    3.39    2.02   131.12997   114.63267   387.25965
   190  C   4.0    0.02    4.40    4.38   128.60341   113.55552   387.80011
   191  C   4.0    0.14    3.34    3.06   127.05006   114.78951   389.94306
   192  O   6.0   -0.32    1.23    1.80   124.77671   114.40023   390.03944
   193  C   4.0   -0.04    4.31    4.22   129.12686   110.74550   388.39915
   194  C   4.0   -0.05    4.27    4.14   131.91043   110.36944   388.20073
   195  C   4.0   -0.01    4.23    4.05   133.20867   112.88089   387.79255
   196  H   1.0    0.04    1.05    1.44   127.51304   113.72749   386.06156
   197  H   1.0    0.04    1.03    1.43   128.47491   110.31842   390.30589
   198  H   1.0    0.04    1.02    1.43   128.13854   109.55875   387.03477
   199  H   1.0    0.04    1.03    1.43   132.58506   109.51151   389.94873
   200  H   1.0    0.03    1.03    1.43   132.29404   109.12034   386.60958
   201  H   1.0    0.06    1.02    1.43   134.22723   113.45726   389.48764
   202  H   1.0    0.04    1.02    1.43   134.50124   112.77884   386.19195
   203  N   5.0   -0.14    3.41    2.03   128.24814   116.21248   391.64381
   204  C   4.0    0.04    4.30    4.19   126.86864   117.71859   393.51653
   205  C   4.0    0.10    3.25    3.04   125.38899   119.93524   392.37514
   206  O   6.0   -0.30    1.16    1.80   123.56351   120.78750   393.50519
   207  C   4.0    0.03    4.17    3.93   128.68656   118.81085   395.44972
   208  O   6.0   -0.23    2.04    1.83   130.31361   120.66467   394.34801
   209  H   1.0    0.10    1.06    1.44   130.16432   116.36743   391.77987
   210  H   1.0    0.05    1.06    1.44   125.53638   116.42980   394.41415
   211  H   1.0    0.04    1.02    1.43   127.59808   119.69524   396.95961
   212  H   1.0    0.05    1.02    1.43   129.83929   117.28395   396.21317
   213  H   1.0    0.13    1.00    1.43   131.46634   121.33930   395.63114
   214  N   5.0   -0.19    3.25    1.97   121.35253   120.04295   388.57301
   215  C   4.0    0.03    4.33    4.26   118.76928   119.14155   388.21018
   216  C   4.0    0.15    3.45    3.10   117.01372   119.77272   390.37392
   217  O   6.0   -0.31    1.29    1.80   114.75928   119.94280   390.02432
   218  C   4.0   -0.04    4.41    4.40   118.81652   116.29940   387.81145
   219  C   4.0   -0.02    4.24    4.08   116.30696   114.97849   387.41839
   220  C   4.0   -0.08    4.15    3.89   116.50349   112.90735   385.47764
   221  C   4.0   -0.08    4.16    3.92   115.42635   113.78229   389.84479
   222  H   1.0    0.10    1.04    1.43   122.59219   118.61054   388.93206
   223  H   1.0    0.05    1.06    1.44   118.00961   120.07697   386.53966
   224  H   1.0    0.04    1.04    1.43   119.95980   115.91768   386.14093
   225  H   1.0    0.05    1.05    1.44   119.68579   115.44525   389.47063
   226  H   1.0    0.05    1.06    1.44   114.96337   116.39956   386.77399
   227  H   1.0    0.04    1.00    1.43   114.65912   112.01540   385.26032
   228  H   1.0    0.04    1.00    1.43   117.10443   113.72371   383.68429
   229  H   1.0    0.04    1.00    1.43   117.88488   111.51840   386.11636
   230  H   1.0    0.03    1.00    1.43   113.62166   112.84499   389.51409
   231  H   1.0    0.03    1.00    1.43   116.82853   112.40657   390.46273
   232  H   1.0    0.05    1.00    1.43   115.20525   115.24872   391.27343
   233  N   5.0   -0.14    3.51    2.08   118.02283   120.05996   392.62647
   234  C   4.0    0.04    4.42    4.41   116.51105   120.95002   394.75241
   235  C   4.0    0.16    3.42    3.08   115.61343   123.70335   394.42171
   236  O   6.0   -0.30    1.23    1.80   113.64623   124.40822   395.41760
   237  C   4.0   -0.03    4.34    4.28   118.04362   120.85931   397.19961
   238  C   4.0   -0.01    3.54    3.13   119.27383   118.37621   397.86668
   239  C   4.0   -0.05    3.48    3.11   117.99638   116.10098   397.60023
   240  C   4.0   -0.03    3.48    3.10   121.71536   118.31952   398.82477
   241  C   4.0   -0.05    3.42    3.09   119.13588   113.81441   398.26919
   242  C   4.0   -0.05    3.44    3.09   122.87565   116.06886   399.47862
   243  C   4.0    0.07    3.45    3.09   121.58308   113.82575   399.21595
   244  O   6.0   -0.25    2.14    1.85   122.72636   111.60910   399.88491
   245  H   1.0    0.11    1.09    1.44   119.86721   119.70091   393.05922
   246  H   1.0    0.05    1.06    1.44   114.88211   119.69524   394.87524
   247  H   1.0    0.06    1.04    1.43   119.55162   122.25582   397.05599
   248  H   1.0    0.05    1.03    1.43   116.78317   121.34119   398.75674
   249  H   1.0    0.04    1.03    1.43   116.09342   116.09720   396.86513
   250  H   1.0    0.06    1.03    1.43   122.73203   120.07319   399.06477
   251  H   1.0    0.05    1.03    1.43   118.12299   112.05508   398.05187
   252  H   1.0    0.05    1.03    1.43   124.78805   116.07264   400.19293
   253  H   1.0    0.14    1.11    1.45   124.43656   111.94359   400.51230
   254  N   5.0   -0.12    3.47    2.06   117.10065   125.26426   393.11591
   255  C   4.0    0.04    4.40    4.37   116.49594   127.92689   392.85135
   256  C   4.0    0.15    3.49    3.11   114.22637   128.14043   391.08634
   257  O   6.0   -0.28    1.26    1.80   114.21693   126.93856   389.11536
   258  C   4.0    0.03    4.13    3.85   118.76361   129.44623   391.84601
   259  O   6.0   -0.24    2.01    1.83   120.80262   129.53127   393.61480
   260  H   1.0    0.09    1.06    1.44   118.72770   124.73514   392.22774
   261  H   1.0    0.07    1.07    1.44   116.03295   128.74703   394.68438
   262  H   1.0    0.05    1.01    1.43   119.43257   128.55995   390.11125
   263  H   1.0    0.04    1.01    1.43   118.14567   131.37375   391.46051
   264  H   1.0    0.12    1.00    1.43   122.20858   130.51014   392.91371
   265  N   5.0   -0.10    3.65    2.20   112.28374   129.64654   391.77798
   266  C   4.0    0.04    4.51    4.55   110.03685   129.75425   390.16605
   267  C   4.0    0.08    3.20    3.04   110.43747   131.04683   387.62437
   268  O   6.0   -0.31    1.16    1.80   109.03152   130.49314   385.86503
   269  C   4.0   -0.04    4.39    4.37   108.13390   131.23013   391.76476
   270  C   4.0   -0.04    4.32    4.23   109.21671   131.26981   394.37258
   271  C   4.0   -0.01    4.37    4.33   111.99650   131.38131   393.92660
   272  H   1.0    0.06    1.07    1.44   109.35466   127.83807   389.84290
   273  H   1.0    0.04    1.03    1.43   107.93359   133.14253   391.02398
   274  H   1.0    0.04    1.03    1.43   106.31031   130.27204   391.74208
   275  H   1.0    0.05    1.03    1.43   108.55531   132.93088   395.39681
   276  H   1.0    0.05    1.03    1.43   108.69137   129.55961   395.39114
   277  H   1.0    0.04    1.02    1.43   112.59743   133.28804   393.43338
   278  H   1.0    0.06    1.02    1.43   113.04341   130.71612   395.57066
   279  N   5.0   -0.20    3.20    1.96   109.72883   126.35275   382.27644
   280  C   4.0    0.03    4.27    4.13   107.61044   124.57451   382.02511
   281  C   4.0    0.08    3.20    3.04   106.19504   124.86931   379.56657
   282  O   6.0   -0.29    1.12    1.80   105.76418   122.98903   378.27022
   283  C   4.0   -0.04    4.29    4.17   105.83410   124.79183   384.26443
   284  C   4.0   -0.02    3.68    3.22   107.07943   124.11531   386.73808
   285  C   4.0    0.00    3.62    3.18   109.37356   122.94179   387.09146
   286  C   4.0    0.00    3.89    3.45   106.06087   124.50081   389.20040
   287  N   5.0   -0.11    3.48    2.06   109.83843   122.60731   389.61992
   288  C   4.0    0.03    3.90    3.46   107.83910   123.54083   390.95784
   289  C   4.0   -0.05    3.40    3.08   103.81587   125.57040   390.10558
   290  C   4.0   -0.05    3.40    3.08   107.42903   123.61075   393.54488
   291  C   4.0   -0.05    3.36    3.07   103.40013   125.62709   392.67749
   292  C   4.0   -0.04    3.38    3.07   105.19159   124.64443   394.37258
   293  H   1.0    0.12    1.06    1.44   109.45104   127.77760   383.54445
   294  H   1.0    0.05    1.07    1.44   108.40980   122.67534   382.02511
   295  H   1.0    0.05    1.03    1.43   105.16325   126.73447   384.40049
   296  H   1.0    0.04    1.03    1.43   104.24295   123.51438   383.98286
   297  H   1.0    0.05    1.01    1.43   110.63023   122.36542   385.59102
   298  H   1.0    0.11    1.06    1.44   111.41635   121.79662   390.37581
   299  H   1.0    0.05    1.03    1.43   102.43448   126.33763   388.81300
   300  H   1.0    0.06    1.03    1.43   108.81042   122.88321   394.85824
   301  H   1.0    0.05    1.03    1.43   101.67293   126.43778   393.39937
   302  H   1.0    0.05    1.03    1.43   104.80231   124.70113   396.37569
   303  N   5.0   -0.22    3.21    1.96   101.93560   113.86733   397.73062
   304  C   4.0    0.02    4.22    4.03   103.23762   116.20303   398.29376
   305  C   4.0    0.07    3.18    3.03   101.37624   118.33086   399.02130
   306  O   6.0   -0.31    1.11    1.80   101.75796   119.70658   400.87512
   307  C   4.0   -0.05    4.39    4.35   104.79664   117.01561   396.02042
   308  C   4.0   -0.03    4.21    4.02   106.78085   115.15423   395.05855
   309  C   4.0   -0.08    4.10    3.81   107.97516   116.14067   392.63403
   310  C   4.0   -0.08    4.13    3.86   108.75562   114.71392   397.06922
   311  H   1.0    0.08    1.03    1.43   102.23795   113.17947   395.95617
   312  H   1.0    0.04    1.06    1.44   104.49240   115.87044   399.89247
   313  H   1.0    0.04    1.04    1.43   103.50218   117.37277   394.45950
   314  H   1.0    0.04    1.04    1.43   105.79064   118.74849   396.52120
   315  H   1.0    0.03    1.06    1.44   105.89268   113.34576   394.62958
   316  H   1.0    0.04    1.00    1.43   109.38301   114.78573   391.98018
   317  H   1.0    0.04    1.00    1.43   106.50684   116.36932   391.20729
   318  H   1.0    0.04    1.00    1.43   108.87089   117.95480   393.01764
   319  H   1.0    0.03    1.00    1.43   110.15591   113.38167   396.35490
   320  H   1.0    0.04    1.00    1.43   109.66080   116.50727   397.52464
   321  H   1.0    0.03    1.00    1.43   107.84477   113.94103   398.74729
   322  N   5.0   -0.20    3.24    1.96    98.24307   117.44080   405.35378
   323  C   4.0    0.04    4.20    4.01   100.03264   117.82063   407.33421
   324  C   4.0    0.09    3.24    3.04   100.46539   120.58530   407.74617
   325  O   6.0   -0.30    1.13    1.80   100.52019   121.39977   409.89101
   326  C   4.0   -0.07    4.13    3.86   102.49496   116.50349   406.65013
   327  H   1.0    0.09    1.04    1.43    99.03865   116.66412   403.77963
   328  H   1.0    0.05    1.06    1.44    99.32211   117.00427   409.08598
   329  H   1.0    0.04    1.00    1.43   103.85745   116.79829   408.16758
   330  H   1.0    0.04    1.00    1.43   102.13402   114.48905   406.41013
   331  H   1.0    0.05    1.00    1.43   103.21683   117.30096   404.89457
   332  O   6.0   -0.38    2.12    1.84   125.99370   112.38578   403.21838
   333  H   1.0    0.17    1.03    1.43   127.50359   112.86955   403.13713
   334  H   1.0    0.18    1.04    1.43   125.36064   113.07364   404.50151
   335  N   5.0   -0.20    3.16    1.95   123.47280    97.68938   419.61176
   336  C   4.0    0.03    4.28    4.16   124.14933    99.54698   417.59353
   337  C   4.0    0.14    3.39    3.08   126.82707   100.60334   417.86187
   338  O   6.0   -0.30    1.22    1.80   128.09507   100.19894   419.78939
   339  C   4.0   -0.04    4.28    4.16   122.36542   101.83166   417.53117
   340  C   4.0   -0.04    4.22    4.04   119.53650   101.27608   417.45180
   341  C   4.0    0.15    3.22    3.04   118.58786   100.15359   414.99327
   342  O   6.0   -0.28    1.22    1.80   119.52706   100.81310   412.97126
   343  N   5.0   -0.19    3.17    1.95   116.69058    98.53976   415.12933
   344  H   1.0    0.09    1.02    1.43   123.67878    98.35835   421.40700
   345  H   1.0    0.05    1.05    1.44   124.02460    98.46795   415.84364
   346  H   1.0    0.05    1.03    1.43   122.70935   102.95416   419.22436
   347  H   1.0    0.06    1.04    1.43   122.80762   102.93715   415.85120
   348  H   1.0    0.03    1.04    1.43   119.09242    99.93627   418.95224
   349  H   1.0    0.05    1.03    1.43   118.51605   103.03920   417.75794
   350  H   1.0    0.08    1.03    1.43   115.92524    98.09567   416.84142
   351  H   1.0    0.09    1.02    1.43   115.99138    97.73663   413.52306
   352  N   5.0   -0.14    3.48    2.07   127.65477   101.91481   415.86632
   353  C   4.0    0.03    4.39    4.36   129.90543   103.47761   415.97781
   354  C   4.0    0.08    3.27    3.05   128.94923   106.08544   416.66756
   355  O   6.0   -0.31    1.14    1.80   127.34863   107.17203   415.37499
   356  C   4.0   -0.02    4.26    4.11   131.42099   103.67603   413.47771
   357  C   4.0   -0.08    4.09    3.78   133.90976   105.11223   413.93880
   358  C   4.0   -0.08    4.09    3.78   131.89153   101.08333   412.29474
   359  H   1.0    0.08    1.06    1.44   126.78927   101.92048   414.14478
   360  H   1.0    0.05    1.06    1.44   131.19422   102.65180   417.35542
   361  H   1.0    0.05    1.06    1.44   130.30227   104.73806   412.11144
   362  H   1.0    0.04    1.00    1.43   134.95100   105.23506   412.16624
   363  H   1.0    0.05    1.00    1.43   133.47512   107.00195   414.63044
   364  H   1.0    0.04    1.00    1.43   135.02470   104.09177   415.33720
   365  H   1.0    0.04    1.00    1.43   132.95923   101.32522   410.55052
   366  H   1.0    0.04    1.00    1.43   132.96490    99.92682   413.61944
   367  H   1.0    0.04    1.00    1.43   130.07929   100.19138   411.89034
   368  N   5.0   -0.20    3.27    1.97   131.37375   112.17035   417.06630
   369  C   4.0    0.03    4.31    4.22   131.83295   114.53440   415.72270
   370  C   4.0    0.15    3.43    3.09   130.45534   114.51172   413.23771
   371  O   6.0   -0.33    1.29    1.80   129.61819   116.44680   412.36655
   372  C   4.0    0.03    4.14    3.88   134.67321   114.97849   415.33909
   373  O   6.0   -0.26    2.07    1.83   136.03003   112.65412   415.42790
   374  H   1.0    0.09    1.05    1.44   132.89498   110.98549   417.06819
   375  H   1.0    0.04    1.06    1.44   131.15454   116.11610   416.85276
   376  H   1.0    0.05    1.02    1.43   134.97179   115.85910   413.50038
   377  H   1.0    0.03    1.01    1.43   135.36485   116.21626   416.83386
   378  H   1.0    0.11    1.01    1.43   137.83850   112.96593   415.18035
   379  N   5.0   -0.14    3.51    2.09   130.20023   112.29319   412.11521
   380  C   4.0    0.04    4.44    4.44   128.88876   112.02484   409.67936
   381  C   4.0    0.16    3.46    3.10   126.11275   112.60688   409.95148
   382  O   6.0   -0.32    1.28    1.80   124.96569   113.76339   408.32064
   383  C   4.0   -0.04    4.29    4.17   129.21001   109.33954   408.59843
   384  C   4.0   -0.03    4.19    3.98   131.88397   108.75751   407.67058
   385  C   4.0    0.24    3.14    3.03   132.67577   110.44503   405.50306
   386  O   6.0   -0.31    1.22    1.80   131.00903   111.17258   403.99317
   387  O   6.0   -0.27    1.18    1.80   134.93966   111.06486   405.33677
   388  H   1.0    0.08    1.07    1.44   130.87108   110.63023   412.82386
   389  H   1.0    0.06    1.06    1.44   129.74480   113.34954   408.35466
   390  H   1.0    0.05    1.03    1.43   128.74703   107.97516   410.07053
   391  H   1.0    0.06    1.03    1.43   127.92878   109.11278   407.00162
   392  H   1.0    0.05    1.03    1.43   133.21245   109.03908   409.22015
   393  H   1.0    0.04    1.03    1.43   131.96334   106.80353   407.02240
   394  N   5.0   -0.14    3.55    2.12   125.05639   111.79619   412.06230
   395  C   4.0    0.04    4.44    4.44   122.39755   112.16279   412.56119
   396  C   4.0    0.15    3.43    3.09   121.94968   114.99360   412.97504
   397  O   6.0   -0.32    1.27    1.80   120.14878   116.04807   411.99427
   398  C   4.0   -0.04    4.29    4.18   121.61142   110.55275   414.80618
   399  C   4.0   -0.04    4.23    4.05   118.79762   110.16913   415.14067
   400  C   4.0    0.15    3.21    3.04   117.52206   108.47783   413.22826
   401  O   6.0   -0.29    1.21    1.80   118.64455   106.66936   412.33253
   402  N   5.0   -0.19    3.16    1.95   115.08998   109.01451   412.66323
   403  H   1.0    0.09    1.08    1.44   125.99748   110.87400   413.47015
   404  H   1.0    0.06    1.06    1.44   121.21458   111.53918   410.99461
   405  H   1.0    0.07    1.04    1.43   122.45991   108.68759   414.59076
   406  H   1.0    0.04    1.03    1.43   122.31251   111.45226   416.52206
   407  H   1.0    0.04    1.03    1.43   118.47826   109.33387   416.99638
   408  H   1.0    0.04    1.04    1.43   117.87921   112.00973   415.02917
   409  H   1.0    0.08    1.02    1.43   114.20748   110.50172   413.51550
   410  H   1.0    0.10    1.02    1.43   114.13756   107.93359   411.38389
   411  N   5.0   -0.14    3.47    2.06   123.67689   116.24649   414.29029
   412  C   4.0    0.03    4.36    4.30   123.53894   119.01305   414.60020
   413  C   4.0    0.16    3.44    3.09   123.77705   120.45302   412.12277
   414  O   6.0   -0.32    1.27    1.80   122.44857   122.29739   411.69003
   415  C   4.0   -0.08    4.13    3.85   125.58174   119.91256   416.38411
   416  H   1.0    0.08    1.06    1.44   125.18867   115.43202   415.16523
   417  H   1.0    0.05    1.06    1.44   121.68134   119.42123   415.39389
   418  H   1.0    0.04    1.00    1.43   125.44379   121.95724   416.58442
   419  H   1.0    0.04    1.00    1.43   125.31907   119.00738   418.21525
   420  H   1.0    0.05    1.00    1.43   127.42044   119.40422   415.60743
   421  N   5.0   -0.14    3.50    2.08   125.54016   119.63666   410.53918
   422  C   4.0    0.03    4.39    4.37   125.94268   120.79506   408.05608
   423  C   4.0    0.16    3.47    3.10   123.45580   120.77050   406.56131
   424  O   6.0   -0.30    1.25    1.80   122.78872   122.58274   405.22716
   425  C   4.0   -0.05    4.28    4.17   127.99870   119.34753   406.62178
   426  C   4.0   -0.05    4.17    3.94   128.82640   120.47759   404.10467
   427  C   4.0   -0.05    4.17    3.94   130.34952   118.61999   402.50029
   428  C   4.0   -0.02    4.14    3.88   132.83451   117.86410   403.73617
   429  N   5.0   -0.10    4.03    2.94   134.36140   116.21248   402.06187
   430  H   1.0    0.11    1.09    1.44   126.73447   118.17023   410.90768
   431  H   1.0    0.05    1.05    1.44   126.58140   122.74148   408.27718
   432  H   1.0    0.05    1.03    1.43   129.66922   119.24927   407.82176
   433  H   1.0    0.06    1.04    1.43   127.29572   117.45025   406.23439
   434  H   1.0    0.05    1.03    1.43   127.15588   121.02561   403.03130
   435  H   1.0    0.05    1.03    1.43   130.00748   122.12732   404.46371
   436  H   1.0    0.04    1.03    1.43   129.23647   116.91168   402.21116
   437  H   1.0    0.05    1.03    1.43   130.78037   119.49493   400.68615
   438  H   1.0    0.06    1.03    1.43   133.93244   119.55729   404.15002
   439  H   1.0    0.05    1.02    1.43   132.44333   116.83609   405.47661
   440  H   1.0    0.10    1.04    1.43   136.04515   115.72682   402.95193
   441  H   1.0    0.09    1.02    1.43   133.36363   114.57219   401.64424
   442  H   1.0    0.09    1.05    1.44   134.77336   117.15167   400.38569
   443  N   5.0   -0.13    3.54    2.11   122.09330   118.69180   406.81453
   444  C   4.0    0.04    4.48    4.51   119.69146   118.41590   405.55598
   445  C   4.0    0.17    3.52    3.13   117.88299   120.41523   406.45737
   446  O   6.0   -0.30    1.27    1.80   116.81719   121.77961   404.93993
   447  C   4.0   -0.03    4.41    4.39   118.69936   115.76083   406.00951
   448  C   4.0   -0.01    3.64    3.19   115.93280   115.46415   405.69959
   449  C   4.0   -0.04    3.54    3.13   114.90101   115.30730   403.36578
   450  C   4.0   -0.03    3.52    3.13   114.40023   115.19391   407.75940
   451  C   4.0   -0.05    3.42    3.08   112.34988   114.93691   403.03886
   452  C   4.0   -0.04    3.41    3.08   111.83398   114.80085   407.47405
   453  C   4.0   -0.05    3.40    3.08   110.79652   114.69314   405.09488
   454  H   1.0    0.11    1.08    1.44   122.60542   117.16868   407.87845
   455  H   1.0    0.06    1.07    1.44   119.89933   118.65211   403.52074
   456  H   1.0    0.05    1.04    1.43   119.61020   114.48716   404.67158
   457  H   1.0    0.06    1.05    1.44   119.16801   115.21092   407.93892
   458  H   1.0    0.05    1.05    1.44   116.10476   115.47548   401.72739
   459  H   1.0    0.06    1.03    1.43   115.20336   115.28840   409.63400
   460  H   1.0    0.04    1.03    1.43   111.56942   114.83865   401.15669
   461  H   1.0    0.05    1.03    1.43   110.64534   114.57786   409.11811
   462  H   1.0    0.04    1.03    1.43   108.78774   114.42102   404.85111
   463  N   5.0   -0.13    3.50    2.08   117.61465   120.66278   408.93103
   464  C   4.0    0.04    4.51    4.55   115.79107   122.46747   409.95526
   465  C   4.0    0.16    3.48    3.11   116.43168   125.12820   409.19748
   466  O   6.0   -0.30    1.30    1.80   114.83487   126.39432   408.22049
   467  C   4.0   -0.04    4.34    4.27   115.48493   122.22747   412.80874
   468  C   4.0   -0.02    3.75    3.29   114.19047   119.90122   413.40968
   469  C   4.0   -0.01    3.62    3.18   115.23549   117.70158   414.25438
   470  C   4.0    0.00    3.90    3.46   111.58265   119.43068   413.06575
   471  N   5.0   -0.13    3.46    2.05   113.40623   115.87044   414.53406
   472  C   4.0    0.03    3.88    3.43   111.13289   116.88522   413.79707
   473  C   4.0   -0.05    3.39    3.08   109.54741   120.92545   412.27206
   474  C   4.0   -0.05    3.37    3.07   108.70837   115.80430   413.75928
   475  C   4.0   -0.04    3.35    3.07   107.16069   119.86343   412.21537
   476  C   4.0   -0.04    3.36    3.07   106.75440   117.31797   412.95425
   477  H   1.0    0.10    1.07    1.44   118.60298   119.67068   410.25572
   478  H   1.0    0.05    1.08    1.44   113.95425   121.99504   409.15401
   479  H   1.0    0.05    1.04    1.43   117.33875   122.20669   413.70636
   480  H   1.0    0.04    1.04    1.43   114.37377   123.80918   413.52306
   481  H   1.0    0.06    1.02    1.43   117.21970   117.43324   414.64934
   482  H   1.0    0.07    1.04    1.43   113.68969   114.07520   415.17657
   483  H   1.0    0.05    1.02    1.43   109.83654   122.86809   411.71648
   484  H   1.0    0.05    1.02    1.43   108.39279   113.87300   414.33564
   485  H   1.0    0.06    1.03    1.43   105.57710   120.99159   411.59743
   486  H   1.0    0.05    1.03    1.43   104.86467   116.55074   412.88244
   487  N   5.0   -0.14    3.49    2.07   118.76361   125.95212   409.47716
   488  C   4.0    0.04    4.46    4.48   119.36454   128.52782   408.67402
   489  C   4.0    0.16    3.41    3.08   119.13777   128.99836   405.81865
   490  O   6.0   -0.28    1.22    1.80   118.62944   131.13753   405.01740
   491  C   4.0   -0.05    4.39    4.36   121.99315   129.27426   409.53763
   492  C   4.0   -0.03    4.20    4.00   122.53928   129.24592   412.36277
   493  C   4.0   -0.08    4.10    3.81   124.96569   130.73880   412.84843
   494  C   4.0   -0.08    4.12    3.85   120.33208   130.31172   413.85943
   495  H   1.0    0.11    1.08    1.44   120.23003   124.94490   410.21793
   496  H   1.0    0.06    1.07    1.44   117.96614   129.73158   409.59054
   497  H   1.0    0.05    1.04    1.43   123.33296   127.97791   408.66269
   498  H   1.0    0.05    1.04    1.43   122.34464   131.19611   408.88567
   499  H   1.0    0.05    1.06    1.44   122.80006   127.30895   413.01472
   500  H   1.0    0.03    1.00    1.43   125.36820   130.72557   414.86855
   501  H   1.0    0.04    1.00    1.43   126.51526   129.85441   411.81853
   502  H   1.0    0.04    1.00    1.43   124.70302   132.67577   412.19647
   503  H   1.0    0.04    1.00    1.43   120.79506   130.25881   415.86632
   504  H   1.0    0.04    1.00    1.43   119.99571   132.25625   413.26606
   505  H   1.0    0.04    1.00    1.43   118.65967   129.16655   413.49471
   506  N   5.0   -0.13    3.38    2.01   119.48737   127.01226   404.31065
   507  C   4.0    0.03    4.26    4.12   119.10376   127.15777   401.58566
   508  C   4.0    0.17    3.31    3.06   116.43546   127.87964   400.84678
   509  O   6.0   -0.29    1.22    1.80   116.10854   129.45190   399.16492
   510  H   1.0    0.12    1.08    1.44   120.03917   125.26804   404.91914
   511  H   1.0    0.06    1.03    1.43   120.38688   128.56373   400.79954
   512  H   1.0    0.05    1.03    1.43   119.52517   125.32285   400.74851
   513  N   5.0   -0.13    3.43    2.03   114.56464   126.77416   402.14691
   514  C   4.0    0.04    4.33    4.25   111.87367   127.40343   401.77274
   515  C   4.0    0.09    3.24    3.04   111.11400   130.08307   402.47005
   516  O   6.0   -0.29    1.11    1.80   109.23939   131.10163   401.49306
   517  C   4.0   -0.04    4.46    4.47   110.26362   125.73103   403.40169
   518  C   4.0   -0.02    4.24    4.08   110.20693   122.98903   402.64391
   519  C   4.0   -0.07    4.13    3.87   108.95593   121.42056   404.66403
   520  C   4.0   -0.07    4.14    3.88   108.79530   122.67156   400.17593
   521  H   1.0    0.11    1.07    1.44   114.84243   125.41922   403.49051
   522  H   1.0    0.06    1.06    1.44   111.55619   127.13131   399.75641
   523  H   1.0    0.06    1.04    1.43   110.97794   125.82362   405.33110
   524  H   1.0    0.05    1.05    1.44   108.32665   126.43022   403.33366
   525  H   1.0    0.05    1.06    1.44   112.14201   122.32763   402.39824
   526  H   1.0    0.04    1.00    1.43   108.94081   119.44958   404.06876
   527  H   1.0    0.05    1.00    1.43   110.01796   121.61520   406.41769
   528  H   1.0    0.05    1.00    1.43   107.02652   122.08763   404.93237
   529  H   1.0    0.04    1.00    1.43   108.77829   120.67601   399.66570
   530  H   1.0    0.05    1.00    1.43   106.86589   123.35186   400.41403
   531  H   1.0    0.05    1.00    1.43   109.74961   123.76193   398.71328
   532  N   5.0   -0.22    3.21    1.96   135.94122   128.75270   409.47716
   533  C   4.0    0.02    4.32    4.24   135.34028   126.17700   408.67402
   534  C   4.0    0.14    3.38    3.07   135.56705   125.70646   405.81865
   535  O   6.0   -0.30    1.22    1.80   136.07539   123.56729   405.01740
   536  C   4.0   -0.05    4.39    4.36   132.71167   125.43056   409.53763
   537  C   4.0   -0.03    4.20    4.00   132.16554   125.45891   412.36277
   538  C   4.0   -0.08    4.10    3.81   129.73914   123.96602   412.84843
   539  C   4.0   -0.08    4.12    3.85   134.37274   124.39310   413.85943
   540  H   1.0    0.07    1.02    1.43   134.47479   129.75992   410.21793
   541  H   1.0    0.04    1.06    1.44   136.73868   124.97325   409.59054
   542  H   1.0    0.04    1.04    1.43   131.37186   126.72691   408.66269
   543  H   1.0    0.04    1.04    1.43   132.36018   123.50871   408.88567
   544  H   1.0    0.03    1.06    1.44   131.90476   127.39587   413.01472
   545  H   1.0    0.04    1.00    1.43   129.33662   123.97925   414.86855
   546  H   1.0    0.04    1.00    1.43   128.18956   124.85041   411.81853
   547  H   1.0    0.05    1.00    1.43   130.00181   122.02905   412.19647
   548  H   1.0    0.03    1.00    1.43   133.90976   124.44601   415.86632
   549  H   1.0    0.04    1.00    1.43   134.70911   122.44857   413.26606
   550  H   1.0    0.03    1.00    1.43   136.04515   125.53827   413.49471
   551  N   5.0   -0.15    3.34    2.00   135.21745   127.69256   404.31065
   552  C   4.0    0.02    4.16    3.93   135.60106   127.54705   401.58566
   553  C   4.0    0.09    3.14    3.03   138.26936   126.82518   400.84678
   554  O   6.0   -0.28    1.12    1.80   138.59628   125.25293   399.16492
   555  H   1.0    0.07    1.05    1.44   134.66565   129.43678   404.91914
   556  H   1.0    0.06    1.03    1.43   134.31794   126.14110   400.79954
   557  H   1.0    0.04    1.03    1.43   135.17966   129.38198   400.74851
   558  N   5.0   -0.20    3.13    1.94   142.16597   123.54461   404.22939
   559  C   4.0    0.01    4.18    3.97   142.68565   121.10687   405.28952
   560  C   4.0    0.16    3.33    3.06   142.91241   118.95069   403.45649
   561  O   6.0   -0.28    1.24    1.80   144.32593   117.19135   403.99128
   562  H   1.0    0.10    1.03    1.43   140.58427   124.35909   404.97394
   563  H   1.0    0.05    1.03    1.43   144.46199   121.21836   406.32698
   564  H   1.0    0.05    1.03    1.43   141.17009   120.63633   406.60288
   565  N   5.0   -0.13    3.34    2.00   141.52158   119.02628   401.34945
   566  C   4.0    0.02    4.18    3.95   141.35528   116.84931   399.64113
   567  C   4.0    0.26    3.13    3.03   140.22522   114.50605   400.95638
   568  O   6.0   -0.26    1.24    1.80   139.68854   114.46259   403.24295
   569  O   6.0   -0.29    1.19    1.80   139.77358   112.51995   399.80554
   570  H   1.0    0.10    1.05    1.44   140.49546   120.55507   400.77686
   571  H   1.0    0.06    1.02    1.43   140.16286   117.33308   398.03298
   572  H   1.0    0.06    1.02    1.43   143.23934   116.36932   398.95894
   573  H   1.0    0.10    1.07    1.44   140.05676   106.82694   396.61001
   574  H   1.0    0.05    1.04    1.43   132.57867   100.45028   393.90801
   575  H   1.0    0.08    1.07    1.44   131.91982    99.17154   399.18910
   576  H   1.0    0.07    1.05    1.44   105.11636   102.46780   403.14280
   577  H   1.0    0.09    1.07    1.44   118.55294   103.99668   379.70586
   578  H   1.0    0.05    1.04    1.44   124.71183   102.96621   377.89787
   579  H   1.0    0.08    1.11    1.45   131.17955   115.18505   385.65186
   580  H   1.0    0.06    1.04    1.44   125.92008   120.67236   390.71813
   581  H   1.0    0.09    1.07    1.44   121.87577   120.84702   387.16864
   582  H   1.0    0.05    1.04    1.43   111.82247   132.31571   387.41752
   583  H   1.0    0.10    1.07    1.44   111.11763   125.51305   382.78507
   584  H   1.0    0.05    1.04    1.44   105.61848   126.57988   379.00749
   585  H   1.0    0.09    1.07    1.44   102.44133   112.65951   398.81596
   586  H   1.0    0.05    1.04    1.43    99.82212   118.62152   397.98626
   587  H   1.0    0.09    1.08    1.44    97.01566   116.39320   405.89094
   588  H   1.0    0.06    1.05    1.44   100.70470   121.73512   406.26572
   589  H   1.0    0.09    1.07    1.44   121.84495    97.22886   419.43693
   590  H   1.0    0.05    1.05    1.44   129.61883   106.96208   418.20190
   591  H   1.0    0.09    1.07    1.44   130.98438   112.50522   418.68766
   592  H   1.0    0.07    1.04    1.44   112.12924   131.05447   403.73367
   593  H   1.0    0.09    1.07    1.44   137.14310   128.70660   410.67961
   594  H   1.0    0.05    1.04    1.43   139.74114   127.62374   401.72268
   595  H   1.0    0.09    1.07    1.44   143.47721   124.58540   404.52937

  Z AO/shell   Hii/eV     exponent
  1     Wed Apr 25 08:07:45 CEST 2018   EN: 2.200 GM2: 0.406  GM3: 0.0800  RAES: 1.40
     1s    -10.707211    1.230000
  6     Wed Apr 25 08:07:45 CEST 2018   EN: 2.550 GM2: 0.538  GM3: 0.1500  RAES: 3.00
     2s    -13.970922    2.096432
     2p    -10.063292    1.800000
  7     Wed Apr 25 08:07:45 CEST 2018   EN: 3.040 GM2: 0.461  GM3:-0.0640  RAES: 1.90
     2s    -16.686243    2.339881
     2p    -12.523956    2.014332
  8     Wed Apr 25 08:07:45 CEST 2018   EN: 3.440 GM2: 0.452  GM3:-0.0517  RAES: 1.80
     2s    -20.229985    2.439742
     2p    -15.503117    2.137023
 no old-style atom pair restraining (fixing) potential

molecular fragmentation (1/2 indicates fragments):
111111111111111111111111111111111112222222222222222222222222222222222222
222222222222222222222222222222222222222222222222222222222222222222222222
222222222222222222222222222222222222222222222222222222222222222222222222
222222222222222222222222222222222222222222222222222222222222222222222222
222222222222222222222222222222222222222222222222222222222222222222222222
222222222222222222222222222222222222222222222222222222222222222222222222
222222222222222222222222222222222222222222222222222222222222222222222222
222222222222222222222222222222222222222222222222222222222222222222221122
2222222222222222222
# atoms in fragment 1/2:    37   558
 fragment masses (1/2) :      277.30     3725.50
CMA distance (Bohr)    :  18.480
constraining FC (au)   :  0.0500
           ------------------------------------------------- 
          |        Self-Consistent Charge Iterations        |
           ------------------------------------------------- 

 Ncao       : 1444
 Nao        : 1444
 Nshell     : 878
 Nel        : 1590
 T(el)      :   500.0
 intcut     :    35.0
 scfconv/Eh :  0.100E-06
   qconv/e  :  0.100E-04
 intneglect :  0.100E-08
 broydamp   :      0.400
 iter      E             dE          RMSdq      gap      omega  full diag
   1   -906.5656524 -0.906566E+03  0.457E+00    2.80       0.0  T
   2   -908.6538979 -0.208825E+01  0.218E+00    1.20       1.0  T
   3   -908.7745339 -0.120636E+00  0.122E+00    1.64       1.0  T
   4   -908.9256894 -0.151155E+00  0.258E-01    0.94       1.0  T
   5   -908.9353978 -0.970848E-02  0.128E-01    1.14       1.0  T
   6   -908.9374897 -0.209191E-02  0.598E-02    1.03       1.0  T
   7   -908.9382186 -0.728876E-03  0.252E-02    1.02       1.0  T
   8   -908.9383040 -0.853590E-04  0.127E-02    1.00       1.0  T
   9   -908.9383267 -0.227241E-04  0.543E-03    0.98       1.0  T
  10   -908.9383312 -0.447229E-05  0.272E-03    0.98       1.5  T
  11   -908.9383321 -0.958505E-06  0.130E-03    0.98       3.1  T
  12   -908.9383324 -0.293932E-06  0.656E-04    0.98       6.3  T
  13   -908.9383325 -0.687539E-07  0.315E-04    0.98      13.0  T
  14   -908.9383325 -0.145521E-07  0.177E-04    0.98      23.2  T
  15   -908.9383325 -0.515001E-08  0.719E-05    0.97      57.1  T
  16   -908.9383325 -0.820592E-09  0.360E-05    0.97     113.9  T
speedup  1.31
cpu  time for SCC    1 m  0.3 s
wall time for SCC    0 m 46.2 s

   *** convergence criteria satisfied after 16 iterations ***

          eigenvalues
 #    :         783        784        785        786        787        788        789        790
 occ. :        2.000      2.000      2.000      2.000      2.000      2.000      2.000      2.000
 eps  :       -10.150    -10.138    -10.035    -10.024     -9.980     -9.970     -9.924     -9.834
 #    :         791        792        793        794        795        796        797        798
 occ. :        2.000      2.000      2.000      2.000      2.000      0.000      0.000      0.000
 eps  :        -9.809     -9.748     -9.718     -9.701     -9.449     -8.474     -8.316     -8.114
 #    :         799        800        801        802        803        804        805        806
 occ. :        0.000      0.000      0.000      0.000      0.000      0.000      0.000      0.000
 eps  :        -8.027     -7.815     -7.756     -7.658     -7.583     -7.546     -7.535     -7.269


   #   Z            q   n(s)   n(p)   n(d)      C6AA      α(0)
   1   7 N     -0.386  1.314  4.072  0.000    29.996     8.134
   2   6 C      0.039  1.060  2.901  0.000    19.941     6.361
   3   6 C      0.269  1.051  2.679  0.000    22.450     7.758
   4   8 O     -0.494  1.742  4.752  0.000    23.650     6.520
   5   6 C     -0.039  1.051  2.988  0.000    21.272     6.566
   6   6 C     -0.084  1.061  3.022  0.000    22.099     6.694
   7   6 C      0.363  1.031  2.607  0.000    20.848     7.472
   8   8 O     -0.622  1.770  4.853  0.000    26.673     6.924
   9   8 O     -0.633  1.752  4.881  0.000    26.939     6.959
  10   1 H      0.156  0.844  0.000  0.000     1.360     1.827
  11   1 H      0.019  0.981  0.000  0.000     2.746     2.591
  12   1 H      0.023  0.977  0.000  0.000     2.688     2.564
  13   1 H      0.037  0.963  0.000  0.000     2.492     2.469
  14   1 H      0.025  0.975  0.000  0.000     2.657     2.549
  15   1 H      0.003  0.997  0.000  0.000     3.000     2.709
  16   7 N     -0.173  1.255  3.919  0.000    24.752     7.389
  17   6 C      0.024  1.065  2.911  0.000    20.185     6.401
  18   6 C      0.199  1.092  2.709  0.000    23.756     7.982
  19   8 O     -0.345  1.751  4.594  0.000    20.604     6.086
  20   6 C     -0.082  1.061  3.021  0.000    22.063     6.686
  21   6 C      0.006  1.085  2.909  0.000    27.883     8.661
  22   6 C     -0.039  1.084  2.955  0.000    28.980     8.828
  23   6 C     -0.039  1.085  2.954  0.000    28.978     8.827
  24   6 C     -0.032  1.084  2.948  0.000    28.808     8.801
  25   6 C     -0.031  1.082  2.949  0.000    28.784     8.797
  26   6 C     -0.034  1.084  2.950  0.000    28.848     8.808
  27   1 H      0.222  0.778  0.000  0.000     0.999     1.566
  28   1 H      0.075  0.925  0.000  0.000     2.031     2.229
  29   1 H      0.071  0.929  0.000  0.000     2.074     2.252
  30   1 H      0.085  0.915  0.000  0.000     1.930     2.173
  31   1 H      0.049  0.951  0.000  0.000     2.337     2.390
  32   1 H      0.029  0.971  0.000  0.000     2.594     2.518
  33   1 H      0.059  0.941  0.000  0.000     2.215     2.327
  34   1 H      0.031  0.969  0.000  0.000     2.565     2.505
  35   1 H      0.042  0.958  0.000  0.000     2.416     2.431
  36   7 N     -0.396  1.326  4.070  0.000    30.264     8.170
  37   6 C      0.026  1.059  2.915  0.000    20.145     6.393
  38   6 C      0.268  1.043  2.689  0.000    22.476     7.764
  39   8 O     -0.500  1.735  4.765  0.000    23.777     6.538
  40   6 C     -0.106  1.040  3.066  0.000    22.587     6.776
  41   1 H      0.140  0.860  0.000  0.000     1.468     1.898
  42   1 H      0.067  0.933  0.000  0.000     2.115     2.274
  43   1 H      0.033  0.967  0.000  0.000     2.540     2.492
  44   1 H      0.054  0.946  0.000  0.000     2.269     2.356
  45   1 H      0.028  0.972  0.000  0.000     2.616     2.529
  46   7 N     -0.177  1.248  3.928  0.000    24.822     7.399
  47   6 C      0.017  1.063  2.920  0.000    20.294     6.414
  48   6 C      0.278  1.040  2.681  0.000    22.290     7.732
  49   8 O     -0.497  1.742  4.755  0.000    23.709     6.528
  50   6 C     -0.010  1.058  2.952  0.000    20.717     6.474
  51   6 C     -0.113  1.040  3.073  0.000    22.704     6.793
  52   6 C     -0.106  1.039  3.067  0.000    22.578     6.775
  53   1 H      0.213  0.787  0.000  0.000     1.042     1.599
  54   1 H      0.077  0.923  0.000  0.000     2.007     2.215
  55   1 H      0.041  0.959  0.000  0.000     2.441     2.443
  56   1 H      0.045  0.955  0.000  0.000     2.382     2.414
  57   1 H      0.046  0.954  0.000  0.000     2.373     2.409
  58   1 H      0.057  0.943  0.000  0.000     2.232     2.337
  59   1 H      0.024  0.976  0.000  0.000     2.674     2.557
  60   1 H      0.040  0.960  0.000  0.000     2.454     2.450
  61   1 H      0.042  0.958  0.000  0.000     2.429     2.437
  62   7 N     -0.182  1.248  3.935  0.000    24.950     7.419
  63   6 C      0.012  1.070  2.917  0.000    20.371     6.426
  64   6 C      0.277  1.046  2.677  0.000    22.319     7.736
  65   8 O     -0.492  1.749  4.743  0.000    23.612     6.515
  66   6 C     -0.032  1.069  2.963  0.000    21.103     6.534
  67   6 C     -0.072  1.051  3.020  0.000    21.864     6.656
  68   6 C     -0.120  1.042  3.078  0.000    22.856     6.816
  69   6 C     -0.117  1.042  3.076  0.000    22.814     6.812
  70   1 H      0.226  0.774  0.000  0.000     0.983     1.553
  71   1 H      0.076  0.924  0.000  0.000     2.020     2.222
  72   1 H      0.061  0.939  0.000  0.000     2.192     2.315
  73   1 H      0.039  0.961  0.000  0.000     2.458     2.452
  74   1 H      0.048  0.952  0.000  0.000     2.346     2.395
  75   1 H      0.072  0.928  0.000  0.000     2.058     2.244
  76   1 H      0.042  0.958  0.000  0.000     2.426     2.436
  77   1 H      0.047  0.953  0.000  0.000     2.354     2.399
  78   1 H      0.049  0.951  0.000  0.000     2.333     2.389
  79   1 H      0.046  0.954  0.000  0.000     2.365     2.405
  80   1 H      0.049  0.951  0.000  0.000     2.330     2.387
  81   7 N     -0.178  1.250  3.928  0.000    24.862     7.405
  82   6 C      0.010  1.068  2.922  0.000    20.420     6.435
  83   6 C      0.279  1.038  2.683  0.000    22.276     7.729
  84   8 O     -0.506  1.750  4.756  0.000    23.917     6.557
  85   6 C     -0.086  1.055  3.031  0.000    22.135     6.698
  86   6 C     -0.087  1.057  3.030  0.000    22.155     6.702
  87   6 C     -0.095  1.060  3.035  0.000    22.319     6.727
  88   6 C     -0.058  1.068  2.990  0.000    21.730     6.656
  89   7 N     -0.145  1.235  3.910  0.000    24.118     7.294
  90   1 H      0.215  0.785  0.000  0.000     1.033     1.592
  91   1 H      0.090  0.910  0.000  0.000     1.882     2.145
  92   1 H      0.075  0.925  0.000  0.000     2.033     2.230
  93   1 H      0.065  0.935  0.000  0.000     2.141     2.288
  94   1 H      0.068  0.932  0.000  0.000     2.111     2.272
  95   1 H      0.070  0.930  0.000  0.000     2.091     2.261
  96   1 H      0.072  0.928  0.000  0.000     2.064     2.247
  97   1 H      0.088  0.912  0.000  0.000     1.902     2.157
  98   1 H      0.127  0.873  0.000  0.000     1.557     1.951
  99   1 H      0.128  0.872  0.000  0.000     1.554     1.949
 100   1 H      0.309  0.691  0.000  0.000     0.688     1.300
 101   1 H      0.290  0.710  0.000  0.000     0.743     1.350
 102   1 H      0.286  0.714  0.000  0.000     0.757     1.363
 103   7 N     -0.176  1.245  3.931  0.000    24.807     7.397
 104   6 C      0.022  1.059  2.919  0.000    20.190     6.395
 105   6 C      0.273  1.041  2.686  0.000    22.390     7.750
 106   8 O     -0.511  1.752  4.759  0.000    24.029     6.572
 107   6 C     -0.015  1.057  2.958  0.000    20.811     6.488
 108   6 C     -0.112  1.042  3.070  0.000    22.703     6.794
 109   6 C     -0.126  1.043  3.083  0.000    22.969     6.833
 110   1 H      0.220  0.780  0.000  0.000     1.011     1.575
 111   1 H      0.076  0.924  0.000  0.000     2.021     2.223
 112   1 H      0.046  0.954  0.000  0.000     2.372     2.409
 113   1 H      0.051  0.949  0.000  0.000     2.303     2.373
 114   1 H      0.034  0.966  0.000  0.000     2.536     2.490
 115   1 H      0.047  0.953  0.000  0.000     2.360     2.402
 116   1 H      0.046  0.954  0.000  0.000     2.366     2.405
 117   1 H      0.052  0.948  0.000  0.000     2.301     2.372
 118   1 H      0.063  0.937  0.000  0.000     2.163     2.300
 119   7 N     -0.178  1.244  3.933  0.000    24.844     7.403
 120   6 C      0.024  1.051  2.925  0.000    20.154     6.388
 121   6 C      0.287  1.030  2.683  0.000    22.131     7.704
 122   8 O     -0.501  1.743  4.758  0.000    23.804     6.541
 123   6 C     -0.026  1.062  2.964  0.000    20.993     6.516
 124   6 C     -0.062  1.048  3.014  0.000    21.676     6.627
 125   6 C     -0.119  1.042  3.077  0.000    22.839     6.814
 126   6 C     -0.110  1.038  3.072  0.000    22.664     6.789
 127   1 H      0.230  0.770  0.000  0.000     0.966     1.540
 128   1 H      0.066  0.934  0.000  0.000     2.134     2.284
 129   1 H      0.054  0.946  0.000  0.000     2.266     2.354
 130   1 H      0.038  0.962  0.000  0.000     2.476     2.461
 131   1 H      0.039  0.961  0.000  0.000     2.466     2.456
 132   1 H      0.066  0.934  0.000  0.000     2.132     2.284
 133   1 H      0.036  0.964  0.000  0.000     2.501     2.473
 134   1 H      0.047  0.953  0.000  0.000     2.352     2.398
 135   1 H      0.042  0.958  0.000  0.000     2.420     2.433
 136   1 H      0.036  0.964  0.000  0.000     2.498     2.472
 137   1 H      0.052  0.948  0.000  0.000     2.297     2.370
 138   7 N     -0.197  1.249  3.947  0.000    25.269     7.466
 139   6 C      0.023  1.061  2.915  0.000    20.188     6.398
 140   6 C      0.281  1.044  2.675  0.000    22.251     7.724
 141   8 O     -0.509  1.764  4.744  0.000    23.982     6.566
 142   6 C      0.077  1.037  2.886  0.000    19.500     6.324
 143   8 O     -0.491  1.732  4.760  0.000    22.706     6.433
 144   1 H      0.228  0.772  0.000  0.000     0.973     1.545
 145   1 H      0.078  0.922  0.000  0.000     2.000     2.211
 146   1 H      0.061  0.939  0.000  0.000     2.187     2.313
 147   1 H      0.042  0.958  0.000  0.000     2.421     2.433
 148   1 H      0.364  0.636  0.000  0.000     0.557     1.172
 149   7 N     -0.183  1.249  3.933  0.000    24.957     7.420
 150   6 C      0.022  1.060  2.918  0.000    20.211     6.401
 151   6 C      0.293  1.033  2.674  0.000    22.029     7.686
 152   8 O     -0.511  1.754  4.757  0.000    24.034     6.573
 153   6 C      0.076  1.041  2.883  0.000    19.520     6.329
 154   8 O     -0.471  1.724  4.747  0.000    22.270     6.370
 155   1 H      0.222  0.778  0.000  0.000     1.000     1.567
 156   1 H      0.075  0.925  0.000  0.000     2.027     2.226
 157   1 H      0.048  0.952  0.000  0.000     2.347     2.396
 158   1 H      0.059  0.941  0.000  0.000     2.210     2.325
 159   1 H      0.331  0.669  0.000  0.000     0.635     1.252
 160   7 N     -0.169  1.245  3.924  0.000    24.656     7.375
 161   6 C      0.034  1.051  2.916  0.000    20.008     6.369
 162   6 C      0.215  1.081  2.704  0.000    23.454     7.932
 163   8 O     -0.365  1.747  4.618  0.000    20.988     6.142
 164   6 C     -0.129  1.043  3.086  0.000    23.017     6.840
 165   1 H      0.230  0.770  0.000  0.000     0.965     1.539
 166   1 H      0.089  0.911  0.000  0.000     1.885     2.147
 167   1 H      0.077  0.923  0.000  0.000     2.015     2.220
 168   1 H      0.082  0.918  0.000  0.000     1.957     2.188
 169   1 H      0.069  0.931  0.000  0.000     2.099     2.266
 170   7 N     -0.398  1.326  4.072  0.000    30.322     8.178
 171   6 C      0.042  1.047  2.911  0.000    19.881     6.351
 172   6 C      0.202  1.089  2.709  0.000    23.700     7.973
 173   8 O     -0.398  1.767  4.631  0.000    21.646     6.238
 174   6 C     -0.067  1.057  3.011  0.000    21.773     6.640
 175   6 C     -0.013  1.055  2.958  0.000    20.771     6.482
 176   6 C     -0.115  1.045  3.070  0.000    22.756     6.802
 177   6 C     -0.108  1.042  3.067  0.000    22.621     6.781
 178   1 H      0.172  0.828  0.000  0.000     1.262     1.759
 179   1 H      0.048  0.952  0.000  0.000     2.342     2.393
 180   1 H      0.062  0.938  0.000  0.000     2.176     2.307
 181   1 H      0.039  0.961  0.000  0.000     2.456     2.451
 182   1 H      0.039  0.961  0.000  0.000     2.464     2.455
 183   1 H      0.041  0.959  0.000  0.000     2.439     2.442
 184   1 H      0.052  0.948  0.000  0.000     2.293     2.368
 185   1 H      0.037  0.963  0.000  0.000     2.483     2.464
 186   1 H      0.038  0.962  0.000  0.000     2.471     2.458
 187   1 H      0.030  0.970  0.000  0.000     2.593     2.518
 188   1 H      0.037  0.963  0.000  0.000     2.489     2.467
 189   7 N     -0.313  1.304  4.009  0.000    28.046     7.865
 190   6 C      0.021  1.072  2.907  0.000    20.222     6.403
 191   6 C      0.268  1.049  2.683  0.000    22.471     7.762
 192   8 O     -0.489  1.741  4.748  0.000    23.541     6.505
 193   6 C     -0.049  1.049  3.000  0.000    21.442     6.590
 194   6 C     -0.057  1.045  3.012  0.000    21.583     6.611
 195   6 C      0.012  1.044  2.944  0.000    20.444     6.450
 196   1 H      0.047  0.953  0.000  0.000     2.356     2.401
 197   1 H      0.027  0.973  0.000  0.000     2.622     2.532
 198   1 H      0.051  0.949  0.000  0.000     2.303     2.373
 199   1 H      0.025  0.975  0.000  0.000     2.652     2.546
 200   1 H      0.049  0.951  0.000  0.000     2.327     2.386
 201   1 H      0.033  0.967  0.000  0.000     2.545     2.495
 202   1 H      0.033  0.967  0.000  0.000     2.547     2.496
 203   7 N     -0.173  1.241  3.932  0.000    24.748     7.388
 204   6 C      0.030  1.056  2.914  0.000    20.084     6.382
 205   6 C      0.208  1.086  2.706  0.000    23.581     7.953
 206   8 O     -0.339  1.739  4.600  0.000    20.507     6.071
 207   6 C      0.083  1.034  2.883  0.000    19.400     6.307
 208   8 O     -0.477  1.722  4.754  0.000    22.396     6.388
 209   1 H      0.206  0.794  0.000  0.000     1.078     1.626
 210   1 H      0.091  0.909  0.000  0.000     1.867     2.137
 211   1 H      0.053  0.947  0.000  0.000     2.279     2.361
 212   1 H      0.050  0.950  0.000  0.000     2.326     2.385
 213   1 H      0.335  0.665  0.000  0.000     0.626     1.243
 214   7 N     -0.399  1.329  4.069  0.000    30.340     8.181
 215   6 C      0.032  1.054  2.915  0.000    20.053     6.378
 216   6 C      0.281  1.036  2.683  0.000    22.245     7.724
 217   8 O     -0.496  1.731  4.764  0.000    23.689     6.526
 218   6 C     -0.070  1.056  3.014  0.000    21.830     6.649
 219   6 C     -0.011  1.047  2.964  0.000    20.735     6.476
 220   6 C     -0.117  1.046  3.072  0.000    22.788     6.804
 221   6 C     -0.107  1.043  3.065  0.000    22.588     6.773
 222   1 H      0.144  0.856  0.000  0.000     1.442     1.881
 223   1 H      0.038  0.962  0.000  0.000     2.476     2.461
 224   1 H      0.042  0.958  0.000  0.000     2.421     2.433
 225   1 H      0.045  0.955  0.000  0.000     2.385     2.415
 226   1 H      0.030  0.970  0.000  0.000     2.587     2.515
 227   1 H      0.049  0.951  0.000  0.000     2.336     2.390
 228   1 H      0.033  0.967  0.000  0.000     2.545     2.495
 229   1 H      0.048  0.952  0.000  0.000     2.347     2.396
 230   1 H      0.045  0.955  0.000  0.000     2.384     2.414
 231   1 H      0.041  0.959  0.000  0.000     2.434     2.440
 232   1 H      0.025  0.975  0.000  0.000     2.662     2.551
 233   7 N     -0.181  1.242  3.939  0.000    24.919     7.414
 234   6 C      0.032  1.060  2.908  0.000    20.048     6.375
 235   6 C      0.277  1.042  2.681  0.000    22.305     7.734
 236   8 O     -0.484  1.741  4.743  0.000    23.431     6.490
 237   6 C     -0.070  1.049  3.021  0.000    21.836     6.651
 238   6 C      0.001  1.076  2.923  0.000    28.003     8.680
 239   6 C     -0.041  1.083  2.958  0.000    29.008     8.832
 240   6 C     -0.042  1.082  2.960  0.000    29.044     8.838
 241   6 C     -0.061  1.075  2.986  0.000    29.513     8.908
 242   6 C     -0.079  1.075  3.004  0.000    29.980     8.979
 243   6 C      0.146  1.044  2.810  0.000    24.827     8.166
 244   8 O     -0.439  1.711  4.728  0.000    21.614     6.276
 245   1 H      0.212  0.788  0.000  0.000     1.049     1.605
 246   1 H      0.073  0.927  0.000  0.000     2.055     2.242
 247   1 H      0.050  0.950  0.000  0.000     2.317     2.380
 248   1 H      0.064  0.936  0.000  0.000     2.149     2.293
 249   1 H      0.048  0.952  0.000  0.000     2.349     2.397
 250   1 H      0.030  0.970  0.000  0.000     2.590     2.517
 251   1 H      0.059  0.941  0.000  0.000     2.214     2.327
 252   1 H      0.032  0.968  0.000  0.000     2.551     2.498
 253   1 H      0.336  0.664  0.000  0.000     0.622     1.239
 254   7 N     -0.161  1.237  3.925  0.000    24.493     7.350
 255   6 C      0.020  1.055  2.924  0.000    20.239     6.406
 256   6 C      0.262  1.045  2.693  0.000    22.587     7.783
 257   8 O     -0.494  1.747  4.747  0.000    23.661     6.522
 258   6 C      0.074  1.040  2.886  0.000    19.565     6.338
 259   8 O     -0.492  1.737  4.756  0.000    22.733     6.436
 260   1 H      0.204  0.796  0.000  0.000     1.084     1.631
 261   1 H      0.086  0.914  0.000  0.000     1.922     2.168
 262   1 H      0.045  0.955  0.000  0.000     2.385     2.415
 263   1 H      0.049  0.951  0.000  0.000     2.335     2.390
 264   1 H      0.355  0.645  0.000  0.000     0.578     1.194
 265   7 N     -0.093  1.243  3.850  0.000    23.050     7.131
 266   6 C      0.023  1.063  2.914  0.000    20.172     6.391
 267   6 C      0.203  1.083  2.714  0.000    23.688     7.971
 268   8 O     -0.360  1.748  4.612  0.000    20.907     6.130
 269   6 C     -0.065  1.052  3.013  0.000    21.718     6.628
 270   6 C     -0.066  1.043  3.024  0.000    21.732     6.631
 271   6 C     -0.013  1.053  2.960  0.000    20.822     6.500
 272   1 H      0.088  0.912  0.000  0.000     1.897     2.154
 273   1 H      0.067  0.933  0.000  0.000     2.115     2.274
 274   1 H      0.076  0.924  0.000  0.000     2.018     2.222
 275   1 H      0.079  0.921  0.000  0.000     1.990     2.206
 276   1 H      0.061  0.939  0.000  0.000     2.182     2.310
 277   1 H      0.073  0.927  0.000  0.000     2.055     2.242
 278   1 H      0.073  0.927  0.000  0.000     2.051     2.240
 279   7 N     -0.393  1.323  4.071  0.000    30.183     8.159
 280   6 C      0.041  1.052  2.908  0.000    19.907     6.355
 281   6 C      0.203  1.089  2.708  0.000    23.680     7.969
 282   8 O     -0.383  1.758  4.625  0.000    21.338     6.193
 283   6 C     -0.064  1.050  3.014  0.000    21.723     6.635
 284   6 C     -0.035  1.067  2.968  0.000    28.839     8.808
 285   6 C      0.001  1.063  2.935  0.000    27.966     8.674
 286   6 C     -0.024  1.073  2.950  0.000    28.424     8.733
 287   7 N     -0.106  1.230  3.877  0.000    23.327     7.173
 288   6 C      0.049  1.060  2.891  0.000    26.810     8.488
 289   6 C     -0.046  1.078  2.968  0.000    29.144     8.852
 290   6 C     -0.052  1.071  2.982  0.000    29.299     8.876
 291   6 C     -0.050  1.077  2.973  0.000    29.237     8.867
 292   6 C     -0.042  1.077  2.965  0.000    29.047     8.838
 293   1 H      0.176  0.824  0.000  0.000     1.238     1.743
 294   1 H      0.050  0.950  0.000  0.000     2.325     2.385
 295   1 H      0.062  0.938  0.000  0.000     2.176     2.307
 296   1 H      0.049  0.951  0.000  0.000     2.334     2.389
 297   1 H      0.021  0.979  0.000  0.000     2.712     2.576
 298   1 H      0.181  0.819  0.000  0.000     1.211     1.724
 299   1 H      0.030  0.970  0.000  0.000     2.583     2.513
 300   1 H      0.027  0.973  0.000  0.000     2.627     2.535
 301   1 H      0.031  0.969  0.000  0.000     2.569     2.506
 302   1 H      0.026  0.974  0.000  0.000     2.646     2.544
 303   7 N     -0.390  1.316  4.074  0.000    30.106     8.149
 304   6 C      0.043  1.052  2.905  0.000    19.875     6.351
 305   6 C      0.191  1.099  2.710  0.000    23.911     8.008
 306   8 O     -0.369  1.762  4.607  0.000    21.079     6.155
 307   6 C     -0.070  1.055  3.015  0.000    21.830     6.650
 308   6 C     -0.009  1.053  2.956  0.000    20.706     6.472
 309   6 C     -0.110  1.043  3.068  0.000    22.660     6.787
 310   6 C     -0.108  1.039  3.069  0.000    22.606     6.778
 311   1 H      0.167  0.833  0.000  0.000     1.294     1.782
 312   1 H      0.046  0.954  0.000  0.000     2.372     2.408
 313   1 H      0.046  0.954  0.000  0.000     2.368     2.407
 314   1 H      0.042  0.958  0.000  0.000     2.416     2.431
 315   1 H      0.035  0.965  0.000  0.000     2.520     2.482
 316   1 H      0.044  0.956  0.000  0.000     2.398     2.422
 317   1 H      0.038  0.962  0.000  0.000     2.469     2.457
 318   1 H      0.035  0.965  0.000  0.000     2.522     2.484
 319   1 H      0.040  0.960  0.000  0.000     2.452     2.449
 320   1 H      0.033  0.967  0.000  0.000     2.544     2.494
 321   1 H      0.042  0.958  0.000  0.000     2.428     2.437
 322   7 N     -0.391  1.321  4.069  0.000    30.113     8.150
 323   6 C      0.047  1.042  2.911  0.000    19.795     6.337
 324   6 C      0.209  1.085  2.707  0.000    23.572     7.952
 325   8 O     -0.383  1.749  4.634  0.000    21.346     6.194
 326   6 C     -0.119  1.045  3.073  0.000    22.824     6.811
 327   1 H      0.159  0.841  0.000  0.000     1.340     1.813
 328   1 H      0.047  0.953  0.000  0.000     2.353     2.399
 329   1 H      0.050  0.950  0.000  0.000     2.317     2.381
 330   1 H      0.061  0.939  0.000  0.000     2.183     2.310
 331   1 H      0.057  0.943  0.000  0.000     2.234     2.337
 332   8 O     -0.604  1.650  4.954  0.000    25.280     6.786
 333   1 H      0.310  0.690  0.000  0.000     0.692     1.306
 334   1 H      0.325  0.675  0.000  0.000     0.650     1.266
 335   7 N     -0.387  1.335  4.052  0.000    30.011     8.136
 336   6 C      0.021  1.064  2.915  0.000    20.241     6.409
 337   6 C      0.271  1.046  2.683  0.000    22.427     7.755
 338   8 O     -0.486  1.758  4.728  0.000    23.480     6.497
 339   6 C     -0.066  1.050  3.016  0.000    21.757     6.640
 340   6 C     -0.094  1.055  3.038  0.000    22.283     6.720
 341   6 C      0.283  1.035  2.682  0.000    22.211     7.717
 342   8 O     -0.504  1.757  4.747  0.000    23.878     6.552
 343   7 N     -0.279  1.265  4.014  0.000    27.207     7.747
 344   1 H      0.157  0.843  0.000  0.000     1.356     1.824
 345   1 H      0.061  0.939  0.000  0.000     2.186     2.312
 346   1 H      0.043  0.957  0.000  0.000     2.416     2.431
 347   1 H      0.056  0.944  0.000  0.000     2.241     2.341
 348   1 H      0.058  0.942  0.000  0.000     2.225     2.333
 349   1 H      0.073  0.927  0.000  0.000     2.055     2.242
 350   1 H      0.229  0.771  0.000  0.000     0.971     1.544
 351   1 H      0.216  0.784  0.000  0.000     1.029     1.589
 352   7 N     -0.163  1.235  3.928  0.000    24.533     7.356
 353   6 C      0.017  1.059  2.924  0.000    20.295     6.415
 354   6 C      0.198  1.089  2.714  0.000    23.790     7.989
 355   8 O     -0.366  1.750  4.616  0.000    21.005     6.145
 356   6 C     -0.021  1.065  2.956  0.000    20.921     6.506
 357   6 C     -0.120  1.044  3.076  0.000    22.858     6.818
 358   6 C     -0.130  1.046  3.085  0.000    23.065     6.849
 359   1 H      0.212  0.788  0.000  0.000     1.049     1.604
 360   1 H      0.092  0.908  0.000  0.000     1.858     2.131
 361   1 H      0.042  0.958  0.000  0.000     2.429     2.437
 362   1 H      0.051  0.949  0.000  0.000     2.309     2.376
 363   1 H      0.030  0.970  0.000  0.000     2.588     2.516
 364   1 H      0.062  0.938  0.000  0.000     2.181     2.310
 365   1 H      0.061  0.939  0.000  0.000     2.187     2.313
 366   1 H      0.064  0.936  0.000  0.000     2.157     2.297
 367   1 H      0.063  0.937  0.000  0.000     2.169     2.303
 368   7 N     -0.392  1.319  4.073  0.000    30.161     8.156
 369   6 C      0.021  1.055  2.923  0.000    20.231     6.406
 370   6 C      0.273  1.038  2.689  0.000    22.386     7.748
 371   8 O     -0.496  1.727  4.769  0.000    23.700     6.527
 372   6 C      0.077  1.037  2.886  0.000    19.505     6.327
 373   8 O     -0.483  1.720  4.763  0.000    22.532     6.408
 374   1 H      0.173  0.827  0.000  0.000     1.254     1.754
 375   1 H      0.062  0.938  0.000  0.000     2.171     2.304
 376   1 H      0.014  0.986  0.000  0.000     2.823     2.628
 377   1 H      0.047  0.953  0.000  0.000     2.357     2.401
 378   1 H      0.341  0.659  0.000  0.000     0.610     1.227
 379   7 N     -0.177  1.248  3.929  0.000    24.836     7.402
 380   6 C      0.027  1.058  2.916  0.000    20.129     6.388
 381   6 C      0.280  1.033  2.687  0.000    22.260     7.727
 382   8 O     -0.499  1.737  4.762  0.000    23.760     6.535
 383   6 C     -0.061  1.054  3.007  0.000    21.673     6.627
 384   6 C     -0.089  1.061  3.028  0.000    22.198     6.708
 385   6 C      0.368  1.020  2.612  0.000    20.762     7.457
 386   8 O     -0.650  1.762  4.888  0.000    27.371     7.014
 387   8 O     -0.664  1.792  4.872  0.000    27.738     7.061
 388   1 H      0.213  0.787  0.000  0.000     1.042     1.599
 389   1 H      0.056  0.944  0.000  0.000     2.241     2.341
 390   1 H      0.056  0.944  0.000  0.000     2.246     2.344
 391   1 H      0.068  0.932  0.000  0.000     2.105     2.269
 392   1 H      0.029  0.971  0.000  0.000     2.604     2.523
 393   1 H      0.041  0.959  0.000  0.000     2.439     2.442
 394   7 N     -0.173  1.242  3.931  0.000    24.744     7.388
 395   6 C      0.016  1.056  2.928  0.000    20.307     6.416
 396   6 C      0.271  1.040  2.689  0.000    22.419     7.754
 397   8 O     -0.477  1.738  4.738  0.000    23.274     6.468
 398   6 C     -0.078  1.050  3.028  0.000    21.976     6.673
 399   6 C     -0.101  1.053  3.048  0.000    22.425     6.741
 400   6 C      0.279  1.038  2.683  0.000    22.275     7.728
 401   8 O     -0.482  1.753  4.730  0.000    23.399     6.485
 402   7 N     -0.278  1.264  4.014  0.000    27.183     7.743
 403   1 H      0.227  0.773  0.000  0.000     0.978     1.549
 404   1 H      0.084  0.916  0.000  0.000     1.937     2.176
 405   1 H      0.090  0.910  0.000  0.000     1.881     2.145
 406   1 H      0.070  0.930  0.000  0.000     2.087     2.259
 407   1 H      0.096  0.904  0.000  0.000     1.825     2.113
 408   1 H      0.062  0.938  0.000  0.000     2.173     2.305
 409   1 H      0.210  0.790  0.000  0.000     1.056     1.610
 410   1 H      0.218  0.782  0.000  0.000     1.019     1.581
 411   7 N     -0.181  1.247  3.934  0.000    24.916     7.413
 412   6 C      0.019  1.061  2.920  0.000    20.268     6.410
 413   6 C      0.278  1.037  2.685  0.000    22.303     7.734
 414   8 O     -0.490  1.738  4.752  0.000    23.560     6.508
 415   6 C     -0.139  1.046  3.094  0.000    23.230     6.871
 416   1 H      0.206  0.794  0.000  0.000     1.074     1.623
 417   1 H      0.086  0.914  0.000  0.000     1.920     2.167
 418   1 H      0.080  0.920  0.000  0.000     1.983     2.202
 419   1 H      0.086  0.914  0.000  0.000     1.919     2.166
 420   1 H      0.069  0.931  0.000  0.000     2.096     2.264
 421   7 N     -0.181  1.249  3.933  0.000    24.930     7.416
 422   6 C      0.020  1.063  2.918  0.000    20.249     6.408
 423   6 C      0.276  1.040  2.684  0.000    22.327     7.738
 424   8 O     -0.504  1.753  4.751  0.000    23.880     6.552
 425   6 C     -0.077  1.054  3.023  0.000    21.970     6.673
 426   6 C     -0.069  1.048  3.021  0.000    21.820     6.650
 427   6 C     -0.076  1.050  3.025  0.000    21.941     6.669
 428   6 C     -0.018  1.045  2.973  0.000    20.994     6.540
 429   7 N     -0.133  1.231  3.903  0.000    23.878     7.258
 430   1 H      0.224  0.776  0.000  0.000     0.992     1.561
 431   1 H      0.079  0.921  0.000  0.000     1.987     2.204
 432   1 H      0.061  0.939  0.000  0.000     2.191     2.315
 433   1 H      0.056  0.944  0.000  0.000     2.250     2.346
 434   1 H      0.062  0.938  0.000  0.000     2.172     2.305
 435   1 H      0.061  0.939  0.000  0.000     2.182     2.310
 436   1 H      0.054  0.946  0.000  0.000     2.275     2.359
 437   1 H      0.067  0.933  0.000  0.000     2.114     2.274
 438   1 H      0.109  0.891  0.000  0.000     1.707     2.043
 439   1 H      0.084  0.916  0.000  0.000     1.935     2.175
 440   1 H      0.265  0.735  0.000  0.000     0.829     1.426
 441   1 H      0.260  0.740  0.000  0.000     0.847     1.442
 442   1 H      0.280  0.720  0.000  0.000     0.778     1.382
 443   7 N     -0.172  1.245  3.927  0.000    24.712     7.383
 444   6 C      0.031  1.050  2.919  0.000    20.050     6.374
 445   6 C      0.288  1.031  2.681  0.000    22.116     7.702
 446   8 O     -0.501  1.742  4.759  0.000    23.797     6.540
 447   6 C     -0.084  1.053  3.031  0.000    22.084     6.687
 448   6 C      0.010  1.066  2.923  0.000    27.779     8.646
 449   6 C     -0.042  1.073  2.969  0.000    29.049     8.840
 450   6 C     -0.047  1.079  2.968  0.000    29.157     8.856
 451   6 C     -0.036  1.077  2.959  0.000    28.896     8.816
 452   6 C     -0.036  1.080  2.957  0.000    28.902     8.817
 453   6 C     -0.035  1.076  2.959  0.000    28.869     8.811
 454   1 H      0.217  0.783  0.000  0.000     1.023     1.584
 455   1 H      0.063  0.937  0.000  0.000     2.161     2.299
 456   1 H      0.055  0.945  0.000  0.000     2.257     2.349
 457   1 H      0.074  0.926  0.000  0.000     2.044     2.236
 458   1 H      0.029  0.971  0.000  0.000     2.598     2.521
 459   1 H      0.043  0.957  0.000  0.000     2.404     2.424
 460   1 H      0.042  0.958  0.000  0.000     2.420     2.433
 461   1 H      0.046  0.954  0.000  0.000     2.368     2.407
 462   1 H      0.040  0.960  0.000  0.000     2.451     2.448
 463   7 N     -0.180  1.247  3.933  0.000    24.894     7.410
 464   6 C      0.028  1.057  2.915  0.000    20.092     6.380
 465   6 C      0.288  1.027  2.685  0.000    22.118     7.702
 466   8 O     -0.497  1.732  4.764  0.000    23.704     6.528
 467   6 C     -0.067  1.042  3.026  0.000    21.780     6.642
 468   6 C     -0.033  1.054  2.979  0.000    28.748     8.793
 469   6 C     -0.015  1.069  2.945  0.000    28.342     8.732
 470   6 C     -0.021  1.072  2.949  0.000    28.357     8.722
 471   7 N     -0.105  1.225  3.881  0.000    23.307     7.170
 472   6 C      0.041  1.067  2.892  0.000    26.982     8.515
 473   6 C     -0.039  1.079  2.960  0.000    28.970     8.826
 474   6 C     -0.058  1.074  2.984  0.000    29.440     8.897
 475   6 C     -0.043  1.081  2.962  0.000    29.064     8.840
 476   6 C     -0.039  1.081  2.958  0.000    28.967     8.826
 477   1 H      0.218  0.782  0.000  0.000     1.019     1.581
 478   1 H      0.069  0.931  0.000  0.000     2.098     2.265
 479   1 H      0.057  0.943  0.000  0.000     2.236     2.338
 480   1 H      0.060  0.940  0.000  0.000     2.198     2.318
 481   1 H      0.051  0.949  0.000  0.000     2.309     2.376
 482   1 H      0.182  0.818  0.000  0.000     1.204     1.719
 483   1 H      0.017  0.983  0.000  0.000     2.783     2.609
 484   1 H      0.044  0.956  0.000  0.000     2.394     2.420
 485   1 H      0.022  0.978  0.000  0.000     2.703     2.571
 486   1 H      0.031  0.969  0.000  0.000     2.577     2.511
 487   7 N     -0.193  1.249  3.945  0.000    25.198     7.455
 488   6 C      0.025  1.060  2.915  0.000    20.155     6.391
 489   6 C      0.277  1.043  2.679  0.000    22.307     7.734
 490   8 O     -0.510  1.757  4.752  0.000    23.997     6.568
 491   6 C     -0.073  1.053  3.020  0.000    21.890     6.659
 492   6 C     -0.015  1.055  2.960  0.000    20.808     6.488
 493   6 C     -0.119  1.047  3.072  0.000    22.840     6.814
 494   6 C     -0.121  1.043  3.077  0.000    22.866     6.818
 495   1 H      0.222  0.778  0.000  0.000     1.001     1.567
 496   1 H      0.078  0.922  0.000  0.000     1.996     2.209
 497   1 H      0.041  0.959  0.000  0.000     2.431     2.438
 498   1 H      0.061  0.939  0.000  0.000     2.190     2.314
 499   1 H      0.039  0.961  0.000  0.000     2.461     2.453
 500   1 H      0.057  0.943  0.000  0.000     2.239     2.340
 501   1 H      0.040  0.960  0.000  0.000     2.455     2.450
 502   1 H      0.046  0.954  0.000  0.000     2.374     2.409
 503   1 H      0.054  0.946  0.000  0.000     2.266     2.354
 504   1 H      0.043  0.957  0.000  0.000     2.415     2.430
 505   1 H      0.034  0.966  0.000  0.000     2.527     2.486
 506   7 N     -0.167  1.240  3.927  0.000    24.611     7.368
 507   6 C     -0.023  1.049  2.974  0.000    21.049     6.544
 508   6 C      0.283  1.037  2.680  0.000    22.205     7.716
 509   8 O     -0.498  1.745  4.753  0.000    23.743     6.533
 510   1 H      0.216  0.784  0.000  0.000     1.030     1.590
 511   1 H      0.088  0.912  0.000  0.000     1.894     2.152
 512   1 H      0.076  0.924  0.000  0.000     2.021     2.223
 513   7 N     -0.177  1.249  3.928  0.000    24.842     7.402
 514   6 C      0.036  1.054  2.910  0.000    19.977     6.365
 515   6 C      0.205  1.086  2.709  0.000    23.640     7.964
 516   8 O     -0.367  1.754  4.613  0.000    21.035     6.149
 517   6 C     -0.070  1.051  3.019  0.000    21.809     6.644
 518   6 C     -0.007  1.046  2.961  0.000    20.669     6.466
 519   6 C     -0.109  1.041  3.068  0.000    22.628     6.781
 520   6 C     -0.111  1.042  3.069  0.000    22.669     6.787
 521   1 H      0.217  0.783  0.000  0.000     1.024     1.585
 522   1 H      0.093  0.907  0.000  0.000     1.851     2.127
 523   1 H      0.064  0.936  0.000  0.000     2.152     2.294
 524   1 H      0.067  0.933  0.000  0.000     2.117     2.275
 525   1 H      0.030  0.970  0.000  0.000     2.590     2.517
 526   1 H      0.050  0.950  0.000  0.000     2.314     2.379
 527   1 H      0.030  0.970  0.000  0.000     2.588     2.516
 528   1 H      0.048  0.952  0.000  0.000     2.349     2.397
 529   1 H      0.041  0.959  0.000  0.000     2.439     2.442
 530   1 H      0.045  0.955  0.000  0.000     2.389     2.417
 531   1 H      0.044  0.956  0.000  0.000     2.399     2.422
 532   7 N     -0.396  1.319  4.077  0.000    30.276     8.172
 533   6 C      0.028  1.057  2.915  0.000    20.117     6.389
 534   6 C      0.262  1.051  2.687  0.000    22.592     7.783
 535   8 O     -0.517  1.766  4.752  0.000    24.170     6.591
 536   6 C     -0.071  1.054  3.017  0.000    21.842     6.652
 537   6 C     -0.013  1.055  2.958  0.000    20.775     6.483
 538   6 C     -0.118  1.046  3.071  0.000    22.811     6.810
 539   6 C     -0.115  1.042  3.073  0.000    22.755     6.802
 540   1 H      0.170  0.830  0.000  0.000     1.275     1.769
 541   1 H      0.044  0.956  0.000  0.000     2.392     2.419
 542   1 H      0.041  0.959  0.000  0.000     2.432     2.439
 543   1 H      0.036  0.964  0.000  0.000     2.498     2.471
 544   1 H      0.039  0.961  0.000  0.000     2.462     2.454
 545   1 H      0.054  0.946  0.000  0.000     2.268     2.355
 546   1 H      0.035  0.965  0.000  0.000     2.522     2.483
 547   1 H      0.039  0.961  0.000  0.000     2.458     2.452
 548   1 H      0.050  0.950  0.000  0.000     2.314     2.379
 549   1 H      0.030  0.970  0.000  0.000     2.579     2.512
 550   1 H      0.038  0.962  0.000  0.000     2.470     2.458
 551   7 N     -0.160  1.240  3.920  0.000    24.465     7.346
 552   6 C     -0.034  1.051  2.983  0.000    21.261     6.578
 553   6 C      0.207  1.080  2.713  0.000    23.612     7.958
 554   8 O     -0.375  1.768  4.607  0.000    21.190     6.172
 555   1 H      0.240  0.760  0.000  0.000     0.925     1.507
 556   1 H      0.098  0.902  0.000  0.000     1.806     2.101
 557   1 H      0.127  0.873  0.000  0.000     1.560     1.953
 558   7 N     -0.388  1.318  4.070  0.000    30.045     8.141
 559   6 C     -0.002  1.038  2.964  0.000    20.698     6.492
 560   6 C      0.285  1.038  2.677  0.000    22.174     7.711
 561   8 O     -0.526  1.755  4.771  0.000    24.378     6.620
 562   1 H      0.155  0.845  0.000  0.000     1.370     1.833
 563   1 H      0.050  0.950  0.000  0.000     2.324     2.384
 564   1 H      0.049  0.951  0.000  0.000     2.333     2.388
 565   7 N     -0.175  1.244  3.931  0.000    24.791     7.395
 566   6 C     -0.022  1.057  2.965  0.000    21.043     6.546
 567   6 C      0.369  1.025  2.606  0.000    20.736     7.452
 568   8 O     -0.629  1.764  4.865  0.000    26.835     6.945
 569   8 O     -0.636  1.761  4.875  0.000    27.007     6.968
 570   1 H      0.208  0.792  0.000  0.000     1.067     1.618
 571   1 H      0.040  0.960  0.000  0.000     2.455     2.450
 572   1 H      0.047  0.953  0.000  0.000     2.362     2.404
 573   1 H      0.181  0.819  0.000  0.000     1.209     1.722
 574   1 H      0.098  0.902  0.000  0.000     1.799     2.097
 575   1 H      0.209  0.791  0.000  0.000     1.063     1.615
 576   1 H      0.065  0.935  0.000  0.000     2.139     2.287
 577   1 H      0.182  0.818  0.000  0.000     1.202     1.717
 578   1 H      0.079  0.921  0.000  0.000     1.992     2.207
 579   1 H      0.178  0.822  0.000  0.000     1.227     1.735
 580   1 H      0.086  0.914  0.000  0.000     1.916     2.164
 581   1 H      0.184  0.816  0.000  0.000     1.191     1.709
 582   1 H      0.076  0.924  0.000  0.000     2.025     2.225
 583   1 H      0.171  0.829  0.000  0.000     1.269     1.765
 584   1 H      0.077  0.923  0.000  0.000     2.007     2.215
 585   1 H      0.181  0.819  0.000  0.000     1.206     1.720
 586   1 H      0.079  0.921  0.000  0.000     1.993     2.208
 587   1 H      0.189  0.811  0.000  0.000     1.162     1.689
 588   1 H      0.069  0.931  0.000  0.000     2.098     2.265
 589   1 H      0.185  0.815  0.000  0.000     1.186     1.706
 590   1 H      0.080  0.920  0.000  0.000     1.977     2.199
 591   1 H      0.198  0.802  0.000  0.000     1.117     1.656
 592   1 H      0.069  0.931  0.000  0.000     2.096     2.264
 593   1 H      0.180  0.820  0.000  0.000     1.212     1.725
 594   1 H      0.088  0.912  0.000  0.000     1.893     2.152
 595   1 H      0.196  0.804  0.000  0.000     1.124     1.661

 Mol. C6AA /au·bohr⁶  :    3248581.126889
 Mol. C8AA /au·bohr⁸  :   72208289.580953
 Mol. α(0) /au        :       2708.503915

 
molecular dipole:
                 x           y           z       tot (Debye)
 q only:     -115.575    -139.365    -388.245
   full:     -108.291    -139.434    -386.940    1081.062
molecular quadrupole (traceless):
                xx          xy          yy          xz          yz          zz
 q only:    70582.077  -24686.612   63848.853  -67095.470  -81544.909 -134430.930
  q+dip:    71852.211  -23419.662   62367.067  -62460.829  -81355.284 -134219.278
   full:    71853.152  -23418.654   62368.024  -62465.332  -81352.474 -134221.176
speedup  1.35
cpu  time for grad    1 m 17.4 s
wall time for grad    0 m 57.5 s

SCC energy    :    -908.9621946
rep           :      11.4527911
ES            :       2.6216414
AES           :      -0.0515537
AXC           :       0.3129515
disp          :      -0.7986457
XB            :       0.0000000
fix           :       0.0000000
Gborn         :       0.0000000
Gsasa         :       0.0000000
Ghb           :       0.0000000
Gshift        :       0.0000000
Gsolv         :      -0.5927876     -371.98
Etot ala COSMO:    -908.9621946
grad norm     :       0.8927292
total E       :    -897.4202404
atomizationE  :     167.0548802   104828.52
(atE without considering molecular charge,
 total energy contains solvation terms)
H-L gap (eV)  :          0.9749

------------------------------------------------------------------------
 * finished run on 2019/05/05 at 21:58:47.860     
------------------------------------------------------------------------
 total:
 * wall-time:     0 d,  0 h,  1 min,  0.874 sec
 *  cpu-time:     0 d,  0 h,  1 min, 21.025 sec
 * ratio c/w:     1.331 speedup
 SCF:
 * wall-time:     0 d,  0 h,  1 min,  0.009 sec
 *  cpu-time:     0 d,  0 h,  1 min, 20.316 sec
 * ratio c/w:     1.338 speedup

