      -----------------------------------------------------------      
     |                   =====================                   |     
     |                           x T B                           |     
     |                   =====================                   |     
     |                         S. Grimme                         |     
     |          Mulliken Center for Theoretical Chemistry        |     
     |                    University of Bonn                     |     
     |                 Version 6.0.1 (SAW181210)                 |     
      -----------------------------------------------------------      

   This program is distributed in the hope that it will be useful,
   but WITHOUT ANY WARRANTY; without even the implied warranty of
   MERCHANTABILITY or FITNESS FOR A PARTICULAR PURPOSE.
   
   FOR NON-COMMERCIAL, ACADEMIA USE ONLY.
   
   Cite this work as:
   S. Grimme, C. Bannwarth, P. Shushkov, J. Comput. Theory Chem., 2017,
   13, 1989-2009.
   C. Bannwarth, S. Ehlert and S. Grimme., ChemRxiv, 2018, preprint.
   http://doi.org/10.26434/chemrxiv.7246238.v1
   
   for sTDA-xTB:
   S. Grimme and C. Bannwarth, J. Chem. Phys., 2016, 145, 054103.
   
   in the mass-spec context:
   V. Asgeirsson, C. Bauer and S. Grimme, Chem. Sci., 2017, 8, 4879.
   
   if GBSA is used:
   P. Shushkov, F. März and S. Grimme, unpublished.
   
   for ANC optimizer:
   S. Grimme, unpublished.
   Rational Function algorithm used in ANCopt:
   F. Eckert, P. Pulay, H.-J. Werner, J. Comput. Chem., 1997, 18, 1473.
   
   with help from (in alphabetical order)
   C. Bannwarth, F. Bohle, G. Brandenburg, E. Caldeweyher, M. Checinski,
   S. Dohm, S. Ehlert, S. Ehrlich, F. März, H. Neugebauer, J. Pisarek,
   P. Pracht, P. Shushkov, and S. Spicher.
   
 * started run on 2019/05/07 at 22:46:53.744     
========================================================================
 # omp threads = 2
========================================================================
number of atoms            : 630
number of electrons        : 1628
charge                     : 3
spin                       : .0
first test random number   : .2347

########################################################################
# WARNING! Please study the warnings concerning your input carefully
#  - Process number higher than OMP_NUM_THREADS, I hope you know what you are doing.
########################################################################

           ------------------------------------------------- 
          |                 G F N 2 - x T B                 |
          | Geometry, Frequencies, Noncovalent interactions |
          |            JCTC 2018 parametrisation            |
           ------------------------------------------------- 
 
      method parameters     
 k(s)        :  1.8500
 k(p)        :  2.2300
 k(d)        :  2.2300
 k(f)        :  2.0000
 kEN (H0ij)  : -2.0000
 D4 a1       :  0.5200
 D4 a2       :  5.0000
 D4 s6       :  1.0000
 D4 s8       :  2.7000
 D4 s9       :  5.0000
 alphaj      :  2.0000

 Solvent             : h2o
 Using internal parameter file: .param_gbsa2_h2o
 Gsolv ref. state (COSMO-RS): gsolv [1 M gas/solution]
 temperature (mdtemp)       :    298.150000000000     
 dielectric constant        :    80.2000000000000     
 rho                        :    1.00000000000000     
 mass                       :    18.0000000000000     
 surface tension            :    15.5689454083859     
 probe radius               :   0.975313790000000     
 vdW radii scaling          :    1.00000000000000     
 Gshift (Eh)                :   1.857443126794793E-003
 c1                         :    1.55243817000000     
 soset                      :   0.130326360000000     
 HB correction              :  T

            Z     q(EN)     CN     RAES       Cart. coordinates
     1  N   5.0   -0.19    3.14    1.94   134.47756   106.05772   392.33832
     2  C   4.0    0.03    4.16    3.91   132.82465   104.23068   391.02786
     3  C   4.0    0.09    3.16    3.03   131.68674   102.00886   392.59839
     4  O   6.0   -0.31    1.13    1.80   129.39648   101.59929   392.66561
     5  C   4.0   -0.03    4.27    4.14   134.32962   103.11121   388.74243
     6  C   4.0   -0.01    3.52    3.13   132.58071   101.81989   386.84465
     7  C   4.0   -0.03    3.44    3.09   131.75143    99.33703   387.20044
     8  C   4.0   -0.04    3.45    3.09   131.71148   103.17314   384.74498
     9  C   4.0   -0.04    3.37    3.07   130.06135    98.26303   385.51230
    10  C   4.0   -0.04    3.36    3.07   129.99671   102.11030   383.08527
    11  C   4.0   -0.04    3.37    3.07   129.16008    99.65889   383.47832
    12  H   1.0    0.09    1.03    1.43   135.70651   106.96058   391.18172
    13  H   1.0    0.05    1.05    1.44   131.16674   105.24114   390.29446
    14  H   1.0    0.05    1.03    1.43   135.29856   104.65752   387.78712
    15  H   1.0    0.06    1.03    1.43   135.69733   101.74444   389.44485
    16  H   1.0    0.06    1.03    1.43   132.39692    98.22263   388.78179
    17  H   1.0    0.06    1.03    1.43   132.37387   105.07844   384.43145
    18  H   1.0    0.05    1.03    1.43   129.52937    96.30903   385.75595
    19  H   1.0    0.05    1.03    1.43   129.32178   103.18777   381.48940
    20  H   1.0    0.06    1.03    1.43   127.80559    98.82920   382.19787
    21  N   5.0   -0.20    3.17    1.95   124.24341   102.01730   395.64108
    22  C   4.0    0.03    4.31    4.22   122.49625    99.87993   395.38430
    23  C   4.0    0.09    3.24    3.04   121.38643    99.05791   397.93888
    24  O   6.0   -0.28    1.13    1.80   119.13493    98.54217   398.10173
    25  C   4.0   -0.02    4.33    4.25   123.53167    97.55454   393.99337
    26  C   4.0   -0.05    4.20    4.01   124.45982    98.31603   391.38190
    27  C   4.0   -0.07    4.17    3.94   121.43229    95.58608   393.92199
    28  C   4.0   -0.07    4.02    3.66   125.80804    96.19595   390.00125
    29  H   1.0    0.11    1.03    1.43   125.98330   101.88162   394.86550
    30  H   1.0    0.04    1.06    1.44   120.86604   100.58010   394.29460
    31  H   1.0    0.05    1.05    1.44   125.15373    96.81285   395.05031
    32  H   1.0    0.03    1.03    1.43   122.84368    98.92627   390.24593
    33  H   1.0    0.06    1.04    1.44   125.76176    99.90057   391.52066
    34  H   1.0    0.04    1.00    1.43   122.04765    93.97894   392.80332
    35  H   1.0    0.06    1.01    1.43   120.98691    94.93715   395.81269
    36  H   1.0    0.05    1.00    1.43   119.74628    96.38479   393.06781
    37  H   1.0    0.04    1.01    1.43   126.48669    96.89887   388.19884
    38  H   1.0    0.05    1.00    1.43   127.42991    95.50436   391.05705
    39  H   1.0    0.04    1.00    1.43   124.55195    94.61075   389.64304
    40  N   5.0   -0.21    3.26    1.97   113.93821    87.96792   391.74156
    41  C   4.0    0.03    4.30    4.21   116.29196    89.36096   391.91967
    42  C   4.0    0.15    3.40    3.08   117.53416    89.33785   389.33034
    43  O   6.0   -0.32    1.27    1.80   118.20498    91.36553   388.45265
    44  C   4.0   -0.05    4.20    4.01   118.07413    88.59957   394.05736
    45  C   4.0   -0.05    4.12    3.83   117.26053    89.26100   396.79440
    46  C   4.0   -0.04    4.12    3.84   116.10152    86.99021   398.24163
    47  C   4.0   -0.03    4.10    3.80   113.33271    86.45998   397.42404
    48  N   5.0   -0.11    4.00    2.85   112.65699    83.74629   397.75879
    49  H   1.0    0.08    1.02    1.43   113.96280    86.06455   391.91539
    50  H   1.0    0.04    1.07    1.44   115.76329    91.34453   392.21129
    51  H   1.0    0.05    1.03    1.43   118.47282    86.57988   393.92290
    52  H   1.0    0.05    1.03    1.43   119.84489    89.57683   393.65786
    53  H   1.0    0.05    1.03    1.43   118.94474    89.87470   397.79835
    54  H   1.0    0.05    1.02    1.43   115.93166    90.82992   396.76969
    55  H   1.0    0.05    1.03    1.43   117.29536    85.35227   397.87603
    56  H   1.0    0.05    1.02    1.43   116.18885    87.39111   400.25301
    57  H   1.0    0.05    1.02    1.43   112.08271    87.62134   398.57593
    58  H   1.0    0.04    1.07    1.44   113.06818    87.02800   395.46917
    59  H   1.0    0.07    1.02    1.43   110.80717    83.37369   397.28395
    60  H   1.0    0.06    1.02    1.43   113.85015    82.57587   396.75632
    61  H   1.0    0.07    1.02    1.43   112.90474    83.28105   399.64277
    62  N   5.0   -0.14    3.40    2.02   117.67814    87.11498   388.09805
    63  C   4.0    0.03    4.26    4.11   118.35851    86.85731   385.36934
    64  C   4.0    0.16    3.34    3.06   117.25174    89.06021   383.68313
    65  O   6.0   -0.31    1.25    1.80   118.59863    90.29693   382.24069
    66  C   4.0   -0.05    4.17    3.93   117.54588    84.13942   384.52965
    67  C   4.0   -0.04    4.10    3.80   117.41382    83.39390   381.68313
    68  C   4.0   -0.04    4.12    3.84   119.87670    83.11769   380.16637
    69  C   4.0   -0.03    4.10    3.80   121.64058    80.96994   380.94981
    70  N   5.0   -0.11    4.01    2.88   120.86059    78.47971   379.90112
    71  H   1.0    0.08    1.07    1.44   116.92709    85.54728   388.88393
    72  H   1.0    0.06    1.04    1.44   120.41104    87.08013   385.19399
    73  H   1.0    0.05    1.02    1.43   118.79874    82.84138   385.52676
    74  H   1.0    0.05    1.03    1.43   115.63420    83.87223   385.24309
    75  H   1.0    0.05    1.03    1.43   116.35485    81.62559   381.61700
    76  H   1.0    0.05    1.03    1.43   116.26933    84.81179   380.71694
    77  H   1.0    0.05    1.03    1.43   119.37578    82.91761   378.17768
    78  H   1.0    0.05    1.03    1.43   120.91496    84.89047   380.33313
    79  H   1.0    0.05    1.02    1.43   123.54089    81.39153   380.27555
    80  H   1.0    0.05    1.02    1.43   121.69741    80.83176   383.00539
    81  H   1.0    0.07    1.02    1.43   122.10317    77.09550   380.47905
    82  H   1.0    0.07    1.02    1.43   119.07111    78.01185   380.50835
    83  H   1.0    0.07    1.02    1.43   120.86498    78.54173   377.95421
    84  N   5.0   -0.14    3.47    2.06   114.74317    89.41299   383.92069
    85  C   4.0    0.03    4.39    4.37   113.30611    91.21315   382.45573
    86  C   4.0    0.15    3.39    3.07   114.03437    94.00695   382.88698
    87  O   6.0   -0.32    1.24    1.80   114.03516    95.50946   381.10658
    88  C   4.0   -0.04    4.32    4.24   110.52120    90.82829   383.09831
    89  C   4.0   -0.03    4.17    3.94   109.51100    88.28779   382.22141
    90  C   4.0    0.26    3.09    3.02   106.69984    87.92565   383.11363
    91  O   6.0   -0.27    1.19    1.80   105.59729    89.85711   383.90170
    92  O   6.0   -0.25    1.15    1.80   105.78837    85.74504   383.01811
    93  H   1.0    0.08    1.07    1.44   113.75589    88.38861   385.20547
    94  H   1.0    0.05    1.05    1.44   113.62385    90.85963   380.43362
    95  H   1.0    0.06    1.03    1.43   110.28062    91.02700   385.14033
    96  H   1.0    0.06    1.03    1.43   109.37471    92.31077   382.23554
    97  H   1.0    0.05    1.02    1.43   109.44249    88.21427   380.15831
    98  H   1.0    0.05    1.02    1.43   110.64772    86.70752   382.87175
    99  N   5.0   -0.14    3.51    2.08   114.47668    94.62552   385.30253
   100  C   4.0    0.03    4.52    4.56   115.26770    97.11722   386.17725
   101  C   4.0    0.16    3.51    3.12   117.79104    97.65534   384.96300
   102  O   6.0   -0.33    1.35    1.80   118.19200    99.64202   383.85175
   103  C   4.0   -0.03    4.34    4.27   115.38374    97.29493   389.07504
   104  C   4.0   -0.05    4.21    4.03   112.66866    97.09332   390.05288
   105  C   4.0   -0.08    4.14    3.88   116.62893    99.75272   389.87676
   106  C   4.0   -0.07    4.02    3.66   112.51373    96.87410   392.89606
   107  H   1.0    0.09    1.07    1.44   114.32361    93.25088   386.63193
   108  H   1.0    0.05    1.06    1.44   113.92844    98.53008   385.45886
   109  H   1.0    0.05    1.05    1.44   116.50433    95.70024   389.76708
   110  H   1.0    0.04    1.03    1.43   111.61456    98.75591   389.43135
   111  H   1.0    0.04    1.04    1.43   111.78994    95.43686   389.20391
   112  H   1.0    0.04    1.00    1.43   116.70999    99.88771   391.92335
   113  H   1.0    0.04    1.00    1.43   118.54835    99.89771   389.15105
   114  H   1.0    0.04    1.00    1.43   115.56906   101.36501   389.16805
   115  H   1.0    0.05    1.00    1.43   110.54570    96.75804   393.47660
   116  H   1.0    0.04    1.00    1.43   113.47818    95.17175   393.52459
   117  H   1.0    0.05    1.00    1.43   113.36639    98.48385   393.83622
   118  N   5.0   -0.14    3.43    2.04   119.48438    95.80523   385.14191
   119  C   4.0    0.02    4.27    4.13   121.97596    96.03296   384.02965
   120  C   4.0    0.16    3.36    3.07   121.85128    96.41283   381.18125
   121  O   6.0   -0.32    1.35    1.80   123.20692    97.97976   380.12188
   122  H   1.0    0.11    1.09    1.44   119.09261    94.24251   386.18549
   123  H   1.0    0.05    1.02    1.43   122.99345    97.64230   384.84214
   124  H   1.0    0.05    1.03    1.43   123.01904    94.30083   384.42372
   125  N   5.0   -0.13    3.48    2.06   120.20020    94.90262   380.00767
   126  C   4.0    0.04    4.33    4.25   119.71818    95.11148   377.29688
   127  C   4.0    0.16    3.42    3.08   119.11784    97.86716   376.56508
   128  O   6.0   -0.31    1.24    1.80   120.30907    98.98575   374.91216
   129  C   4.0   -0.06    4.10    3.81   117.57032    93.35229   376.50984
   130  H   1.0    0.12    1.10    1.44   119.34922    93.45256   380.94308
   131  H   1.0    0.06    1.05    1.44   121.45254    94.61882   376.26861
   132  H   1.0    0.05    1.00    1.43   117.24274    93.53646   374.49030
   133  H   1.0    0.06    1.00    1.43   118.08624    91.41535   376.94697
   134  H   1.0    0.06    1.01    1.43   115.84046    93.84106   377.50007
   135  N   5.0   -0.14    3.47    2.06   117.16984    98.83783   377.90520
   136  C   4.0    0.03    4.40    4.38   116.25927   101.43577   377.66292
   137  C   4.0    0.15    3.49    3.11   118.49650   103.27239   378.10229
   138  O   6.0   -0.32    1.27    1.80   119.22086   104.74523   376.43660
   139  C   4.0   -0.04    4.35    4.29   114.05794   101.97697   379.41052
   140  C   4.0   -0.04    4.12    3.84   113.27483   104.71588   379.11479
   141  S   6.0   -0.06    2.53    3.10   111.24886   105.73570   381.70275
   142  C   4.0   -0.07    3.90    3.47   113.74488   106.04023   384.01304
   143  H   1.0    0.11    1.09    1.44   116.27394    97.73932   379.19840
   144  H   1.0    0.05    1.05    1.44   115.67473   101.73344   375.68768
   145  H   1.0    0.05    1.03    1.43   112.47497   100.73602   378.96332
   146  H   1.0    0.05    1.04    1.43   114.63915   101.60114   381.35229
   147  H   1.0    0.04    1.08    1.44   114.90556   105.96934   379.08503
   148  H   1.0    0.04    1.07    1.44   112.19239   104.99375   377.38412
   149  H   1.0    0.03    1.05    1.44   112.87890   106.76916   385.72575
   150  H   1.0    0.04    1.04    1.43   114.58278   104.20539   384.39030
   151  H   1.0    0.03    1.04    1.43   115.16098   107.35992   383.33529
   152  N   5.0   -0.14    3.51    2.08   119.61201   103.00580   380.35415
   153  C   4.0    0.04    4.48    4.51   121.75787   104.54420   381.04456
   154  C   4.0    0.16    3.49    3.11   123.79794   104.49599   379.02177
   155  O   6.0   -0.32    1.24    1.80   124.95640   106.46463   378.58475
   156  C   4.0   -0.04    4.41    4.39   122.89844   103.82574   383.56599
   157  C   4.0   -0.02    4.21    4.02   121.81616   105.39673   385.69068
   158  C   4.0   -0.08    4.13    3.86   123.04643   104.51023   388.13815
   159  C   4.0   -0.08    4.14    3.88   122.30564   108.19113   385.25670
   160  H   1.0    0.12    1.15    1.45   119.00154   101.65591   381.58114
   161  H   1.0    0.05    1.08    1.44   121.15782   106.52947   381.08792
   162  H   1.0    0.06    1.03    1.43   122.55076   101.82329   383.89826
   163  H   1.0    0.05    1.04    1.43   124.94292   104.12413   383.51134
   164  H   1.0    0.04    1.05    1.44   119.77471   105.08026   385.81511
   165  H   1.0    0.04    1.00    1.43   122.10942   105.34238   389.76167
   166  H   1.0    0.04    1.00    1.43   122.93329   102.46944   388.29360
   167  H   1.0    0.05    1.00    1.43   125.02470   105.06415   388.19253
   168  H   1.0    0.04    1.00    1.43   122.11875   109.25063   387.01477
   169  H   1.0    0.05    1.00    1.43   124.19548   108.54257   384.52710
   170  H   1.0    0.03    1.00    1.43   120.96715   109.01833   383.93716
   171  N   5.0   -0.14    3.51    2.09   124.22287   102.28505   377.87448
   172  C   4.0    0.04    4.39    4.36   126.39751   101.95701   376.25400
   173  C   4.0    0.16    3.38    3.07   125.97278   103.22152   373.63238
   174  O   6.0   -0.31    1.25    1.80   127.53559   104.76290   372.81255
   175  C   4.0    0.04    4.13    3.87   127.15105    99.16295   376.16106
   176  O   6.0   -0.25    2.04    1.83   129.62192    98.97292   375.15388
   177  H   1.0    0.13    1.15    1.45   123.34141   100.70694   378.51368
   178  H   1.0    0.06    1.06    1.44   127.99277   103.01364   377.07265
   179  H   1.0    0.06    1.02    1.43   127.06110    98.43142   378.08616
   180  H   1.0    0.06    1.01    1.43   125.79720    98.12608   374.97737
   181  H   1.0    0.12    1.02    1.43   130.40902    97.45350   375.78791
   182  N   5.0   -0.14    3.47    2.06   123.80895   102.45578   372.50094
   183  C   4.0    0.03    4.39    4.36   122.72073   103.63293   370.31288
   184  C   4.0    0.15    3.50    3.11   122.75564   106.54520   370.57360
   185  O   6.0   -0.32    1.28    1.80   123.49444   107.87914   368.82995
   186  C   4.0   -0.04    4.33    4.26   120.06737   102.64986   369.87333
   187  C   4.0   -0.02    4.22    4.05   118.62449   104.37585   367.99957
   188  C   4.0   -0.07    4.10    3.81   119.68179   104.35744   365.31915
   189  C   4.0   -0.08    4.13    3.87   115.84325   103.65148   367.90931
   190  H   1.0    0.11    1.11    1.45   122.64074   101.32386   373.52402
   191  H   1.0    0.05    1.05    1.44   123.92150   103.25603   368.66064
   192  H   1.0    0.05    1.02    1.43   120.11963   100.71255   369.17893
   193  H   1.0    0.06    1.03    1.43   119.07245   102.67359   371.67979
   194  H   1.0    0.04    1.07    1.44   118.74758   106.31205   368.72294
   195  H   1.0    0.05    1.00    1.43   118.67618   105.70079   364.13919
   196  H   1.0    0.05    1.00    1.43   121.65406   104.91911   365.29261
   197  H   1.0    0.05    1.00    1.43   119.51556   102.47267   364.51917
   198  H   1.0    0.04    1.00    1.43   114.83825   104.94679   366.67890
   199  H   1.0    0.05    1.00    1.43   115.60100   101.74225   367.21022
   200  H   1.0    0.04    1.01    1.43   115.02536   103.82848   369.77502
   201  N   5.0   -0.14    3.47    2.06   122.06401   107.61615   372.76620
   202  C   4.0    0.04    4.40    4.38   122.20064   110.35195   373.03339
   203  C   4.0    0.15    3.43    3.09   124.94555   111.34441   373.12357
   204  O   6.0   -0.30    1.25    1.80   125.37886   113.42059   372.17638
   205  C   4.0   -0.05    4.33    4.26   120.60284   111.16658   375.28515
   206  C   4.0   -0.02    4.17    3.93   117.73554   110.67850   375.15254
   207  C   4.0   -0.08    4.14    3.87   116.68893   110.93403   377.82384
   208  C   4.0   -0.08    4.10    3.81   116.30385   112.53511   373.49066
   209  H   1.0    0.11    1.09    1.44   121.32171   106.60345   374.21524
   210  H   1.0    0.05    1.06    1.44   121.43710   111.19596   371.29111
   211  H   1.0    0.05    1.03    1.43   121.35430   110.18565   376.94326
   212  H   1.0    0.04    1.03    1.43   120.90721   113.19035   375.57513
   213  H   1.0    0.05    1.05    1.44   117.41541   108.75042   374.47972
   214  H   1.0    0.03    1.00    1.43   114.66049   110.60790   377.84678
   215  H   1.0    0.04    1.00    1.43   117.58563   109.58357   379.09091
   216  H   1.0    0.03    1.00    1.43   117.04154   112.82484   378.54678
   217  H   1.0    0.03    1.00    1.43   114.30218   112.09501   373.48624
   218  H   1.0    0.03    1.00    1.43   116.56392   114.44962   374.19317
   219  H   1.0    0.04    1.00    1.43   116.97447   112.47695   371.54376
   220  N   5.0   -0.13    3.51    2.08   126.73944   109.89161   374.16997
   221  C   4.0    0.04    4.45    4.46   129.33528   110.79970   374.24134
   222  C   4.0    0.17    3.51    3.12   130.10390   111.13153   371.50177
   223  O   6.0   -0.27    1.22    1.80   131.04684   113.09325   370.72813
   224  C   4.0   -0.04    4.28    4.16   131.21022   108.91728   375.36370
   225  C   4.0   -0.03    4.18    3.97   131.25084   108.64704   378.26836
   226  C   4.0    0.16    3.21    3.04   132.23534   110.87352   379.76570
   227  O   6.0   -0.28    1.20    1.80   130.96409   111.96500   381.34647
   228  N   5.0   -0.17    3.18    1.95   134.70113   111.44107   379.44537
   229  H   1.0    0.11    1.07    1.44   126.22091   108.49546   375.38839
   230  H   1.0    0.07    1.04    1.43   129.44081   112.64815   375.19012
   231  H   1.0    0.06    1.04    1.43   130.73340   107.06005   374.60010
   232  H   1.0    0.05    1.03    1.43   133.08060   109.45232   374.67866
   233  H   1.0    0.07    1.03    1.43   129.33125   108.27739   378.93064
   234  H   1.0    0.05    1.03    1.43   132.45303   107.03451   378.72642
   235  H   1.0    0.09    1.03    1.43   135.51329   110.92346   377.79805
   236  H   1.0    0.13    1.04    1.43   135.23331   113.17820   380.05155
   237  N   5.0   -0.14    3.45    2.05   129.72158   109.00925   370.17638
   238  C   4.0    0.04    4.36    4.31   130.55154   108.53796   367.52064
   239  C   4.0    0.16    3.43    3.09   129.81547   110.60328   365.64204
   240  O   6.0   -0.25    1.20    1.80   131.36552   111.50483   364.18720
   241  C   4.0   -0.04    4.24    4.08   129.62019   106.08228   366.17586
   242  C   4.0   -0.04    4.19    3.98   131.19755   103.82817   367.01139
   243  C   4.0   -0.04    4.09    3.78   130.47271   101.15791   366.08396
   244  C   4.0   -0.03    4.12    3.84   131.79392    99.30012   367.95201
   245  N   5.0   -0.11    3.98    2.80   132.18550    96.66326   367.00004
   246  H   1.0    0.11    1.11    1.45   128.75131   107.57105   371.00719
   247  H   1.0    0.06    1.05    1.44   132.62653   108.53830   367.54156
   248  H   1.0    0.06    1.02    1.43   127.62550   105.82052   366.63474
   249  H   1.0    0.06    1.04    1.43   129.76989   106.41142   364.14698
   250  H   1.0    0.05    1.03    1.43   133.15512   104.20406   366.47974
   251  H   1.0    0.06    1.04    1.43   131.09913   103.81636   369.07692
   252  H   1.0    0.05    1.02    1.43   128.43204   100.92565   366.13282
   253  H   1.0    0.05    1.02    1.43   131.14310   100.89136   364.15863
   254  H   1.0    0.05    1.03    1.43   133.65680   100.07906   368.37149
   255  H   1.0    0.05    1.02    1.43   130.72330    99.23951   369.71198
   256  H   1.0    0.07    1.02    1.43   133.14241    95.62817   368.34367
   257  H   1.0    0.07    1.02    1.43   130.49350    95.80005   366.57068
   258  H   1.0    0.07    1.02    1.43   133.27840    96.73410   365.38590
   259  N   5.0   -0.14    3.50    2.07   127.33851   111.11664   365.67298
   260  C   4.0    0.05    4.37    4.33   126.00952   113.00557   364.21689
   261  C   4.0    0.16    3.39    3.08   126.83767   115.75078   364.67881
   262  O   6.0   -0.26    1.22    1.80   126.02562   117.38265   363.24638
   263  C   4.0   -0.03    4.33    4.25   123.18453   112.94073   364.92277
   264  C   4.0   -0.03    4.19    3.97   121.86756   110.51758   364.10654
   265  C   4.0    0.25    3.12    3.03   121.66581   110.51364   361.17627
   266  O   6.0   -0.26    1.17    1.80   120.50367   112.32832   360.18868
   267  O   6.0   -0.27    1.16    1.80   122.67838   108.67792   360.08074
   268  H   1.0    0.10    1.10    1.44   126.25374   110.21517   366.97249
   269  H   1.0    0.08    1.05    1.44   126.22536   112.63991   362.18701
   270  H   1.0    0.05    1.02    1.43   123.05800   113.19196   366.97535
   271  H   1.0    0.07    1.04    1.43   122.25626   114.53341   363.99726
   272  H   1.0    0.06    1.04    1.43   122.89647   108.85757   364.72391
   273  H   1.0    0.04    1.02    1.43   119.96090   110.49343   364.89443
   274  N   5.0   -0.13    3.38    2.01   128.23002   116.24783   366.78218
   275  C   4.0    0.03    4.22    4.04   129.22274   118.74855   367.31893
   276  C   4.0    0.16    3.30    3.05   127.46311   120.43573   368.91415
   277  O   6.0   -0.26    1.20    1.80   127.84766   122.71444   369.21250
   278  H   1.0    0.12    1.08    1.44   128.93549   114.80409   367.82145
   279  H   1.0    0.07    1.02    1.43   131.01778   118.53398   368.31045
   280  H   1.0    0.08    1.03    1.43   129.53967   119.74184   365.53378
   281  N   5.0   -0.14    3.47    2.06   125.50844   119.17141   369.96129
   282  C   4.0    0.04    4.51    4.55   123.64631   120.49796   371.44375
   283  C   4.0    0.15    3.48    3.11   124.59111   121.06647   374.05567
   284  O   6.0   -0.29    1.23    1.80   124.66995   123.28857   374.66971
   285  C   4.0   -0.05    4.46    4.48   121.16832   119.16643   371.78209
   286  C   4.0   -0.02    4.24    4.08   119.34342   120.06019   369.79297
   287  C   4.0   -0.07    4.13    3.85   119.72190   118.50488   367.39670
   288  C   4.0   -0.08    4.13    3.86   116.68417   119.80423   370.77709
   289  H   1.0    0.10    1.08    1.44   125.48975   117.26222   369.87747
   290  H   1.0    0.07    1.08    1.44   123.41757   122.34315   370.53158
   291  H   1.0    0.05    1.03    1.43   121.43966   117.12337   371.68946
   292  H   1.0    0.04    1.05    1.44   120.44773   119.63398   373.66031
   293  H   1.0    0.04    1.06    1.44   119.70334   122.04627   369.35017
   294  H   1.0    0.05    1.00    1.43   118.44555   119.13482   365.91308
   295  H   1.0    0.06    1.00    1.43   121.64461   118.69162   366.68951
   296  H   1.0    0.04    1.00    1.43   119.35061   116.51685   367.75424
   297  H   1.0    0.05    1.00    1.43   115.33018   120.60142   369.45220
   298  H   1.0    0.04    1.00    1.43   116.22927   117.82301   371.07555
   299  H   1.0    0.04    1.00    1.43   116.48543   120.80466   372.56527
   300  N   5.0   -0.14    3.43    2.04   125.08633   119.05435   375.58011
   301  C   4.0    0.03    4.38    4.34   126.11143   119.40884   378.11479
   302  C   4.0    0.15    3.51    3.12   129.01088   119.47804   378.15780
   303  O   6.0   -0.28    1.31    1.80   130.06299   117.66008   377.16812
   304  C   4.0   -0.03    4.50    4.53   125.67930   117.04766   379.71565
   305  C   4.0   -0.03    4.18    3.96   122.99938   116.34770   380.40918
   306  C   4.0   -0.08    4.13    3.87   123.16041   113.96049   381.99952
   307  C   4.0   -0.08    4.12    3.83   121.70921   118.46702   381.83992
   308  H   1.0    0.10    1.06    1.44   125.44287   117.35728   374.77201
   309  H   1.0    0.05    1.05    1.44   125.30249   121.12920   378.92774
   310  H   1.0    0.07    1.04    1.44   126.57489   115.48378   378.70561
   311  H   1.0    0.05    1.04    1.43   126.75509   117.31741   381.47075
   312  H   1.0    0.04    1.05    1.44   121.92994   115.98132   378.67525
   313  H   1.0    0.03    1.00    1.43   121.27815   113.24554   382.39574
   314  H   1.0    0.05    1.00    1.43   124.25071   112.51661   381.02859
   315  H   1.0    0.04    1.00    1.43   124.07519   114.38609   383.79222
   316  H   1.0    0.03    1.00    1.43   119.80546   117.94228   382.40576
   317  H   1.0    0.04    1.00    1.43   122.76391   118.96507   383.54408
   318  H   1.0    0.04    1.00    1.43   121.57210   120.18150   380.70831
   319  N   5.0   -0.15    3.36    2.00   130.37444   121.35188   379.28241
   320  C   4.0    0.04    4.40    4.37   133.11023   120.94789   379.20702
   321  C   4.0    0.10    3.19    3.03   134.10721   118.96100   381.08901
   322  O   6.0   -0.26    1.11    1.80   135.82264   117.49490   380.60472
   323  C   4.0   -0.04    4.33    4.26   134.55183   123.40677   379.48568
   324  C   4.0   -0.03    4.13    3.85   134.97854   124.42618   376.87896
   325  S   6.0    0.01    2.43    3.10   135.78327   127.73072   376.74049
   326  C   4.0   -0.05    3.88    3.44   134.92319   128.05033   373.32920
   327  H   1.0    0.08    1.05    1.44   129.60990   122.66588   380.43300
   328  H   1.0    0.08    1.08    1.44   133.49254   120.13400   377.33245
   329  H   1.0    0.05    1.03    1.43   133.44743   124.70784   380.66104
   330  H   1.0    0.06    1.03    1.43   136.34126   123.09039   380.47578
   331  H   1.0    0.06    1.07    1.44   136.47113   123.35855   375.93142
   332  H   1.0    0.05    1.09    1.44   133.21489   124.26395   375.81219
   333  H   1.0    0.07    1.04    1.43   135.57526   129.90634   372.77101
   334  H   1.0    0.06    1.03    1.43   135.86821   126.56174   372.29277
   335  H   1.0    0.06    1.03    1.43   132.88099   127.92700   373.19279
   336  N   5.0   -0.20    3.22    1.96   121.25708   119.68006   388.49806
   337  C   4.0    0.03    4.25    4.11   118.72550   118.72908   388.04219
   338  C   4.0    0.09    3.26    3.05   117.04040   119.46505   390.20991
   339  O   6.0   -0.29    1.16    1.80   114.76455   119.22464   390.06248
   340  C   4.0   -0.05    4.44    4.44   118.76826   115.88123   387.74609
   341  C   4.0   -0.02    4.26    4.13   116.25652   114.70114   387.18582
   342  C   4.0   -0.08    4.26    4.11   116.71043   112.31002   385.75675
   343  C   4.0   -0.06    4.26    4.11   115.00968   113.73001   389.48459
   344  H   1.0    0.09    1.03    1.43   122.57985   118.38165   388.98062
   345  H   1.0    0.04    1.05    1.44   117.96956   119.67084   386.34943
   346  H   1.0    0.03    1.04    1.43   120.10004   115.48110   386.21710
   347  H   1.0    0.04    1.04    1.43   119.58410   115.09130   389.47222
   348  H   1.0    0.05    1.05    1.44   115.05088   116.01865   386.14639
   349  H   1.0    0.03    1.01    1.43   114.92219   111.35974   385.40298
   350  H   1.0    0.03    1.00    1.43   117.56695   112.67276   383.90920
   351  H   1.0    0.03    1.01    1.43   117.94739   111.07029   386.81791
   352  H   1.0    0.04    1.01    1.43   113.25275   112.77123   389.00964
   353  H   1.0    0.04    1.01    1.43   116.24254   112.38248   390.42880
   354  H   1.0    0.07    1.01    1.43   114.54295   115.20388   390.84292
   355  N   5.0   -0.15    3.44    2.04   108.33119   127.57966   373.74179
   356  C   4.0    0.03    4.56    4.62   110.20976   126.37036   372.16721
   357  C   4.0    0.15    3.44    3.09   110.09603   123.53189   371.93247
   358  O   6.0   -0.31    1.30    1.80   110.10721   122.44219   369.88005
   359  C   4.0   -0.04    4.44    4.44   112.66654   127.16097   373.43234
   360  C   4.0   -0.04    4.29    4.19   112.16148   129.91073   373.94296
   361  C   4.0   -0.00    4.49    4.52   109.42470   129.84925   374.82433
   362  H   1.0    0.05    1.05    1.44   110.10971   127.16573   370.24634
   363  H   1.0    0.04    1.03    1.43   112.96165   126.13657   375.19562
   364  H   1.0    0.04    1.02    1.43   114.28963   126.83142   372.21002
   365  H   1.0    0.05    1.02    1.43   113.36946   130.71347   375.40100
   366  H   1.0    0.05    1.02    1.43   112.35749   131.02750   372.22274
   367  H   1.0    0.05    1.02    1.43   109.37341   129.75575   376.88811
   368  H   1.0    0.05    1.02    1.43   108.35475   131.50649   374.21829
   369  N   5.0   -0.15    3.52    2.09   110.28969   122.26980   374.07529
   370  C   4.0    0.03    4.49    4.52   110.28922   119.53013   374.06275
   371  C   4.0    0.09    3.31    3.06   107.86134   118.62558   372.85727
   372  O   6.0   -0.31    1.20    1.80   107.89681   117.08215   371.13275
   373  C   4.0   -0.03    4.38    4.35   110.64097   118.47689   376.74057
   374  C   4.0   -0.05    4.25    4.11   113.33464   119.09289   377.46286
   375  C   4.0   -0.08    4.15    3.91   110.11805   115.65590   376.74080
   376  C   4.0   -0.08    4.05    3.72   113.56713   119.09782   380.28897
   377  H   1.0    0.07    1.06    1.44   110.32568   123.13915   375.78460
   378  H   1.0    0.05    1.06    1.44   111.83527   118.87800   372.84431
   379  H   1.0    0.04    1.06    1.44   109.32159   119.43865   378.00384
   380  H   1.0    0.03    1.03    1.43   114.61133   117.70104   376.63461
   381  H   1.0    0.04    1.04    1.43   113.87145   120.95095   376.75503
   382  H   1.0    0.04    1.00    1.43   110.51050   114.85713   378.59016
   383  H   1.0    0.05    1.01    1.43   108.15163   115.27682   376.29788
   384  H   1.0    0.04    1.00    1.43   111.29812   114.72234   375.34579
   385  H   1.0    0.04    1.00    1.43   115.50444   119.46991   380.87170
   386  H   1.0    0.04    1.00    1.43   112.38011   120.55461   381.10080
   387  H   1.0    0.04    1.00    1.43   112.98745   117.29051   381.08095
   388  N   5.0   -0.19    3.29    1.98   107.84034   119.29252   366.09597
   389  C   4.0    0.04    4.24    4.07   109.59888   117.92624   364.54209
   390  C   4.0    0.15    3.43    3.09   108.89689   115.11734   364.64463
   391  O   6.0   -0.30    1.30    1.80   108.81794   113.86223   362.68266
   392  C   4.0   -0.06    4.09    3.79   112.24184   118.76153   365.19436
   393  H   1.0    0.13    1.07    1.44   108.51925   120.18340   367.65014
   394  H   1.0    0.06    1.06    1.44   109.20291   118.44839   362.56227
   395  H   1.0    0.05    1.00    1.43   113.61812   117.86863   363.95865
   396  H   1.0    0.06    1.00    1.43   112.37797   120.79970   364.99661
   397  H   1.0    0.05    1.00    1.43   112.66517   118.25245   367.14022
   398  N   5.0   -0.15    3.48    2.06   108.17325   114.08025   366.81207
   399  C   4.0    0.04    4.42    4.42   107.30538   111.49592   366.72357
   400  C   4.0    0.09    3.23    3.04   104.79377   111.17665   365.31820
   401  O   6.0   -0.30    1.12    1.80   104.36831   109.13416   364.29822
   402  C   4.0   -0.05    4.40    4.38   107.09553   110.36822   369.33441
   403  C   4.0   -0.02    4.21    4.01   109.63366   110.22633   370.65372
   404  C   4.0   -0.08    4.09    3.78   109.17861   109.65062   373.46703
   405  C   4.0   -0.08    4.11    3.82   111.29838   108.28642   369.32551
   406  H   1.0    0.11    1.11    1.45   108.02862   115.08508   368.44076
   407  H   1.0    0.06    1.07    1.44   108.65533   110.43045   365.56437
   408  H   1.0    0.04    1.03    1.43   105.81929   111.57025   370.42915
   409  H   1.0    0.04    1.03    1.43   106.26550   108.48686   369.20089
   410  H   1.0    0.04    1.06    1.44   110.54529   112.07857   370.53125
   411  H   1.0    0.03    1.00    1.43   110.95785   109.56562   374.48719
   412  H   1.0    0.04    1.00    1.43   108.00540   111.10336   374.31226
   413  H   1.0    0.04    1.00    1.43   108.23519   107.83465   373.67607
   414  H   1.0    0.03    1.00    1.43   113.04020   108.00741   370.37837
   415  H   1.0    0.04    1.00    1.43   110.32238   106.48728   369.17277
   416  H   1.0    0.04    1.00    1.43   111.80155   108.93327   367.44515
   417  N   5.0   -0.18    3.20    1.96   107.00493   110.65173   358.36528
   418  C   4.0    0.04    4.22    4.05   107.94837   108.10044   358.04342
   419  C   4.0    0.10    3.21    3.04   105.73504   106.21756   357.70464
   420  O   6.0   -0.26    1.11    1.80   105.75554   104.73063   355.92899
   421  C   4.0   -0.04    4.27    4.14   109.65191   107.40570   360.25118
   422  C   4.0   -0.04    4.25    4.10   110.63489   104.71563   359.98287
   423  C   4.0   -0.00    4.28    4.17   111.55441   103.70927   362.53415
   424  N   5.0   -0.14    3.40    2.02   113.09117   101.47376   362.33090
   425  C   4.0    0.09    3.39    3.08   115.22698   101.61672   361.03029
   426  N   5.0   -0.18    3.30    1.98   115.94112   103.80761   359.89391
   427  N   5.0   -0.18    3.22    1.96   116.50893    99.47992   360.58313
   428  H   1.0    0.12    1.05    1.44   107.60206   111.67183   359.87721
   429  H   1.0    0.06    1.05    1.44   109.00907   108.00540   356.25716
   430  H   1.0    0.05    1.02    1.43   111.18274   108.77951   360.38862
   431  H   1.0    0.06    1.03    1.43   108.50793   107.53543   361.96854
   432  H   1.0    0.07    1.04    1.43   109.09433   103.50796   359.33488
   433  H   1.0    0.06    1.05    1.44   112.09242   104.65581   358.53794
   434  H   1.0    0.03    1.03    1.43   112.62003   105.20729   363.49979
   435  H   1.0    0.06    1.04    1.43   109.94369   103.23231   363.71971
   436  H   1.0    0.11    1.09    1.44   112.65414   100.00475   363.52270
   437  H   1.0    0.08    1.04    1.43   115.42267   105.47742   360.63922
   438  H   1.0    0.10    1.03    1.43   117.61425   103.79851   358.97848
   439  H   1.0    0.09    1.04    1.43   115.96889    97.90750   361.51244
   440  H   1.0    0.09    1.03    1.43   118.19721    99.47613   359.70453
   441  N   5.0   -0.18    3.21    1.96   104.98141    97.89488   356.57669
   442  C   4.0    0.03    4.33    4.25   105.82954    96.89184   359.01243
   443  C   4.0    0.15    3.39    3.08   104.80250    98.55855   361.16703
   444  O   6.0   -0.31    1.28    1.80   105.19599   100.84419   361.29986
   445  C   4.0   -0.04    4.25    4.10   108.71500    96.66816   359.00952
   446  C   4.0   -0.05    4.22    4.05   109.41955    94.29685   357.50107
   447  C   4.0   -0.04    4.17    3.94   112.12332    94.42674   356.51982
   448  C   4.0   -0.03    4.13    3.85   112.91057    91.95047   355.30943
   449  N   5.0   -0.11    4.02    2.91   112.75904    89.77592   357.12015
   450  H   1.0    0.11    1.02    1.43   105.52121    99.67543   356.14391
   451  H   1.0    0.04    1.06    1.44   104.96775    95.01731   359.14519
   452  H   1.0    0.05    1.03    1.43   109.50149    98.35726   358.13259
   453  H   1.0    0.05    1.02    1.43   109.42318    96.56664   360.94204
   454  H   1.0    0.05    1.03    1.43   109.15495    92.69467   358.76447
   455  H   1.0    0.05    1.03    1.43   108.13958    94.12519   355.89582
   456  H   1.0    0.05    1.03    1.43   112.23382    95.90666   355.09475
   457  H   1.0    0.05    1.03    1.43   113.40685    94.92917   358.05294
   458  H   1.0    0.05    1.02    1.43   111.66439    91.55612   353.71373
   459  H   1.0    0.05    1.02    1.43   114.84147    92.10454   354.60993
   460  H   1.0    0.07    1.02    1.43   113.54316    88.19877   356.29595
   461  H   1.0    0.06    1.02    1.43   113.75051    90.19702   358.74462
   462  H   1.0    0.06    1.02    1.43   110.90357    89.39521   357.55626
   463  N   5.0   -0.15    3.49    2.07   103.38007    97.27163   362.82340
   464  C   4.0    0.04    4.40    4.39   101.80060    98.57665   364.59151
   465  C   4.0    0.16    3.43    3.09   102.30725    97.78464   367.30680
   466  O   6.0   -0.31    1.28    1.80   101.05801    98.66602   369.03388
   467  C   4.0    0.04    4.15    3.90    98.97162    98.30451   363.93811
   468  O   6.0   -0.24    2.04    1.83    98.12024    95.82849   364.43437
   469  H   1.0    0.08    1.06    1.44   103.03417    95.38500   362.55562
   470  H   1.0    0.06    1.07    1.44   102.23326   100.60098   364.47592
   471  H   1.0    0.05    1.01    1.43    97.94386    99.66192   365.12024
   472  H   1.0    0.05    1.01    1.43    98.73028    98.82086   361.95017
   473  H   1.0    0.13    1.03    1.43    96.53819    95.63581   363.52987
   474  N   5.0   -0.14    3.37    2.01   104.09200    96.00839   367.67767
   475  C   4.0    0.02    4.25    4.11   104.46596    95.07466   370.24803
   476  C   4.0    0.16    3.33    3.06   105.40254    97.08245   372.15643
   477  O   6.0   -0.30    1.30    1.80   104.34304    97.57383   374.15170
   478  H   1.0    0.09    1.07    1.44   105.44894    95.72511   366.36702
   479  H   1.0    0.06    1.03    1.43   102.65587    94.36692   370.94765
   480  H   1.0    0.05    1.02    1.43   105.84628    93.54704   370.21473
   481  N   5.0   -0.14    3.50    2.08   107.50444    98.26368   371.38352
   482  C   4.0    0.03    4.38    4.35   108.57577   100.40640   372.72122
   483  C   4.0    0.16    3.46    3.10   106.45649   102.31254   373.40688
   484  O   6.0   -0.32    1.34    1.80   106.06536   102.90812   375.59403
   485  C   4.0   -0.05    4.21    4.02   110.79322   101.43056   371.09966
   486  C   4.0   -0.04    4.19    3.99   112.81167    99.38034   370.79416
   487  C   4.0    0.24    3.09    3.02   112.67886    97.74786   368.33110
   488  O   6.0   -0.31    1.21    1.80   111.52802    98.45872   366.36039
   489  O   6.0   -0.28    1.18    1.80   113.83413    95.70425   368.58607
   490  H   1.0    0.09    1.09    1.44   108.22600    97.92742   369.64564
   491  H   1.0    0.05    1.05    1.44   109.29503    99.74272   374.55315
   492  H   1.0    0.06    1.03    1.43   110.08602   101.96581   369.23598
   493  H   1.0    0.03    1.02    1.43   111.54937   103.10331   372.03686
   494  H   1.0    0.04    1.03    1.43   114.72152   100.12495   370.90701
   495  H   1.0    0.05    1.03    1.43   112.66068    98.00754   372.33177
   496  N   5.0   -0.14    3.46    2.05   105.04445   103.22123   371.53938
   497  C   4.0    0.04    4.43    4.42   102.83367   104.73097   372.08474
   498  C   4.0    0.16    3.48    3.10   101.24736   103.55980   374.20060
   499  O   6.0   -0.29    1.25    1.80   100.56447   104.98743   375.90952
   500  C   4.0   -0.05    4.37    4.32   101.28700   105.16735   369.68238
   501  C   4.0   -0.02    4.20    4.00    99.21179   107.15285   369.90389
   502  C   4.0   -0.07    4.13    3.86   100.16743   109.76794   370.56459
   503  C   4.0   -0.06    4.16    3.92    97.93856   107.31076   367.36139
   504  H   1.0    0.10    1.08    1.44   105.36273   102.68938   369.71189
   505  H   1.0    0.05    1.06    1.44   103.47138   106.54089   372.87423
   506  H   1.0    0.05    1.03    1.43   102.58941   105.78362   368.20219
   507  H   1.0    0.06    1.03    1.43   100.45915   103.36373   369.11862
   508  H   1.0    0.06    1.05    1.44    97.85831   106.56067   371.35527
   509  H   1.0    0.05    1.00    1.43    98.60853   111.10475   370.55491
   510  H   1.0    0.05    1.00    1.43   101.00826   109.82139   372.44212
   511  H   1.0    0.05    1.00    1.43   101.55643   110.39752   369.19084
   512  H   1.0    0.06    1.00    1.43    96.45508   108.73114   367.38321
   513  H   1.0    0.06    1.01    1.43    99.31016   107.83966   365.92768
   514  H   1.0    0.05    1.00    1.43    97.09900   105.51292   366.83546
   515  N   5.0   -0.13    3.45    2.05   100.58693   101.11731   374.12107
   516  C   4.0    0.04    4.38    4.34    98.88110   100.04063   376.03259
   517  C   4.0    0.17    3.34    3.06    99.94909   100.29728   378.80418
   518  O   6.0   -0.25    1.17    1.80    98.64054   101.01878   380.59856
   519  C   4.0   -0.04    4.23    4.06    98.26276    97.30765   375.33500
   520  C   4.0   -0.04    4.15    3.90    96.25002    97.13496   373.23284
   521  C   4.0   -0.04    4.12    3.84    96.32765    94.58862   371.77303
   522  C   4.0   -0.03    4.11    3.83    93.66617    93.52334   371.39636
   523  N   5.0   -0.11    3.99    2.84    93.61249    91.17261   369.82892
   524  H   1.0    0.11    1.08    1.44   101.05205   100.00474   372.62541
   525  H   1.0    0.07    1.05    1.44    97.14356   101.17981   376.06147
   526  H   1.0    0.06    1.03    1.43   100.02811    96.42105   374.74474
   527  H   1.0    0.06    1.03    1.43    97.59540    96.34216   377.02941
   528  H   1.0    0.05    1.03    1.43    94.40037    97.42361   374.09069
   529  H   1.0    0.06    1.03    1.43    96.57462    98.68433   371.91578
   530  H   1.0    0.06    1.02    1.43    97.29243    94.89435   369.97997
   531  H   1.0    0.05    1.03    1.43    97.43312    93.25728   372.89159
   532  H   1.0    0.05    1.02    1.43    92.81513    93.13667   373.23293
   533  H   1.0    0.05    1.02    1.43    92.46679    94.92732   370.48660
   534  H   1.0    0.07    1.02    1.43    91.73817    90.80499   369.38761
   535  H   1.0    0.07    1.02    1.43    94.62254    91.42144   368.18429
   536  H   1.0    0.07    1.02    1.43    94.35513    89.67645   370.82697
   537  N   5.0   -0.12    3.45    2.05   102.40445    99.63726   378.91906
   538  C   4.0    0.05    4.38    4.35   104.02946    99.69277   381.13391
   539  C   4.0    0.16    3.48    3.10   104.03088   102.42953   382.24402
   540  O   6.0   -0.31    1.29    1.80   103.56906   102.92820   384.48662
   541  C   4.0    0.05    4.21    4.02   106.81176    98.90664   380.61684
   542  O   6.0   -0.23    2.09    1.84   107.10315    96.36550   379.77240
   543  C   4.0   -0.07    4.13    3.85   108.28197    99.19878   383.07184
   544  H   1.0    0.12    1.11    1.45   103.21312    99.08362   377.27084
   545  H   1.0    0.07    1.04    1.44   103.24675    98.42264   382.58084
   546  H   1.0    0.05    1.03    1.43   107.56057   100.18074   379.15355
   547  H   1.0    0.12    1.03    1.43   108.88759    96.00508   379.75520
   548  H   1.0    0.05    1.00    1.43   110.24025    98.64353   382.75775
   549  H   1.0    0.05    1.01    1.43   108.24692   101.13671   383.74633
   550  H   1.0    0.05    1.00    1.43   107.48948    97.96541   384.51379
   551  N   5.0   -0.14    3.49    2.07   104.58115   104.20129   380.55533
   552  C   4.0    0.04    4.39    4.36   104.80445   106.80787   381.33025
   553  C   4.0    0.11    3.37    3.07   102.34584   107.77064   382.38925
   554  O   6.0   -0.27    1.14    1.80   102.26461   109.36896   384.04940
   555  C   4.0   -0.03    4.34    4.26   105.37985   108.55982   379.13524
   556  C   4.0   -0.01    3.74    3.28   104.89744   111.28762   379.74807
   557  C   4.0    0.00    3.63    3.18   103.49658   112.92535   378.31256
   558  C   4.0    0.02    3.90    3.46   106.16306   112.81478   381.57221
   559  N   5.0   -0.12    3.48    2.06   103.93718   115.37807   378.98895
   560  C   4.0    0.04    3.92    3.49   105.48918   115.35938   381.04871
   561  C   4.0   -0.05    3.40    3.08   107.89888   112.31108   383.48261
   562  C   4.0   -0.04    3.39    3.08   106.31086   117.37038   382.53172
   563  C   4.0   -0.04    3.38    3.07   108.75026   114.31699   384.90227
   564  C   4.0   -0.03    3.37    3.07   107.90060   116.80775   384.51232
   565  H   1.0    0.12    1.11    1.45   104.96131   103.71943   378.74242
   566  H   1.0    0.05    1.07    1.44   106.24336   106.96114   382.81126
   567  H   1.0    0.04    1.03    1.43   107.35471   108.32240   378.57967
   568  H   1.0    0.06    1.04    1.43   104.18934   108.00972   377.54169
   569  H   1.0    0.05    1.02    1.43   102.26021   112.49770   376.75978
   570  H   1.0    0.08    1.04    1.44   102.91446   116.88114   378.38952
   571  H   1.0    0.05    1.03    1.43   108.56007   110.41269   383.82458
   572  H   1.0    0.06    1.03    1.43   105.71363   119.27256   382.10608
   573  H   1.0    0.05    1.03    1.43   110.07052   113.98873   386.42304
   574  H   1.0    0.06    1.03    1.43   108.59171   118.27785   385.74668
   575  N   5.0   -0.18    3.23    1.96   102.01614   105.49586   388.84565
   576  C   4.0    0.04    4.37    4.33   103.82715   106.79364   390.44298
   577  C   4.0    0.10    3.27    3.05   102.93420   109.44189   391.10788
   578  O   6.0   -0.25    1.12    1.80   103.12120   110.26197   393.26952
   579  C   4.0   -0.02    4.30    4.20   106.41509   106.92784   389.24980
   580  C   4.0   -0.07    4.16    3.92   108.12028   108.60377   390.87020
   581  C   4.0   -0.07    4.16    3.93   107.38112   104.24832   389.12510
   582  H   1.0    0.13    1.07    1.44   102.55114   104.76243   387.16135
   583  H   1.0    0.06    1.06    1.44   103.94361   105.76533   392.24685
   584  H   1.0    0.05    1.05    1.44   106.24938   107.74490   387.35771
   585  H   1.0    0.04    1.00    1.43   110.07808   108.38604   390.28274
   586  H   1.0    0.06    1.00    1.43   107.61663   110.58576   390.67551
   587  H   1.0    0.06    1.00    1.43   107.95429   108.08751   392.84899
   588  H   1.0    0.04    1.00    1.43   109.26387   104.20390   388.29736
   589  H   1.0    0.05    1.00    1.43   107.47263   103.44759   391.01471
   590  H   1.0    0.06    1.01    1.43   106.15118   103.08070   387.97432
   591  O   6.0   -0.31    1.96    1.82   106.35413   102.59620   366.07120
   592  H   1.0    0.13    0.97    1.43   106.16142   104.39002   365.82692
   593  H   1.0    0.16    1.02    1.43   106.06646   101.88282   364.39442
   594  N   5.0   -0.19    3.17    1.95   124.33038   133.35294   379.28241
   595  C   4.0    0.04    4.24    4.08   121.59459   133.75692   379.20702
   596  C   4.0    0.10    3.18    3.03   120.59760   135.74382   381.08901
   597  O   6.0   -0.24    1.11    1.80   118.88217   137.20992   380.60472
   598  C   4.0   -0.04    4.34    4.26   120.15299   131.29804   379.48568
   599  C   4.0   -0.04    4.13    3.85   119.72628   130.27864   376.87896
   600  S   6.0   -0.04    2.44    3.10   118.92155   126.97409   376.74049
   601  C   4.0   -0.06    3.89    3.44   119.78163   126.65449   373.32920
   602  H   1.0    0.09    1.02    1.43   125.09492   132.03894   380.43300
   603  H   1.0    0.06    1.07    1.44   121.21228   134.57081   377.33245
   604  H   1.0    0.05    1.03    1.43   121.25739   129.99698   380.66104
   605  H   1.0    0.06    1.03    1.43   118.36356   131.61443   380.47578
   606  H   1.0    0.05    1.07    1.44   118.23369   131.34626   375.93142
   607  H   1.0    0.05    1.09    1.44   121.48993   130.44086   375.81219
   608  H   1.0    0.04    1.04    1.43   119.12956   124.79848   372.77101
   609  H   1.0    0.05    1.03    1.43   118.83661   128.14308   372.29277
   610  H   1.0    0.07    1.03    1.43   121.82383   126.77782   373.19279
   611  H   1.0    0.11    1.07    1.44   133.52398   107.25011   393.08763
   612  H   1.0    0.06    1.04    1.43   132.82564   100.87031   393.58717
   613  H   1.0    0.10    1.07    1.44   123.55987   103.39883   394.92225
   614  H   1.0    0.07    1.04    1.43   122.50079    98.94539   399.46091
   615  H   1.0    0.09    1.09    1.44   112.87622    88.48906   392.96351
   616  H   1.0    0.07    1.05    1.44   133.34266   118.82401   382.81173
   617  H   1.0    0.09    1.07    1.44   121.84023   120.43885   387.09210
   618  H   1.0    0.07    1.05    1.44   117.79273   120.16210   391.79710
   619  H   1.0    0.09    1.29    1.49   107.42258   128.67061   372.80540
   620  H   1.0    0.06    1.05    1.44   106.19980   119.28817   373.46666
   621  H   1.0    0.11    1.08    1.44   107.09896   120.51469   365.17443
   622  H   1.0    0.06    1.04    1.43   103.55989   112.60640   365.25167
   623  H   1.0    0.11    1.07    1.44   107.43655   111.59122   357.01486
   624  H   1.0    0.08    1.04    1.43   104.29767   106.21837   358.93143
   625  H   1.0    0.10    1.07    1.44   105.57791    96.91553   355.32066
   626  H   1.0    0.08    1.05    1.44   100.70639   107.09864   381.73222
   627  H   1.0    0.11    1.07    1.44   101.37897   104.15813   389.68056
   628  H   1.0    0.08    1.05    1.44   102.17953   110.54732   389.77387
   629  H   1.0    0.10    1.07    1.44   124.87950   132.89581   377.73902
   630  H   1.0    0.07    1.05    1.44   121.36215   135.88081   382.81173

  Z AO/shell   Hii/eV     exponent
  1     Wed Apr 25 08:07:45 CEST 2018   EN: 2.200 GM2: 0.406  GM3: 0.0800  RAES: 1.40
     1s    -10.707211    1.230000
  6     Wed Apr 25 08:07:45 CEST 2018   EN: 2.550 GM2: 0.538  GM3: 0.1500  RAES: 3.00
     2s    -13.970922    2.096432
     2p    -10.063292    1.800000
  7     Wed Apr 25 08:07:45 CEST 2018   EN: 3.040 GM2: 0.461  GM3:-0.0640  RAES: 1.90
     2s    -16.686243    2.339881
     2p    -12.523956    2.014332
  8     Wed Apr 25 08:07:45 CEST 2018   EN: 3.440 GM2: 0.452  GM3:-0.0517  RAES: 1.80
     2s    -20.229985    2.439742
     2p    -15.503117    2.137023
 16     Tue Apr 24 11:44:34 CEST 2018   EN: 2.580 GM2: 0.340  GM3:-0.0502  RAES: 3.10
     3s    -20.029654    1.981333
     3p    -11.377694    2.025643
     3d     -0.420282    1.702555
 no old-style atom pair restraining (fixing) potential

molecular fragmentation (1/2 indicates fragments):
111111111111111111112222222222222222222222222222222222222222222222222222
222222222222222222222222222222222222222222222222222222222222222222222222
222222222222222222222222222222222222222222222222222222222222222222222222
222222222222222222222222222222222222222222222222222222222222222222222222
222222222222222222222222222222222222222222222222222222222222222222222222
222222222222222222222222222222222222222222222222222222222222222222222222
222222222222222222222222222222222222222222222222222222222222222222222222
222222222222222222222222222222222222222222222222222222222222222222222222
222222222222222222222222222222222211222222222222222222
# atoms in fragment 1/2:    22   608
 fragment masses (1/2) :      149.19     3961.07
CMA distance (Bohr)    :  20.664
constraining FC (au)   :  0.0500
           ------------------------------------------------- 
          |        Self-Consistent Charge Iterations        |
           ------------------------------------------------- 

 Ncao       : 1503
 Nao        : 1500
 Nshell     : 918
 Nel        : 1628
 T(el)      :   500.0
 intcut     :    35.0
 scfconv/Eh :  0.100E-06
   qconv/e  :  0.100E-04
 intneglect :  0.100E-08
 broydamp   :      0.400
 iter      E             dE          RMSdq      gap      omega  full diag
   1   -924.4818082 -0.924482E+03  0.440E+00    2.80       0.0  T
   2   -926.3907845 -0.190898E+01  0.210E+00    1.41       1.0  T
   3   -926.4996824 -0.108898E+00  0.117E+00    1.61       1.0  T
   4   -926.6527784 -0.153096E+00  0.246E-01    0.99       1.0  T
   5   -926.6597528 -0.697440E-02  0.122E-01    1.15       1.0  T
   6   -926.6612758 -0.152301E-02  0.594E-02    1.14       1.0  T
   7   -926.6620638 -0.787942E-03  0.267E-02    1.12       1.0  T
   8   -926.6621734 -0.109599E-03  0.127E-02    1.11       1.0  T
   9   -926.6621982 -0.248181E-04  0.589E-03    1.11       1.0  T
  10   -926.6622030 -0.476551E-05  0.289E-03    1.11       1.4  T
  11   -926.6622041 -0.115052E-05  0.144E-03    1.11       2.8  T
  12   -926.6622044 -0.314439E-06  0.761E-04    1.11       5.2  T
  13   -926.6622045 -0.103617E-06  0.354E-04    1.11      11.2  T
  14   -926.6622045 -0.132508E-07  0.169E-04    1.11      23.6  T
  15   -926.6622045 -0.437194E-08  0.691E-05    1.11      57.6  T
  16   -926.6622045 -0.557634E-09  0.339E-05    1.11     117.7  T
speedup  1.90
cpu  time for SCC   22.91 s
wall time for SCC   12.08 s

   *** convergence criteria satisfied after 16 iterations ***

          eigenvalues
 #    :         802        803        804        805        806        807        808        809
 occ. :        2.000      2.000      2.000      2.000      2.000      2.000      2.000      2.000
 eps  :        -9.962     -9.874     -9.858     -9.857     -9.851     -9.790     -9.788     -9.725
 #    :         810        811        812        813        814        815        816        817
 occ. :        2.000      2.000      2.000      2.000      2.000      0.000      0.000      0.000
 eps  :        -9.689     -9.671     -9.624     -9.549     -9.377     -8.264     -8.065     -7.869
 #    :         818        819        820        821        822        823        824        825
 occ. :        0.000      0.000      0.000      0.000      0.000      0.000      0.000      0.000
 eps  :        -7.852     -7.820     -7.617     -7.602     -7.352     -7.339     -7.302     -6.920


   #   Z            q   n(s)   n(p)   n(d)      C6AA      α(0)
   1   7 N     -0.392  1.325  4.068  0.000    30.165     8.157
   2   6 C      0.042  1.064  2.894  0.000    19.905     6.357
   3   6 C      0.199  1.097  2.704  0.000    23.761     7.983
   4   8 O     -0.362  1.751  4.610  0.000    20.929     6.134
   5   6 C     -0.075  1.065  3.011  0.000    21.938     6.668
   6   6 C      0.006  1.090  2.904  0.000    27.883     8.661
   7   6 C     -0.039  1.082  2.956  0.000    28.960     8.825
   8   6 C     -0.038  1.081  2.956  0.000    28.940     8.822
   9   6 C     -0.036  1.082  2.954  0.000    28.904     8.816
  10   6 C     -0.031  1.078  2.953  0.000    28.768     8.795
  11   6 C     -0.038  1.080  2.958  0.000    28.956     8.824
  12   1 H      0.171  0.829  0.000  0.000     1.266     1.762
  13   1 H      0.031  0.969  0.000  0.000     2.579     2.511
  14   1 H      0.058  0.942  0.000  0.000     2.220     2.330
  15   1 H      0.064  0.936  0.000  0.000     2.152     2.294
  16   1 H      0.037  0.963  0.000  0.000     2.485     2.465
  17   1 H      0.025  0.975  0.000  0.000     2.665     2.553
  18   1 H      0.058  0.942  0.000  0.000     2.220     2.330
  19   1 H      0.023  0.977  0.000  0.000     2.681     2.560
  20   1 H      0.048  0.952  0.000  0.000     2.347     2.396
  21   7 N     -0.399  1.316  4.083  0.000    30.338     8.180
  22   6 C      0.034  1.064  2.901  0.000    20.011     6.371
  23   6 C      0.201  1.092  2.707  0.000    23.718     7.976
  24   8 O     -0.376  1.753  4.623  0.000    21.215     6.175
  25   6 C     -0.017  1.063  2.954  0.000    20.849     6.494
  26   6 C     -0.062  1.048  3.014  0.000    21.683     6.629
  27   6 C     -0.117  1.039  3.078  0.000    22.783     6.805
  28   6 C     -0.116  1.037  3.079  0.000    22.782     6.806
  29   1 H      0.172  0.828  0.000  0.000     1.260     1.758
  30   1 H      0.045  0.955  0.000  0.000     2.389     2.417
  31   1 H      0.040  0.960  0.000  0.000     2.451     2.448
  32   1 H      0.027  0.973  0.000  0.000     2.636     2.539
  33   1 H      0.053  0.947  0.000  0.000     2.288     2.366
  34   1 H      0.058  0.942  0.000  0.000     2.227     2.334
  35   1 H      0.037  0.963  0.000  0.000     2.488     2.467
  36   1 H      0.051  0.949  0.000  0.000     2.307     2.375
  37   1 H      0.044  0.956  0.000  0.000     2.395     2.420
  38   1 H      0.038  0.962  0.000  0.000     2.475     2.460
  39   1 H      0.047  0.953  0.000  0.000     2.353     2.399
  40   7 N     -0.408  1.334  4.073  0.000    30.584     8.213
  41   6 C      0.022  1.061  2.917  0.000    20.223     6.405
  42   6 C      0.265  1.049  2.685  0.000    22.526     7.772
  43   8 O     -0.499  1.743  4.756  0.000    23.760     6.535
  44   6 C     -0.087  1.060  3.027  0.000    22.159     6.702
  45   6 C     -0.072  1.054  3.019  0.000    21.885     6.661
  46   6 C     -0.093  1.060  3.033  0.000    22.288     6.723
  47   6 C     -0.057  1.059  2.998  0.000    21.709     6.652
  48   7 N     -0.145  1.229  3.916  0.000    24.134     7.296
  49   1 H      0.177  0.823  0.000  0.000     1.231     1.738
  50   1 H      0.054  0.946  0.000  0.000     2.271     2.357
  51   1 H      0.068  0.932  0.000  0.000     2.104     2.268
  52   1 H      0.045  0.955  0.000  0.000     2.377     2.411
  53   1 H      0.052  0.948  0.000  0.000     2.297     2.370
  54   1 H      0.049  0.951  0.000  0.000     2.338     2.391
  55   1 H      0.084  0.916  0.000  0.000     1.936     2.176
  56   1 H      0.069  0.931  0.000  0.000     2.093     2.262
  57   1 H      0.107  0.893  0.000  0.000     1.724     2.053
  58   1 H      0.113  0.887  0.000  0.000     1.675     2.024
  59   1 H      0.300  0.700  0.000  0.000     0.715     1.324
  60   1 H      0.298  0.702  0.000  0.000     0.719     1.328
  61   1 H      0.296  0.704  0.000  0.000     0.726     1.335
  62   7 N     -0.181  1.257  3.924  0.000    24.928     7.415
  63   6 C     -0.004  1.086  2.918  0.000    20.676     6.479
  64   6 C      0.270  1.052  2.678  0.000    22.437     7.756
  65   8 O     -0.466  1.741  4.725  0.000    23.045     6.436
  66   6 C     -0.093  1.066  3.026  0.000    22.277     6.721
  67   6 C     -0.079  1.053  3.026  0.000    22.017     6.682
  68   6 C     -0.095  1.051  3.044  0.000    22.315     6.726
  69   6 C     -0.053  1.057  2.997  0.000    21.633     6.640
  70   7 N     -0.144  1.228  3.917  0.000    24.117     7.294
  71   1 H      0.224  0.776  0.000  0.000     0.991     1.559
  72   1 H      0.100  0.900  0.000  0.000     1.785     2.089
  73   1 H      0.092  0.908  0.000  0.000     1.858     2.132
  74   1 H      0.063  0.937  0.000  0.000     2.168     2.303
  75   1 H      0.073  0.927  0.000  0.000     2.057     2.243
  76   1 H      0.045  0.955  0.000  0.000     2.381     2.413
  77   1 H      0.084  0.916  0.000  0.000     1.938     2.177
  78   1 H      0.083  0.917  0.000  0.000     1.951     2.184
  79   1 H      0.121  0.879  0.000  0.000     1.607     1.982
  80   1 H      0.122  0.878  0.000  0.000     1.600     1.978
  81   1 H      0.300  0.700  0.000  0.000     0.713     1.323
  82   1 H      0.294  0.706  0.000  0.000     0.732     1.341
  83   1 H      0.296  0.704  0.000  0.000     0.725     1.334
  84   7 N     -0.170  1.242  3.928  0.000    24.675     7.378
  85   6 C      0.015  1.065  2.920  0.000    20.338     6.422
  86   6 C      0.265  1.048  2.686  0.000    22.521     7.771
  87   8 O     -0.494  1.744  4.750  0.000    23.658     6.521
  88   6 C     -0.053  1.049  3.003  0.000    21.510     6.602
  89   6 C     -0.101  1.068  3.032  0.000    22.421     6.742
  90   6 C      0.370  1.026  2.605  0.000    20.731     7.451
  91   8 O     -0.649  1.783  4.865  0.000    27.348     7.011
  92   8 O     -0.653  1.777  4.877  0.000    27.469     7.027
  93   1 H      0.210  0.790  0.000  0.000     1.056     1.609
  94   1 H      0.082  0.918  0.000  0.000     1.958     2.188
  95   1 H      0.042  0.958  0.000  0.000     2.417     2.431
  96   1 H      0.049  0.951  0.000  0.000     2.337     2.390
  97   1 H      0.032  0.968  0.000  0.000     2.551     2.498
  98   1 H      0.045  0.955  0.000  0.000     2.387     2.416
  99   7 N     -0.175  1.246  3.929  0.000    24.782     7.394
 100   6 C      0.015  1.066  2.919  0.000    20.316     6.417
 101   6 C      0.277  1.037  2.686  0.000    22.319     7.737
 102   8 O     -0.485  1.729  4.756  0.000    23.465     6.495
 103   6 C     -0.027  1.067  2.961  0.000    21.026     6.522
 104   6 C     -0.064  1.049  3.016  0.000    21.730     6.636
 105   6 C     -0.110  1.034  3.075  0.000    22.650     6.786
 106   6 C     -0.112  1.035  3.077  0.000    22.703     6.794
 107   1 H      0.211  0.789  0.000  0.000     1.051     1.606
 108   1 H      0.068  0.932  0.000  0.000     2.105     2.269
 109   1 H      0.068  0.932  0.000  0.000     2.103     2.268
 110   1 H      0.038  0.962  0.000  0.000     2.477     2.461
 111   1 H      0.039  0.961  0.000  0.000     2.457     2.451
 112   1 H      0.058  0.942  0.000  0.000     2.219     2.330
 113   1 H      0.039  0.961  0.000  0.000     2.460     2.453
 114   1 H      0.042  0.958  0.000  0.000     2.419     2.432
 115   1 H      0.042  0.958  0.000  0.000     2.424     2.435
 116   1 H      0.047  0.953  0.000  0.000     2.354     2.399
 117   1 H      0.046  0.954  0.000  0.000     2.377     2.411
 118   7 N     -0.169  1.240  3.928  0.000    24.653     7.374
 119   6 C     -0.033  1.051  2.982  0.000    21.232     6.572
 120   6 C      0.273  1.039  2.688  0.000    22.377     7.746
 121   8 O     -0.492  1.740  4.752  0.000    23.608     6.514
 122   1 H      0.238  0.762  0.000  0.000     0.931     1.512
 123   1 H      0.086  0.914  0.000  0.000     1.923     2.168
 124   1 H      0.111  0.889  0.000  0.000     1.689     2.033
 125   7 N     -0.182  1.256  3.927  0.000    24.949     7.418
 126   6 C      0.017  1.065  2.918  0.000    20.296     6.415
 127   6 C      0.273  1.047  2.680  0.000    22.386     7.747
 128   8 O     -0.480  1.739  4.740  0.000    23.342     6.478
 129   6 C     -0.140  1.044  3.096  0.000    23.252     6.876
 130   1 H      0.243  0.757  0.000  0.000     0.912     1.496
 131   1 H      0.087  0.913  0.000  0.000     1.912     2.162
 132   1 H      0.072  0.928  0.000  0.000     2.068     2.249
 133   1 H      0.091  0.909  0.000  0.000     1.868     2.137
 134   1 H      0.064  0.936  0.000  0.000     2.154     2.295
 135   7 N     -0.191  1.254  3.937  0.000    25.143     7.447
 136   6 C      0.024  1.064  2.912  0.000    20.179     6.397
 137   6 C      0.269  1.047  2.684  0.000    22.451     7.759
 138   8 O     -0.504  1.746  4.757  0.000    23.865     6.550
 139   6 C     -0.072  1.050  3.021  0.000    21.841     6.649
 140   6 C     -0.015  1.063  2.953  0.000    20.852     6.501
 141  16 S     -0.211  1.924  4.237  0.051   150.067    20.618
 142   6 C     -0.060  1.052  3.008  0.000    21.727     6.649
 143   1 H      0.226  0.774  0.000  0.000     0.982     1.552
 144   1 H      0.062  0.938  0.000  0.000     2.173     2.305
 145   1 H      0.060  0.940  0.000  0.000     2.200     2.319
 146   1 H      0.068  0.932  0.000  0.000     2.113     2.273
 147   1 H      0.053  0.947  0.000  0.000     2.279     2.361
 148   1 H      0.053  0.947  0.000  0.000     2.282     2.363
 149   1 H      0.060  0.940  0.000  0.000     2.194     2.317
 150   1 H      0.059  0.941  0.000  0.000     2.214     2.327
 151   1 H      0.060  0.940  0.000  0.000     2.200     2.319
 152   7 N     -0.198  1.261  3.937  0.000    25.306     7.471
 153   6 C      0.029  1.054  2.917  0.000    20.093     6.381
 154   6 C      0.279  1.042  2.679  0.000    22.279     7.730
 155   8 O     -0.518  1.748  4.769  0.000    24.177     6.592
 156   6 C     -0.069  1.054  3.015  0.000    21.808     6.646
 157   6 C     -0.012  1.052  2.959  0.000    20.747     6.478
 158   6 C     -0.114  1.040  3.073  0.000    22.718     6.794
 159   6 C     -0.115  1.040  3.075  0.000    22.755     6.801
 160   1 H      0.252  0.748  0.000  0.000     0.875     1.466
 161   1 H      0.065  0.935  0.000  0.000     2.142     2.289
 162   1 H      0.064  0.936  0.000  0.000     2.151     2.294
 163   1 H      0.050  0.950  0.000  0.000     2.322     2.383
 164   1 H      0.041  0.959  0.000  0.000     2.434     2.440
 165   1 H      0.040  0.960  0.000  0.000     2.446     2.446
 166   1 H      0.045  0.955  0.000  0.000     2.380     2.413
 167   1 H      0.039  0.961  0.000  0.000     2.462     2.454
 168   1 H      0.045  0.955  0.000  0.000     2.380     2.413
 169   1 H      0.039  0.961  0.000  0.000     2.469     2.457
 170   1 H      0.034  0.966  0.000  0.000     2.526     2.485
 171   7 N     -0.204  1.262  3.943  0.000    25.443     7.491
 172   6 C      0.019  1.065  2.916  0.000    20.265     6.410
 173   6 C      0.266  1.051  2.683  0.000    22.519     7.770
 174   8 O     -0.483  1.745  4.737  0.000    23.406     6.486
 175   6 C      0.062  1.043  2.895  0.000    19.755     6.368
 176   8 O     -0.480  1.722  4.757  0.000    22.461     6.398
 177   1 H      0.242  0.758  0.000  0.000     0.914     1.498
 178   1 H      0.074  0.926  0.000  0.000     2.047     2.238
 179   1 H      0.064  0.936  0.000  0.000     2.148     2.292
 180   1 H      0.055  0.945  0.000  0.000     2.260     2.351
 181   1 H      0.366  0.634  0.000  0.000     0.552     1.167
 182   7 N     -0.179  1.253  3.926  0.000    24.872     7.407
 183   6 C      0.024  1.060  2.916  0.000    20.177     6.397
 184   6 C      0.278  1.049  2.674  0.000    22.304     7.734
 185   8 O     -0.511  1.751  4.759  0.000    24.018     6.571
 186   6 C     -0.082  1.060  3.022  0.000    22.053     6.685
 187   6 C     -0.010  1.055  2.955  0.000    20.721     6.475
 188   6 C     -0.117  1.040  3.077  0.000    22.801     6.808
 189   6 C     -0.126  1.045  3.081  0.000    22.966     6.832
 190   1 H      0.240  0.760  0.000  0.000     0.921     1.504
 191   1 H      0.079  0.921  0.000  0.000     1.992     2.207
 192   1 H      0.081  0.919  0.000  0.000     1.964     2.192
 193   1 H      0.059  0.941  0.000  0.000     2.213     2.326
 194   1 H      0.013  0.987  0.000  0.000     2.847     2.639
 195   1 H      0.028  0.972  0.000  0.000     2.620     2.531
 196   1 H      0.037  0.963  0.000  0.000     2.493     2.469
 197   1 H      0.062  0.938  0.000  0.000     2.178     2.308
 198   1 H      0.044  0.956  0.000  0.000     2.393     2.419
 199   1 H      0.059  0.941  0.000  0.000     2.213     2.326
 200   1 H      0.045  0.955  0.000  0.000     2.386     2.415
 201   7 N     -0.195  1.253  3.941  0.000    25.226     7.459
 202   6 C      0.036  1.060  2.904  0.000    19.978     6.365
 203   6 C      0.274  1.049  2.677  0.000    22.367     7.744
 204   8 O     -0.522  1.754  4.768  0.000    24.270     6.605
 205   6 C     -0.069  1.057  3.012  0.000    21.814     6.648
 206   6 C     -0.011  1.055  2.956  0.000    20.744     6.478
 207   6 C     -0.110  1.042  3.068  0.000    22.643     6.783
 208   6 C     -0.113  1.039  3.074  0.000    22.712     6.794
 209   1 H      0.229  0.771  0.000  0.000     0.971     1.543
 210   1 H      0.056  0.944  0.000  0.000     2.248     2.345
 211   1 H      0.054  0.946  0.000  0.000     2.275     2.359
 212   1 H      0.045  0.955  0.000  0.000     2.382     2.413
 213   1 H      0.045  0.955  0.000  0.000     2.387     2.416
 214   1 H      0.055  0.945  0.000  0.000     2.264     2.353
 215   1 H      0.027  0.973  0.000  0.000     2.626     2.534
 216   1 H      0.049  0.951  0.000  0.000     2.335     2.390
 217   1 H      0.058  0.942  0.000  0.000     2.219     2.330
 218   1 H      0.042  0.958  0.000  0.000     2.423     2.434
 219   1 H      0.022  0.978  0.000  0.000     2.698     2.569
 220   7 N     -0.183  1.258  3.925  0.000    24.956     7.419
 221   6 C      0.036  1.054  2.910  0.000    19.960     6.360
 222   6 C      0.286  1.037  2.676  0.000    22.151     7.708
 223   8 O     -0.516  1.756  4.760  0.000    24.140     6.587
 224   6 C     -0.082  1.059  3.023  0.000    22.054     6.685
 225   6 C     -0.103  1.058  3.046  0.000    22.471     6.749
 226   6 C      0.291  1.040  2.669  0.000    22.064     7.691
 227   8 O     -0.492  1.751  4.741  0.000    23.605     6.514
 228   7 N     -0.292  1.296  3.996  0.000    27.538     7.794
 229   1 H      0.229  0.771  0.000  0.000     0.970     1.543
 230   1 H      0.052  0.948  0.000  0.000     2.297     2.370
 231   1 H      0.101  0.899  0.000  0.000     1.776     2.084
 232   1 H      0.056  0.944  0.000  0.000     2.249     2.345
 233   1 H      0.078  0.922  0.000  0.000     1.997     2.210
 234   1 H      0.093  0.907  0.000  0.000     1.852     2.128
 235   1 H      0.217  0.783  0.000  0.000     1.022     1.584
 236   1 H      0.210  0.790  0.000  0.000     1.058     1.612
 237   7 N     -0.204  1.261  3.942  0.000    25.425     7.489
 238   6 C      0.008  1.073  2.919  0.000    20.455     6.442
 239   6 C      0.281  1.039  2.681  0.000    22.249     7.724
 240   8 O     -0.507  1.754  4.753  0.000    23.929     6.559
 241   6 C     -0.068  1.056  3.011  0.000    21.792     6.645
 242   6 C     -0.083  1.055  3.028  0.000    22.082     6.690
 243   6 C     -0.090  1.059  3.031  0.000    22.226     6.713
 244   6 C     -0.059  1.066  2.993  0.000    21.726     6.654
 245   7 N     -0.148  1.231  3.917  0.000    24.200     7.306
 246   1 H      0.245  0.755  0.000  0.000     0.901     1.487
 247   1 H      0.079  0.921  0.000  0.000     1.988     2.205
 248   1 H      0.060  0.940  0.000  0.000     2.198     2.318
 249   1 H      0.054  0.946  0.000  0.000     2.277     2.360
 250   1 H      0.062  0.938  0.000  0.000     2.175     2.306
 251   1 H      0.070  0.930  0.000  0.000     2.089     2.260
 252   1 H      0.078  0.922  0.000  0.000     2.002     2.213
 253   1 H      0.086  0.914  0.000  0.000     1.915     2.164
 254   1 H      0.117  0.883  0.000  0.000     1.635     2.000
 255   1 H      0.124  0.876  0.000  0.000     1.585     1.969
 256   1 H      0.311  0.689  0.000  0.000     0.681     1.293
 257   1 H      0.308  0.692  0.000  0.000     0.691     1.302
 258   1 H      0.299  0.701  0.000  0.000     0.717     1.326
 259   7 N     -0.193  1.249  3.944  0.000    25.197     7.455
 260   6 C      0.040  1.055  2.905  0.000    19.921     6.357
 261   6 C      0.274  1.050  2.676  0.000    22.374     7.746
 262   8 O     -0.498  1.755  4.743  0.000    23.738     6.532
 263   6 C     -0.038  1.051  2.987  0.000    21.242     6.560
 264   6 C     -0.095  1.066  3.029  0.000    22.314     6.726
 265   6 C      0.368  1.026  2.607  0.000    20.766     7.458
 266   8 O     -0.662  1.787  4.875  0.000    27.694     7.056
 267   8 O     -0.635  1.763  4.871  0.000    26.990     6.965
 268   1 H      0.224  0.776  0.000  0.000     0.994     1.562
 269   1 H      0.049  0.951  0.000  0.000     2.338     2.391
 270   1 H      0.025  0.975  0.000  0.000     2.658     2.550
 271   1 H      0.041  0.959  0.000  0.000     2.431     2.438
 272   1 H      0.058  0.942  0.000  0.000     2.221     2.330
 273   1 H      0.029  0.971  0.000  0.000     2.598     2.521
 274   7 N     -0.182  1.243  3.939  0.000    24.936     7.416
 275   6 C     -0.026  1.052  2.974  0.000    21.110     6.555
 276   6 C      0.274  1.044  2.682  0.000    22.370     7.745
 277   8 O     -0.495  1.753  4.741  0.000    23.667     6.522
 278   1 H      0.206  0.794  0.000  0.000     1.076     1.625
 279   1 H      0.090  0.910  0.000  0.000     1.876     2.142
 280   1 H      0.088  0.912  0.000  0.000     1.901     2.156
 281   7 N     -0.181  1.247  3.934  0.000    24.914     7.413
 282   6 C      0.031  1.052  2.918  0.000    20.052     6.374
 283   6 C      0.274  1.043  2.682  0.000    22.367     7.746
 284   8 O     -0.467  1.741  4.727  0.000    23.071     6.440
 285   6 C     -0.075  1.055  3.020  0.000    21.901     6.658
 286   6 C     -0.007  1.051  2.956  0.000    20.665     6.465
 287   6 C     -0.105  1.038  3.067  0.000    22.564     6.772
 288   6 C     -0.116  1.040  3.076  0.000    22.760     6.801
 289   1 H      0.206  0.794  0.000  0.000     1.078     1.626
 290   1 H      0.075  0.925  0.000  0.000     2.032     2.229
 291   1 H      0.063  0.937  0.000  0.000     2.159     2.298
 292   1 H      0.065  0.935  0.000  0.000     2.144     2.290
 293   1 H      0.028  0.972  0.000  0.000     2.617     2.530
 294   1 H      0.038  0.962  0.000  0.000     2.473     2.459
 295   1 H      0.020  0.980  0.000  0.000     2.738     2.588
 296   1 H      0.039  0.961  0.000  0.000     2.458     2.452
 297   1 H      0.046  0.954  0.000  0.000     2.368     2.406
 298   1 H      0.053  0.947  0.000  0.000     2.281     2.362
 299   1 H      0.045  0.955  0.000  0.000     2.378     2.411
 300   7 N     -0.178  1.254  3.924  0.000    24.858     7.405
 301   6 C      0.025  1.058  2.917  0.000    20.164     6.395
 302   6 C      0.266  1.056  2.679  0.000    22.525     7.775
 303   8 O     -0.492  1.755  4.737  0.000    23.604     6.514
 304   6 C     -0.061  1.057  3.003  0.000    21.625     6.614
 305   6 C     -0.009  1.051  2.959  0.000    20.711     6.473
 306   6 C     -0.114  1.042  3.072  0.000    22.717     6.794
 307   6 C     -0.116  1.039  3.077  0.000    22.782     6.805
 308   1 H      0.198  0.802  0.000  0.000     1.114     1.653
 309   1 H      0.074  0.926  0.000  0.000     2.038     2.232
 310   1 H      0.049  0.951  0.000  0.000     2.332     2.388
 311   1 H      0.049  0.951  0.000  0.000     2.328     2.386
 312   1 H      0.034  0.966  0.000  0.000     2.535     2.490
 313   1 H      0.055  0.945  0.000  0.000     2.264     2.353
 314   1 H      0.038  0.962  0.000  0.000     2.476     2.461
 315   1 H      0.047  0.953  0.000  0.000     2.356     2.400
 316   1 H      0.056  0.944  0.000  0.000     2.251     2.346
 317   1 H      0.040  0.960  0.000  0.000     2.447     2.446
 318   1 H      0.036  0.964  0.000  0.000     2.502     2.474
 319   7 N     -0.190  1.260  3.930  0.000    25.126     7.445
 320   6 C      0.027  1.060  2.913  0.000    20.110     6.383
 321   6 C      0.204  1.088  2.709  0.000    23.668     7.967
 322   8 O     -0.357  1.749  4.607  0.000    20.834     6.120
 323   6 C     -0.067  1.050  3.017  0.000    21.749     6.635
 324   6 C     -0.004  1.062  2.942  0.000    20.650     6.469
 325  16 S     -0.218  1.920  4.255  0.042   150.343    20.637
 326   6 C     -0.066  1.066  3.000  0.000    21.846     6.669
 327   1 H      0.225  0.775  0.000  0.000     0.987     1.556
 328   1 H      0.094  0.906  0.000  0.000     1.839     2.121
 329   1 H      0.082  0.918  0.000  0.000     1.954     2.186
 330   1 H      0.072  0.928  0.000  0.000     2.068     2.249
 331   1 H      0.050  0.950  0.000  0.000     2.317     2.381
 332   1 H      0.050  0.950  0.000  0.000     2.318     2.381
 333   1 H      0.070  0.930  0.000  0.000     2.083     2.257
 334   1 H      0.058  0.942  0.000  0.000     2.220     2.330
 335   1 H      0.056  0.944  0.000  0.000     2.248     2.345
 336   7 N     -0.400  1.324  4.076  0.000    30.386     8.187
 337   6 C      0.039  1.052  2.909  0.000    19.930     6.359
 338   6 C      0.204  1.084  2.712  0.000    23.674     7.969
 339   8 O     -0.380  1.752  4.628  0.000    21.285     6.186
 340   6 C     -0.071  1.057  3.014  0.000    21.832     6.648
 341   6 C     -0.005  1.038  2.967  0.000    20.628     6.459
 342   6 C     -0.116  1.045  3.071  0.000    22.693     6.779
 343   6 C     -0.104  1.037  3.067  0.000    22.480     6.748
 344   1 H      0.163  0.837  0.000  0.000     1.314     1.796
 345   1 H      0.060  0.940  0.000  0.000     2.196     2.318
 346   1 H      0.062  0.938  0.000  0.000     2.172     2.305
 347   1 H      0.044  0.956  0.000  0.000     2.397     2.421
 348   1 H      0.040  0.960  0.000  0.000     2.449     2.447
 349   1 H      0.045  0.955  0.000  0.000     2.378     2.412
 350   1 H      0.029  0.971  0.000  0.000     2.607     2.525
 351   1 H      0.049  0.951  0.000  0.000     2.330     2.387
 352   1 H      0.034  0.966  0.000  0.000     2.534     2.489
 353   1 H      0.037  0.963  0.000  0.000     2.487     2.466
 354   1 H      0.026  0.974  0.000  0.000     2.642     2.542
 355   7 N     -0.340  1.373  3.967  0.000    28.748     7.963
 356   6 C      0.035  1.055  2.910  0.000    19.949     6.352
 357   6 C      0.271  1.042  2.688  0.000    22.430     7.756
 358   8 O     -0.503  1.748  4.755  0.000    23.861     6.549
 359   6 C     -0.060  1.052  3.008  0.000    21.606     6.610
 360   6 C     -0.059  1.046  3.014  0.000    21.609     6.612
 361   6 C      0.015  1.044  2.941  0.000    20.288     6.406
 362   1 H      0.016  0.984  0.000  0.000     2.799     2.616
 363   1 H      0.057  0.943  0.000  0.000     2.229     2.335
 364   1 H      0.036  0.964  0.000  0.000     2.497     2.471
 365   1 H      0.042  0.958  0.000  0.000     2.418     2.432
 366   1 H      0.030  0.970  0.000  0.000     2.580     2.512
 367   1 H      0.043  0.957  0.000  0.000     2.406     2.426
 368   1 H      0.017  0.983  0.000  0.000     2.779     2.607
 369   7 N     -0.163  1.243  3.920  0.000    24.528     7.356
 370   6 C      0.018  1.063  2.919  0.000    20.256     6.406
 371   6 C      0.207  1.083  2.710  0.000    23.615     7.959
 372   8 O     -0.346  1.735  4.611  0.000    20.637     6.091
 373   6 C     -0.026  1.067  2.960  0.000    21.004     6.517
 374   6 C     -0.066  1.047  3.019  0.000    21.749     6.637
 375   6 C     -0.121  1.038  3.083  0.000    22.865     6.817
 376   6 C     -0.110  1.034  3.076  0.000    22.649     6.785
 377   1 H      0.220  0.780  0.000  0.000     1.009     1.574
 378   1 H      0.088  0.912  0.000  0.000     1.895     2.153
 379   1 H      0.060  0.940  0.000  0.000     2.195     2.317
 380   1 H      0.052  0.948  0.000  0.000     2.298     2.371
 381   1 H      0.038  0.962  0.000  0.000     2.474     2.460
 382   1 H      0.066  0.934  0.000  0.000     2.129     2.282
 383   1 H      0.041  0.959  0.000  0.000     2.435     2.440
 384   1 H      0.060  0.940  0.000  0.000     2.202     2.320
 385   1 H      0.039  0.961  0.000  0.000     2.457     2.451
 386   1 H      0.039  0.961  0.000  0.000     2.464     2.455
 387   1 H      0.049  0.951  0.000  0.000     2.330     2.387
 388   7 N     -0.407  1.308  4.099  0.000    30.558     8.210
 389   6 C      0.045  1.050  2.904  0.000    19.829     6.343
 390   6 C      0.264  1.054  2.681  0.000    22.541     7.776
 391   8 O     -0.529  1.747  4.782  0.000    24.442     6.628
 392   6 C     -0.108  1.039  3.070  0.000    22.619     6.781
 393   1 H      0.181  0.819  0.000  0.000     1.206     1.720
 394   1 H      0.021  0.979  0.000  0.000     2.717     2.578
 395   1 H      0.028  0.972  0.000  0.000     2.620     2.531
 396   1 H      0.045  0.955  0.000  0.000     2.387     2.416
 397   1 H      0.056  0.944  0.000  0.000     2.243     2.342
 398   7 N     -0.175  1.248  3.927  0.000    24.792     7.395
 399   6 C      0.030  1.054  2.916  0.000    20.063     6.375
 400   6 C      0.201  1.088  2.710  0.000    23.713     7.975
 401   8 O     -0.359  1.742  4.617  0.000    20.877     6.126
 402   6 C     -0.076  1.057  3.019  0.000    21.935     6.665
 403   6 C     -0.019  1.056  2.962  0.000    20.872     6.498
 404   6 C     -0.117  1.042  3.075  0.000    22.802     6.809
 405   6 C     -0.123  1.041  3.082  0.000    22.909     6.824
 406   1 H      0.247  0.753  0.000  0.000     0.897     1.483
 407   1 H      0.091  0.909  0.000  0.000     1.870     2.139
 408   1 H      0.060  0.940  0.000  0.000     2.197     2.318
 409   1 H      0.067  0.933  0.000  0.000     2.118     2.276
 410   1 H      0.044  0.956  0.000  0.000     2.402     2.424
 411   1 H      0.044  0.956  0.000  0.000     2.393     2.419
 412   1 H      0.047  0.953  0.000  0.000     2.357     2.401
 413   1 H      0.039  0.961  0.000  0.000     2.463     2.454
 414   1 H      0.048  0.952  0.000  0.000     2.345     2.395
 415   1 H      0.056  0.944  0.000  0.000     2.251     2.346
 416   1 H      0.036  0.964  0.000  0.000     2.507     2.476
 417   7 N     -0.399  1.309  4.090  0.000    30.346     8.181
 418   6 C      0.043  1.057  2.900  0.000    19.877     6.351
 419   6 C      0.205  1.096  2.699  0.000    23.641     7.963
 420   8 O     -0.368  1.748  4.620  0.000    21.050     6.151
 421   6 C     -0.067  1.054  3.013  0.000    21.770     6.642
 422   6 C     -0.090  1.052  3.039  0.000    22.219     6.711
 423   6 C     -0.023  1.050  2.973  0.000    21.039     6.540
 424   7 N     -0.132  1.225  3.907  0.000    23.863     7.255
 425   6 C      0.226  1.028  2.746  0.000    23.240     7.894
 426   7 N     -0.249  1.247  4.003  0.000    26.497     7.645
 427   7 N     -0.251  1.235  4.016  0.000    26.528     7.650
 428   1 H      0.172  0.828  0.000  0.000     1.261     1.759
 429   1 H      0.038  0.962  0.000  0.000     2.481     2.463
 430   1 H      0.038  0.962  0.000  0.000     2.474     2.460
 431   1 H      0.056  0.944  0.000  0.000     2.244     2.343
 432   1 H      0.069  0.931  0.000  0.000     2.097     2.264
 433   1 H      0.071  0.929  0.000  0.000     2.072     2.251
 434   1 H      0.046  0.954  0.000  0.000     2.371     2.408
 435   1 H      0.100  0.900  0.000  0.000     1.785     2.089
 436   1 H      0.260  0.740  0.000  0.000     0.845     1.440
 437   1 H      0.212  0.788  0.000  0.000     1.046     1.602
 438   1 H      0.229  0.771  0.000  0.000     0.970     1.543
 439   1 H      0.254  0.746  0.000  0.000     0.868     1.459
 440   1 H      0.258  0.742  0.000  0.000     0.855     1.448
 441   7 N     -0.393  1.323  4.070  0.000    30.175     8.158
 442   6 C      0.018  1.069  2.913  0.000    20.290     6.415
 443   6 C      0.269  1.050  2.681  0.000    22.461     7.761
 444   8 O     -0.482  1.756  4.726  0.000    23.390     6.484
 445   6 C     -0.083  1.057  3.026  0.000    22.079     6.689
 446   6 C     -0.088  1.056  3.032  0.000    22.169     6.703
 447   6 C     -0.096  1.051  3.044  0.000    22.321     6.726
 448   6 C     -0.053  1.059  2.994  0.000    21.624     6.638
 449   7 N     -0.149  1.230  3.919  0.000    24.209     7.308
 450   1 H      0.146  0.854  0.000  0.000     1.426     1.871
 451   1 H      0.062  0.938  0.000  0.000     2.179     2.309
 452   1 H      0.052  0.948  0.000  0.000     2.295     2.369
 453   1 H      0.052  0.948  0.000  0.000     2.299     2.371
 454   1 H      0.068  0.932  0.000  0.000     2.112     2.273
 455   1 H      0.057  0.943  0.000  0.000     2.230     2.335
 456   1 H      0.082  0.918  0.000  0.000     1.963     2.191
 457   1 H      0.080  0.920  0.000  0.000     1.980     2.200
 458   1 H      0.114  0.886  0.000  0.000     1.660     2.015
 459   1 H      0.121  0.879  0.000  0.000     1.608     1.983
 460   1 H      0.301  0.699  0.000  0.000     0.710     1.320
 461   1 H      0.302  0.698  0.000  0.000     0.708     1.318
 462   1 H      0.292  0.708  0.000  0.000     0.739     1.347
 463   7 N     -0.182  1.250  3.933  0.000    24.944     7.418
 464   6 C      0.008  1.056  2.936  0.000    20.443     6.438
 465   6 C      0.274  1.041  2.686  0.000    22.374     7.746
 466   8 O     -0.464  1.737  4.727  0.000    23.002     6.430
 467   6 C      0.070  1.038  2.892  0.000    19.633     6.348
 468   8 O     -0.469  1.714  4.755  0.000    22.230     6.365
 469   1 H      0.232  0.768  0.000  0.000     0.958     1.533
 470   1 H      0.095  0.905  0.000  0.000     1.831     2.116
 471   1 H      0.049  0.951  0.000  0.000     2.329     2.386
 472   1 H      0.045  0.955  0.000  0.000     2.384     2.414
 473   1 H      0.356  0.644  0.000  0.000     0.574     1.190
 474   7 N     -0.167  1.241  3.926  0.000    24.614     7.368
 475   6 C     -0.046  1.057  2.988  0.000    21.452     6.606
 476   6 C      0.272  1.041  2.687  0.000    22.406     7.751
 477   8 O     -0.474  1.748  4.726  0.000    23.223     6.461
 478   1 H      0.216  0.784  0.000  0.000     1.028     1.588
 479   1 H      0.109  0.891  0.000  0.000     1.704     2.041
 480   1 H      0.102  0.898  0.000  0.000     1.769     2.080
 481   7 N     -0.179  1.249  3.930  0.000    24.880     7.408
 482   6 C      0.022  1.070  2.908  0.000    20.225     6.405
 483   6 C      0.276  1.043  2.681  0.000    22.332     7.738
 484   8 O     -0.491  1.737  4.754  0.000    23.584     6.511
 485   6 C     -0.073  1.058  3.015  0.000    21.905     6.664
 486   6 C     -0.108  1.068  3.040  0.000    22.564     6.763
 487   6 C      0.358  1.031  2.611  0.000    20.931     7.487
 488   8 O     -0.614  1.758  4.855  0.000    26.456     6.896
 489   8 O     -0.621  1.772  4.849  0.000    26.649     6.921
 490   1 H      0.216  0.784  0.000  0.000     1.029     1.589
 491   1 H      0.058  0.942  0.000  0.000     2.221     2.331
 492   1 H      0.074  0.926  0.000  0.000     2.041     2.234
 493   1 H      0.041  0.959  0.000  0.000     2.439     2.442
 494   1 H      0.048  0.952  0.000  0.000     2.342     2.393
 495   1 H      0.031  0.969  0.000  0.000     2.575     2.509
 496   7 N     -0.186  1.252  3.934  0.000    25.024     7.430
 497   6 C      0.027  1.061  2.912  0.000    20.122     6.387
 498   6 C      0.279  1.042  2.679  0.000    22.278     7.729
 499   8 O     -0.519  1.761  4.757  0.000    24.204     6.596
 500   6 C     -0.083  1.062  3.021  0.000    22.065     6.686
 501   6 C     -0.006  1.048  2.958  0.000    20.653     6.464
 502   6 C     -0.114  1.038  3.076  0.000    22.721     6.795
 503   6 C     -0.122  1.042  3.080  0.000    22.865     6.814
 504   1 H      0.226  0.774  0.000  0.000     0.983     1.553
 505   1 H      0.067  0.933  0.000  0.000     2.121     2.277
 506   1 H      0.062  0.938  0.000  0.000     2.173     2.305
 507   1 H      0.067  0.933  0.000  0.000     2.115     2.275
 508   1 H      0.029  0.971  0.000  0.000     2.605     2.524
 509   1 H      0.043  0.957  0.000  0.000     2.409     2.427
 510   1 H      0.031  0.969  0.000  0.000     2.571     2.508
 511   1 H      0.040  0.960  0.000  0.000     2.454     2.450
 512   1 H      0.042  0.958  0.000  0.000     2.425     2.435
 513   1 H      0.050  0.950  0.000  0.000     2.321     2.383
 514   1 H      0.047  0.953  0.000  0.000     2.352     2.398
 515   7 N     -0.183  1.253  3.929  0.000    24.956     7.419
 516   6 C      0.021  1.072  2.907  0.000    20.242     6.408
 517   6 C      0.276  1.051  2.673  0.000    22.331     7.737
 518   8 O     -0.511  1.767  4.744  0.000    24.028     6.572
 519   6 C     -0.081  1.058  3.023  0.000    22.046     6.685
 520   6 C     -0.078  1.056  3.022  0.000    21.983     6.676
 521   6 C     -0.092  1.056  3.037  0.000    22.263     6.718
 522   6 C     -0.052  1.060  2.993  0.000    21.612     6.636
 523   7 N     -0.147  1.231  3.916  0.000    24.174     7.302
 524   1 H      0.235  0.765  0.000  0.000     0.942     1.520
 525   1 H      0.063  0.937  0.000  0.000     2.167     2.302
 526   1 H      0.077  0.923  0.000  0.000     2.015     2.220
 527   1 H      0.051  0.949  0.000  0.000     2.306     2.375
 528   1 H      0.057  0.943  0.000  0.000     2.238     2.340
 529   1 H      0.063  0.937  0.000  0.000     2.161     2.299
 530   1 H      0.090  0.910  0.000  0.000     1.882     2.146
 531   1 H      0.075  0.925  0.000  0.000     2.029     2.227
 532   1 H      0.113  0.887  0.000  0.000     1.672     2.022
 533   1 H      0.117  0.883  0.000  0.000     1.639     2.002
 534   1 H      0.305  0.695  0.000  0.000     0.698     1.309
 535   1 H      0.302  0.698  0.000  0.000     0.707     1.318
 536   1 H      0.300  0.700  0.000  0.000     0.712     1.322
 537   7 N     -0.189  1.250  3.938  0.000    25.090     7.439
 538   6 C      0.021  1.068  2.911  0.000    20.243     6.408
 539   6 C      0.273  1.049  2.678  0.000    22.387     7.748
 540   8 O     -0.497  1.747  4.750  0.000    23.729     6.531
 541   6 C      0.118  1.047  2.835  0.000    18.760     6.186
 542   8 O     -0.473  1.726  4.747  0.000    22.310     6.376
 543   6 C     -0.127  1.043  3.084  0.000    22.992     6.837
 544   1 H      0.240  0.760  0.000  0.000     0.923     1.505
 545   1 H      0.063  0.937  0.000  0.000     2.164     2.300
 546   1 H      0.035  0.965  0.000  0.000     2.519     2.482
 547   1 H      0.323  0.677  0.000  0.000     0.656     1.272
 548   1 H      0.060  0.940  0.000  0.000     2.198     2.318
 549   1 H      0.053  0.947  0.000  0.000     2.284     2.363
 550   1 H      0.057  0.943  0.000  0.000     2.240     2.340
 551   7 N     -0.174  1.250  3.924  0.000    24.763     7.391
 552   6 C      0.044  1.048  2.908  0.000    19.832     6.340
 553   6 C      0.221  1.074  2.705  0.000    23.353     7.915
 554   8 O     -0.366  1.749  4.617  0.000    21.019     6.147
 555   6 C     -0.067  1.049  3.018  0.000    21.769     6.639
 556   6 C     -0.033  1.068  2.966  0.000    28.786     8.800
 557   6 C     -0.013  1.067  2.945  0.000    28.268     8.719
 558   6 C     -0.012  1.072  2.940  0.000    28.135     8.686
 559   7 N     -0.114  1.231  3.883  0.000    23.490     7.198
 560   6 C      0.044  1.062  2.894  0.000    26.865     8.492
 561   6 C     -0.036  1.076  2.959  0.000    28.883     8.812
 562   6 C     -0.056  1.070  2.985  0.000    29.388     8.889
 563   6 C     -0.044  1.077  2.967  0.000    29.099     8.846
 564   6 C     -0.040  1.079  2.961  0.000    28.984     8.829
 565   1 H      0.239  0.761  0.000  0.000     0.927     1.509
 566   1 H      0.085  0.915  0.000  0.000     1.929     2.172
 567   1 H      0.080  0.920  0.000  0.000     1.980     2.201
 568   1 H      0.062  0.938  0.000  0.000     2.174     2.306
 569   1 H      0.035  0.965  0.000  0.000     2.516     2.480
 570   1 H      0.191  0.809  0.000  0.000     1.152     1.682
 571   1 H      0.030  0.970  0.000  0.000     2.588     2.516
 572   1 H      0.030  0.970  0.000  0.000     2.582     2.513
 573   1 H      0.026  0.974  0.000  0.000     2.637     2.539
 574   1 H      0.028  0.972  0.000  0.000     2.622     2.532
 575   7 N     -0.414  1.314  4.100  0.000    30.780     8.240
 576   6 C      0.046  1.056  2.898  0.000    19.799     6.335
 577   6 C      0.206  1.092  2.702  0.000    23.633     7.962
 578   8 O     -0.394  1.756  4.638  0.000    21.562     6.226
 579   6 C     -0.006  1.054  2.951  0.000    20.643     6.461
 580   6 C     -0.111  1.040  3.071  0.000    22.669     6.788
 581   6 C     -0.113  1.038  3.075  0.000    22.698     6.790
 582   1 H      0.185  0.815  0.000  0.000     1.188     1.707
 583   1 H      0.040  0.960  0.000  0.000     2.454     2.450
 584   1 H      0.037  0.963  0.000  0.000     2.487     2.466
 585   1 H      0.051  0.949  0.000  0.000     2.312     2.378
 586   1 H      0.026  0.974  0.000  0.000     2.639     2.541
 587   1 H      0.045  0.955  0.000  0.000     2.383     2.414
 588   1 H      0.043  0.957  0.000  0.000     2.407     2.426
 589   1 H      0.047  0.953  0.000  0.000     2.361     2.403
 590   1 H      0.054  0.946  0.000  0.000     2.267     2.355
 591   8 O     -0.625  1.751  4.873  0.000    25.784     6.853
 592   1 H      0.294  0.706  0.000  0.000     0.740     1.352
 593   1 H      0.323  0.677  0.000  0.000     0.655     1.271
 594   7 N     -0.392  1.312  4.080  0.000    30.161     8.156
 595   6 C      0.035  1.059  2.906  0.000    19.994     6.368
 596   6 C      0.201  1.091  2.708  0.000    23.719     7.976
 597   8 O     -0.376  1.759  4.617  0.000    21.203     6.174
 598   6 C     -0.060  1.049  3.011  0.000    21.632     6.617
 599   6 C     -0.000  1.062  2.938  0.000    20.576     6.457
 600  16 S     -0.208  1.915  4.254  0.039   149.925    20.608
 601   6 C     -0.061  1.064  2.998  0.000    21.762     6.656
 602   1 H      0.171  0.829  0.000  0.000     1.264     1.761
 603   1 H      0.063  0.937  0.000  0.000     2.165     2.301
 604   1 H      0.066  0.934  0.000  0.000     2.134     2.284
 605   1 H      0.047  0.953  0.000  0.000     2.354     2.399
 606   1 H      0.042  0.958  0.000  0.000     2.420     2.433
 607   1 H      0.044  0.956  0.000  0.000     2.393     2.419
 608   1 H      0.058  0.942  0.000  0.000     2.224     2.332
 609   1 H      0.052  0.948  0.000  0.000     2.297     2.370
 610   1 H      0.056  0.944  0.000  0.000     2.245     2.343
 611   1 H      0.178  0.822  0.000  0.000     1.223     1.732
 612   1 H      0.079  0.921  0.000  0.000     1.989     2.206
 613   1 H      0.171  0.829  0.000  0.000     1.263     1.761
 614   1 H      0.064  0.936  0.000  0.000     2.148     2.292
 615   1 H      0.190  0.810  0.000  0.000     1.159     1.686
 616   1 H      0.084  0.916  0.000  0.000     1.933     2.174
 617   1 H      0.178  0.822  0.000  0.000     1.227     1.735
 618   1 H      0.064  0.936  0.000  0.000     2.154     2.295
 619   1 H      0.214  0.786  0.000  0.000     1.029     1.586
 620   1 H      0.074  0.926  0.000  0.000     2.042     2.234
 621   1 H      0.168  0.832  0.000  0.000     1.287     1.777
 622   1 H      0.066  0.934  0.000  0.000     2.129     2.282
 623   1 H      0.170  0.830  0.000  0.000     1.274     1.768
 624   1 H      0.078  0.922  0.000  0.000     1.997     2.210
 625   1 H      0.193  0.807  0.000  0.000     1.141     1.673
 626   1 H      0.053  0.947  0.000  0.000     2.281     2.362
 627   1 H      0.174  0.826  0.000  0.000     1.246     1.748
 628   1 H      0.061  0.939  0.000  0.000     2.184     2.311
 629   1 H      0.181  0.819  0.000  0.000     1.207     1.721
 630   1 H      0.079  0.921  0.000  0.000     1.991     2.207

 Mol. C6AA /au·bohr⁶  :    3473563.869608
 Mol. C8AA /au·bohr⁸  :   77691121.588792
 Mol. α(0) /au        :       2790.641086

 
molecular dipole:
                 x           y           z       tot (Debye)
 q only:      348.063     222.143    1128.959
   full:      348.939     222.798    1128.533    3055.435
molecular quadrupole (traceless):
                xx          xy          yy          xz          yz          zz
 q only:  -179362.307   38452.344 -218243.781  197060.529  125615.553  397606.088
  q+dip:  -179116.561   38695.399 -217992.550  197486.384  125817.767  397109.112
   full:  -179113.880   38697.045 -217992.060  197484.848  125820.760  397105.940
speedup  1.79
cpu  time for grad   28.10 s
wall time for grad   15.70 s

SCC energy    :    -926.6893914
rep           :      11.3012020
ES            :       3.0494599
AES           :      -0.1270498
AXC           :       0.3568131
disp          :      -0.8202592
XB            :       0.0000000
fix           :       0.0000000
Gborn         :       0.0000000
Gsasa         :       0.0000000
Ghb           :       0.0000000
Gshift        :       0.0000000
Gsolv         :      -1.0882388     -682.88
Etot ala COSMO:    -926.6893914
grad norm     :       0.7261018
total E       :    -915.2987789
atomizationE  :     169.9857013   106667.64
(atE without considering molecular charge,
 total energy contains solvation terms)
H-L gap (eV)  :          1.1131

------------------------------------------------------------------------
 * finished run on 2019/05/07 at 22:47:10.656     
------------------------------------------------------------------------
 total:
 * wall-time:     0 d,  0 h,  0 min, 16.911 sec
 *  cpu-time:     0 d,  0 h,  0 min, 30.130 sec
 * ratio c/w:     1.782 speedup
 SCF:
 * wall-time:     0 d,  0 h,  0 min, 16.401 sec
 *  cpu-time:     0 d,  0 h,  0 min, 29.440 sec
 * ratio c/w:     1.795 speedup

