      -----------------------------------------------------------      
     |                   =====================                   |     
     |                           x T B                           |     
     |                   =====================                   |     
     |                         S. Grimme                         |     
     |          Mulliken Center for Theoretical Chemistry        |     
     |                    University of Bonn                     |     
     |                 Version 6.0.1 (SAW181210)                 |     
      -----------------------------------------------------------      

   This program is distributed in the hope that it will be useful,
   but WITHOUT ANY WARRANTY; without even the implied warranty of
   MERCHANTABILITY or FITNESS FOR A PARTICULAR PURPOSE.
   
   FOR NON-COMMERCIAL, ACADEMIA USE ONLY.
   
   Cite this work as:
   S. Grimme, C. Bannwarth, P. Shushkov, J. Comput. Theory Chem., 2017,
   13, 1989-2009.
   C. Bannwarth, S. Ehlert and S. Grimme., ChemRxiv, 2018, preprint.
   http://doi.org/10.26434/chemrxiv.7246238.v1
   
   for sTDA-xTB:
   S. Grimme and C. Bannwarth, J. Chem. Phys., 2016, 145, 054103.
   
   in the mass-spec context:
   V. Asgeirsson, C. Bauer and S. Grimme, Chem. Sci., 2017, 8, 4879.
   
   if GBSA is used:
   P. Shushkov, F. März and S. Grimme, unpublished.
   
   for ANC optimizer:
   S. Grimme, unpublished.
   Rational Function algorithm used in ANCopt:
   F. Eckert, P. Pulay, H.-J. Werner, J. Comput. Chem., 1997, 18, 1473.
   
   with help from (in alphabetical order)
   C. Bannwarth, F. Bohle, G. Brandenburg, E. Caldeweyher, M. Checinski,
   S. Dohm, S. Ehlert, S. Ehrlich, F. März, H. Neugebauer, J. Pisarek,
   P. Pracht, P. Shushkov, and S. Spicher.
   
 * started run on 2019/05/11 at 18:07:24.459     
========================================================================
 # omp threads = 2
========================================================================
number of atoms            : 476
number of electrons        : 1282
charge                     : 2
spin                       : .0
first test random number   : .9842

########################################################################
# WARNING! Please study the warnings concerning your input carefully
#  - Process number higher than OMP_NUM_THREADS, I hope you know what you are doing.
########################################################################

           ------------------------------------------------- 
          |                 G F N 2 - x T B                 |
          | Geometry, Frequencies, Noncovalent interactions |
          |            JCTC 2018 parametrisation            |
           ------------------------------------------------- 
 
      method parameters     
 k(s)        :  1.8500
 k(p)        :  2.2300
 k(d)        :  2.2300
 k(f)        :  2.0000
 kEN (H0ij)  : -2.0000
 D4 a1       :  0.5200
 D4 a2       :  5.0000
 D4 s6       :  1.0000
 D4 s8       :  2.7000
 D4 s9       :  5.0000
 alphaj      :  2.0000

 Solvent             : h2o
 Using internal parameter file: .param_gbsa2_h2o
 Gsolv ref. state (COSMO-RS): gsolv [1 M gas/solution]
 temperature (mdtemp)       :    298.150000000000     
 dielectric constant        :    80.2000000000000     
 rho                        :    1.00000000000000     
 mass                       :    18.0000000000000     
 surface tension            :    15.5689454083859     
 probe radius               :   0.975313790000000     
 vdW radii scaling          :    1.00000000000000     
 Gshift (Eh)                :   1.857443126794793E-003
 c1                         :    1.55243817000000     
 soset                      :   0.130326360000000     
 HB correction              :  T

            Z     q(EN)     CN     RAES       Cart. coordinates
     1  N   5.0   -0.20    3.22    1.96     1.90953    54.71788     3.14455
     2  C   4.0    0.03    4.35    4.28     0.79386    54.26732     5.59422
     3  C   4.0    0.15    3.42    3.09     2.08865    52.05363     6.89735
     4  O   6.0   -0.28    1.22    1.80     3.03301    50.29617     5.72491
     5  C   4.0   -0.04    4.28    4.15    -2.07416    53.78777     5.42344
     6  C   4.0   -0.02    4.23    4.07    -2.69845    51.45188     3.85015
     7  C   4.0    0.16    3.20    3.04    -5.49939    50.87849     3.60673
     8  O   6.0   -0.27    1.20    1.80    -6.32703    48.72217     3.64687
     9  N   5.0   -0.18    3.20    1.96    -7.01329    52.87699     3.20299
    10  H   1.0    0.11    1.03    1.43     2.83416    53.26658     2.29716
    11  H   1.0    0.06    1.07    1.44     1.05773    55.97209     6.73711
    12  H   1.0    0.05    1.03    1.43    -2.80897    53.58440     7.33694
    13  H   1.0    0.05    1.03    1.43    -2.90565    55.48241     4.59464
    14  H   1.0    0.06    1.03    1.43    -1.94988    51.71212     1.94327
    15  H   1.0    0.08    1.03    1.43    -1.80504    49.77114     4.64271
    16  H   1.0    0.09    1.03    1.43    -6.34991    54.65235     3.11229
    17  H   1.0    0.11    1.03    1.43    -8.88944    52.59950     3.04361
    18  N   5.0   -0.14    3.50    2.08     2.05728    52.27123     9.40575
    19  C   4.0    0.04    4.51    4.55     2.97211    50.36086    11.12226
    20  C   4.0    0.14    3.44    3.09     0.75065    49.33721    12.65701
    21  O   6.0   -0.32    1.24    1.80    -0.58713    50.71885    13.95655
    22  C   4.0   -0.02    4.27    4.14     4.98797    51.46872    12.90102
    23  C   4.0   -0.08    4.13    3.86     5.62417    49.59282    14.99527
    24  C   4.0   -0.07    4.12    3.84     7.33880    52.14586    11.38090
    25  H   1.0    0.11    1.10    1.44     1.23446    53.81892    10.18817
    26  H   1.0    0.06    1.07    1.44     3.77573    48.83974     9.98577
    27  H   1.0    0.05    1.05    1.44     4.19385    53.18041    13.74731
    28  H   1.0    0.04    1.00    1.43     7.07155    50.37982    16.22011
    29  H   1.0    0.05    1.00    1.43     3.96684    49.18501    16.14126
    30  H   1.0    0.04    1.00    1.43     6.31015    47.83512    14.18310
    31  H   1.0    0.03    1.00    1.43     8.71644    53.07423    12.58332
    32  H   1.0    0.05    1.00    1.43     8.18068    50.44543    10.59480
    33  H   1.0    0.05    1.00    1.43     6.85796    53.41459     9.84058
    34  N   5.0   -0.14    3.46    2.05     0.44551    46.84568    12.45622
    35  C   4.0    0.03    4.34    4.27    -1.43236    45.40868    13.84027
    36  C   4.0    0.15    3.53    3.13    -0.07469    44.02806    16.00249
    37  O   6.0   -0.32    1.33    1.80     1.31393    42.21191    15.56325
    38  C   4.0   -0.05    4.12    3.84    -2.67941    43.47915    12.11062
    39  H   1.0    0.09    1.06    1.44     1.58737    45.82261    11.29613
    40  H   1.0    0.05    1.06    1.44    -2.82657    46.73598    14.57707
    41  H   1.0    0.05    1.00    1.43    -4.13402    42.45437    13.13574
    42  H   1.0    0.07    1.00    1.43    -3.54599    44.38382    10.48461
    43  H   1.0    0.06    1.00    1.43    -1.26351    42.14551    11.44964
    44  N   5.0   -0.10    3.68    2.25    -0.35662    44.91021    18.33730
    45  C   4.0    0.04    4.60    4.66     0.71757    43.49732    20.44513
    46  C   4.0    0.16    3.43    3.09    -0.35050    40.80069    20.46095
    47  O   6.0   -0.29    1.23    1.80    -2.44917    40.32045    19.64143
    48  C   4.0   -0.04    4.33    4.26    -0.10998    44.96182    22.80494
    49  C   4.0   -0.03    4.26    4.13    -0.67752    47.60804    21.80911
    50  C   4.0   -0.00    4.36    4.31    -1.76390    47.10488    19.18793
    51  H   1.0    0.05    1.05    1.44     2.77762    43.42544    20.26307
    52  H   1.0    0.07    1.03    1.43    -1.82421    44.12860    23.58992
    53  H   1.0    0.05    1.02    1.43     1.35126    44.95889    24.24752
    54  H   1.0    0.07    1.02    1.43    -2.01815    48.62959    22.98149
    55  H   1.0    0.05    1.02    1.43     1.04706    48.72331    21.66644
    56  H   1.0    0.06    1.02    1.43    -3.78291    46.66183    19.30698
    57  H   1.0    0.06    1.02    1.43    -1.49140    48.71289    17.92914
    58  N   5.0   -0.14    3.45    2.05     1.20126    39.07964    21.50483
    59  C   4.0    0.05    4.34    4.27     0.47314    36.47789    21.90190
    60  C   4.0    0.11    3.30    3.05    -0.68947    36.15576    24.54325
    61  O   6.0   -0.29    1.19    1.80     0.61040    36.20906    26.46372
    62  C   4.0   -0.03    4.33    4.26     2.76239    34.73558    21.67264
    63  C   4.0    0.16    3.28    3.05     2.15793    32.14355    22.73505
    64  O   6.0   -0.27    1.26    1.80    -0.01269    31.43558    23.12660
    65  N   5.0   -0.18    3.18    1.95     4.17983    30.71032    23.19051
    66  H   1.0    0.11    1.10    1.44     2.89669    39.64375    22.19425
    67  H   1.0    0.05    1.06    1.44    -0.95922    36.00323    20.49132
    68  H   1.0    0.05    1.02    1.43     3.35216    34.54803    19.70574
    69  H   1.0    0.05    1.03    1.43     4.35090    35.50996    22.73579
    70  H   1.0    0.11    1.03    1.43     3.95379    28.98877    23.97208
    71  H   1.0    0.09    1.03    1.43     5.94586    31.41837    23.00843
    72  N   5.0   -0.17    3.22    1.96     2.68108    32.33466    29.53423
    73  C   4.0    0.04    4.24    4.08     5.25849    32.94997    30.22836
    74  C   4.0    0.10    3.25    3.04     5.55112    32.97811    33.11052
    75  O   6.0   -0.26    1.13    1.80     4.19336    34.26271    34.45646
    76  C   4.0   -0.02    4.35    4.28     5.95681    35.57545    29.22380
    77  C   4.0   -0.02    3.59    3.16     8.54398    36.30561    30.13245
    78  C   4.0   -0.03    3.46    3.10     8.88936    38.09171    32.02545
    79  C   4.0   -0.05    3.48    3.10    10.65839    35.11956    29.11929
    80  C   4.0   -0.04    3.42    3.09    11.28313    38.70993    32.87993
    81  C   4.0   -0.03    3.44    3.09    13.05478    35.73472    29.93442
    82  C   4.0    0.07    3.45    3.10    13.38224    37.53414    31.82735
    83  O   6.0   -0.23    2.11    1.84    15.78230    38.13963    32.51703
    84  H   1.0    0.13    1.07    1.44     1.74348    33.63026    28.46839
    85  H   1.0    0.04    1.05    1.44     6.53555    31.51827    29.43660
    86  H   1.0    0.05    1.03    1.43     5.90313    35.51058    27.16264
    87  H   1.0    0.07    1.03    1.43     4.54481    36.92074    29.88854
    88  H   1.0    0.06    1.03    1.43     7.25951    38.99784    32.85226
    89  H   1.0    0.05    1.03    1.43    10.44075    33.71517    27.65593
    90  H   1.0    0.06    1.03    1.43    11.55272    40.08351    34.36342
    91  H   1.0    0.07    1.03    1.43    14.68382    34.81056    29.13958
    92  H   1.0    0.12    1.01    1.43    15.74818    39.44792    33.88459
    93  N   5.0   -0.14    3.46    2.05    18.31644    45.19154    36.92053
    94  C   4.0    0.02    4.47    4.49    16.11660    46.84163    36.73618
    95  C   4.0    0.15    3.42    3.08    15.36228    47.10777    33.95560
    96  O   6.0   -0.32    1.33    1.80    16.92481    46.86267    32.25436
    97  C   4.0   -0.04    4.33    4.25    17.01008    49.36135    37.85342
    98  C   4.0   -0.03    4.26    4.13    19.86413    49.30468    37.42448
    99  C   4.0    0.00    4.26    4.12    20.54376    46.52587    37.81703
   100  H   1.0    0.04    1.05    1.44    14.53737    46.00459    37.77611
   101  H   1.0    0.05    1.02    1.43    16.11393    50.96680    36.93073
   102  H   1.0    0.05    1.02    1.43    16.58561    49.41099    39.86580
   103  H   1.0    0.06    1.03    1.43    20.28396    49.86162    35.48790
   104  H   1.0    0.05    1.02    1.43    20.86382    50.53956    38.72433
   105  H   1.0    0.06    1.02    1.43    22.21962    45.96268    36.75791
   106  H   1.0    0.05    1.02    1.43    20.82219    46.09089    39.82115
   107  N   5.0   -0.14    3.44    2.04    12.91660    47.59641    33.52251
   108  C   4.0    0.04    4.44    4.45    11.99722    48.14268    30.99541
   109  C   4.0    0.16    3.44    3.09    12.98991    50.71814    30.09505
   110  O   6.0   -0.29    1.23    1.80    12.59684    52.63842    31.32501
   111  C   4.0   -0.04    4.34    4.27     9.09922    48.20326    31.02486
   112  C   4.0   -0.02    3.58    3.15     8.08728    48.33411    28.37102
   113  C   4.0   -0.04    3.46    3.10     7.46268    46.13685    27.08012
   114  C   4.0   -0.02    3.47    3.10     7.81707    50.65013    27.16148
   115  C   4.0   -0.04    3.38    3.07     6.58691    46.25153    24.62037
   116  C   4.0   -0.02    3.37    3.07     6.95122    50.76983    24.69882
   117  C   4.0   -0.04    3.38    3.07     6.33974    48.56657    23.42581
   118  H   1.0    0.08    1.07    1.44    11.85266    48.24025    34.97021
   119  H   1.0    0.06    1.07    1.44    12.67695    46.67587    29.71783
   120  H   1.0    0.04    1.03    1.43     8.41922    46.48638    31.93959
   121  H   1.0    0.05    1.03    1.43     8.51075    49.87995    32.07687
   122  H   1.0    0.05    1.03    1.43     7.65337    44.32455    27.99742
   123  H   1.0    0.07    1.03    1.43     8.28822    52.37443    28.15164
   124  H   1.0    0.07    1.04    1.43     6.12295    44.53120    23.62886
   125  H   1.0    0.07    1.03    1.43     6.74630    52.58148    23.78090
   126  H   1.0    0.05    1.03    1.43     5.68349    48.65867    21.49574
   127  N   5.0   -0.13    3.43    2.04    14.24909    50.66446    27.90592
   128  C   4.0    0.04    4.43    4.42    14.86494    52.95632    26.53506
   129  C   4.0    0.14    3.47    3.10    15.79524    52.27855    23.90215
   130  O   6.0   -0.30    1.26    1.80    17.34101    50.59917    23.55083
   131  C   4.0   -0.03    4.27    4.13    16.97289    54.52467    27.79887
   132  C   4.0   -0.03    4.20    4.01    17.61627    56.85543    26.22567
   133  C   4.0    0.25    3.10    3.02    19.24368    58.77540    27.75267
   134  O   6.0   -0.30    1.26    1.80    21.55814    58.85989    27.25866
   135  O   6.0   -0.28    1.17    1.80    18.12968    60.08732    29.34418
   136  H   1.0    0.11    1.08    1.44    14.56953    48.99861    27.00448
   137  H   1.0    0.07    1.07    1.44    13.16268    54.12828    26.42155
   138  H   1.0    0.07    1.03    1.43    16.33212    55.11597    29.66871
   139  H   1.0    0.06    1.03    1.43    18.64965    53.34367    28.01404
   140  H   1.0    0.06    1.03    1.43    18.63247    56.31093    24.51708
   141  H   1.0    0.06    1.03    1.43    15.87604    57.82890    25.68871
   142  N   5.0   -0.14    3.50    2.08    14.86499    53.72770    22.05593
   143  C   4.0    0.03    4.50    4.53    15.79697    53.65713    19.48225
   144  C   4.0    0.14    3.43    3.09    16.81829    56.27239    18.79324
   145  O   6.0   -0.32    1.30    1.80    15.70301    58.19262    19.47106
   146  C   4.0   -0.02    4.26    4.12    13.66446    52.88683    17.65164
   147  C   4.0   -0.07    4.12    3.83    14.67710    52.72717    14.95941
   148  C   4.0   -0.07    4.12    3.84    12.50784    50.38673    18.50933
   149  H   1.0    0.10    1.08    1.44    13.57680    55.07493    22.49306
   150  H   1.0    0.05    1.06    1.44    17.32601    52.26770    19.41977
   151  H   1.0    0.04    1.05    1.44    12.20622    54.35207    17.74022
   152  H   1.0    0.04    1.00    1.43    13.22664    52.01001    13.69576
   153  H   1.0    0.05    1.00    1.43    15.26178    54.58017    14.29755
   154  H   1.0    0.05    1.00    1.43    16.30004    51.47244    14.87149
   155  H   1.0    0.03    1.00    1.43    11.19871    49.68359    17.09332
   156  H   1.0    0.05    1.00    1.43    13.98193    48.98971    18.81910
   157  H   1.0    0.05    1.00    1.43    11.48581    50.62567    20.27748
   158  N   5.0   -0.14    3.45    2.05    18.94794    56.31624    17.43271
   159  C   4.0    0.04    4.32    4.24    20.09433    58.67280    16.64547
   160  C   4.0    0.08    3.20    3.04    20.45387    58.75066    13.78192
   161  O   6.0   -0.27    1.12    1.80    21.16389    56.89870    12.57445
   162  C   4.0   -0.04    4.26    4.12    22.67062    59.06040    17.93060
   163  C   4.0   -0.04    4.19    3.98    22.33174    59.47324    20.76780
   164  C   4.0    0.00    4.21    4.02    24.82753    59.76648    22.20134
   165  N   5.0   -0.13    3.40    2.02    26.42192    57.54618    22.02098
   166  C   4.0    0.11    3.35    3.07    25.90220    55.35111    23.13179
   167  N   5.0   -0.17    3.28    1.98    24.05165    55.10585    24.78029
   168  N   5.0   -0.17    3.24    1.97    27.36989    53.34250    22.61808
   169  H   1.0    0.09    1.06    1.44    19.78178    54.67903    16.87939
   170  H   1.0    0.06    1.07    1.44    18.81443    60.19321    17.21453
   171  H   1.0    0.06    1.03    1.43    23.82606    57.39042    17.56816
   172  H   1.0    0.05    1.03    1.43    23.60351    60.68395    17.06292
   173  H   1.0    0.06    1.03    1.43    21.19638    61.16335    21.08876
   174  H   1.0    0.06    1.03    1.43    21.29654    57.87520    21.54971
   175  H   1.0    0.05    1.03    1.43    25.90370    61.33900    21.42654
   176  H   1.0    0.07    1.03    1.43    24.38746    60.14818    24.18084
   177  H   1.0    0.09    1.06    1.44    27.85853    57.63572    20.76105
   178  H   1.0    0.12    1.09    1.44    23.09970    56.62735    25.57538
   179  H   1.0    0.13    1.08    1.44    23.81238    53.37521    25.57438
   180  H   1.0    0.10    1.03    1.43    28.61292    53.36039    21.18163
   181  H   1.0    0.11    1.03    1.43    26.93797    51.66613    23.41272
   182  N   5.0   -0.19    3.23    1.96    15.16372    66.38495    18.68316
   183  C   4.0    0.04    4.39    4.36    15.05535    64.41953    20.57842
   184  C   4.0    0.14    3.47    3.10    12.27806    63.78083    21.02577
   185  O   6.0   -0.29    1.24    1.80    10.64850    65.42625    20.99665
   186  C   4.0    0.06    4.22    4.04    16.33336    65.26221    23.07748
   187  O   6.0   -0.25    2.12    1.84    18.88905    64.54760    22.85945
   188  C   4.0   -0.05    4.11    3.82    15.10592    64.09572    25.41481
   189  H   1.0    0.11    1.03    1.43    13.91212    67.80513    18.94907
   190  H   1.0    0.06    1.06    1.44    16.08187    62.76948    19.88053
   191  H   1.0    0.05    1.04    1.43    16.19299    67.33716    23.20784
   192  H   1.0    0.13    1.03    1.43    19.76972    65.02379    24.38123
   193  H   1.0    0.07    1.00    1.43    16.16743    64.61552    27.09658
   194  H   1.0    0.06    1.00    1.43    13.17186    64.74117    25.64635
   195  H   1.0    0.06    1.00    1.43    15.13440    62.04589    25.29449
   196  N   5.0   -0.15    3.49    2.07    11.83835    61.33762    21.43774
   197  C   4.0    0.04    4.42    4.42     9.34311    60.32881    21.91455
   198  C   4.0    0.15    3.40    3.08     9.37928    58.83093    24.39367
   199  O   6.0   -0.32    1.25    1.80    10.58002    56.86840    24.59530
   200  C   4.0   -0.04    4.38    4.35     8.55405    58.53915    19.78877
   201  C   4.0   -0.02    4.19    3.98     8.56565    59.76809    17.17092
   202  C   4.0   -0.08    4.12    3.83     8.09065    57.71936    15.20539
   203  C   4.0   -0.06    4.11    3.82     6.56619    61.83754    16.98055
   204  H   1.0    0.11    1.10    1.44    13.24630    60.06100    21.16357
   205  H   1.0    0.06    1.06    1.44     8.05526    61.93505    22.05536
   206  H   1.0    0.05    1.03    1.43     9.86417    56.94605    19.81295
   207  H   1.0    0.06    1.04    1.43     6.66681    57.82312    20.21496
   208  H   1.0    0.05    1.05    1.44    10.43050    60.59983    16.82575
   209  H   1.0    0.04    1.00    1.43     8.02832    58.52652    13.32470
   210  H   1.0    0.04    1.00    1.43     9.59102    56.32102    15.26695
   211  H   1.0    0.04    1.00    1.43     6.30105    56.78573    15.58541
   212  H   1.0    0.06    1.00    1.43     6.31352    62.40787    15.02459
   213  H   1.0    0.05    1.00    1.43     4.77132    61.12771    17.68083
   214  H   1.0    0.06    1.00    1.43     7.11125    63.47965    18.08762
   215  N   5.0   -0.14    3.49    2.07     7.94229    59.81477    26.23885
   216  C   4.0    0.04    4.42    4.42     7.84708    58.85397    28.79917
   217  C   4.0    0.15    3.44    3.09     5.33832    57.54972    29.38092
   218  O   6.0   -0.30    1.24    1.80     5.08204    56.15017    31.19066
   219  C   4.0    0.06    4.24    4.08     8.19761    61.11973    30.65056
   220  O   6.0   -0.24    2.12    1.84    10.32611    62.55507    29.94509
   221  C   4.0   -0.06    4.07    3.75     8.31619    60.29210    33.40072
   222  H   1.0    0.08    1.08    1.44     7.34999    61.61660    26.02140
   223  H   1.0    0.07    1.05    1.44     9.38877    57.49453    29.05782
   224  H   1.0    0.05    1.04    1.43     6.59599    62.40950    30.36999
   225  H   1.0    0.13    1.03    1.43    11.84625    61.71047    30.49733
   226  H   1.0    0.06    1.00    1.43     8.60370    61.94612    34.58437
   227  H   1.0    0.06    1.01    1.43     6.57646    59.35606    33.94146
   228  H   1.0    0.06    1.00    1.43     9.88470    58.99120    33.67661
   229  N   5.0   -0.14    3.48    2.07     3.36327    58.29569    27.94121
   230  C   4.0    0.04    4.45    4.47     0.89732    57.22088    28.48887
   231  C   4.0    0.17    3.42    3.09     0.84811    54.46159    27.56170
   232  O   6.0   -0.28    1.23    1.80     1.46782    53.89463    25.42432
   233  C   4.0   -0.03    4.30    4.19    -1.17217    58.78877    27.19747
   234  C   4.0    0.15    3.23    3.04    -3.72652    58.18178    28.33892
   235  O   6.0   -0.33    1.33    1.80    -4.61578    56.02928    28.29434
   236  N   5.0   -0.19    3.18    1.95    -4.96091    60.08553    29.40871
   237  H   1.0    0.10    1.08    1.44     3.68876    58.77614    26.11847
   238  H   1.0    0.06    1.06    1.44     0.69679    57.28200    30.54804
   239  H   1.0    0.05    1.03    1.43    -0.72686    60.78819    27.39420
   240  H   1.0    0.07    1.03    1.43    -1.17920    58.28733    25.19281
   241  H   1.0    0.10    1.03    1.43    -6.60585    59.73717    30.31514
   242  H   1.0    0.09    1.03    1.43    -4.21503    61.83283    29.53654
   243  N   5.0   -0.14    3.50    2.08     0.07102    52.78400    29.30469
   244  C   4.0    0.03    4.40    4.38     0.11370    50.08945    28.86389
   245  C   4.0    0.15    3.38    3.07    -2.54342    48.95320    28.56608
   246  O   6.0   -0.29    1.23    1.80    -2.87271    46.67154    28.55170
   247  C   4.0   -0.04    4.26    4.11     1.68518    48.68548    30.85731
   248  C   4.0   -0.04    4.20    4.00     1.13487    49.51476    33.56945
   249  C   4.0   -0.05    4.17    3.94     2.72955    47.99998    35.44664
   250  C   4.0   -0.03    4.12    3.85     2.28550    48.94457    38.13572
   251  N   5.0   -0.12    4.01    2.89     3.96188    47.59674    39.95594
   252  H   1.0    0.08    1.07    1.44    -0.31596    53.36726    31.07735
   253  H   1.0    0.06    1.07    1.44     1.01296    49.81774    27.01203
   254  H   1.0    0.06    1.03    1.43     1.27606    46.67902    30.62373
   255  H   1.0    0.05    1.03    1.43     3.67580    49.00010    30.42954
   256  H   1.0    0.05    1.03    1.43     1.62705    51.50534    33.78459
   257  H   1.0    0.05    1.02    1.43    -0.86892    49.25357    33.97277
   258  H   1.0    0.05    1.03    1.43     2.23881    46.00598    35.28592
   259  H   1.0    0.04    1.03    1.43     4.70977    48.23600    34.92618
   260  H   1.0    0.05    1.02    1.43     2.68613    50.96477    38.23714
   261  H   1.0    0.05    1.02    1.43     0.32375    48.62136    38.67225
   262  H   1.0    0.07    1.02    1.43     3.60334    48.17488    41.77997
   263  H   1.0    0.06    1.02    1.43     3.66752    45.67472    39.83401
   264  H   1.0    0.06    1.02    1.43     5.82761    47.96531    39.54107
   265  N   5.0   -0.14    3.48    2.06    -4.41108    50.65435    28.31568
   266  C   4.0    0.04    4.36    4.31    -6.99685    49.92791    27.80272
   267  C   4.0    0.16    3.40    3.08    -7.93995    50.69952    25.17115
   268  O   6.0   -0.28    1.22    1.80    -9.09472    49.20398    23.84016
   269  C   4.0    0.04    4.14    3.87    -8.79477    50.95951    29.85912
   270  O   6.0   -0.26    2.07    1.84    -9.15523    53.58470    29.81607
   271  H   1.0    0.11    1.12    1.45    -3.95061    52.51468    28.21396
   272  H   1.0    0.07    1.07    1.44    -7.06100    47.85969    27.87253
   273  H   1.0    0.06    1.02    1.43   -10.65276    50.10650    29.57909
   274  H   1.0    0.05    1.01    1.43    -8.04813    50.34924    31.69430
   275  H   1.0    0.15    1.05    1.44    -7.52079    54.43683    29.72871
   276  N   5.0   -0.13    3.48    2.06    -7.64562    53.15274    24.56109
   277  C   4.0    0.04    4.43    4.43    -8.48392    54.03399    22.10282
   278  C   4.0    0.16    3.46    3.10    -6.67638    53.12882    20.02968
   279  O   6.0   -0.29    1.23    1.80    -4.39649    53.01502    20.36558
   280  C   4.0   -0.04    4.26    4.13    -8.59231    56.93462    21.92711
   281  C   4.0   -0.05    4.16    3.92   -10.98062    58.08708    23.08345
   282  C   4.0   -0.04    4.19    3.99   -10.94943    57.90031    25.96545
   283  C   4.0   -0.03    4.11    3.83   -13.55103    58.25683    27.15003
   284  N   5.0   -0.11    4.02    2.91   -13.43370    57.46457    29.85551
   285  H   1.0    0.11    1.09    1.44    -6.32336    54.20731    25.46306
   286  H   1.0    0.06    1.06    1.44   -10.34707    53.19967    21.76966
   287  H   1.0    0.05    1.03    1.43    -6.90292    57.70554    22.82446
   288  H   1.0    0.06    1.03    1.43    -8.51274    57.43456    19.92544
   289  H   1.0    0.04    1.03    1.43   -11.10758    60.05485    22.48982
   290  H   1.0    0.05    1.03    1.43   -12.61831    57.10304    22.31418
   291  H   1.0    0.06    1.06    1.44   -10.28379    56.01696    26.45628
   292  H   1.0    0.05    1.03    1.43    -9.62451    59.29414    26.69720
   293  H   1.0    0.05    1.02    1.43   -14.18084    60.21366    27.02222
   294  H   1.0    0.05    1.02    1.43   -14.91352    57.06753    26.16469
   295  H   1.0    0.07    1.02    1.43   -15.21395    57.13040    30.55885
   296  H   1.0    0.08    1.04    1.43   -12.35394    55.82448    30.00687
   297  H   1.0    0.06    1.02    1.43   -12.59492    58.84158    30.94034
   298  N   5.0   -0.14    3.49    2.07    -7.81083    52.55606    17.82301
   299  C   4.0    0.03    4.52    4.57    -6.37202    52.60298    15.48371
   300  C   4.0    0.15    3.48    3.11    -5.71645    55.39032    15.03774
   301  O   6.0   -0.29    1.25    1.80    -7.29653    57.04808    15.37025
   302  C   4.0   -0.02    4.33    4.25    -7.90047    51.48455    13.28876
   303  C   4.0   -0.04    4.19    3.99    -8.48839    48.70304    13.83031
   304  C   4.0   -0.06    4.14    3.88    -6.41571    51.81505    10.84085
   305  C   4.0   -0.06    4.01    3.64   -10.14229    47.46794    11.82337
   306  H   1.0    0.08    1.07    1.44    -9.66556    52.96352    17.62449
   307  H   1.0    0.06    1.06    1.44    -4.62792    51.53447    15.76461
   308  H   1.0    0.06    1.05    1.44    -9.67790    52.53657    13.13301
   309  H   1.0    0.04    1.03    1.43    -6.71547    47.65899    13.96269
   310  H   1.0    0.05    1.03    1.43    -9.42801    48.56775    15.66221
   311  H   1.0    0.05    1.00    1.43    -7.37824    50.90883     9.27202
   312  H   1.0    0.06    1.00    1.43    -6.19362    53.81219    10.40261
   313  H   1.0    0.06    1.00    1.43    -4.55244    50.96377    11.02455
   314  H   1.0    0.06    1.00    1.43   -10.77977    45.62885    12.47871
   315  H   1.0    0.05    1.00    1.43   -11.79125    48.62588    11.42028
   316  H   1.0    0.06    1.00    1.43    -9.10076    47.16070    10.07997
   317  N   5.0   -0.13    3.47    2.06    -3.30682    55.87694    14.45541
   318  C   4.0    0.04    4.42    4.41    -2.38705    58.43909    14.21403
   319  C   4.0    0.15    3.41    3.08    -1.28590    58.84469    11.57421
   320  O   6.0   -0.32    1.30    1.80    -0.18738    57.13539    10.46759
   321  C   4.0   -0.04    4.28    4.15    -0.29708    58.99029    16.15836
   322  C   4.0   -0.03    4.21    4.03    -1.22911    58.68860    18.88580
   323  C   4.0    0.15    3.22    3.04     0.86540    59.47392    20.68768
   324  O   6.0   -0.29    1.20    1.80     2.53798    58.06810    21.41922
   325  N   5.0   -0.19    3.18    1.95     0.72374    61.89625    21.48352
   326  H   1.0    0.11    1.08    1.44    -2.07449    54.43513    14.19593
   327  H   1.0    0.06    1.07    1.44    -4.02325    59.66847    14.51688
   328  H   1.0    0.05    1.03    1.43     1.26705    57.68505    15.82854
   329  H   1.0    0.05    1.03    1.43     0.39595    60.90777    15.83758
   330  H   1.0    0.05    1.03    1.43    -2.89844    59.86047    19.17492
   331  H   1.0    0.07    1.03    1.43    -1.71853    56.71403    19.23277
   332  H   1.0    0.09    1.03    1.43    -0.47124    63.12918    20.66779
   333  H   1.0    0.09    1.03    1.43     2.20210    62.61801    22.44659
   334  N   5.0   -0.12    3.46    2.05    -1.54529    61.16839    10.61759
   335  C   4.0    0.04    4.43    4.43    -0.45542    61.89682     8.22085
   336  C   4.0    0.15    3.42    3.08     2.28059    62.79146     8.58847
   337  O   6.0   -0.29    1.23    1.80     2.97745    63.82889    10.54239
   338  C   4.0   -0.03    4.31    4.22    -1.91530    64.06139     6.96447
   339  C   4.0    0.16    3.21    3.04    -4.50754    63.21073     6.03916
   340  O   6.0   -0.27    1.21    1.80    -6.00933    62.13212     7.42039
   341  N   5.0   -0.17    3.18    1.95    -5.00941    63.72655     3.61689
   342  H   1.0    0.09    1.07    1.44    -2.48087    62.50563    11.59874
   343  H   1.0    0.05    1.06    1.44    -0.45903    60.23771     6.98648
   344  H   1.0    0.06    1.03    1.43    -2.18319    65.57771     8.33956
   345  H   1.0    0.05    1.03    1.43    -0.81073    64.78282     5.38452
   346  H   1.0    0.11    1.03    1.43    -6.75801    63.34647     2.94620
   347  H   1.0    0.10    1.02    1.43    -3.83044    64.64352     2.43818
   348  N   5.0   -0.14    3.50    2.08     3.75796    62.39497     6.59338
   349  C   4.0    0.04    4.40    4.37     6.34498    63.24306     6.47838
   350  C   4.0    0.09    3.25    3.04     6.69664    64.99198     4.21406
   351  O   6.0   -0.26    1.14    1.80     5.35171    64.85071     2.34032
   352  C   4.0   -0.02    4.25    4.10     8.25347    61.02942     6.32710
   353  C   4.0   -0.07    4.14    3.88     7.42009    58.91921     8.10432
   354  C   4.0   -0.06    4.14    3.87     8.55112    60.00301     3.65359
   355  H   1.0    0.09    1.06    1.44     3.05175    61.49155     5.05527
   356  H   1.0    0.06    1.07    1.44     6.72474    64.29158     8.21307
   357  H   1.0    0.04    1.05    1.44    10.06685    61.78409     6.97027
   358  H   1.0    0.04    1.00    1.43     8.95281    57.58202     8.37793
   359  H   1.0    0.05    1.00    1.43     6.87383    59.70453     9.92049
   360  H   1.0    0.05    1.00    1.43     5.80106    57.91654     7.33047
   361  H   1.0    0.05    1.00    1.43     9.78966    58.36675     3.67342
   362  H   1.0    0.06    1.00    1.43     6.72690    59.43751     2.91017
   363  H   1.0    0.06    1.00    1.43     9.35559    61.40754     2.38896
   364  N   5.0   -0.20    3.19    1.95    20.42445    46.06913    22.13801
   365  C   4.0    0.05    4.23    4.07    21.93915    45.44400    24.34476
   366  C   4.0    0.09    3.20    3.04    22.38697    42.59770    24.54323
   367  O   6.0   -0.25    1.12    1.80    24.45393    41.72169    25.04753
   368  C   4.0   -0.02    4.31    4.21    20.74429    46.44759    26.77575
   369  C   4.0    0.17    3.22    3.04    21.99172    48.87939    27.66809
   370  O   6.0   -0.30    1.27    1.80    23.59121    50.00410    26.43985
   371  N   5.0   -0.18    3.19    1.95    21.22390    49.64748    29.94957
   372  H   1.0    0.12    1.05    1.44    19.20111    47.53232    22.32692
   373  H   1.0    0.08    1.06    1.44    23.82750    46.28875    24.12224
   374  H   1.0    0.07    1.03    1.43    18.74095    46.82196    26.46010
   375  H   1.0    0.06    1.03    1.43    20.90182    45.04342    28.27575
   376  H   1.0    0.10    1.03    1.43    21.88285    51.28951    30.66028
   377  H   1.0    0.11    1.06    1.44    19.80741    48.73833    30.85774
   378  N   5.0   -0.21    3.26    1.97    11.81638    36.66699    22.29259
   379  C   4.0    0.02    4.33    4.26    10.19385    38.67092    23.19974
   380  C   4.0    0.14    3.40    3.08     8.09685    39.34328    21.32938
   381  O   6.0   -0.33    1.28    1.80     6.31426    40.65464    21.99784
   382  C   4.0   -0.04    4.29    4.18    11.73129    41.06515    23.72491
   383  C   4.0   -0.04    4.25    4.10    13.33310    40.72450    26.08621
   384  C   4.0    0.15    3.21    3.04    14.66615    43.10449    26.95664
   385  O   6.0   -0.31    1.23    1.80    14.47342    45.16327    25.91421
   386  N   5.0   -0.19    3.21    1.96    16.08798    42.77353    29.02359
   387  H   1.0    0.09    1.03    1.43    13.57329    37.14081    21.69540
   388  H   1.0    0.04    1.05    1.44     9.27242    38.03952    24.94884
   389  H   1.0    0.05    1.03    1.43    12.95327    41.46258    22.10985
   390  H   1.0    0.06    1.03    1.43    10.45100    42.65862    23.99127
   391  H   1.0    0.04    1.04    1.43    12.13425    40.09946    27.64743
   392  H   1.0    0.05    1.03    1.43    14.73553    39.25012    25.76500
   393  H   1.0    0.10    1.05    1.44    16.09429    41.11368    29.95983
   394  H   1.0    0.12    1.07    1.44    16.74882    44.31188    29.96668
   395  N   5.0   -0.14    3.52    2.09     8.41239    38.49852    18.97993
   396  C   4.0    0.03    4.49    4.52     7.05023    39.40818    16.79261
   397  C   4.0    0.14    3.44    3.09     5.97673    37.19191    15.29495
   398  O   6.0   -0.29    1.23    1.80     7.10779    35.18757    15.04899
   399  C   4.0   -0.02    4.28    4.16     8.95179    40.93072    15.16989
   400  C   4.0   -0.06    4.13    3.87     8.01612    41.36645    12.49031
   401  C   4.0   -0.07    4.12    3.84     9.49863    43.45165    16.45112
   402  H   1.0    0.09    1.09    1.44     9.86260    37.32058    18.58339
   403  H   1.0    0.06    1.06    1.44     5.50538    40.61927    17.43322
   404  H   1.0    0.05    1.06    1.44    10.69654    39.81837    15.07520
   405  H   1.0    0.05    1.00    1.43     9.42371    42.45231    11.46149
   406  H   1.0    0.06    1.00    1.43     7.73631    39.58258    11.51372
   407  H   1.0    0.05    1.00    1.43     6.24213    42.40143    12.50628
   408  H   1.0    0.04    1.00    1.43    10.88933    44.49453    15.36145
   409  H   1.0    0.04    1.00    1.43     7.77466    44.56120    16.57917
   410  H   1.0    0.05    1.00    1.43    10.22690    43.17587    18.35150
   411  N   5.0   -0.14    3.49    2.07     3.73634    37.66431    14.22071
   412  C   4.0    0.04    4.32    4.24     2.55854    35.87117    12.51524
   413  C   4.0    0.08    3.22    3.04     3.46054    36.51102     9.84471
   414  O   6.0   -0.30    1.17    1.80     2.50763    38.19267     8.55491
   415  C   4.0   -0.04    4.35    4.30    -0.32274    35.97921    12.66794
   416  C   4.0   -0.02    4.19    3.97    -1.34811    35.25464    15.27387
   417  C   4.0   -0.06    4.11    3.81    -4.16263    35.87229    15.40582
   418  C   4.0   -0.06    4.10    3.80    -0.91090    32.46490    15.87521
   419  H   1.0    0.11    1.11    1.44     2.84288    39.33986    14.49883
   420  H   1.0    0.06    1.06    1.44     3.25585    33.99302    13.03466
   421  H   1.0    0.06    1.03    1.43    -0.92291    37.90212    12.22599
   422  H   1.0    0.05    1.03    1.43    -1.11738    34.71686    11.24192
   423  H   1.0    0.06    1.06    1.44    -0.36332    36.42295    16.66408
   424  H   1.0    0.06    1.00    1.43    -4.95411    35.21956    17.18430
   425  H   1.0    0.06    1.00    1.43    -4.45558    37.90186    15.29122
   426  H   1.0    0.05    1.00    1.43    -5.18116    34.96270    13.87031
   427  H   1.0    0.06    1.00    1.43    -1.62978    32.01524    17.74785
   428  H   1.0    0.05    1.00    1.43    -1.88959    31.28016    14.51093
   429  H   1.0    0.05    1.00    1.43     1.08712    31.98972    15.85497
   430  N   5.0   -0.19    3.19    1.95    -0.29555    37.50179     3.95472
   431  C   4.0    0.04    4.21    4.02    -1.86085    39.74539     3.74662
   432  C   4.0    0.10    3.20    3.04    -0.44062    42.18721     4.41990
   433  O   6.0   -0.27    1.19    1.80    -1.58058    44.05560     5.12982
   434  C   4.0   -0.02    4.31    4.22    -4.21122    39.45183     5.43112
   435  C   4.0    0.18    3.27    3.05    -5.90054    41.78683     5.55040
   436  O   6.0   -0.28    1.20    1.80    -6.55383    42.68811     7.56399
   437  N   5.0   -0.16    3.19    1.95    -6.81857    42.59701     3.32015
   438  H   1.0    0.12    1.06    1.44     0.80542    37.41305     5.52934
   439  H   1.0    0.06    1.05    1.44    -2.43602    39.87933     1.75798
   440  H   1.0    0.05    1.03    1.43    -5.33261    37.87258     4.72237
   441  H   1.0    0.06    1.03    1.43    -3.60924    39.04369     7.36128
   442  H   1.0    0.13    1.03    1.43    -7.62514    44.32509     3.30113
   443  H   1.0    0.10    1.03    1.43    -6.12735    41.93150     1.68221
   444  N   5.0   -0.18    3.22    1.96   -23.36512    57.94680    15.12417
   445  C   4.0    0.03    4.22    4.03   -22.47743    60.52744    15.42649
   446  C   4.0    0.09    3.22    3.04   -19.76280    60.66457    14.39087
   447  O   6.0   -0.28    1.13    1.80   -18.14675    59.16711    15.09672
   448  C   4.0   -0.04    4.33    4.25   -22.48613    61.26570    18.22158
   449  C   4.0   -0.03    4.05    3.71   -21.75220    64.03756    18.61479
   450  S   6.0   -0.01    2.48    3.10   -19.28891    64.43258    20.95193
   451  C   4.0   -0.05    3.88    3.43   -16.49488    63.37014    19.25332
   452  H   1.0    0.10    1.03    1.43   -23.37379    56.81139    16.65516
   453  H   1.0    0.05    1.05    1.44   -23.71565    61.77495    14.33130
   454  H   1.0    0.05    1.03    1.43   -24.36621    60.91113    18.98422
   455  H   1.0    0.06    1.05    1.44   -21.14345    60.03763    19.19938
   456  H   1.0    0.05    1.07    1.44   -21.08892    64.89797    16.86766
   457  H   1.0    0.06    1.08    1.44   -23.32561    65.16025    19.31771
   458  H   1.0    0.05    1.05    1.44   -14.93763    63.46893    20.57775
   459  H   1.0    0.06    1.04    1.43   -16.74573    61.44792    18.58556
   460  H   1.0    0.06    1.04    1.43   -16.14159    64.62042    17.66363
   461  H   1.0    0.10    1.08    1.44     0.69603    55.17219     2.04292
   462  H   1.0    0.07    1.04    1.44    -2.55165    35.89438    24.73048
   463  H   1.0    0.11    1.07    1.44     2.66503    30.89398    28.63050
   464  H   1.0    0.07    1.05    1.44     6.88443    31.92301    33.93521
   465  H   1.0    0.09    1.12    1.45    17.93261    43.83840    37.87670
   466  H   1.0    0.06    1.05    1.44    20.10857    60.34577    12.82931
   467  H   1.0    0.11    1.08    1.44    16.71419    67.08393    18.67814
   468  H   1.0    0.07    1.05    1.44     8.05860    66.30183     4.23441
   469  H   1.0    0.11    1.07    1.44    21.44881    46.48467    20.84549
   470  H   1.0    0.06    1.05    1.44    20.95875    41.39418    24.25551
   471  H   1.0    0.10    1.07    1.44    12.06077    35.52909    23.53275
   472  H   1.0    0.07    1.05    1.44     4.88790    35.54305     9.07222
   473  H   1.0    0.10    1.08    1.44    -1.28557    36.11909     3.97904
   474  H   1.0    0.07    1.05    1.44     1.44250    42.25493     4.27732
   475  H   1.0    0.10    1.07    1.44   -24.97651    57.96076    14.58029
   476  H   1.0    0.06    1.04    1.43   -19.30029    61.98905    13.12482

  Z AO/shell   Hii/eV     exponent
  1     Wed Apr 25 08:07:45 CEST 2018   EN: 2.200 GM2: 0.406  GM3: 0.0800  RAES: 1.40
     1s    -10.707211    1.230000
  6     Wed Apr 25 08:07:45 CEST 2018   EN: 2.550 GM2: 0.538  GM3: 0.1500  RAES: 3.00
     2s    -13.970922    2.096432
     2p    -10.063292    1.800000
  7     Wed Apr 25 08:07:45 CEST 2018   EN: 3.040 GM2: 0.461  GM3:-0.0640  RAES: 1.90
     2s    -16.686243    2.339881
     2p    -12.523956    2.014332
  8     Wed Apr 25 08:07:45 CEST 2018   EN: 3.440 GM2: 0.452  GM3:-0.0517  RAES: 1.80
     2s    -20.229985    2.439742
     2p    -15.503117    2.137023
 16     Tue Apr 24 11:44:34 CEST 2018   EN: 2.580 GM2: 0.340  GM3:-0.0502  RAES: 3.10
     3s    -20.029654    1.981333
     3p    -11.377694    2.025643
     3d     -0.420282    1.702555
 no old-style atom pair restraining (fixing) potential

molecular fragmentation (1/2 indicates fragments):
111111111111111111111111111111111111111111111111111111111111111111111112
222222222222222222222222222222222222222222222222222222222222222222222222
222222222222222222222222222222222222222222222222222222222222222222222222
222222222222222222222222222222222222222222222222222222222222222222222222
222222222222222222222222222222222222222222222222222222222222222222222222
222222222222222222222222222222222222222222222222222222222222222222222222
22222222222222222222222222221122222222222222
# atoms in fragment 1/2:    73   403
 fragment masses (1/2) :      511.58     2735.27
CMA distance (Bohr)    :  10.792
constraining FC (au)   :  0.0500
           ------------------------------------------------- 
          |        Self-Consistent Charge Iterations        |
           ------------------------------------------------- 

 Ncao       : 1163
 Nao        : 1162
 Nshell     : 704
 Nel        : 1282
 T(el)      :   500.0
 intcut     :    35.0
 scfconv/Eh :  0.100E-06
   qconv/e  :  0.100E-04
 intneglect :  0.100E-08
 broydamp   :      0.400
 iter      E             dE          RMSdq      gap      omega  full diag
   1   -733.8174233 -0.733817E+03  0.466E+00    3.00       0.0  T
   2   -735.6169653 -0.179954E+01  0.216E+00    1.51       1.0  T
   3   -735.7280942 -0.111129E+00  0.123E+00    1.75       1.0  T
   4   -735.8367425 -0.108648E+00  0.250E-01    1.29       1.0  T
   5   -735.8429427 -0.620017E-02  0.118E-01    1.46       1.0  T
   6   -735.8441157 -0.117303E-02  0.503E-02    1.41       1.0  T
   7   -735.8443885 -0.272788E-03  0.216E-02    1.42       1.0  T
   8   -735.8444169 -0.284253E-04  0.109E-02    1.41       1.0  T
   9   -735.8444324 -0.154661E-04  0.466E-03    1.41       1.0  T
  10   -735.8444347 -0.234172E-05  0.218E-03    1.41       2.1  T
  11   -735.8444351 -0.419117E-06  0.104E-03    1.41       4.4  T
  12   -735.8444352 -0.843014E-07  0.483E-04    1.41       9.5  T
  13   -735.8444352 -0.323585E-07  0.241E-04    1.41      19.0  T
  14   -735.8444353 -0.416367E-08  0.110E-04    1.41      41.6  T
  15   -735.8444353 -0.143552E-08  0.422E-05    1.41     108.5  T
  16   -735.8444353 -0.193381E-09  0.184E-05    1.41     249.4  T
speedup  2.00
cpu  time for SCC   24.53 s
wall time for SCC   12.27 s

   *** convergence criteria satisfied after 16 iterations ***

          eigenvalues
 #    :         629        630        631        632        633        634        635        636
 occ. :        2.000      2.000      2.000      2.000      2.000      2.000      2.000      2.000
 eps  :       -10.612    -10.610    -10.521    -10.179    -10.135    -10.129    -10.106    -10.089
 #    :         637        638        639        640        641        642        643        644
 occ. :        2.000      2.000      2.000      2.000      2.000      0.000      0.000      0.000
 eps  :        -9.975     -9.841     -9.811     -9.691     -9.690     -8.282     -8.123     -8.018
 #    :         645        646        647        648        649        650        651        652
 occ. :        0.000      0.000      0.000      0.000      0.000      0.000      0.000      0.000
 eps  :        -7.937     -7.844     -7.773     -7.691     -7.593     -6.766     -6.609     -6.567


   #   Z            q   n(s)   n(p)   n(d)      C6AA      α(0)
   1   7 N     -0.384  1.308  4.076  0.000    29.942     8.127
   2   6 C      0.022  1.059  2.919  0.000    20.214     6.403
   3   6 C      0.275  1.040  2.685  0.000    22.353     7.742
   4   8 O     -0.501  1.751  4.750  0.000    23.809     6.542
   5   6 C     -0.069  1.057  3.012  0.000    21.814     6.649
   6   6 C     -0.089  1.051  3.038  0.000    22.202     6.708
   7   6 C      0.287  1.041  2.672  0.000    22.131     7.703
   8   8 O     -0.505  1.753  4.752  0.000    23.885     6.552
   9   7 N     -0.291  1.263  4.028  0.000    27.509     7.790
  10   1 H      0.158  0.842  0.000  0.000     1.350     1.820
  11   1 H      0.062  0.938  0.000  0.000     2.179     2.308
  12   1 H      0.040  0.960  0.000  0.000     2.444     2.445
  13   1 H      0.050  0.950  0.000  0.000     2.321     2.383
  14   1 H      0.068  0.932  0.000  0.000     2.112     2.272
  15   1 H      0.055  0.945  0.000  0.000     2.254     2.348
  16   1 H      0.224  0.776  0.000  0.000     0.993     1.561
  17   1 H      0.229  0.771  0.000  0.000     0.968     1.541
  18   7 N     -0.186  1.248  3.938  0.000    25.037     7.431
  19   6 C      0.019  1.062  2.918  0.000    20.246     6.406
  20   6 C      0.271  1.044  2.685  0.000    22.415     7.753
  21   8 O     -0.486  1.736  4.750  0.000    23.483     6.497
  22   6 C     -0.015  1.061  2.954  0.000    20.806     6.487
  23   6 C     -0.113  1.038  3.076  0.000    22.724     6.797
  24   6 C     -0.123  1.041  3.083  0.000    22.917     6.825
  25   1 H      0.223  0.777  0.000  0.000     0.995     1.563
  26   1 H      0.060  0.940  0.000  0.000     2.195     2.317
  27   1 H      0.048  0.952  0.000  0.000     2.345     2.395
  28   1 H      0.064  0.936  0.000  0.000     2.152     2.294
  29   1 H      0.026  0.974  0.000  0.000     2.637     2.539
  30   1 H      0.044  0.956  0.000  0.000     2.390     2.418
  31   1 H      0.061  0.939  0.000  0.000     2.185     2.311
  32   1 H      0.049  0.951  0.000  0.000     2.329     2.387
  33   1 H      0.047  0.953  0.000  0.000     2.355     2.400
  34   7 N     -0.171  1.249  3.921  0.000    24.690     7.380
  35   6 C      0.033  1.055  2.912  0.000    20.030     6.374
  36   6 C      0.259  1.047  2.694  0.000    22.646     7.794
  37   8 O     -0.501  1.731  4.770  0.000    23.813     6.543
  38   6 C     -0.109  1.035  3.073  0.000    22.630     6.782
  39   1 H      0.199  0.801  0.000  0.000     1.113     1.652
  40   1 H      0.062  0.938  0.000  0.000     2.177     2.307
  41   1 H      0.058  0.942  0.000  0.000     2.227     2.334
  42   1 H      0.068  0.932  0.000  0.000     2.103     2.268
  43   1 H      0.052  0.948  0.000  0.000     2.291     2.367
  44   7 N     -0.071  1.232  3.839  0.000    22.608     7.062
  45   6 C      0.018  1.068  2.913  0.000    20.243     6.402
  46   6 C      0.279  1.039  2.681  0.000    22.276     7.729
  47   8 O     -0.476  1.747  4.729  0.000    23.259     6.466
  48   6 C     -0.066  1.052  3.014  0.000    21.741     6.634
  49   6 C     -0.054  1.045  3.009  0.000    21.523     6.601
  50   6 C     -0.001  1.049  2.952  0.000    20.631     6.473
  51   1 H      0.073  0.927  0.000  0.000     2.050     2.239
  52   1 H      0.058  0.942  0.000  0.000     2.219     2.330
  53   1 H      0.073  0.927  0.000  0.000     2.048     2.238
  54   1 H      0.055  0.945  0.000  0.000     2.257     2.349
  55   1 H      0.061  0.939  0.000  0.000     2.183     2.311
  56   1 H      0.054  0.946  0.000  0.000     2.268     2.355
  57   1 H      0.069  0.931  0.000  0.000     2.096     2.264
  58   7 N     -0.187  1.251  3.936  0.000    25.057     7.434
  59   6 C      0.039  1.049  2.912  0.000    19.927     6.357
  60   6 C      0.206  1.088  2.706  0.000    23.634     7.962
  61   8 O     -0.352  1.739  4.613  0.000    20.752     6.108
  62   6 C     -0.098  1.058  3.040  0.000    22.364     6.731
  63   6 C      0.293  1.031  2.676  0.000    22.031     7.685
  64   8 O     -0.493  1.757  4.737  0.000    23.638     6.519
  65   7 N     -0.276  1.260  4.015  0.000    27.132     7.736
  66   1 H      0.232  0.768  0.000  0.000     0.955     1.531
  67   1 H      0.085  0.915  0.000  0.000     1.925     2.169
  68   1 H      0.083  0.917  0.000  0.000     1.948     2.183
  69   1 H      0.080  0.920  0.000  0.000     1.974     2.197
  70   1 H      0.235  0.765  0.000  0.000     0.945     1.523
  71   1 H      0.232  0.768  0.000  0.000     0.955     1.531
  72   7 N     -0.387  1.317  4.070  0.000    30.001     8.135
  73   6 C      0.046  1.055  2.899  0.000    19.818     6.341
  74   6 C      0.202  1.088  2.710  0.000    23.703     7.973
  75   8 O     -0.351  1.748  4.603  0.000    20.732     6.105
  76   6 C     -0.070  1.056  3.014  0.000    21.821     6.649
  77   6 C     -0.008  1.082  2.926  0.000    28.213     8.713
  78   6 C     -0.044  1.085  2.959  0.000    29.084     8.844
  79   6 C     -0.047  1.081  2.966  0.000    29.170     8.857
  80   6 C     -0.079  1.079  3.000  0.000    29.984     8.979
  81   6 C     -0.063  1.074  2.989  0.000    29.563     8.916
  82   6 C      0.137  1.046  2.818  0.000    25.007     8.196
  83   8 O     -0.427  1.731  4.696  0.000    21.390     6.243
  84   1 H      0.183  0.817  0.000  0.000     1.196     1.713
  85   1 H      0.030  0.970  0.000  0.000     2.592     2.518
  86   1 H      0.048  0.952  0.000  0.000     2.344     2.394
  87   1 H      0.075  0.925  0.000  0.000     2.032     2.229
  88   1 H      0.059  0.941  0.000  0.000     2.208     2.324
  89   1 H      0.040  0.960  0.000  0.000     2.452     2.449
  90   1 H      0.059  0.941  0.000  0.000     2.209     2.324
  91   1 H      0.050  0.950  0.000  0.000     2.325     2.384
  92   1 H      0.340  0.660  0.000  0.000     0.612     1.229
  93   7 N     -0.285  1.286  3.999  0.000    27.352     7.768
  94   6 C      0.017  1.067  2.916  0.000    20.272     6.408
  95   6 C      0.263  1.053  2.684  0.000    22.558     7.778
  96   8 O     -0.482  1.740  4.742  0.000    23.392     6.485
  97   6 C     -0.063  1.054  3.010  0.000    21.693     6.627
  98   6 C     -0.062  1.049  3.013  0.000    21.662     6.622
  99   6 C      0.012  1.046  2.942  0.000    20.413     6.441
 100   1 H      0.050  0.950  0.000  0.000     2.321     2.382
 101   1 H      0.037  0.963  0.000  0.000     2.493     2.469
 102   1 H      0.059  0.941  0.000  0.000     2.206     2.323
 103   1 H      0.037  0.963  0.000  0.000     2.489     2.467
 104   1 H      0.040  0.960  0.000  0.000     2.445     2.445
 105   1 H      0.038  0.962  0.000  0.000     2.472     2.459
 106   1 H      0.019  0.981  0.000  0.000     2.744     2.590
 107   7 N     -0.176  1.256  3.920  0.000    24.817     7.399
 108   6 C      0.018  1.064  2.918  0.000    20.278     6.411
 109   6 C      0.278  1.041  2.681  0.000    22.291     7.731
 110   8 O     -0.491  1.746  4.745  0.000    23.583     6.511
 111   6 C     -0.087  1.059  3.028  0.000    22.144     6.698
 112   6 C      0.006  1.079  2.916  0.000    27.891     8.663
 113   6 C     -0.043  1.082  2.962  0.000    29.073     8.842
 114   6 C     -0.036  1.077  2.959  0.000    28.907     8.817
 115   6 C     -0.039  1.084  2.955  0.000    28.966     8.826
 116   6 C     -0.025  1.079  2.946  0.000    28.633     8.775
 117   6 C     -0.033  1.079  2.954  0.000    28.822     8.804
 118   1 H      0.225  0.775  0.000  0.000     0.987     1.557
 119   1 H      0.070  0.930  0.000  0.000     2.088     2.260
 120   1 H      0.090  0.910  0.000  0.000     1.879     2.144
 121   1 H      0.077  0.923  0.000  0.000     2.008     2.216
 122   1 H      0.053  0.947  0.000  0.000     2.277     2.360
 123   1 H      0.017  0.983  0.000  0.000     2.776     2.605
 124   1 H      0.055  0.945  0.000  0.000     2.262     2.352
 125   1 H      0.022  0.978  0.000  0.000     2.700     2.570
 126   1 H      0.026  0.974  0.000  0.000     2.640     2.541
 127   7 N     -0.184  1.252  3.932  0.000    24.993     7.425
 128   6 C      0.029  1.059  2.913  0.000    20.092     6.382
 129   6 C      0.273  1.042  2.686  0.000    22.394     7.750
 130   8 O     -0.475  1.732  4.743  0.000    23.228     6.462
 131   6 C     -0.045  1.048  2.997  0.000    21.382     6.583
 132   6 C     -0.087  1.064  3.023  0.000    22.152     6.701
 133   6 C      0.369  1.024  2.607  0.000    20.750     7.455
 134   8 O     -0.606  1.755  4.851  0.000    26.262     6.871
 135   8 O     -0.621  1.770  4.851  0.000    26.639     6.920
 136   1 H      0.217  0.783  0.000  0.000     1.022     1.583
 137   1 H      0.063  0.937  0.000  0.000     2.164     2.301
 138   1 H      0.047  0.953  0.000  0.000     2.364     2.404
 139   1 H      0.035  0.965  0.000  0.000     2.514     2.479
 140   1 H      0.015  0.985  0.000  0.000     2.809     2.621
 141   1 H      0.014  0.986  0.000  0.000     2.821     2.627
 142   7 N     -0.169  1.241  3.928  0.000    24.651     7.374
 143   6 C      0.016  1.065  2.919  0.000    20.315     6.418
 144   6 C      0.267  1.046  2.687  0.000    22.492     7.766
 145   8 O     -0.483  1.740  4.743  0.000    23.412     6.487
 146   6 C     -0.014  1.061  2.953  0.000    20.798     6.486
 147   6 C     -0.126  1.040  3.085  0.000    22.968     6.833
 148   6 C     -0.118  1.039  3.079  0.000    22.816     6.811
 149   1 H      0.205  0.795  0.000  0.000     1.080     1.628
 150   1 H      0.075  0.925  0.000  0.000     2.033     2.230
 151   1 H      0.042  0.958  0.000  0.000     2.427     2.436
 152   1 H      0.065  0.935  0.000  0.000     2.142     2.289
 153   1 H      0.039  0.961  0.000  0.000     2.463     2.454
 154   1 H      0.054  0.946  0.000  0.000     2.269     2.356
 155   1 H      0.060  0.940  0.000  0.000     2.198     2.319
 156   1 H      0.054  0.946  0.000  0.000     2.276     2.359
 157   1 H      0.036  0.964  0.000  0.000     2.500     2.472
 158   7 N     -0.157  1.238  3.919  0.000    24.399     7.336
 159   6 C      0.022  1.057  2.921  0.000    20.219     6.403
 160   6 C      0.195  1.088  2.718  0.000    23.845     7.997
 161   8 O     -0.353  1.756  4.597  0.000    20.763     6.109
 162   6 C     -0.077  1.058  3.019  0.000    21.976     6.674
 163   6 C     -0.074  1.050  3.025  0.000    21.916     6.665
 164   6 C     -0.026  1.052  2.973  0.000    21.108     6.555
 165   7 N     -0.152  1.213  3.939  0.000    24.290     7.320
 166   6 C      0.238  1.019  2.743  0.000    23.022     7.856
 167   7 N     -0.273  1.261  4.012  0.000    27.071     7.727
 168   7 N     -0.275  1.242  4.033  0.000    27.114     7.733
 169   1 H      0.220  0.780  0.000  0.000     1.011     1.575
 170   1 H      0.093  0.907  0.000  0.000     1.847     2.125
 171   1 H      0.075  0.925  0.000  0.000     2.031     2.228
 172   1 H      0.075  0.925  0.000  0.000     2.032     2.229
 173   1 H      0.072  0.928  0.000  0.000     2.068     2.249
 174   1 H      0.045  0.955  0.000  0.000     2.390     2.417
 175   1 H      0.086  0.914  0.000  0.000     1.915     2.164
 176   1 H      0.087  0.913  0.000  0.000     1.906     2.159
 177   1 H      0.232  0.768  0.000  0.000     0.957     1.533
 178   1 H      0.250  0.750  0.000  0.000     0.883     1.472
 179   1 H      0.233  0.767  0.000  0.000     0.952     1.529
 180   1 H      0.245  0.755  0.000  0.000     0.903     1.489
 181   1 H      0.239  0.761  0.000  0.000     0.928     1.509
 182   7 N     -0.391  1.321  4.070  0.000    30.132     8.153
 183   6 C      0.022  1.063  2.915  0.000    20.214     6.403
 184   6 C      0.276  1.043  2.681  0.000    22.330     7.738
 185   8 O     -0.497  1.742  4.755  0.000    23.715     6.529
 186   6 C      0.115  1.051  2.833  0.000    18.793     6.190
 187   8 O     -0.476  1.715  4.761  0.000    22.387     6.387
 188   6 C     -0.117  1.040  3.077  0.000    22.801     6.810
 189   1 H      0.165  0.835  0.000  0.000     1.300     1.786
 190   1 H      0.062  0.938  0.000  0.000     2.171     2.304
 191   1 H      0.013  0.987  0.000  0.000     2.843     2.637
 192   1 H      0.320  0.680  0.000  0.000     0.663     1.279
 193   1 H      0.046  0.954  0.000  0.000     2.370     2.407
 194   1 H      0.043  0.957  0.000  0.000     2.407     2.426
 195   1 H      0.034  0.966  0.000  0.000     2.530     2.487
 196   7 N     -0.185  1.252  3.934  0.000    25.013     7.428
 197   6 C      0.024  1.060  2.916  0.000    20.178     6.396
 198   6 C      0.275  1.045  2.679  0.000    22.343     7.740
 199   8 O     -0.480  1.740  4.739  0.000    23.342     6.478
 200   6 C     -0.068  1.056  3.012  0.000    21.798     6.645
 201   6 C     -0.009  1.054  2.955  0.000    20.698     6.471
 202   6 C     -0.116  1.042  3.074  0.000    22.767     6.802
 203   6 C     -0.117  1.039  3.077  0.000    22.786     6.806
 204   1 H      0.221  0.779  0.000  0.000     1.003     1.569
 205   1 H      0.065  0.935  0.000  0.000     2.145     2.290
 206   1 H      0.044  0.956  0.000  0.000     2.399     2.422
 207   1 H      0.067  0.933  0.000  0.000     2.120     2.277
 208   1 H      0.028  0.972  0.000  0.000     2.618     2.530
 209   1 H      0.051  0.949  0.000  0.000     2.313     2.378
 210   1 H      0.039  0.961  0.000  0.000     2.469     2.457
 211   1 H      0.039  0.961  0.000  0.000     2.467     2.456
 212   1 H      0.046  0.954  0.000  0.000     2.373     2.409
 213   1 H      0.038  0.962  0.000  0.000     2.481     2.463
 214   1 H      0.041  0.959  0.000  0.000     2.437     2.441
 215   7 N     -0.183  1.252  3.931  0.000    24.964     7.421
 216   6 C      0.010  1.066  2.924  0.000    20.419     6.436
 217   6 C      0.267  1.046  2.688  0.000    22.497     7.767
 218   8 O     -0.445  1.729  4.716  0.000    22.596     6.373
 219   6 C      0.112  1.051  2.837  0.000    18.845     6.198
 220   8 O     -0.469  1.718  4.751  0.000    22.241     6.366
 221   6 C     -0.141  1.044  3.097  0.000    23.277     6.880
 222   1 H      0.208  0.792  0.000  0.000     1.064     1.616
 223   1 H      0.073  0.927  0.000  0.000     2.051     2.240
 224   1 H      0.060  0.940  0.000  0.000     2.201     2.320
 225   1 H      0.311  0.689  0.000  0.000     0.689     1.304
 226   1 H      0.071  0.929  0.000  0.000     2.075     2.253
 227   1 H      0.082  0.918  0.000  0.000     1.959     2.189
 228   1 H      0.054  0.946  0.000  0.000     2.270     2.356
 229   7 N     -0.180  1.258  3.922  0.000    24.905     7.412
 230   6 C      0.019  1.064  2.916  0.000    20.249     6.406
 231   6 C      0.276  1.037  2.687  0.000    22.333     7.739
 232   8 O     -0.466  1.759  4.707  0.000    23.043     6.436
 233   6 C     -0.113  1.060  3.053  0.000    22.659     6.776
 234   6 C      0.282  1.038  2.680  0.000    22.231     7.720
 235   8 O     -0.499  1.730  4.769  0.000    23.768     6.536
 236   7 N     -0.252  1.261  3.991  0.000    26.561     7.654
 237   1 H      0.205  0.795  0.000  0.000     1.079     1.627
 238   1 H      0.088  0.912  0.000  0.000     1.899     2.155
 239   1 H      0.093  0.907  0.000  0.000     1.854     2.129
 240   1 H      0.083  0.917  0.000  0.000     1.944     2.180
 241   1 H      0.261  0.739  0.000  0.000     0.843     1.439
 242   1 H      0.247  0.753  0.000  0.000     0.897     1.484
 243   7 N     -0.183  1.245  3.938  0.000    24.963     7.420
 244   6 C      0.010  1.062  2.929  0.000    20.423     6.436
 245   6 C      0.268  1.043  2.688  0.000    22.467     7.762
 246   8 O     -0.485  1.752  4.733  0.000    23.449     6.492
 247   6 C     -0.082  1.053  3.029  0.000    22.057     6.686
 248   6 C     -0.082  1.052  3.030  0.000    22.054     6.686
 249   6 C     -0.097  1.055  3.042  0.000    22.341     6.729
 250   6 C     -0.055  1.061  2.994  0.000    21.661     6.643
 251   7 N     -0.149  1.230  3.919  0.000    24.211     7.308
 252   1 H      0.222  0.778  0.000  0.000     1.003     1.568
 253   1 H      0.074  0.926  0.000  0.000     2.039     2.233
 254   1 H      0.074  0.926  0.000  0.000     2.037     2.232
 255   1 H      0.055  0.945  0.000  0.000     2.255     2.348
 256   1 H      0.063  0.937  0.000  0.000     2.159     2.298
 257   1 H      0.064  0.936  0.000  0.000     2.156     2.296
 258   1 H      0.081  0.919  0.000  0.000     1.964     2.192
 259   1 H      0.074  0.926  0.000  0.000     2.040     2.234
 260   1 H      0.123  0.877  0.000  0.000     1.593     1.974
 261   1 H      0.125  0.875  0.000  0.000     1.577     1.964
 262   1 H      0.304  0.696  0.000  0.000     0.703     1.313
 263   1 H      0.299  0.701  0.000  0.000     0.717     1.327
 264   1 H      0.295  0.705  0.000  0.000     0.729     1.337
 265   7 N     -0.196  1.246  3.950  0.000    25.256     7.464
 266   6 C     -0.002  1.066  2.936  0.000    20.621     6.467
 267   6 C      0.272  1.043  2.685  0.000    22.407     7.752
 268   8 O     -0.499  1.762  4.738  0.000    23.769     6.537
 269   6 C      0.054  1.043  2.903  0.000    19.888     6.389
 270   8 O     -0.455  1.687  4.767  0.000    21.945     6.324
 271   1 H      0.224  0.776  0.000  0.000     0.993     1.561
 272   1 H      0.081  0.919  0.000  0.000     1.974     2.197
 273   1 H      0.068  0.932  0.000  0.000     2.112     2.273
 274   1 H      0.060  0.940  0.000  0.000     2.204     2.322
 275   1 H      0.349  0.651  0.000  0.000     0.592     1.208
 276   7 N     -0.168  1.248  3.920  0.000    24.631     7.371
 277   6 C      0.011  1.065  2.924  0.000    20.388     6.429
 278   6 C      0.273  1.046  2.681  0.000    22.385     7.748
 279   8 O     -0.483  1.748  4.735  0.000    23.418     6.488
 280   6 C     -0.076  1.055  3.021  0.000    21.953     6.670
 281   6 C     -0.075  1.052  3.023  0.000    21.936     6.668
 282   6 C     -0.113  1.057  3.056  0.000    22.659     6.777
 283   6 C     -0.052  1.060  2.992  0.000    21.597     6.634
 284   7 N     -0.151  1.231  3.920  0.000    24.259     7.315
 285   1 H      0.228  0.772  0.000  0.000     0.974     1.546
 286   1 H      0.078  0.922  0.000  0.000     1.997     2.210
 287   1 H      0.064  0.936  0.000  0.000     2.158     2.297
 288   1 H      0.055  0.945  0.000  0.000     2.257     2.349
 289   1 H      0.066  0.934  0.000  0.000     2.133     2.284
 290   1 H      0.057  0.943  0.000  0.000     2.233     2.337
 291   1 H      0.094  0.906  0.000  0.000     1.845     2.124
 292   1 H      0.086  0.914  0.000  0.000     1.915     2.164
 293   1 H      0.122  0.878  0.000  0.000     1.596     1.976
 294   1 H      0.110  0.890  0.000  0.000     1.694     2.036
 295   1 H      0.297  0.703  0.000  0.000     0.722     1.331
 296   1 H      0.298  0.702  0.000  0.000     0.719     1.329
 297   1 H      0.297  0.703  0.000  0.000     0.722     1.331
 298   7 N     -0.190  1.268  3.922  0.000    25.122     7.444
 299   6 C      0.019  1.065  2.916  0.000    20.256     6.407
 300   6 C      0.272  1.046  2.682  0.000    22.407     7.752
 301   8 O     -0.486  1.738  4.749  0.000    23.486     6.498
 302   6 C     -0.019  1.064  2.955  0.000    20.875     6.498
 303   6 C     -0.061  1.050  3.011  0.000    21.663     6.626
 304   6 C     -0.105  1.035  3.071  0.000    22.567     6.773
 305   6 C     -0.110  1.036  3.074  0.000    22.658     6.788
 306   1 H      0.208  0.792  0.000  0.000     1.065     1.617
 307   1 H      0.069  0.931  0.000  0.000     2.095     2.263
 308   1 H      0.050  0.950  0.000  0.000     2.318     2.381
 309   1 H      0.030  0.970  0.000  0.000     2.593     2.518
 310   1 H      0.046  0.954  0.000  0.000     2.369     2.407
 311   1 H      0.051  0.949  0.000  0.000     2.301     2.372
 312   1 H      0.031  0.969  0.000  0.000     2.569     2.507
 313   1 H      0.032  0.968  0.000  0.000     2.563     2.503
 314   1 H      0.043  0.957  0.000  0.000     2.411     2.428
 315   1 H      0.043  0.957  0.000  0.000     2.404     2.425
 316   1 H      0.040  0.960  0.000  0.000     2.447     2.446
 317   7 N     -0.167  1.240  3.927  0.000    24.617     7.369
 318   6 C      0.015  1.062  2.923  0.000    20.327     6.420
 319   6 C      0.269  1.044  2.687  0.000    22.454     7.760
 320   8 O     -0.481  1.735  4.746  0.000    23.368     6.481
 321   6 C     -0.061  1.053  3.007  0.000    21.660     6.625
 322   6 C     -0.100  1.057  3.043  0.000    22.403     6.738
 323   6 C      0.287  1.039  2.674  0.000    22.142     7.705
 324   8 O     -0.479  1.752  4.727  0.000    23.323     6.475
 325   7 N     -0.288  1.270  4.018  0.000    27.420     7.777
 326   1 H      0.212  0.788  0.000  0.000     1.048     1.604
 327   1 H      0.088  0.912  0.000  0.000     1.900     2.155
 328   1 H      0.055  0.945  0.000  0.000     2.258     2.350
 329   1 H      0.062  0.938  0.000  0.000     2.173     2.305
 330   1 H      0.071  0.929  0.000  0.000     2.078     2.254
 331   1 H      0.077  0.923  0.000  0.000     2.013     2.219
 332   1 H      0.233  0.767  0.000  0.000     0.952     1.529
 333   1 H      0.212  0.788  0.000  0.000     1.049     1.604
 334   7 N     -0.150  1.233  3.917  0.000    24.247     7.313
 335   6 C      0.025  1.057  2.918  0.000    20.155     6.392
 336   6 C      0.267  1.041  2.692  0.000    22.500     7.768
 337   8 O     -0.476  1.746  4.729  0.000    23.255     6.466
 338   6 C     -0.111  1.064  3.047  0.000    22.608     6.768
 339   6 C      0.291  1.032  2.677  0.000    22.070     7.692
 340   8 O     -0.492  1.753  4.739  0.000    23.601     6.513
 341   7 N     -0.286  1.266  4.020  0.000    27.384     7.772
 342   1 H      0.218  0.782  0.000  0.000     1.017     1.580
 343   1 H      0.073  0.927  0.000  0.000     2.052     2.240
 344   1 H      0.093  0.907  0.000  0.000     1.850     2.127
 345   1 H      0.078  0.922  0.000  0.000     2.002     2.213
 346   1 H      0.235  0.765  0.000  0.000     0.943     1.521
 347   1 H      0.234  0.766  0.000  0.000     0.947     1.524
 348   7 N     -0.148  1.228  3.920  0.000    24.205     7.307
 349   6 C      0.015  1.061  2.924  0.000    20.328     6.420
 350   6 C      0.199  1.084  2.717  0.000    23.752     7.982
 351   8 O     -0.361  1.752  4.609  0.000    20.925     6.133
 352   6 C     -0.017  1.064  2.953  0.000    20.847     6.494
 353   6 C     -0.118  1.039  3.078  0.000    22.807     6.809
 354   6 C     -0.122  1.039  3.083  0.000    22.890     6.822
 355   1 H      0.211  0.789  0.000  0.000     1.051     1.606
 356   1 H      0.098  0.902  0.000  0.000     1.799     2.098
 357   1 H      0.061  0.939  0.000  0.000     2.191     2.315
 358   1 H      0.061  0.939  0.000  0.000     2.192     2.315
 359   1 H      0.047  0.953  0.000  0.000     2.361     2.403
 360   1 H      0.049  0.951  0.000  0.000     2.331     2.387
 361   1 H      0.060  0.940  0.000  0.000     2.196     2.318
 362   1 H      0.055  0.945  0.000  0.000     2.258     2.350
 363   1 H      0.038  0.962  0.000  0.000     2.469     2.457
 364   7 N     -0.398  1.314  4.084  0.000    30.309     8.176
 365   6 C      0.046  1.050  2.904  0.000    19.824     6.342
 366   6 C      0.201  1.090  2.709  0.000    23.727     7.977
 367   8 O     -0.379  1.756  4.623  0.000    21.264     6.183
 368   6 C     -0.103  1.063  3.040  0.000    22.456     6.745
 369   6 C      0.294  1.038  2.668  0.000    22.020     7.683
 370   8 O     -0.490  1.730  4.760  0.000    23.571     6.509
 371   7 N     -0.281  1.264  4.017  0.000    27.254     7.754
 372   1 H      0.184  0.816  0.000  0.000     1.192     1.710
 373   1 H      0.052  0.948  0.000  0.000     2.295     2.369
 374   1 H      0.107  0.893  0.000  0.000     1.721     2.052
 375   1 H      0.073  0.927  0.000  0.000     2.050     2.239
 376   1 H      0.210  0.790  0.000  0.000     1.057     1.610
 377   1 H      0.233  0.767  0.000  0.000     0.951     1.528
 378   7 N     -0.392  1.309  4.082  0.000    30.140     8.154
 379   6 C      0.023  1.060  2.918  0.000    20.205     6.402
 380   6 C      0.262  1.048  2.690  0.000    22.579     7.781
 381   8 O     -0.494  1.734  4.760  0.000    23.662     6.522
 382   6 C     -0.060  1.048  3.012  0.000    21.644     6.623
 383   6 C     -0.098  1.057  3.041  0.000    22.355     6.730
 384   6 C      0.286  1.038  2.675  0.000    22.145     7.705
 385   8 O     -0.503  1.752  4.751  0.000    23.849     6.548
 386   7 N     -0.302  1.279  4.023  0.000    27.783     7.828
 387   1 H      0.164  0.836  0.000  0.000     1.308     1.792
 388   1 H      0.055  0.945  0.000  0.000     2.260     2.351
 389   1 H      0.048  0.952  0.000  0.000     2.348     2.396
 390   1 H      0.058  0.942  0.000  0.000     2.220     2.330
 391   1 H      0.068  0.932  0.000  0.000     2.112     2.273
 392   1 H      0.065  0.935  0.000  0.000     2.145     2.290
 393   1 H      0.215  0.785  0.000  0.000     1.031     1.591
 394   1 H      0.230  0.770  0.000  0.000     0.967     1.540
 395   7 N     -0.162  1.237  3.925  0.000    24.497     7.351
 396   6 C      0.008  1.067  2.925  0.000    20.448     6.439
 397   6 C      0.269  1.042  2.689  0.000    22.450     7.759
 398   8 O     -0.486  1.746  4.740  0.000    23.471     6.495
 399   6 C     -0.019  1.065  2.954  0.000    20.868     6.497
 400   6 C     -0.113  1.037  3.076  0.000    22.722     6.796
 401   6 C     -0.119  1.040  3.079  0.000    22.821     6.811
 402   1 H      0.221  0.779  0.000  0.000     1.007     1.572
 403   1 H      0.077  0.923  0.000  0.000     2.006     2.215
 404   1 H      0.053  0.947  0.000  0.000     2.279     2.361
 405   1 H      0.062  0.938  0.000  0.000     2.180     2.309
 406   1 H      0.027  0.973  0.000  0.000     2.623     2.533
 407   1 H      0.038  0.962  0.000  0.000     2.469     2.457
 408   1 H      0.060  0.940  0.000  0.000     2.204     2.321
 409   1 H      0.044  0.956  0.000  0.000     2.393     2.419
 410   1 H      0.047  0.953  0.000  0.000     2.357     2.401
 411   7 N     -0.179  1.254  3.926  0.000    24.885     7.409
 412   6 C      0.027  1.056  2.916  0.000    20.120     6.388
 413   6 C      0.197  1.090  2.713  0.000    23.803     7.990
 414   8 O     -0.364  1.754  4.610  0.000    20.975     6.140
 415   6 C     -0.070  1.055  3.015  0.000    21.831     6.651
 416   6 C     -0.010  1.055  2.955  0.000    20.717     6.474
 417   6 C     -0.111  1.040  3.071  0.000    22.675     6.789
 418   6 C     -0.118  1.040  3.077  0.000    22.811     6.810
 419   1 H      0.233  0.767  0.000  0.000     0.952     1.529
 420   1 H      0.084  0.916  0.000  0.000     1.939     2.177
 421   1 H      0.056  0.944  0.000  0.000     2.249     2.345
 422   1 H      0.054  0.946  0.000  0.000     2.266     2.354
 423   1 H      0.034  0.966  0.000  0.000     2.528     2.486
 424   1 H      0.044  0.956  0.000  0.000     2.401     2.423
 425   1 H      0.036  0.964  0.000  0.000     2.500     2.473
 426   1 H      0.041  0.959  0.000  0.000     2.432     2.439
 427   1 H      0.043  0.957  0.000  0.000     2.408     2.427
 428   1 H      0.047  0.953  0.000  0.000     2.351     2.398
 429   1 H      0.037  0.963  0.000  0.000     2.496     2.471
 430   7 N     -0.390  1.322  4.067  0.000    30.088     8.147
 431   6 C      0.036  1.060  2.904  0.000    19.989     6.369
 432   6 C      0.202  1.087  2.711  0.000    23.697     7.972
 433   8 O     -0.365  1.759  4.606  0.000    21.002     6.144
 434   6 C     -0.103  1.064  3.039  0.000    22.462     6.747
 435   6 C      0.299  1.036  2.665  0.000    21.926     7.667
 436   8 O     -0.491  1.746  4.744  0.000    23.582     6.511
 437   7 N     -0.289  1.271  4.018  0.000    27.459     7.783
 438   1 H      0.172  0.828  0.000  0.000     1.264     1.761
 439   1 H      0.082  0.918  0.000  0.000     1.956     2.187
 440   1 H      0.073  0.927  0.000  0.000     2.050     2.239
 441   1 H      0.064  0.936  0.000  0.000     2.158     2.297
 442   1 H      0.223  0.777  0.000  0.000     0.998     1.565
 443   1 H      0.213  0.787  0.000  0.000     1.043     1.600
 444   7 N     -0.388  1.315  4.073  0.000    30.050     8.141
 445   6 C      0.042  1.056  2.902  0.000    19.896     6.354
 446   6 C      0.204  1.087  2.710  0.000    23.674     7.968
 447   8 O     -0.354  1.753  4.601  0.000    20.775     6.111
 448   6 C     -0.067  1.059  3.008  0.000    21.759     6.637
 449   6 C     -0.011  1.062  2.950  0.000    20.784     6.492
 450  16 S     -0.217  1.910  4.256  0.051   150.316    20.635
 451   6 C     -0.063  1.055  3.008  0.000    21.784     6.658
 452   1 H      0.173  0.827  0.000  0.000     1.256     1.755
 453   1 H      0.038  0.962  0.000  0.000     2.479     2.462
 454   1 H      0.055  0.945  0.000  0.000     2.257     2.349
 455   1 H      0.071  0.929  0.000  0.000     2.076     2.253
 456   1 H      0.033  0.967  0.000  0.000     2.541     2.493
 457   1 H      0.055  0.945  0.000  0.000     2.257     2.350
 458   1 H      0.085  0.915  0.000  0.000     1.927     2.171
 459   1 H      0.062  0.938  0.000  0.000     2.172     2.305
 460   1 H      0.041  0.959  0.000  0.000     2.430     2.438
 461   1 H      0.183  0.817  0.000  0.000     1.199     1.715
 462   1 H      0.074  0.926  0.000  0.000     2.039     2.233
 463   1 H      0.169  0.831  0.000  0.000     1.279     1.772
 464   1 H      0.061  0.939  0.000  0.000     2.189     2.314
 465   1 H      0.175  0.825  0.000  0.000     1.241     1.745
 466   1 H      0.088  0.912  0.000  0.000     1.897     2.154
 467   1 H      0.188  0.812  0.000  0.000     1.166     1.692
 468   1 H      0.079  0.921  0.000  0.000     1.986     2.204
 469   1 H      0.181  0.819  0.000  0.000     1.210     1.723
 470   1 H      0.072  0.928  0.000  0.000     2.061     2.245
 471   1 H      0.182  0.818  0.000  0.000     1.203     1.718
 472   1 H      0.077  0.923  0.000  0.000     2.008     2.216
 473   1 H      0.192  0.808  0.000  0.000     1.148     1.678
 474   1 H      0.081  0.919  0.000  0.000     1.967     2.193
 475   1 H      0.182  0.818  0.000  0.000     1.200     1.716
 476   1 H      0.059  0.941  0.000  0.000     2.210     2.325

 Mol. C6AA /au·bohr⁶  :    2054481.693316
 Mol. C8AA /au·bohr⁸  :   45783327.341356
 Mol. α(0) /au        :       2145.593113

 
molecular dipole:
                 x           y           z       tot (Debye)
 q only:       -4.903     110.396      64.977
   full:       -4.135     111.359      64.351     327.082
molecular quadrupole (traceless):
                xx          xy          yy          xz          yz          zz
 q only:    -3916.642    -708.318    4809.454    -289.518    5120.230    -892.812
  q+dip:    -3959.164    -658.694    4926.806    -201.731    5091.722    -967.642
   full:    -3958.841    -655.436    4922.837    -199.605    5088.910    -963.997
speedup  2.00
cpu  time for grad   28.84 s
wall time for grad   14.43 s

SCC energy    :    -735.8664986
rep           :       8.8869775
ES            :       2.1554789
AES           :      -0.0794213
AXC           :       0.2481706
disp          :      -0.6145178
XB            :       0.0000000
fix           :       0.0000000
Gborn         :       0.0000000
Gsasa         :       0.0000000
Ghb           :       0.0000000
Gshift        :       0.0000000
Gsolv         :      -0.5537364     -347.47
Etot ala COSMO:    -735.8664986
grad norm     :       0.6301624
total E       :    -726.9174820
atomizationE  :     131.8028366    82707.53
(atE without considering molecular charge,
 total energy contains solvation terms)
H-L gap (eV)  :          1.4081

------------------------------------------------------------------------
 * finished run on 2019/05/11 at 18:07:39.829     
------------------------------------------------------------------------
 total:
 * wall-time:     0 d,  0 h,  0 min, 15.368 sec
 *  cpu-time:     0 d,  0 h,  0 min, 30.455 sec
 * ratio c/w:     1.982 speedup
 SCF:
 * wall-time:     0 d,  0 h,  0 min, 14.947 sec
 *  cpu-time:     0 d,  0 h,  0 min, 29.870 sec
 * ratio c/w:     1.998 speedup

