      -----------------------------------------------------------      
     |                   =====================                   |     
     |                           x T B                           |     
     |                   =====================                   |     
     |                         S. Grimme                         |     
     |          Mulliken Center for Theoretical Chemistry        |     
     |                    University of Bonn                     |     
     |                 Version 6.0.1 (SAW181210)                 |     
      -----------------------------------------------------------      

   This program is distributed in the hope that it will be useful,
   but WITHOUT ANY WARRANTY; without even the implied warranty of
   MERCHANTABILITY or FITNESS FOR A PARTICULAR PURPOSE.
   
   FOR NON-COMMERCIAL, ACADEMIA USE ONLY.
   
   Cite this work as:
   S. Grimme, C. Bannwarth, P. Shushkov, J. Comput. Theory Chem., 2017,
   13, 1989-2009.
   C. Bannwarth, S. Ehlert and S. Grimme., ChemRxiv, 2018, preprint.
   http://doi.org/10.26434/chemrxiv.7246238.v1
   
   for sTDA-xTB:
   S. Grimme and C. Bannwarth, J. Chem. Phys., 2016, 145, 054103.
   
   in the mass-spec context:
   V. Asgeirsson, C. Bauer and S. Grimme, Chem. Sci., 2017, 8, 4879.
   
   if GBSA is used:
   P. Shushkov, F. März and S. Grimme, unpublished.
   
   for ANC optimizer:
   S. Grimme, unpublished.
   Rational Function algorithm used in ANCopt:
   F. Eckert, P. Pulay, H.-J. Werner, J. Comput. Chem., 1997, 18, 1473.
   
   with help from (in alphabetical order)
   C. Bannwarth, F. Bohle, G. Brandenburg, E. Caldeweyher, M. Checinski,
   S. Dohm, S. Ehlert, S. Ehrlich, F. März, H. Neugebauer, J. Pisarek,
   P. Pracht, P. Shushkov, and S. Spicher.
   
 * started run on 2019/04/15 at 15:13:54.825     
========================================================================
 # omp threads = 2
========================================================================
number of atoms            : 128
number of electrons        : 356
charge                     : 1
spin                       : .0
first test random number   : .0248

########################################################################
# WARNING! Please study the warnings concerning your input carefully
#  - Process number higher than OMP_NUM_THREADS, I hope you know what you are doing.
########################################################################

           ------------------------------------------------- 
          |                 G F N 2 - x T B                 |
          | Geometry, Frequencies, Noncovalent interactions |
          |            JCTC 2018 parametrisation            |
           ------------------------------------------------- 
 
      method parameters     
 k(s)        :  1.8500
 k(p)        :  2.2300
 k(d)        :  2.2300
 k(f)        :  2.0000
 kEN (H0ij)  : -2.0000
 D4 a1       :  0.5200
 D4 a2       :  5.0000
 D4 s6       :  1.0000
 D4 s8       :  2.7000
 D4 s9       :  5.0000
 alphaj      :  2.0000

 Solvent             : h2o
 Using internal parameter file: .param_gbsa2_h2o
 Gsolv ref. state (COSMO-RS): gsolv [1 M gas/solution]
 temperature (mdtemp)       :    298.150000000000     
 dielectric constant        :    80.2000000000000     
 rho                        :    1.00000000000000     
 mass                       :    18.0000000000000     
 surface tension            :    15.5689454083859     
 probe radius               :   0.975313790000000     
 vdW radii scaling          :    1.00000000000000     
 Gshift (Eh)                :   1.857443126794793E-003
 c1                         :    1.55243817000000     
 soset                      :   0.130326360000000     
 HB correction              :  T

            Z     q(EN)     CN     RAES       Cart. coordinates
     1  N   5.0   -0.10    4.13    3.24    46.24745    62.54785    58.37357
     2  C   4.0    0.01    4.40    4.37    47.30755    61.57153    60.73155
     3  C   4.0    0.15    3.44    3.09    47.89432    63.61858    62.53825
     4  O   6.0   -0.31    1.29    1.80    48.87306    65.45939    61.89862
     5  C   4.0    0.04    4.17    3.94    49.68197    59.95594    60.33596
     6  O   6.0   -0.23    2.01    1.83    49.07827    57.35672    59.81618
     7  H   1.0    0.08    1.03    1.43    46.77078    61.29011    56.96172
     8  H   1.0    0.07    1.03    1.43    44.32708    62.60977    58.63420
     9  H   1.0    0.09    1.04    1.43    46.90090    64.38323    58.15184
    10  H   1.0    0.06    1.11    1.45    45.88561    60.49692    61.54950
    11  H   1.0    0.06    1.03    1.43    50.52198    60.54082    58.56100
    12  H   1.0    0.04    1.10    1.44    51.08493    60.01170    61.88517
    13  H   1.0    0.14    1.00    1.43    50.57325    56.32286    59.50382
    14  N   5.0   -0.14    3.46    2.05    47.29811    63.08046    65.00977
    15  C   4.0    0.03    4.49    4.52    48.12330    64.79133    67.05341
    16  C   4.0    0.15    3.42    3.08    49.50451    63.19703    69.08890
    17  O   6.0   -0.28    1.26    1.80    48.71060    61.27093    69.65321
    18  C   4.0   -0.02    4.26    4.12    45.84417    66.23355    68.27607
    19  C   4.0   -0.05    4.15    3.90    43.68712    64.42938    68.74171
    20  C   4.0   -0.06    4.08    3.76    46.54242    67.57611    70.75051
    21  H   1.0    0.09    1.06    1.44    46.20220    61.65012    65.65405
    22  H   1.0    0.04    1.16    1.46    49.53936    66.19280    66.54685
    23  H   1.0    0.05    1.06    1.44    45.12947    67.64678    66.95853
    24  H   1.0    0.06    1.00    1.43    42.12077    65.53181    69.52887
    25  H   1.0    0.06    1.01    1.43    43.22421    63.58494    66.92577
    26  H   1.0    0.07    1.01    1.43    44.39393    63.00333    70.05620
    27  H   1.0    0.06    0.98    1.43    44.82317    68.56270    71.46782
    28  H   1.0    0.07    1.00    1.43    47.24072    66.07196    72.03174
    29  H   1.0    0.05    1.00    1.43    48.05936    68.90657    70.22926
    30  N   5.0   -0.13    3.57    2.13    51.55805    64.42240    70.16757
    31  C   4.0    0.04    4.38    4.35    53.06876    63.10621    72.00097
    32  C   4.0    0.11    3.26    3.04    52.64694    64.45155    74.50969
    33  O   6.0   -0.27    1.17    1.80    51.07065    65.91533    74.90082
    34  C   4.0   -0.04    4.14    3.88    55.82953    62.98034    71.09569
    35  S   6.0   -0.04    2.59    3.10    57.78422    65.55790    71.26184
    36  H   1.0    0.07    1.18    1.46    52.39212    66.18650    69.69571
    37  H   1.0    0.07    1.06    1.44    52.44967    61.13211    72.23904
    38  H   1.0    0.05    1.11    1.44    56.72980    61.50879    72.20526
    39  H   1.0    0.06    1.16    1.46    55.80053    62.51729    69.09205
    40  H   1.0    0.07    1.00    1.43    60.03409    65.28032    71.20392
    41  N   5.0   -0.17    3.23    1.96    55.07423    75.56243    71.05675
    42  C   4.0    0.03    4.40    4.38    55.20379    73.69058    69.08238
    43  C   4.0    0.16    3.51    3.12    54.57954    74.95349    66.64895
    44  O   6.0   -0.28    1.27    1.80    52.58200    75.97004    66.45753
    45  C   4.0   -0.03    4.06    3.73    53.42851    71.43604    69.50274
    46  S   6.0   -0.06    2.57    3.10    52.92220    69.06602    66.77012
    47  H   1.0    0.10    1.04    1.43    53.65743    75.16734    72.28997
    48  H   1.0    0.04    1.09    1.44    56.95369    72.68453    69.05893
    49  H   1.0    0.05    1.05    1.44    54.20413    70.26504    71.05334
    50  H   1.0    0.06    1.05    1.44    51.60239    72.20563    70.08001
    51  H   1.0    0.04    1.08    1.44    52.13456    66.98463    67.20575
    52  N   5.0   -0.15    3.68    2.24    56.45286    74.83612    64.92642
    53  C   4.0    0.04    4.54    4.60    56.19382    76.03288    62.51093
    54  C   4.0    0.16    3.42    3.08    54.57588    74.61565    60.64624
    55  O   6.0   -0.27    1.36    1.80    54.94878    74.79085    58.46217
    56  C   4.0   -0.02    4.42    4.42    58.83686    76.51029    61.56303
    57  C   4.0   -0.02    4.45    4.47    60.34924    77.03871    63.94657
    58  C   4.0    0.17    3.23    3.04    63.13418    77.07023    63.38526
    59  O   6.0   -0.26    1.26    1.80    63.80369    76.11529    61.48814
    60  N   5.0   -0.16    3.11    1.94    64.79468    78.04301    65.21455
    61  H   1.0    0.07    1.12    1.45    58.11528    73.78757    64.95612
    62  H   1.0    0.07    1.08    1.44    55.25291    77.85733    62.47668
    63  H   1.0    0.07    1.05    1.44    59.59991    74.82198    60.72609
    64  H   1.0    0.07    1.03    1.43    58.90839    78.19525    60.39542
    65  H   1.0    0.06    1.06    1.44    59.99643    78.95478    64.46074
    66  H   1.0    0.05    1.13    1.45    59.83100    75.55613    65.30010
    67  H   1.0    0.10    1.02    1.43    63.98138    78.85470    66.73410
    68  H   1.0    0.12    1.00    1.43    66.71074    78.08921    64.79081
    69  N   5.0   -0.12    3.47    2.06    52.76554    73.17632    61.50919
    70  C   4.0    0.03    4.17    3.95    51.14436    71.49531    60.15934
    71  C   4.0    0.20    3.17    3.03    52.59596    70.96093    57.03719
    72  O   6.0   -0.26    1.24    1.80    51.09868    71.07214    55.63962
    73  C   4.0   -0.05    3.65    3.20    48.41209    72.50965    61.00029
    74  C   4.0   -0.04    3.41    3.08    46.49727    73.07864    61.38699
    75  C   4.0   -0.05    3.42    3.08    44.69123    73.95265    60.37199
    76  N   5.0   -0.24    2.78    1.91    41.98096    72.50278    63.00059
    77  C   4.0    0.14    3.26    3.05    40.58285    71.37588    61.71102
    78  N   5.0   -0.17    3.14    1.94    40.95390    70.03080    59.44343
    79  N   5.0   -0.20    3.15    1.95    38.70654    70.14898    63.61548
    80  H   1.0    0.08    1.09    1.44    51.82523    72.73568    63.33455
    81  H   1.0    0.06    1.11    1.45    50.91526    69.72027    60.65509
    82  H   1.0    0.07    0.85    1.42    48.79430    74.69565    59.73290
    83  H   1.0    0.07    0.28    1.40    47.72744    72.00649    57.91940
    84  H   1.0    0.06    0.83    1.41    46.38898    70.78218    62.60749
    85  H   1.0    0.06    0.46    1.40    47.59029    73.81292    63.98014
    86  H   1.0    0.07    0.67    1.41    44.15974    76.04562    61.80240
    87  H   1.0    0.08    1.11    1.45    43.77565    73.92085    59.28422
    88  H   1.0    0.12    1.06    1.44    41.95876    73.21929    64.59926
    89  H   1.0    0.10    1.02    1.43    42.31223    70.78682    58.22031
    90  H   1.0    0.10    1.02    1.43    39.65963    68.85072    58.72085
    91  H   1.0    0.13    1.15    1.45    39.03251    70.93731    64.75821
    92  H   1.0    0.10    0.96    1.43    37.72768    68.69801    62.46669
    93  N   5.0   -0.09    3.71    2.28    54.30436    69.03630    57.70090
    94  C   4.0    0.04    4.71    4.77    55.37375    67.91747    55.48914
    95  C   4.0    0.24    3.45    3.09    53.48192    66.51564    54.22141
    96  O   6.0   -0.23    1.27    1.80    51.75938    64.92758    54.94727
    97  C   4.0   -0.04    4.59    4.66    57.33486    66.15070    56.28090
    98  C   4.0   -0.04    4.45    4.46    58.05404    67.13766    58.85117
    99  C   4.0   -0.00    4.35    4.29    55.62573    67.97085    59.95494
   100  O   6.0   -0.20    1.28    1.80    52.76362    66.70538    51.91308
   101  H   1.0    0.07    1.08    1.44    56.25136    69.24341    54.19482
   102  H   1.0    0.06    1.08    1.44    56.73288    64.32159    56.58179
   103  H   1.0    0.06    1.08    1.44    58.94032    66.36863    55.23250
   104  H   1.0    0.05    1.09    1.44    58.74546    65.57702    59.71657
   105  H   1.0    0.06    1.07    1.44    59.33210    68.57765    58.49247
   106  H   1.0    0.06    1.00    1.43    54.64456    66.37029    60.90610
   107  H   1.0    0.05    1.04    1.43    56.05004    69.43325    61.31394
   108  N   5.0   -0.17    3.20    1.96    61.26834    61.02920    69.33976
   109  C   4.0    0.04    4.24    4.08    62.53917    61.14315    66.83912
   110  C   4.0    0.10    3.24    3.04    65.21337    62.01826    67.02659
   111  O   6.0   -0.25    1.15    1.80    65.76588    63.74889    68.36008
   112  C   4.0   -0.03    4.28    4.16    61.27562    62.82529    64.85091
   113  C   4.0    0.03    3.58    3.16    58.47383    62.40200    64.40907
   114  N   5.0   -0.16    2.68    1.91    56.58286    63.86269    65.47573
   115  C   4.0    0.00    3.57    3.15    57.10530    60.46100    63.28392
   116  C   4.0    0.05    3.49    3.11    54.24965    63.15399    64.86910
   117  N   5.0   -0.10    3.46    2.05    54.55583    61.06761    63.39249
   118  H   1.0    0.08    1.12    1.45    59.55232    62.03533    69.24916
   119  H   1.0    0.05    1.09    1.44    62.29922    59.35478    65.99811
   120  H   1.0    0.06    1.06    1.44    61.40319    64.72247    65.53820
   121  H   1.0    0.05    1.03    1.43    62.11349    62.56241    62.97231
   122  H   1.0    0.06    1.02    1.43    58.16137    58.93624    62.46669
   123  H   1.0    0.05    1.02    1.43    52.36016    63.98034    65.27472
   124  H   1.0    0.07    1.14    1.45    53.11880    60.01684    62.64552
   125  H   1.0    0.07    1.06    1.44    53.78167    64.09168    75.97733
   126  H   1.0    0.10    1.07    1.44    56.54551    75.59096    71.90945
   127  H   1.0    0.10    1.06    1.44    60.95741    59.40700    69.74518
   128  H   1.0    0.07    1.05    1.44    66.56339    61.15146    66.02801

  Z AO/shell   Hii/eV     exponent
  1     Wed Apr 25 08:07:45 CEST 2018   EN: 2.200 GM2: 0.406  GM3: 0.0800  RAES: 1.40
     1s    -10.707211    1.230000
  6     Wed Apr 25 08:07:45 CEST 2018   EN: 2.550 GM2: 0.538  GM3: 0.1500  RAES: 3.00
     2s    -13.970922    2.096432
     2p    -10.063292    1.800000
  7     Wed Apr 25 08:07:45 CEST 2018   EN: 3.040 GM2: 0.461  GM3:-0.0640  RAES: 1.90
     2s    -16.686243    2.339881
     2p    -12.523956    2.014332
  8     Wed Apr 25 08:07:45 CEST 2018   EN: 3.440 GM2: 0.452  GM3:-0.0517  RAES: 1.80
     2s    -20.229985    2.439742
     2p    -15.503117    2.137023
 16     Tue Apr 24 11:44:34 CEST 2018   EN: 2.580 GM2: 0.340  GM3:-0.0502  RAES: 3.10
     3s    -20.029654    1.981333
     3p    -11.377694    2.025643
     3d     -0.420282    1.702555
 no old-style atom pair restraining (fixing) potential

molecular fragmentation (1/2 indicates fragments):
111111111111111111111111111111111111111122222222222222222222222222222222
22222222222222222222222222222222222222222222222222221222
# atoms in fragment 1/2:    41    87
 fragment masses (1/2) :      292.37      641.74
CMA distance (Bohr)    :   9.074
constraining FC (au)   :  0.0500
           ------------------------------------------------- 
          |        Self-Consistent Charge Iterations        |
           ------------------------------------------------- 

 Ncao       : 329
 Nao        : 327
 Nshell     : 193
 Nel        : 356
 T(el)      :   500.0
 intcut     :    35.0
 scfconv/Eh :  0.100E-06
   qconv/e  :  0.100E-04
 intneglect :  0.100E-08
 broydamp   :      0.400
 iter      E             dE          RMSdq      gap      omega  full diag
   1   -203.0682547 -0.203068E+03  0.511E+00    0.90       0.0  T
   2   -203.6169265 -0.548672E+00  0.246E+00    0.54       1.0  T
   3   -203.6250721 -0.814553E-02  0.145E+00    0.63       1.0  T
   4   -203.1649053  0.460167E+00  0.174E+00    0.84       1.0  T
   5   -203.7119586 -0.547053E+00  0.411E-01    0.47       1.0  T
   6   -203.7192018 -0.724313E-02  0.187E-01    0.24       1.0  T
   7   -203.7167578  0.244397E-02  0.176E-01    0.40       1.0  T
   8   -203.7183783 -0.162055E-02  0.126E-01    0.34       1.0  T
   9   -203.7207206 -0.234226E-02  0.595E-02    0.25       1.0  T
  10   -203.7210210 -0.300392E-03  0.262E-02    0.20       1.0  T
  11   -203.7211044 -0.834447E-04  0.771E-03    0.22       1.1  T
  12   -203.7211051 -0.720000E-06  0.397E-03    0.22       2.2  T
  13   -203.7211042  0.972663E-06  0.362E-03    0.21       2.4  T
  14   -203.7211050 -0.791112E-06  0.279E-03    0.22       3.2  T
  15   -203.7211063 -0.133291E-05  0.722E-04    0.22      12.2  T
  16   -203.7211063 -0.752723E-08  0.610E-04    0.22      14.5  T
  17   -203.7211064 -0.733280E-07  0.729E-05    0.22     121.2  T
  18   -203.7211064 -0.117211E-09  0.398E-05    0.22     221.8  T
speedup  2.00
cpu  time for SCC    0.79 s
wall time for SCC    0.40 s

   *** convergence criteria satisfied after 18 iterations ***

          eigenvalues
 #    :         166        167        168        169        170        171        172        173
 occ. :        2.000      2.000      2.000      2.000      2.000      2.000      2.000      2.000
 eps  :       -10.794    -10.679    -10.595    -10.477    -10.440    -10.431    -10.408    -10.391
 #    :         174        175        176        177        178        179        180        181
 occ. :        2.000      2.000      2.000      2.000      1.851      0.149      0.000      0.000
 eps  :       -10.235    -10.187     -9.820     -9.300     -8.902     -8.685     -7.631     -7.610
 #    :         182        183        184        185        186        187        188        189
 occ. :        0.000      0.000      0.000      0.000      0.000      0.000      0.000      0.000
 eps  :        -6.904     -6.840     -6.665     -6.604     -6.278     -6.204     -5.955     -5.867


   #   Z            q   n(s)   n(p)   n(d)      C6AA      α(0)
   1   7 N     -0.151  1.232  3.919  0.000    24.258     7.315
   2   6 C     -0.030  1.043  2.988  0.000    21.121     6.544
   3   6 C      0.278  1.015  2.708  0.000    22.298     7.733
   4   8 O     -0.398  1.710  4.687  0.000    21.629     6.235
   5   6 C      0.046  1.050  2.904  0.000    20.010     6.408
   6   8 O     -0.483  1.721  4.762  0.000    22.537     6.408
   7   1 H      0.316  0.684  0.000  0.000     0.667     1.280
   8   1 H      0.323  0.677  0.000  0.000     0.649     1.262
   9   1 H      0.303  0.697  0.000  0.000     0.703     1.314
  10   1 H      0.147  0.853  0.000  0.000     1.413     1.859
  11   1 H      0.087  0.913  0.000  0.000     1.912     2.162
  12   1 H      0.085  0.915  0.000  0.000     1.932     2.174
  13   1 H      0.349  0.651  0.000  0.000     0.590     1.207
  14   7 N     -0.196  1.251  3.945  0.000    25.252     7.463
  15   6 C     -0.023  1.077  2.946  0.000    20.992     6.526
  16   6 C      0.288  1.035  2.677  0.000    22.114     7.700
  17   8 O     -0.395  1.706  4.689  0.000    21.589     6.230
  18   6 C     -0.030  1.069  2.961  0.000    21.072     6.529
  19   6 C     -0.132  1.047  3.086  0.000    23.097     6.852
  20   6 C     -0.121  1.058  3.063  0.000    22.888     6.824
  21   1 H      0.230  0.770  0.000  0.000     0.964     1.538
  22   1 H      0.072  0.928  0.000  0.000     2.059     2.244
  23   1 H      0.063  0.937  0.000  0.000     2.164     2.301
  24   1 H      0.062  0.938  0.000  0.000     2.181     2.309
  25   1 H      0.064  0.936  0.000  0.000     2.154     2.295
  26   1 H      0.047  0.953  0.000  0.000     2.357     2.401
  27   1 H      0.062  0.938  0.000  0.000     2.181     2.309
  28   1 H      0.043  0.957  0.000  0.000     2.409     2.427
  29   1 H      0.040  0.960  0.000  0.000     2.446     2.446
  30   7 N     -0.239  1.269  3.970  0.000    26.241     7.608
  31   6 C      0.023  1.058  2.919  0.000    20.187     6.396
  32   6 C      0.217  1.065  2.719  0.000    23.426     7.927
  33   8 O     -0.321  1.718  4.603  0.000    20.165     6.021
  34   6 C      0.004  1.042  2.954  0.000    20.509     6.447
  35  16 S     -0.376  1.868  4.454  0.053   157.588    21.129
  36   1 H      0.215  0.785  0.000  0.000     1.031     1.591
  37   1 H      0.098  0.902  0.000  0.000     1.799     2.098
  38   1 H      0.055  0.945  0.000  0.000     2.262     2.352
  39   1 H      0.072  0.928  0.000  0.000     2.060     2.245
  40   1 H      0.247  0.753  0.000  0.000     0.891     1.476
  41   7 N     -0.377  1.336  4.041  0.000    29.743     8.100
  42   6 C      0.029  1.041  2.930  0.000    20.090     6.382
  43   6 C      0.286  1.027  2.687  0.000    22.161     7.710
  44   8 O     -0.442  1.727  4.715  0.000    22.534     6.365
  45   6 C     -0.012  1.099  2.914  0.000    20.821     6.501
  46  16 S     -0.391  1.911  4.429  0.051   158.304    21.177
  47   1 H      0.177  0.823  0.000  0.000     1.233     1.740
  48   1 H      0.042  0.958  0.000  0.000     2.422     2.433
  49   1 H      0.060  0.940  0.000  0.000     2.197     2.318
  50   1 H      0.072  0.928  0.000  0.000     2.065     2.247
  51   1 H      0.246  0.754  0.000  0.000     0.893     1.478
  52   7 N     -0.208  1.264  3.945  0.000    25.531     7.504
  53   6 C      0.011  1.045  2.943  0.000    20.365     6.422
  54   6 C      0.296  1.021  2.683  0.000    21.987     7.678
  55   8 O     -0.476  1.731  4.745  0.000    23.250     6.465
  56   6 C     -0.062  1.045  3.018  0.000    21.682     6.626
  57   6 C     -0.133  1.064  3.069  0.000    23.022     6.827
  58   6 C      0.290  1.039  2.671  0.000    22.079     7.694
  59   8 O     -0.469  1.734  4.735  0.000    23.111     6.445
  60   7 N     -0.330  1.288  4.041  0.000    28.491     7.927
  61   1 H      0.230  0.770  0.000  0.000     0.964     1.538
  62   1 H      0.083  0.917  0.000  0.000     1.949     2.183
  63   1 H      0.064  0.936  0.000  0.000     2.155     2.296
  64   1 H      0.060  0.940  0.000  0.000     2.205     2.322
  65   1 H      0.081  0.919  0.000  0.000     1.968     2.194
  66   1 H      0.110  0.890  0.000  0.000     1.697     2.037
  67   1 H      0.224  0.776  0.000  0.000     0.991     1.560
  68   1 H      0.222  0.778  0.000  0.000     1.001     1.568
  69   7 N     -0.174  1.249  3.925  0.000    24.774     7.392
  70   6 C     -0.052  1.106  2.946  0.000    22.179     6.822
  71   6 C      0.315  1.049  2.636  0.000    21.678     7.613
  72   8 O     -0.290  1.686  4.604  0.000    19.601     5.936
  73   6 C      0.012  1.151  2.837  0.000    27.736     8.637
  74   6 C      0.117  1.017  2.866  0.000    25.403     8.254
  75   6 C     -0.100  1.059  3.042  0.000    30.519     9.057
  76   7 N     -0.288  1.310  3.978  0.000    28.267     7.885
  77   6 C      0.222  1.058  2.721  0.000    23.326     7.906
  78   7 N     -0.287  1.266  4.020  0.000    27.400     7.774
  79   7 N     -0.420  1.281  4.139  0.000    30.922     8.259
  80   1 H      0.223  0.777  0.000  0.000     0.996     1.565
  81   1 H      0.099  0.901  0.000  0.000     1.797     2.096
  82   1 H     -0.017  1.017  0.000  0.000     3.680     3.066
  83   1 H     -0.178  1.178  0.000  0.000    23.141     8.795
  84   1 H      0.184  0.816  0.000  0.000     1.334     1.858
  85   1 H     -0.019  1.019  0.000  0.000     8.342     5.271
  86   1 H      0.117  0.883  0.000  0.000     1.926     2.255
  87   1 H      0.168  0.832  0.000  0.000     1.274     1.765
  88   1 H      0.242  0.758  0.000  0.000     0.915     1.499
  89   1 H      0.216  0.784  0.000  0.000     1.030     1.590
  90   1 H      0.237  0.763  0.000  0.000     0.936     1.515
  91   1 H      0.250  0.750  0.000  0.000     0.884     1.473
  92   1 H      0.224  0.776  0.000  0.000     0.993     1.562
  93   7 N     -0.118  1.246  3.872  0.000    23.564     7.210
  94   6 C      0.046  1.024  2.930  0.000    19.749     6.317
  95   6 C      0.346  1.038  2.616  0.000    21.124     7.526
  96   8 O     -0.595  1.763  4.832  0.000    25.955     6.832
  97   6 C     -0.071  1.020  3.051  0.000    21.797     6.636
  98   6 C     -0.081  1.023  3.057  0.000    21.983     6.666
  99   6 C     -0.003  1.056  2.946  0.000    20.647     6.472
 100   8 O     -0.624  1.791  4.833  0.000    26.694     6.928
 101   1 H      0.022  0.978  0.000  0.000     2.697     2.568
 102   1 H      0.061  0.939  0.000  0.000     2.185     2.312
 103   1 H      0.056  0.944  0.000  0.000     2.242     2.341
 104   1 H      0.080  0.920  0.000  0.000     1.980     2.200
 105   1 H      0.059  0.941  0.000  0.000     2.204     2.322
 106   1 H      0.083  0.917  0.000  0.000     1.950     2.184
 107   1 H      0.074  0.926  0.000  0.000     2.041     2.234
 108   7 N     -0.397  1.350  4.047  0.000    30.293     8.174
 109   6 C      0.036  1.042  2.921  0.000    19.978     6.366
 110   6 C      0.211  1.071  2.718  0.000    23.537     7.946
 111   8 O     -0.354  1.740  4.613  0.000    20.775     6.111
 112   6 C     -0.071  1.049  3.021  0.000    21.842     6.652
 113   6 C      0.041  1.082  2.877  0.000    27.077     8.536
 114   7 N     -0.289  1.455  3.834  0.000    28.261     7.885
 115   6 C     -0.025  1.065  2.960  0.000    28.593     8.771
 116   6 C      0.067  1.077  2.855  0.000    26.497     8.440
 117   7 N     -0.121  1.267  3.854  0.000    23.635     7.220
 118   1 H      0.168  0.832  0.000  0.000     1.286     1.776
 119   1 H      0.044  0.956  0.000  0.000     2.396     2.421
 120   1 H      0.078  0.922  0.000  0.000     2.001     2.212
 121   1 H      0.052  0.948  0.000  0.000     2.292     2.367
 122   1 H      0.051  0.949  0.000  0.000     2.312     2.378
 123   1 H      0.046  0.954  0.000  0.000     2.366     2.406
 124   1 H      0.209  0.791  0.000  0.000     1.059     1.612
 125   1 H      0.060  0.940  0.000  0.000     2.197     2.318
 126   1 H      0.199  0.801  0.000  0.000     1.110     1.650
 127   1 H      0.177  0.823  0.000  0.000     1.232     1.738
 128   1 H      0.056  0.944  0.000  0.000     2.241     2.341

 Mol. C6AA /au·bohr⁶  :     166550.253720
 Mol. C8AA /au·bohr⁸  :    3889928.584348
 Mol. α(0) /au        :        621.234112

 
molecular dipole:
                 x           y           z       tot (Debye)
 q only:       41.640      63.818      69.001
   full:       42.616      62.753      69.296     261.151
molecular quadrupole (traceless):
                xx          xy          yy          xz          yz          zz
 q only:    -2642.661    3932.283     921.771    4469.360    6689.179    1720.890
  q+dip:    -2486.503    3933.848     716.273    4582.859    6610.851    1770.230
   full:    -2487.605    3934.568     716.736    4582.475    6610.085    1770.869
speedup  2.00
cpu  time for grad    1.00 s
wall time for grad    0.50 s

SCC energy    :    -203.7270125
rep           :       3.1745685
ES            :       0.6980859
AES           :      -0.0120691
AXC           :       0.0785213
disp          :      -0.1622536
XB            :       0.0000000
fix           :       0.0000000
Gborn         :       0.0000000
Gsasa         :       0.0000000
Ghb           :       0.0000000
Gshift        :       0.0000000
Gsolv         :      -0.2238210     -140.45
Etot ala COSMO:    -203.7270125
grad norm     :       1.7737954
total E       :    -200.5405970
atomizationE  :      33.3980804    20957.61
(atE without considering molecular charge,
 total energy contains solvation terms)
H-L gap (eV)  :          0.2169

------------------------------------------------------------------------
 * finished run on 2019/04/15 at 15:13:55.455     
------------------------------------------------------------------------
 total:
 * wall-time:     0 d,  0 h,  0 min,  0.629 sec
 *  cpu-time:     0 d,  0 h,  0 min,  1.197 sec
 * ratio c/w:     1.903 speedup
 SCF:
 * wall-time:     0 d,  0 h,  0 min,  0.554 sec
 *  cpu-time:     0 d,  0 h,  0 min,  1.109 sec
 * ratio c/w:     2.000 speedup

