      -----------------------------------------------------------      
     |                   =====================                   |     
     |                           x T B                           |     
     |                   =====================                   |     
     |                         S. Grimme                         |     
     |          Mulliken Center for Theoretical Chemistry        |     
     |                    University of Bonn                     |     
     |                 Version 6.0.1 (SAW181210)                 |     
      -----------------------------------------------------------      

   This program is distributed in the hope that it will be useful,
   but WITHOUT ANY WARRANTY; without even the implied warranty of
   MERCHANTABILITY or FITNESS FOR A PARTICULAR PURPOSE.
   
   FOR NON-COMMERCIAL, ACADEMIA USE ONLY.
   
   Cite this work as:
   S. Grimme, C. Bannwarth, P. Shushkov, J. Comput. Theory Chem., 2017,
   13, 1989-2009.
   C. Bannwarth, S. Ehlert and S. Grimme., ChemRxiv, 2018, preprint.
   http://doi.org/10.26434/chemrxiv.7246238.v1
   
   for sTDA-xTB:
   S. Grimme and C. Bannwarth, J. Chem. Phys., 2016, 145, 054103.
   
   in the mass-spec context:
   V. Asgeirsson, C. Bauer and S. Grimme, Chem. Sci., 2017, 8, 4879.
   
   if GBSA is used:
   P. Shushkov, F. März and S. Grimme, unpublished.
   
   for ANC optimizer:
   S. Grimme, unpublished.
   Rational Function algorithm used in ANCopt:
   F. Eckert, P. Pulay, H.-J. Werner, J. Comput. Chem., 1997, 18, 1473.
   
   with help from (in alphabetical order)
   C. Bannwarth, F. Bohle, G. Brandenburg, E. Caldeweyher, M. Checinski,
   S. Dohm, S. Ehlert, S. Ehrlich, F. März, H. Neugebauer, J. Pisarek,
   P. Pracht, P. Shushkov, and S. Spicher.
   
 * started run on 2019/05/09 at 22:30:52.592     
========================================================================
 # omp threads = 2
========================================================================
number of atoms            : 637
number of electrons        : 1794
charge                     : -6
spin                       : .0
first test random number   : .8883

########################################################################
# WARNING! Please study the warnings concerning your input carefully
#  - Process number higher than OMP_NUM_THREADS, I hope you know what you are doing.
########################################################################

           ------------------------------------------------- 
          |                 G F N 2 - x T B                 |
          | Geometry, Frequencies, Noncovalent interactions |
          |            JCTC 2018 parametrisation            |
           ------------------------------------------------- 
 
      method parameters     
 k(s)        :  1.8500
 k(p)        :  2.2300
 k(d)        :  2.2300
 k(f)        :  2.0000
 kEN (H0ij)  : -2.0000
 D4 a1       :  0.5200
 D4 a2       :  5.0000
 D4 s6       :  1.0000
 D4 s8       :  2.7000
 D4 s9       :  5.0000
 alphaj      :  2.0000

 Solvent             : h2o
 Using internal parameter file: .param_gbsa2_h2o
 Gsolv ref. state (COSMO-RS): gsolv [1 M gas/solution]
 temperature (mdtemp)       :    298.150000000000     
 dielectric constant        :    80.2000000000000     
 rho                        :    1.00000000000000     
 mass                       :    18.0000000000000     
 surface tension            :    15.5689454083859     
 probe radius               :   0.975313790000000     
 vdW radii scaling          :    1.00000000000000     
 Gshift (Eh)                :   1.857443126794793E-003
 c1                         :    1.55243817000000     
 soset                      :   0.130326360000000     
 HB correction              :  T

            Z     q(EN)     CN     RAES       Cart. coordinates
     1  N   5.0   -0.22    3.15    1.95    95.03899    83.79073   167.71716
     2  C   4.0    0.01    4.16    3.91    94.29192    84.54431   170.21962
     3  C   4.0    0.15    3.34    3.06    91.44158    84.65865   170.63146
     4  O   6.0   -0.31    1.25    1.80    90.56808    84.37763   172.75208
     5  H   1.0    0.12    1.07    1.44    94.66930    81.97591   167.22532
     6  H   1.0    0.05    1.03    1.43    95.09708    83.25652   171.61420
     7  H   1.0    0.03    1.03    1.43    94.99957    86.46289   170.53182
     8  N   5.0   -0.13    3.49    2.07    90.02011    85.12495   168.60344
     9  C   4.0    0.04    4.46    4.48    87.33062    85.51754   168.90290
    10  C   4.0    0.15    3.45    3.10    86.10273    83.17449   170.05270
    11  O   6.0   -0.32    1.28    1.80    86.62171    81.02166   169.35898
    12  C   4.0   -0.04    4.27    4.14    86.08169    86.08907   166.38188
    13  C   4.0    0.23    3.09    3.02    86.70358    88.82445   165.43567
    14  O   6.0   -0.33    1.19    1.80    88.21221    90.09903   166.69560
    15  O   6.0   -0.35    1.16    1.80    85.60372    89.46813   163.44794
    16  H   1.0    0.07    1.07    1.44    90.77544    85.42257   166.87657
    17  H   1.0    0.05    1.06    1.44    87.05515    87.13876   170.17454
    18  H   1.0    0.04    1.03    1.43    86.75746    84.78578   164.93263
    19  H   1.0    0.04    1.02    1.43    84.03081    85.90275   166.52833
    20  N   5.0   -0.14    3.50    2.08    84.37683    83.66037   171.82328
    21  C   4.0    0.03    4.43    4.42    82.92722    81.72617   173.09761
    22  C   4.0    0.14    3.39    3.08    80.38093    81.41961   171.73751
    23  O   6.0   -0.33    1.22    1.80    79.19513    83.26584   170.96669
    24  C   4.0   -0.05    4.36    4.31    82.52962    82.48929   175.85627
    25  C   4.0   -0.02    4.20    3.99    84.96716    83.17837   177.26513
    26  C   4.0   -0.09    4.11    3.83    84.32847    83.64048   180.03835
    27  C   4.0   -0.07    4.13    3.85    86.92624    81.08929   177.02945
    28  H   1.0    0.07    1.07    1.44    83.88387    85.46600   172.18095
    29  H   1.0    0.06    1.06    1.44    83.98828    79.96241   172.96714
    30  H   1.0    0.04    1.03    1.43    81.26098    84.11730   175.90687
    31  H   1.0    0.04    1.03    1.43    81.59812    80.91910   176.81650
    32  H   1.0    0.04    1.05    1.44    85.76294    84.90407   176.44954
    33  H   1.0    0.03    1.00    1.43    85.95206    84.38969   181.04523
    34  H   1.0    0.03    1.00    1.43    82.79080    84.99103   180.21360
    35  H   1.0    0.03    1.00    1.43    83.74614    81.87900   180.91768
    36  H   1.0    0.04    1.00    1.43    88.44264    81.37762   178.38303
    37  H   1.0    0.04    1.00    1.43    86.05429    79.26441   177.39077
    38  H   1.0    0.06    1.00    1.43    87.77134    81.10638   175.15893
    39  N   5.0   -0.14    3.51    2.08    79.58350    79.05132   171.49026
    40  C   4.0    0.03    4.38    4.35    77.33447    78.27542   170.15025
    41  C   4.0    0.06    3.24    3.04    76.15171    76.02855   171.50653
    42  O   6.0   -0.30    1.20    1.80    77.31280    74.79237   173.07874
    43  C   4.0   -0.03    4.27    4.13    77.95199    77.41303   167.41327
    44  C   4.0   -0.09    4.10    3.80    78.31892    79.67869   165.67823
    45  C   4.0   -0.07    4.14    3.87    80.27892    75.71106   167.39646
    46  H   1.0    0.12    1.12    1.45    80.58290    77.60013   172.27559
    47  H   1.0    0.03    1.05    1.44    75.97261    79.82113   170.06427
    48  H   1.0    0.02    1.06    1.44    76.32835    76.33395   166.71990
    49  H   1.0    0.02    1.00    1.43    78.90991    79.06047   163.81192
    50  H   1.0    0.02    1.00    1.43    76.55499    80.71321   165.48180
    51  H   1.0    0.05    1.00    1.43    79.75615    80.94989   166.41537
    52  H   1.0    0.03    1.00    1.43    80.52977    74.87176   165.53899
    53  H   1.0    0.05    1.00    1.43    81.96440    76.79654   167.84816
    54  H   1.0    0.05    1.00    1.43    80.07717    74.20331   168.77848
    55  N   5.0   -0.22    3.24    1.96    70.92312    64.91469   172.68011
    56  C   4.0    0.02    4.34    4.27    72.76498    64.39754   174.64045
    57  C   4.0    0.14    3.49    3.11    74.48200    66.68763   174.97772
    58  O   6.0   -0.30    1.26    1.80    75.18399    67.90085   173.11706
    59  C   4.0   -0.04    4.29    4.19    74.30752    62.06351   173.81301
    60  C   4.0   -0.03    3.68    3.22    75.69147    60.86726   175.95058
    61  C   4.0   -0.01    3.63    3.18    77.82134    61.73322   177.12915
    62  C   4.0   -0.00    3.89    3.46    74.95595    58.62738   177.25956
    63  N   5.0   -0.12    3.50    2.07    78.43607    60.20123   179.10911
    64  C   4.0    0.03    3.89    3.45    76.72095    58.28367   179.24682
    65  C   4.0   -0.07    3.40    3.08    73.01886    56.86733   176.92323
    66  C   4.0   -0.04    3.40    3.08    76.52024    56.26754   180.92220
    67  C   4.0   -0.06    3.37    3.07    72.84998    54.86302   178.57584
    68  C   4.0   -0.05    3.37    3.07    74.57499    54.57346   180.56313
    69  H   1.0    0.07    1.03    1.43    71.54822    64.59654   170.89069
    70  H   1.0    0.02    1.06    1.44    71.72005    64.02757   176.38179
    71  H   1.0    0.02    1.04    1.43    72.97354    60.71575   173.00370
    72  H   1.0    0.04    1.03    1.43    75.60402    62.66344   172.32349
    73  H   1.0    0.07    1.03    1.43    78.95441    63.36687   176.72900
    74  H   1.0    0.10    1.07    1.44    79.98000    60.43323   180.19915
    75  H   1.0    0.03    1.03    1.43    71.69918    57.12043   175.39191
    76  H   1.0    0.06    1.03    1.43    77.86675    56.03322   182.44040
    77  H   1.0    0.03    1.03    1.43    71.36018    53.48973   178.36787
    78  H   1.0    0.05    1.03    1.43    74.44742    52.97138   181.81769
    79  N   5.0   -0.10    3.66    2.22    75.16166    67.37190   177.30959
    80  C   4.0    0.03    4.58    4.64    76.77621    69.58421   177.70059
    81  C   4.0    0.15    3.43    3.09    79.42595    69.10481   176.63028
    82  O   6.0   -0.32    1.28    1.80    80.56853    67.12118   177.02116
    83  C   4.0   -0.05    4.33    4.26    76.81212    69.92680   180.58061
    84  C   4.0   -0.04    4.27    4.14    76.36819    67.24961   181.55796
    85  C   4.0   -0.02    4.36    4.32    74.44106    66.20066   179.68771
    86  H   1.0    0.05    1.05    1.44    75.97106    71.22409   176.72860
    87  H   1.0    0.04    1.02    1.43    78.57528    70.73994   181.26317
    88  H   1.0    0.03    1.02    1.43    75.26814    71.16745   181.14792
    89  H   1.0    0.05    1.02    1.43    78.12185    66.17004   181.44344
    90  H   1.0    0.03    1.02    1.43    75.70449    67.20072   183.50214
    91  H   1.0    0.04    1.03    1.43    74.51681    64.14836   179.58009
    92  H   1.0    0.02    1.02    1.43    72.52676    66.79675   180.20888
    93  N   5.0   -0.14    3.48    2.07    80.41591    70.98834   175.28273
    94  C   4.0    0.04    4.36    4.30    82.67305    70.61558   173.77891
    95  C   4.0    0.14    3.41    3.08    83.75474    73.18651   173.03635
    96  O   6.0   -0.32    1.31    1.80    82.65782    75.17269   173.49849
    97  C   4.0   -0.06    4.12    3.85    82.03319    69.04711   171.43201
    98  H   1.0    0.12    1.11    1.45    79.38401    72.53588   174.81204
    99  H   1.0    0.06    1.05    1.44    84.09288    69.60687   174.89989
   100  H   1.0    0.05    1.00    1.43    83.74152    68.50510   170.44374
   101  H   1.0    0.06    1.00    1.43    81.02513    67.34794   171.99819
   102  H   1.0    0.05    1.00    1.43    80.81635    70.11441   170.16581
   103  N   5.0   -0.14    3.49    2.07    85.97666    73.09578   171.84491
   104  C   4.0    0.04    4.43    4.44    87.22987    75.34008   170.91215
   105  C   4.0    0.14    3.47    3.10    88.48240    74.77736   168.38092
   106  O   6.0   -0.33    1.30    1.80    89.13968    72.62036   167.81834
   107  C   4.0   -0.04    4.27    4.14    89.27859    76.28313   172.74154
   108  C   4.0   -0.04    4.26    4.12    91.28059    74.26230   173.13201
   109  C   4.0   -0.01    4.21    4.01    93.51261    75.16819   174.69954
   110  N   5.0   -0.14    3.43    2.03    95.25166    73.06275   174.93751
   111  C   4.0    0.10    3.36    3.07    96.95073    72.73651   176.74583
   112  N   5.0   -0.18    3.28    1.98    97.44559    74.59048   178.37028
   113  N   5.0   -0.18    3.26    1.97    98.35439    70.65216   176.79064
   114  H   1.0    0.11    1.09    1.44    86.88493    71.41882   171.64929
   115  H   1.0    0.06    1.06    1.44    85.81340    76.82555   170.67716
   116  H   1.0    0.06    1.03    1.43    90.11285    78.00610   171.97564
   117  H   1.0    0.04    1.03    1.43    88.39321    76.72889   174.54442
   118  H   1.0    0.05    1.03    1.43    90.41742    72.64458   174.08199
   119  H   1.0    0.06    1.04    1.43    91.99833    73.64293   171.29675
   120  H   1.0    0.05    1.02    1.43    94.44587    76.76201   173.76743
   121  H   1.0    0.05    1.02    1.43    92.86390    75.75887   176.57116
   122  H   1.0    0.07    1.08    1.44    95.06048    71.64072   173.67559
   123  H   1.0    0.09    1.04    1.43    96.17086    75.99168   178.59890
   124  H   1.0    0.12    1.06    1.44    98.55351    74.13500   179.86080
   125  H   1.0    0.09    1.03    1.43    97.91258    69.15824   175.69281
   126  H   1.0    0.11    1.07    1.44    99.33986    70.32678   178.40155
   127  N   5.0   -0.14    3.50    2.08    88.80359    76.76305   166.85745
   128  C   4.0    0.03    4.52    4.56    90.47093    76.60491   164.68575
   129  C   4.0    0.14    3.51    3.12    93.14630    76.91996   165.71795
   130  O   6.0   -0.32    1.32    1.80    93.66074    78.74649   167.06298
   131  C   4.0   -0.02    4.34    4.27    89.93731    78.64808   162.70425
   132  C   4.0   -0.06    4.19    3.98    87.40404    78.24102   161.38319
   133  C   4.0   -0.09    4.15    3.91    92.06354    78.61523   160.75834
   134  C   4.0   -0.08    4.03    3.67    85.15139    78.94114   163.01639
   135  H   1.0    0.11    1.10    1.44    88.35186    78.51690   167.50139
   136  H   1.0    0.04    1.06    1.44    90.29916    74.72520   163.84031
   137  H   1.0    0.05    1.05    1.44    89.93762    80.49489   163.64715
   138  H   1.0    0.02    1.03    1.43    87.37208    79.40695   159.68077
   139  H   1.0    0.02    1.03    1.43    87.26984    76.26679   160.79621
   140  H   1.0    0.02    1.00    1.43    91.73283    80.04058   159.31399
   141  H   1.0    0.04    1.01    1.43    93.89273    79.00194   161.62144
   142  H   1.0    0.02    1.00    1.43    92.20497    76.77178   159.85590
   143  H   1.0    0.02    1.00    1.43    83.43933    78.92896   161.88592
   144  H   1.0    0.04    1.01    1.43    84.93233    77.63364   164.57877
   145  H   1.0    0.04    1.00    1.43    85.38715    80.83021   163.79058
   146  N   5.0   -0.15    3.43    2.04    94.81878    75.10706   165.20603
   147  C   4.0    0.05    4.38    4.34    97.39044    75.30010   166.08503
   148  C   4.0    0.08    3.24    3.04    99.33967    75.52020   163.96177
   149  O   6.0   -0.32    1.13    1.80   101.53394    76.01375   164.50048
   150  C   4.0   -0.02    4.26    4.12    98.12171    73.17787   167.88224
   151  C   4.0    0.25    3.13    3.03    97.95813    70.56375   166.51809
   152  O   6.0   -0.31    1.23    1.80    97.72588    70.61942   164.17261
   153  O   6.0   -0.31    1.18    1.80    98.04369    68.68298   167.92747
   154  H   1.0    0.09    1.06    1.44    94.36512    73.57987   164.14632
   155  H   1.0    0.06    1.08    1.44    97.51584    77.10983   167.10471
   156  H   1.0    0.05    1.03    1.43   100.08144    73.43203   168.46674
   157  H   1.0    0.05    1.02    1.43    96.90725    73.15379   169.54467
   158  N   5.0   -0.20    3.27    1.97    90.60469    67.74803   161.33801
   159  C   4.0    0.03    4.42    4.42    89.24236    68.11551   163.66944
   160  C   4.0    0.15    3.43    3.09    90.35785    66.39956   165.70403
   161  O   6.0   -0.32    1.25    1.80    90.99465    64.22853   165.20011
   162  C   4.0   -0.02    4.29    4.18    86.45435    67.42493   163.21377
   163  C   4.0   -0.08    4.13    3.87    84.95677    67.62017   165.65913
   164  C   4.0   -0.10    4.13    3.86    85.33761    69.14758   161.19481
   165  H   1.0    0.08    1.03    1.43    90.47335    65.99673   160.56597
   166  H   1.0    0.05    1.06    1.44    89.43129    70.08985   164.24411
   167  H   1.0    0.04    1.05    1.44    86.41031    65.46727   162.54161
   168  H   1.0    0.03    1.00    1.43    82.95993    67.29530   165.30430
   169  H   1.0    0.05    1.00    1.43    85.59872    66.21710   167.01741
   170  H   1.0    0.05    1.00    1.43    85.19234    69.49558   166.46726
   171  H   1.0    0.02    1.00    1.43    83.38540    68.61867   160.83737
   172  H   1.0    0.03    1.00    1.43    85.38322    71.10117   161.83620
   173  H   1.0    0.02    1.00    1.43    86.40755    69.00173   159.44689
   174  N   5.0   -0.14    3.49    2.07    90.48416    67.40377   168.01594
   175  C   4.0    0.04    4.43    4.42    91.24629    66.03520   170.25243
   176  C   4.0    0.15    3.48    3.11    88.97341    65.99892   172.02108
   177  O   6.0   -0.32    1.28    1.80    87.96199    67.99654   172.64243
   178  C   4.0   -0.03    4.35    4.29    93.39607    67.45094   171.57207
   179  C   4.0   -0.01    3.57    3.15    94.11912    66.29667   174.06260
   180  C   4.0   -0.03    3.46    3.10    95.96820    64.43460   174.18363
   181  C   4.0   -0.03    3.47    3.10    93.02448    67.14714   176.29893
   182  C   4.0   -0.03    3.37    3.07    96.76710    63.49848   176.48957
   183  C   4.0   -0.03    3.37    3.07    93.83326    66.22782   178.60800
   184  C   4.0   -0.03    3.38    3.07    95.72506    64.42275   178.70673
   185  H   1.0    0.11    1.11    1.44    89.92714    69.21763   168.27881
   186  H   1.0    0.06    1.06    1.44    91.80001    64.12287   169.71334
   187  H   1.0    0.07    1.04    1.43    95.02227    67.52515   170.29995
   188  H   1.0    0.05    1.04    1.43    92.68053    69.36249   171.87584
   189  H   1.0    0.06    1.03    1.43    96.82431    63.76477   172.45828
   190  H   1.0    0.06    1.03    1.43    91.54088    68.55045   176.24664
   191  H   1.0    0.07    1.03    1.43    98.24944    62.10065   176.57051
   192  H   1.0    0.05    1.03    1.43    92.98971    66.93787   180.32856
   193  H   1.0    0.05    1.03    1.43    96.38906    63.72945   180.50685
   194  N   5.0   -0.14    3.48    2.06    88.13446    63.72633   172.69896
   195  C   4.0    0.04    4.43    4.43    85.92051    63.39052   174.26549
   196  C   4.0    0.16    3.45    3.09    86.67921    63.32650   177.05446
   197  O   6.0   -0.30    1.28    1.80    88.29451    61.87823   177.87005
   198  C   4.0   -0.03    4.34    4.28    84.58720    60.90676   173.61014
   199  C   4.0   -0.01    3.57    3.15    83.54673    60.94991   170.97954
   200  C   4.0   -0.04    3.47    3.10    81.03402    61.56818   170.55247
   201  C   4.0   -0.03    3.48    3.11    85.07648    60.39704   168.92699
   202  C   4.0   -0.05    3.37    3.07    80.05936    61.61467   168.12874
   203  C   4.0   -0.04    3.38    3.07    84.11386    60.48239   166.49930
   204  C   4.0   -0.06    3.37    3.07    81.60571    61.09096   166.08648
   205  H   1.0    0.11    1.11    1.45    89.17799    62.17180   172.30777
   206  H   1.0    0.05    1.06    1.44    84.67052    65.00031   173.91480
   207  H   1.0    0.06    1.03    1.43    85.93987    59.36226   173.83330
   208  H   1.0    0.05    1.03    1.43    83.06324    60.60077   174.96725
   209  H   1.0    0.05    1.03    1.43    79.83058    61.96922   172.15083
   210  H   1.0    0.06    1.03    1.43    87.02697    59.86760   169.21406
   211  H   1.0    0.04    1.03    1.43    78.08380    62.03989   167.84338
   212  H   1.0    0.05    1.03    1.43    85.35312    60.04468   164.93993
   213  H   1.0    0.03    1.03    1.43    80.87299    61.11528   164.18396
   214  N   5.0   -0.13    3.49    2.07    85.49277    65.00123   178.52498
   215  C   4.0    0.04    4.47    4.50    86.05289    65.06004   181.19534
   216  C   4.0    0.15    3.46    3.10    85.12924    62.62729   182.43425
   217  O   6.0   -0.31    1.31    1.80    83.44940    61.32123   181.49665
   218  C   4.0   -0.03    4.34    4.28    84.85999    67.36953   182.42695
   219  C   4.0   -0.01    3.57    3.15    86.08060    69.76980   181.53235
   220  C   4.0   -0.03    3.47    3.10    88.47885    70.40650   182.38938
   221  C   4.0   -0.04    3.47    3.10    84.82861    71.41621   179.92158
   222  C   4.0   -0.03    3.38    3.07    89.56840    72.67156   181.67600
   223  C   4.0   -0.04    3.37    3.07    85.91908    73.67936   179.19476
   224  C   4.0   -0.04    3.37    3.07    88.28889    74.31810   180.08932
   225  H   1.0    0.10    1.09    1.44    83.91271    65.91245   177.91013
   226  H   1.0    0.05    1.06    1.44    88.11049    65.14055   181.43027
   227  H   1.0    0.05    1.03    1.43    82.83694    67.38715   182.02485
   228  H   1.0    0.06    1.04    1.43    85.14821    67.22329   184.46173
   229  H   1.0    0.07    1.03    1.43    89.45059    69.14915   183.67283
   230  H   1.0    0.06    1.04    1.43    82.95439    70.94716   179.27699
   231  H   1.0    0.07    1.03    1.43    91.41108    73.19505   182.38730
   232  H   1.0    0.06    1.03    1.43    84.88856    74.93496   177.96187
   233  H   1.0    0.06    1.03    1.43    89.16725    76.09471   179.61287
   234  N   5.0   -0.15    3.38    2.01    86.30832    62.00077   184.56906
   235  C   4.0    0.02    4.25    4.10    85.51224    59.85949   186.05987
   236  C   4.0    0.15    3.32    3.06    86.55580    57.32803   185.12710
   237  O   6.0   -0.30    1.23    1.80    87.42255    55.77850   186.60403
   238  H   1.0    0.11    1.12    1.45    87.54321    63.26020   185.36538
   239  H   1.0    0.06    1.03    1.43    86.12098    60.12634   188.01244
   240  H   1.0    0.07    1.03    1.43    83.44265    59.70143   186.01911
   241  N   5.0   -0.14    3.54    2.10    86.32371    56.87808   182.65172
   242  C   4.0    0.04    4.49    4.52    87.30254    54.59627   181.53121
   243  C   4.0    0.16    3.45    3.10    89.90982    54.94606   180.29466
   244  O   6.0   -0.30    1.22    1.80    91.30157    53.13228   179.94987
   245  C   4.0    0.06    4.25    4.10    85.51444    53.60630   179.46974
   246  O   6.0   -0.25    2.15    1.85    85.72536    55.27013   177.38525
   247  C   4.0   -0.06    4.08    3.77    82.81375    53.39378   180.45216
   248  H   1.0    0.11    1.10    1.44    85.45642    58.14510   181.51365
   249  H   1.0    0.06    1.06    1.44    87.49710    53.18071   183.02901
   250  H   1.0    0.05    1.04    1.43    86.18696    51.71582   178.91282
   251  H   1.0    0.15    1.09    1.44    85.02364    54.39241   175.88697
   252  H   1.0    0.05    1.00    1.43    81.61970    52.63129   178.96814
   253  H   1.0    0.05    1.00    1.43    82.73375    52.14652   182.07741
   254  H   1.0    0.06    1.00    1.43    82.11337    55.25117   180.96641
   255  N   5.0   -0.13    3.55    2.11    90.46468    57.32695   179.65728
   256  C   4.0    0.04    4.42    4.41    92.84309    58.11683   178.56558
   257  C   4.0    0.16    3.42    3.08    93.35431    56.80912   176.02508
   258  O   6.0   -0.30    1.24    1.80    95.48862    56.41102   175.23823
   259  C   4.0   -0.03    4.31    4.21    95.04355    57.68635   180.39890
   260  C   4.0    0.05    3.76    3.29    94.70150    58.95677   182.89295
   261  N   5.0   -0.19    2.54    1.90    95.88709    58.03605   184.99786
   262  C   4.0   -0.00    3.61    3.17    93.29445    61.02902   183.55133
   263  C   4.0    0.06    3.64    3.19    95.21617    59.52828   186.85727
   264  N   5.0   -0.11    3.44    2.04    93.64367    61.37288   186.08824
   265  H   1.0    0.11    1.10    1.44    89.12362    58.67594   179.75913
   266  H   1.0    0.06    1.06    1.44    92.66299    60.13750   178.14048
   267  H   1.0    0.06    1.03    1.43    95.24665    55.65660   180.70262
   268  H   1.0    0.05    1.03    1.43    96.77639    58.36002   179.49651
   269  H   1.0    0.06    1.02    1.43    92.07433    62.22195   182.46138
   270  H   1.0    0.04    1.02    1.43    95.81588    59.34118   188.78079
   271  H   1.0    0.10    1.06    1.44    92.81001    62.70009   187.20266
   272  N   5.0   -0.12    3.54    2.11    91.27671    56.13993   174.74350
   273  C   4.0    0.04    4.43    4.43    91.42677    55.24781   172.16664
   274  C   4.0    0.15    3.43    3.09    91.72684    57.49446   170.37944
   275  O   6.0   -0.32    1.31    1.80    91.20448    59.65445   171.07268
   276  C   4.0   -0.04    4.29    4.18    89.02548    53.79292   171.49824
   277  C   4.0   -0.03    4.19    3.97    88.67189    51.47602   173.16637
   278  C   4.0    0.24    3.11    3.03    85.85845    50.63742   173.24763
   279  O   6.0   -0.34    1.33    1.80    84.24057    52.36506   173.53162
   280  O   6.0   -0.32    1.16    1.80    85.39635    48.35122   173.08345
   281  H   1.0    0.10    1.08    1.44    89.55498    56.62137   175.41689
   282  H   1.0    0.06    1.06    1.44    93.09826    54.03980   171.99312
   283  H   1.0    0.06    1.03    1.43    87.39963    55.04927   171.74444
   284  H   1.0    0.06    1.03    1.43    89.10748    53.22469   169.51896
   285  H   1.0    0.05    1.03    1.43    89.79822    49.89821   172.47835
   286  H   1.0    0.06    1.03    1.43    89.23601    51.91020   175.10700
   287  N   5.0   -0.13    3.47    2.06    92.49602    56.94462   168.04258
   288  C   4.0    0.05    4.39    4.36    92.35894    58.77695   166.03275
   289  C   4.0    0.08    3.25    3.04    91.01440    57.61180   163.76513
   290  O   6.0   -0.31    1.15    1.80    90.90315    55.32491   163.43899
   291  C   4.0    0.06    4.22    4.05    94.93436    59.83598   165.14814
   292  O   6.0   -0.26    2.13    1.84    96.12670    58.02592   163.59187
   293  C   4.0   -0.06    4.08    3.76    96.57257    60.62965   167.37645
   294  H   1.0    0.12    1.08    1.44    92.86550    55.13368   167.54233
   295  H   1.0    0.07    1.08    1.44    91.27334    60.38700   166.73762
   296  H   1.0    0.05    1.04    1.43    94.50314    61.53002   164.01445
   297  H   1.0    0.10    1.03    1.43    97.85146    58.56956   163.33793
   298  H   1.0    0.04    1.00    1.43    98.31647    61.48421   166.69925
   299  H   1.0    0.05    1.00    1.43    95.57051    62.03923   168.48003
   300  H   1.0    0.06    1.00    1.43    96.98225    59.01290   168.57669
   301  N   5.0   -0.22    3.20    1.96    73.27432    47.80208   186.51082
   302  C   4.0    0.02    4.30    4.21    75.82804    47.60565   187.51665
   303  C   4.0    0.14    3.41    3.08    77.35238    49.95375   186.74738
   304  O   6.0   -0.32    1.23    1.80    77.86310    50.37811   184.54798
   305  C   4.0   -0.06    4.29    4.17    77.11182    45.24111   186.46327
   306  C   4.0   -0.06    4.18    3.96    79.66370    44.72794   187.71833
   307  C   4.0   -0.07    4.17    3.93    80.88071    42.36536   186.56448
   308  C   4.0   -0.06    4.11    3.82    83.61576    41.96027   187.36657
   309  N   5.0   -0.14    4.01    2.90    83.80794    41.31531   190.10698
   310  H   1.0    0.05    1.02    1.43    72.65515    46.40518   185.33418
   311  H   1.0    0.02    1.05    1.44    75.72376    47.54461   189.58614
   312  H   1.0    0.01    1.03    1.43    75.86612    43.63106   186.77777
   313  H   1.0    0.04    1.03    1.43    77.39239    45.53631   184.44222
   314  H   1.0    0.04    1.03    1.43    80.89002    46.36235   187.42852
   315  H   1.0    0.02    1.02    1.43    79.35896    44.50894   189.74573
   316  H   1.0    0.01    1.03    1.43    79.75155    40.70705   187.03205
   317  H   1.0    0.02    1.03    1.43    80.87984    42.56989   184.51554
   318  H   1.0    0.01    1.02    1.43    84.43125    40.41045   186.28154
   319  H   1.0    0.03    1.02    1.43    84.71650    43.66603   187.01091
   320  H   1.0    0.02    1.02    1.43    85.65805    40.96343   190.59651
   321  H   1.0    0.03    1.02    1.43    83.15937    42.79387   191.19281
   322  H   1.0    0.02    1.02    1.43    82.74079    39.73231   190.50171
   323  N   5.0   -0.16    3.32    1.99    78.19061    51.39788   188.68598
   324  C   4.0    0.02    4.16    3.93    79.76468    53.56587   188.24662
   325  C   4.0    0.08    3.12    3.03    78.39432    56.05906   187.84824
   326  O   6.0   -0.32    1.18    1.80    79.60845    58.04006   187.62102
   327  H   1.0    0.07    1.06    1.44    77.44660    51.23868   190.43332
   328  H   1.0    0.05    1.03    1.43    81.08194    53.83111   189.81502
   329  H   1.0    0.06    1.03    1.43    80.87814    53.22818   186.53046
   330  N   5.0   -0.21    3.31    1.99    78.00384    60.91495   193.45750
   331  C   4.0    0.03    4.33    4.25    80.60845    61.68580   193.76512
   332  C   4.0    0.15    3.43    3.09    81.27455    63.56805   191.66139
   333  O   6.0   -0.32    1.26    1.80    82.41980    65.54128   192.07614
   334  C   4.0   -0.04    4.26    4.12    82.31469    59.36296   193.64833
   335  C   4.0   -0.04    4.17    3.93    81.79751    57.50649   195.79356
   336  C   4.0    0.23    3.12    3.03    79.29446    55.94466   195.60973
   337  O   6.0   -0.33    1.28    1.80    78.13557    55.88119   193.54350
   338  O   6.0   -0.34    1.16    1.80    78.64800    54.80248   197.56129
   339  H   1.0    0.12    1.12    1.45    77.76804    59.01398   193.09200
   340  H   1.0    0.03    1.05    1.44    80.84901    62.68293   195.57509
   341  H   1.0    0.06    1.03    1.43    82.01546    58.43114   191.82858
   342  H   1.0    0.04    1.03    1.43    84.27852    59.99475   193.73541
   343  H   1.0    0.03    1.03    1.43    83.31614    56.10887   195.86175
   344  H   1.0    0.03    1.02    1.43    81.78499    58.48133   197.61245
   345  N   5.0   -0.14    3.41    2.03    80.39299    62.92666   189.39017
   346  C   4.0    0.02    4.16    3.92    80.70890    64.57740   187.24454
   347  C   4.0    0.08    3.17    3.03    79.62059    67.20411   187.80997
   348  O   6.0   -0.31    1.14    1.80    80.88614    69.11885   187.55646
   349  H   1.0    0.11    1.11    1.44    79.74073    61.14757   189.05303
   350  H   1.0    0.06    1.03    1.43    82.71545    64.82371   186.80373
   351  H   1.0    0.04    1.03    1.43    79.72784    63.74064   185.64064
   352  N   5.0   -0.20    3.24    1.96    78.44998    69.51260   193.05357
   353  C   4.0    0.03    4.34    4.28    79.83379    70.76003   195.03727
   354  C   4.0    0.15    3.50    3.12    82.11595    72.17220   193.98110
   355  O   6.0   -0.33    1.37    1.80    82.83787    74.09995   195.04985
   356  C   4.0   -0.04    4.28    4.16    80.72350    68.97633   197.14461
   357  C   4.0   -0.02    3.73    3.27    82.06001    70.49587   199.12192
   358  C   4.0   -0.03    3.61    3.17    80.97875    71.92140   200.98395
   359  C   4.0    0.01    3.91    3.48    84.71083    71.01277   199.22428
   360  N   5.0   -0.14    3.49    2.07    82.78413    73.19831   202.32708
   361  C   4.0    0.03    3.92    3.49    85.07823    72.73108   201.24173
   362  C   4.0   -0.05    3.41    3.08    86.77895    70.27892   197.76752
   363  C   4.0   -0.06    3.40    3.08    87.45537    73.64552   201.87050
   364  C   4.0   -0.05    3.38    3.07    89.12473    71.23291   198.36286
   365  C   4.0   -0.06    3.38    3.07    89.46498    72.87770   200.40159
   366  H   1.0    0.08    1.02    1.43    77.93048    67.69113   193.31727
   367  H   1.0    0.03    1.05    1.44    78.62632    72.22855   195.88976
   368  H   1.0    0.02    1.02    1.43    79.07384    68.00727   197.92091
   369  H   1.0    0.05    1.03    1.43    81.99310    67.57727   196.31084
   370  H   1.0    0.02    1.02    1.43    79.01411    72.08707   201.46776
   371  H   1.0    0.07    1.05    1.44    82.44169    74.73060   203.41336
   372  H   1.0    0.05    1.03    1.43    86.53248    69.01134   196.18166
   373  H   1.0    0.04    1.03    1.43    87.65480    74.92975   203.43995
   374  H   1.0    0.04    1.03    1.43    90.72545    70.70073   197.21036
   375  H   1.0    0.03    1.03    1.43    91.33534    73.58115   200.78641
   376  N   5.0   -0.14    3.46    2.05    83.27922    71.23304   191.94515
   377  C   4.0    0.04    4.39    4.37    85.73282    72.15453   191.14524
   378  C   4.0    0.15    3.39    3.08    85.72107    74.77759   189.86806
   379  O   6.0   -0.30    1.27    1.80    87.36303    75.34468   188.34706
   380  C   4.0   -0.03    4.28    4.16    87.09166    70.26209   189.44042
   381  C   4.0   -0.03    4.15    3.91    88.22762    68.02085   190.84728
   382  C   4.0    0.24    3.10    3.02    89.60294    66.11319   189.09418
   383  O   6.0   -0.33    1.26    1.80    88.85774    65.90979   186.85841
   384  O   6.0   -0.32    1.19    1.80    91.35269    64.82847   190.02651
   385  H   1.0    0.12    1.10    1.44    82.69216    69.53910   191.27858
   386  H   1.0    0.05    1.06    1.44    86.88096    72.47558   192.86365
   387  H   1.0    0.07    1.03    1.43    85.74948    69.59358   188.02442
   388  H   1.0    0.07    1.04    1.43    88.59087    71.28005   188.44760
   389  H   1.0    0.04    1.02    1.43    89.57811    68.64194   192.28140
   390  H   1.0    0.06    1.03    1.43    86.72781    66.94955   191.78821
   391  N   5.0   -0.14    3.50    2.08    83.97181    76.42633   190.65698
   392  C   4.0    0.04    4.44    4.45    83.92707    79.05826   189.87832
   393  C   4.0    0.14    3.38    3.07    82.89374    80.70149   192.06195
   394  O   6.0   -0.33    1.25    1.80    80.70353    81.46029   192.03077
   395  C   4.0   -0.02    4.34    4.28    82.25939    79.46017   187.51273
   396  C   4.0   -0.05    4.19    3.98    82.79538    77.56672   185.38003
   397  C   4.0   -0.08    4.12    3.85    82.58300    82.17392   186.57738
   398  C   4.0   -0.07    4.01    3.65    81.17608    75.19849   185.52124
   399  H   1.0    0.11    1.13    1.45    82.70847    75.89870   191.98006
   400  H   1.0    0.06    1.05    1.44    85.88406    79.61462   189.47247
   401  H   1.0    0.05    1.06    1.44    80.30131    79.21291   188.13891
   402  H   1.0    0.03    1.03    1.43    82.39466    78.49780   183.58319
   403  H   1.0    0.06    1.04    1.43    84.78532    77.03780   185.38542
   404  H   1.0    0.03    1.00    1.43    81.21182    82.56131   185.09883
   405  H   1.0    0.05    1.01    1.43    82.26419    83.48872   188.12110
   406  H   1.0    0.04    1.00    1.43    84.46808    82.47215   185.83182
   407  H   1.0    0.05    1.00    1.43    81.64232    73.93109   183.97027
   408  H   1.0    0.06    1.00    1.43    81.46829    74.15707   187.26652
   409  H   1.0    0.03    1.00    1.43    79.18117    75.68848   185.42041
   410  N   5.0   -0.13    3.43    2.04    84.40948    81.54863   193.93682
   411  C   4.0    0.03    4.35    4.29    86.63554    80.58709   195.24240
   412  C   4.0    0.14    3.36    3.07    88.93356    80.46306   193.49847
   413  O   6.0   -0.30    1.26    1.80    89.43388    82.25030   192.11934
   414  C   4.0   -0.04    4.27    4.14    86.08428    78.19844   196.78535
   415  C   4.0   -0.02    4.21    4.03    83.57727    78.30384   198.22526
   416  C   4.0    0.23    3.09    3.02    83.56802    80.06917   200.56544
   417  O   6.0   -0.33    1.17    1.80    84.45106    82.24380   200.30469
   418  O   6.0   -0.34    1.17    1.80    82.63774    79.16261   202.53966
   419  H   1.0    0.09    1.09    1.44    83.39054    82.64667   195.13692
   420  H   1.0    0.05    1.07    1.44    87.08439    82.09222   196.60363
   421  H   1.0    0.06    1.04    1.43    85.98606    76.55082   195.55344
   422  H   1.0    0.04    1.03    1.43    87.59742    77.93963   198.16470
   423  H   1.0    0.05    1.03    1.43    82.03705    78.90788   196.98752
   424  H   1.0    0.06    1.04    1.43    83.09612    76.41035   198.85168
   425  N   5.0   -0.15    3.45    2.05    90.42520    78.42035   193.71389
   426  C   4.0    0.04    4.39    4.37    92.87388    78.11346   192.47613
   427  C   4.0    0.17    3.46    3.10    92.62610    77.61357   189.61081
   428  O   6.0   -0.28    1.30    1.80    93.04007    75.56525   188.63202
   429  C   4.0   -0.03    4.32    4.24    94.29738    75.97070   193.78345
   430  C   4.0    0.17    3.24    3.04    96.94933    75.60806   192.70370
   431  O   6.0   -0.28    1.26    1.80    97.69993    76.68379   190.81510
   432  N   5.0   -0.18    3.18    1.95    98.35368    73.91739   193.98370
   433  H   1.0    0.07    1.09    1.44    89.82120    76.95751   194.77328
   434  H   1.0    0.06    1.05    1.44    93.92404    79.89384   192.67592
   435  H   1.0    0.03    1.03    1.43    94.44275    76.38294   195.79754
   436  H   1.0    0.05    1.03    1.43    93.28159    74.19598   193.49924
   437  H   1.0    0.10    1.03    1.43   100.21820    73.86799   193.59470
   438  H   1.0    0.07    1.03    1.43    97.79458    73.27842   195.68345
   439  N   5.0   -0.13    3.53    2.10    91.93239    79.61610   188.24688
   440  C   4.0    0.05    4.47    4.49    91.35273    79.22020   185.61705
   441  C   4.0    0.15    3.50    3.11    93.66398    78.72829   183.95935
   442  O   6.0   -0.32    1.26    1.80    93.37665    77.59823   181.94264
   443  C   4.0   -0.04    4.30    4.21    89.69507    81.33636   184.56879
   444  C   4.0    0.15    3.25    3.04    91.06772    83.85118   184.59058
   445  O   6.0   -0.31    1.23    1.80    91.88547    84.77018   186.54748
   446  N   5.0   -0.20    3.18    1.95    91.27758    85.01189   182.34491
   447  H   1.0    0.12    1.09    1.44    91.43981    81.26375   189.10567
   448  H   1.0    0.07    1.07    1.44    90.26161    77.44827   185.49835
   449  H   1.0    0.04    1.03    1.43    89.05565    80.81763   182.68346
   450  H   1.0    0.05    1.04    1.43    88.06909    81.50612   185.82525
   451  H   1.0    0.09    1.03    1.43    92.22671    86.66264   182.26640
   452  H   1.0    0.08    1.03    1.43    90.70666    84.20053   180.72180
   453  N   5.0   -0.09    3.70    2.26    95.95867    79.47451   184.70096
   454  C   4.0    0.03    4.62    4.69    98.15051    78.69610   183.25111
   455  C   4.0    0.15    3.46    3.10    99.33721    76.25387   184.25749
   456  O   6.0   -0.30    1.31    1.80   101.55971    75.79748   183.80820
   457  C   4.0   -0.03    4.31    4.22   100.00574    80.92362   183.31676
   458  C   4.0   -0.04    4.25    4.10    98.75973    82.84720   185.08330
   459  C   4.0    0.00    4.38    4.35    96.79409    81.31244   186.55833
   460  H   1.0    0.06    1.07    1.44    97.53869    78.29071   181.32077
   461  H   1.0    0.06    1.03    1.43   101.83127    80.29392   184.02985
   462  H   1.0    0.05    1.02    1.43   100.30891    81.70505   181.44126
   463  H   1.0    0.05    1.02    1.43   100.09461    83.75811   186.34852
   464  H   1.0    0.05    1.02    1.43    97.80191    84.31495   184.00250
   465  H   1.0    0.07    1.02    1.43    97.65640    80.34628   188.17208
   466  H   1.0    0.07    1.04    1.43    95.26672    82.49841   187.24449
   467  N   5.0   -0.12    3.47    2.06    97.79122    74.55355   185.35524
   468  C   4.0    0.05    4.52    4.56    98.91385    72.20329   186.22217
   469  C   4.0    0.16    3.61    3.17   100.44300    71.14427   184.03516
   470  O   6.0   -0.31    1.34    1.80    99.52420    71.01729   181.90474
   471  C   4.0    0.06    4.24    4.09    96.93955    70.18460   186.92399
   472  O   6.0   -0.24    2.12    1.84    95.93032    70.84692   189.29886
   473  C   4.0   -0.07    4.11    3.81    98.09800    67.53110   187.05791
   474  H   1.0    0.12    1.08    1.44    96.17028    75.07915   186.22691
   475  H   1.0    0.05    1.05    1.44   100.10096    72.56007   187.88653
   476  H   1.0    0.05    1.03    1.43    95.45841    70.22147   185.46214
   477  H   1.0    0.12    1.03    1.43    94.41842    69.87086   189.58041
   478  H   1.0    0.05    1.00    1.43    96.69307    66.24518   187.83864
   479  H   1.0    0.05    1.00    1.43    98.62948    66.85734   185.19253
   480  H   1.0    0.05    1.00    1.43    99.74831    67.52347   188.28070
   481  N   5.0   -0.14    3.52    2.09   102.70674    70.25511   184.63154
   482  C   4.0    0.03    4.49    4.53   104.11518    68.58210   182.99709
   483  C   4.0    0.14    3.42    3.08   103.90827    65.95640   184.20715
   484  O   6.0   -0.33    1.23    1.80   104.41593    65.64593   186.45091
   485  C   4.0   -0.02    4.24    4.07   106.90127    69.40544   182.66615
   486  C   4.0   -0.08    4.11    3.81   107.01463    71.71114   180.93227
   487  C   4.0   -0.08    4.11    3.82   108.21127    69.97345   185.17874
   488  H   1.0    0.08    1.07    1.44   103.31071    70.32965   186.43798
   489  H   1.0    0.05    1.07    1.44   103.17771    68.58703   181.15659
   490  H   1.0    0.03    1.05    1.44   107.86423    67.81417   181.75531
   491  H   1.0    0.03    1.00    1.43   108.94407    72.38843   180.76158
   492  H   1.0    0.04    1.00    1.43   106.30726    71.25024   179.06038
   493  H   1.0    0.06    1.00    1.43   105.85829    73.22342   181.71148
   494  H   1.0    0.02    1.00    1.43   110.23213    70.17166   184.87666
   495  H   1.0    0.04    1.00    1.43   107.50462    71.73686   185.96459
   496  H   1.0    0.05    1.00    1.43   107.88680    68.45782   186.52668
   497  N   5.0   -0.15    3.47    2.06   103.12651    64.12535   182.67874
   498  C   4.0    0.03    4.39    4.36   103.73647    61.49176   183.04601
   499  C   4.0    0.24    3.23    3.04   103.63636    60.30608   180.32896
   500  O   6.0   -0.31    1.24    1.80   102.45903    61.55934   178.71557
   501  C   4.0   -0.04    4.24    4.08   102.00498    59.97219   184.80358
   502  C   4.0   -0.06    4.21    4.02   103.44145    57.64289   185.73661
   503  C   4.0   -0.06    4.17    3.94   101.70219    55.60310   186.79275
   504  C   4.0   -0.04    4.15    3.91   100.53263    54.09191   184.64351
   505  N   5.0   -0.13    4.02    2.90    98.81327    52.11583   185.66725
   506  O   6.0   -0.33    1.19    1.80   104.73736    58.26101   180.04547
   507  H   1.0    0.10    1.12    1.45   102.59198    64.43802   180.85018
   508  H   1.0    0.04    1.05    1.44   105.67720    61.39915   183.77610
   509  H   1.0    0.05    1.02    1.43   101.42200    61.16055   186.38979
   510  H   1.0    0.05    1.03    1.43   100.30138    59.44168   183.76948
   511  H   1.0    0.05    1.04    1.43   104.51238    56.88472   184.14628
   512  H   1.0    0.02    1.03    1.43   104.78472    58.26029   187.17356
   513  H   1.0    0.02    1.03    1.43   102.80597    54.36325   188.01187
   514  H   1.0    0.04    1.03    1.43   100.21930    56.51800   187.89053
   515  H   1.0    0.05    1.03    1.43    99.44087    55.35060   183.43564
   516  H   1.0    0.04    1.02    1.43   102.00291    53.20641   183.50509
   517  H   1.0    0.05    1.02    1.43    98.03957    51.09317   184.20364
   518  H   1.0    0.03    1.02    1.43    99.78870    50.93456   186.87013
   519  H   1.0    0.05    1.02    1.43    97.37239    53.00721   186.63323
   520  O   6.0   -0.32    1.92    1.82    79.80599    52.63188   170.82757
   521  H   1.0    0.16    1.02    1.43    81.42268    52.37764   171.68553
   522  H   1.0    0.12    0.97    1.43    78.77059    53.43728   172.08228
   523  N   5.0   -0.22    3.21    1.96   106.76780    84.01437   174.52147
   524  C   4.0    0.02    4.34    4.27   106.52303    85.79407   176.61621
   525  C   4.0    0.14    3.48    3.11   107.46090    84.52975   179.05307
   526  O   6.0   -0.30    1.24    1.80   107.24088    82.23604   179.33347
   527  C   4.0   -0.05    4.31    4.22   103.80533    86.72360   176.98357
   528  C   4.0   -0.06    4.04    3.70   103.33444    89.17906   175.55583
   529  S   6.0   -0.09    2.46    3.10   100.18581    90.43848   176.04008
   530  C   4.0   -0.08    3.87    3.42    98.22260    88.22128   174.27884
   531  H   1.0    0.08    1.02    1.43   105.49235    82.59749   174.42936
   532  H   1.0    0.02    1.06    1.44   107.78010    87.36155   176.13240
   533  H   1.0    0.04    1.03    1.43   102.51685    85.24643   176.33754
   534  H   1.0    0.05    1.04    1.43   103.45192    87.01178   178.99842
   535  H   1.0    0.02    1.08    1.44   104.58752    90.67525   176.22114
   536  H   1.0    0.02    1.06    1.44   103.63640    88.93271   173.53182
   537  H   1.0    0.04    1.05    1.44    96.30111    88.91014   174.43854
   538  H   1.0    0.03    1.03    1.43    98.82429    88.17925   172.31625
   539  H   1.0    0.04    1.04    1.43    98.36170    86.35622   175.11826
   540  N   5.0   -0.10    3.69    2.25   108.48739    86.05576   180.78003
   541  C   4.0    0.03    4.60    4.67   109.29031    85.11517   183.22547
   542  C   4.0    0.15    3.40    3.08   107.00218    84.93191   185.00615
   543  O   6.0   -0.31    1.23    1.80   104.91012    85.68689   184.42318
   544  C   4.0   -0.06    4.35    4.29   111.16071    87.11050   184.14333
   545  C   4.0   -0.06    4.28    4.15   109.99068    89.54455   183.12041
   546  C   4.0   -0.03    4.37    4.33   108.90395    88.76498   180.55519
   547  H   1.0    0.04    1.05    1.44   110.08857    83.21922   183.00254
   548  H   1.0    0.03    1.02    1.43   111.29849    87.11943   186.19170
   549  H   1.0    0.01    1.02    1.43   113.01951    86.78815   183.31752
   550  H   1.0    0.04    1.02    1.43   108.46940    90.16344   184.36462
   551  H   1.0    0.01    1.02    1.43   111.36845    91.05474   182.92311
   552  H   1.0    0.03    1.02    1.43   107.14451    89.75790   180.15162
   553  H   1.0    0.01    1.02    1.43   110.26760    89.11984   179.04256
   554  N   5.0   -0.15    3.45    2.05   107.58619    83.96043   187.29315
   555  C   4.0    0.03    4.39    4.36   105.69803    83.04587   189.08424
   556  C   4.0    0.15    3.36    3.07   106.10903    84.40475   191.62201
   557  O   6.0   -0.32    1.22    1.80   107.84683    83.78292   193.04708
   558  C   4.0   -0.04    4.25    4.09   105.93411    80.16109   189.34037
   559  C   4.0   -0.03    4.16    3.92   103.39887    78.82687   189.64637
   560  C   4.0    0.26    3.12    3.03   102.12163    79.49162   192.21349
   561  O   6.0   -0.30    1.18    1.80   100.58015    81.27055   192.22704
   562  O   6.0   -0.31    1.16    1.80   102.77674    78.19656   194.07561
   563  H   1.0    0.06    1.07    1.44   109.31808    83.19149   187.52286
   564  H   1.0    0.05    1.07    1.44   103.83901    83.53390   188.33992
   565  H   1.0    0.04    1.03    1.43   106.84188    79.42069   187.63317
   566  H   1.0    0.05    1.03    1.43   107.12964    79.72980   190.97094
   567  H   1.0    0.05    1.02    1.43   102.11944    79.33798   188.11596
   568  H   1.0    0.05    1.02    1.43   103.69614    76.78439   189.59242
   569  N   5.0   -0.14    3.45    2.05   104.65163    86.37608   192.15998
   570  C   4.0    0.03    4.26    4.11   102.88951    87.81614   190.65532
   571  C   4.0    0.24    3.20    3.04   103.28590    90.69317   191.34173
   572  O   6.0   -0.34    1.21    1.80   104.41373    91.12134   193.36753
   573  C   4.0   -0.06    4.09    3.79   100.13692    87.18305   191.25725
   574  O   6.0   -0.33    1.16    1.80   102.42486    92.24961   189.82785
   575  H   1.0    0.10    1.10    1.44   104.99592    87.26450   193.84009
   576  H   1.0    0.06    1.05    1.44   103.26121    87.55686   188.63778
   577  H   1.0    0.05    1.00    1.43    98.91330    88.15480   189.92614
   578  H   1.0    0.07    1.01    1.43    99.82746    85.15431   191.15313
   579  H   1.0    0.05    1.00    1.43    99.68528    87.80577   193.16513
   580  N   5.0   -0.22    3.24    1.96    95.56350    51.63159   162.97126
   581  C   4.0    0.03    4.39    4.35    97.08181    50.59671   164.98109
   582  C   4.0    0.15    3.44    3.09    95.40048    50.01488   167.24871
   583  O   6.0   -0.30    1.25    1.80    93.36436    51.06198   167.57485
   584  C   4.0    0.05    4.24    4.07    99.28666    52.29757   165.86570
   585  O   6.0   -0.24    2.13    1.84    98.31527    54.23520   167.42197
   586  C   4.0   -0.10    4.08    3.77   100.79310    53.31947   163.63739
   587  H   1.0    0.12    1.04    1.43    94.17992    52.85705   163.47152
   588  H   1.0    0.01    1.06    1.44    97.93334    48.85154   164.27623
   589  H   1.0    0.03    1.04    1.43   100.53812    51.07711   166.99939
   590  H   1.0    0.11    1.03    1.43    99.64846    55.45707   167.67591
   591  H   1.0    0.02    1.00    1.43   102.40512    54.40245   164.31460
   592  H   1.0    0.01    1.00    1.43   101.51281    51.74687   162.53381
   593  H   1.0    0.03    1.00    1.43    99.59780    54.48264   162.43715
   594  N   5.0   -0.15    3.48    2.07    96.36620    48.28290   168.80955
   595  C   4.0    0.03    4.32    4.24    95.20454    47.57501   171.18630
   596  C   4.0    0.14    3.41    3.08    97.27451    46.50959   172.89439
   597  O   6.0   -0.33    1.26    1.80    99.44800    46.24179   172.14256
   598  C   4.0   -0.08    4.10    3.81    93.09766    45.61973   170.81913
   599  H   1.0    0.08    1.08    1.44    98.09610    47.53456   168.43198
   600  H   1.0    0.05    1.05    1.44    94.39327    49.28841   172.02952
   601  H   1.0    0.04    1.00    1.43    91.99827    45.37167   172.53516
   602  H   1.0    0.04    1.00    1.43    91.80866    46.27500   169.35693
   603  H   1.0    0.03    1.00    1.43    93.86888    43.80173   170.25545
   604  N   5.0   -0.14    3.48    2.06    96.54100    45.86950   175.21731
   605  C   4.0    0.03    4.33    4.25    98.19654    44.69850   177.05392
   606  C   4.0    0.05    3.23    3.04    97.06038    42.14974   177.81617
   607  O   6.0   -0.33    1.13    1.80    94.96155    42.01664   178.75917
   608  C   4.0   -0.04    4.35    4.29    98.35399    46.31829   179.45837
   609  C   4.0   -0.02    3.56    3.14    99.96583    48.61677   179.08878
   610  C   4.0   -0.06    3.47    3.10   102.57424    48.39618   179.26978
   611  C   4.0   -0.03    3.46    3.10    98.89800    50.96596   178.60219
   612  C   4.0   -0.06    3.37    3.07   104.08995    50.51317   179.06624
   613  C   4.0   -0.03    3.38    3.07   100.41842    53.07861   178.36168
   614  C   4.0   -0.04    3.38    3.07   103.01453    52.86600   178.64507
   615  H   1.0    0.08    1.07    1.44    94.72570    46.11325   175.75742
   616  H   1.0    0.04    1.06    1.44   100.05204    44.46538   176.17824
   617  H   1.0    0.05    1.03    1.43    96.43433    46.84265   179.99340
   618  H   1.0    0.02    1.04    1.43    99.19436    45.15273   180.93283
   619  H   1.0    0.02    1.03    1.43   103.42495    46.57128   179.59753
   620  H   1.0    0.06    1.03    1.43    96.87405    51.15437   178.41199
   621  H   1.0    0.03    1.03    1.43   106.11263    50.34501   179.29180
   622  H   1.0    0.07    1.03    1.43    99.60024    54.90296   177.96221
   623  H   1.0    0.07    1.04    1.43   104.16097    54.55369   178.65656
   624  H   1.0    0.09    1.08    1.44    94.23550    84.75566   166.57005
   625  H   1.0    0.03    1.05    1.44    74.37203    75.52267   171.12195
   626  H   1.0    0.06    1.07    1.44    69.55843    63.92565   172.90813
   627  H   1.0    0.04    1.04    1.43    98.81323    75.26187   162.16533
   628  H   1.0    0.07    1.08    1.44    90.02251    68.83154   160.16343
   629  H   1.0    0.04    1.05    1.44    90.18561    58.72574   162.48321
   630  H   1.0    0.06    1.07    1.44    72.15877    47.82479   187.79440
   631  H   1.0    0.05    1.04    1.43    76.50662    56.09766   187.76969
   632  H   1.0    0.08    1.07    1.44    77.13815    61.25885   194.88048
   633  H   1.0    0.04    1.05    1.44    77.83448    67.37949   188.40170
   634  H   1.0    0.08    1.07    1.44    76.99454    70.34451   192.76688
   635  H   1.0    0.07    1.07    1.44   106.62593    84.85004   173.04699
   636  H   1.0    0.08    1.09    1.44    96.55991    52.48428   161.88837
   637  H   1.0    0.02    1.04    1.44    98.04196    40.55818   177.54327

  Z AO/shell   Hii/eV     exponent
  1     Wed Apr 25 08:07:45 CEST 2018   EN: 2.200 GM2: 0.406  GM3: 0.0800  RAES: 1.40
     1s    -10.707211    1.230000
  6     Wed Apr 25 08:07:45 CEST 2018   EN: 2.550 GM2: 0.538  GM3: 0.1500  RAES: 3.00
     2s    -13.970922    2.096432
     2p    -10.063292    1.800000
  7     Wed Apr 25 08:07:45 CEST 2018   EN: 3.040 GM2: 0.461  GM3:-0.0640  RAES: 1.90
     2s    -16.686243    2.339881
     2p    -12.523956    2.014332
  8     Wed Apr 25 08:07:45 CEST 2018   EN: 3.440 GM2: 0.452  GM3:-0.0517  RAES: 1.80
     2s    -20.229985    2.439742
     2p    -15.503117    2.137023
 16     Tue Apr 24 11:44:34 CEST 2018   EN: 2.580 GM2: 0.340  GM3:-0.0502  RAES: 3.10
     3s    -20.029654    1.981333
     3p    -11.377694    2.025643
     3d     -0.420282    1.702555
 no old-style atom pair restraining (fixing) potential

molecular fragmentation (1/2 indicates fragments):
111111111111111111111111111111111111111111111111111111222222222222222222
222222222222222222222222222222222222222222222222222222222222222222222222
222222222222222222222222222222222222222222222222222222222222222222222222
222222222222222222222222222222222222222222222222222222222222222222222222
222222222222222222222222222222222222222222222222222222222222222222222222
222222222222222222222222222222222222222222222222222222222222222222222222
222222222222222222222222222222222222222222222222222222222222222222222222
222222222222222222222222222222222222222222222222222222222222222222222222
2222222222222222222222222222222222222222222222211222222222222
# atoms in fragment 1/2:    56   581
 fragment masses (1/2) :      385.44     4194.70
CMA distance (Bohr)    :  19.462
constraining FC (au)   :  0.0500
           ------------------------------------------------- 
          |        Self-Consistent Charge Iterations        |
           ------------------------------------------------- 

 Ncao       : 1615
 Nao        : 1614
 Nshell     : 962
 Nel        : 1794
 T(el)      :   500.0
 intcut     :    35.0
 scfconv/Eh :  0.100E-06
   qconv/e  :  0.100E-04
 intneglect :  0.100E-08
 broydamp   :      0.400
 iter      E             dE          RMSdq      gap      omega  full diag
   1  -1028.0522075 -0.102805E+04  0.474E+00    2.86       0.0  T
   2  -1030.7104431 -0.265824E+01  0.223E+00    1.45       1.0  T
   3  -1030.8702995 -0.159856E+00  0.126E+00    1.78       1.0  T
   4  -1031.0195143 -0.149215E+00  0.269E-01    1.25       1.0  T
   5  -1031.0302702 -0.107559E-01  0.138E-01    1.43       1.0  T
   6  -1031.0325090 -0.223884E-02  0.663E-02    1.44       1.0  T
   7  -1031.0334951 -0.986127E-03  0.278E-02    1.43       1.0  T
   8  -1031.0336123 -0.117183E-03  0.144E-02    1.42       1.0  T
   9  -1031.0336481 -0.358332E-04  0.679E-03    1.41       1.0  T
  10  -1031.0336563 -0.819636E-05  0.380E-03    1.41       1.0  T
  11  -1031.0336591 -0.278928E-05  0.181E-03    1.41       2.2  T
  12  -1031.0336599 -0.731510E-06  0.977E-04    1.41       4.1  T
  13  -1031.0336600 -0.181347E-06  0.421E-04    1.41       9.4  T
  14  -1031.0336601 -0.295593E-07  0.207E-04    1.41      19.2  T
  15  -1031.0336601 -0.866748E-08  0.882E-05    1.41      44.9  T
  16  -1031.0336601 -0.129990E-08  0.464E-05    1.41      85.4  T
speedup  1.54
cpu  time for SCC   33.41 s
wall time for SCC   21.75 s

   *** convergence criteria satisfied after 16 iterations ***

          eigenvalues
 #    :         885        886        887        888        889        890        891        892
 occ. :        2.000      2.000      2.000      2.000      2.000      2.000      2.000      2.000
 eps  :        -9.900     -9.896     -9.881     -9.876     -9.814     -9.781     -9.776     -9.750
 #    :         893        894        895        896        897        898        899        900
 occ. :        2.000      2.000      2.000      2.000      2.000      0.000      0.000      0.000
 eps  :        -9.718     -9.658     -9.648     -9.639     -9.536     -8.125     -8.050     -7.937
 #    :         901        902        903        904        905        906        907        908
 occ. :        0.000      0.000      0.000      0.000      0.000      0.000      0.000      0.000
 eps  :        -7.930     -7.890     -7.622     -6.715     -6.715     -6.643     -6.591     -6.581


   #   Z            q   n(s)   n(p)   n(d)      C6AA      α(0)
   1   7 N     -0.396  1.318  4.078  0.000    30.257     8.169
   2   6 C     -0.012  1.047  2.964  0.000    20.868     6.519
   3   6 C      0.268  1.047  2.685  0.000    22.480     7.764
   4   8 O     -0.510  1.748  4.762  0.000    23.998     6.568
   5   1 H      0.184  0.816  0.000  0.000     1.190     1.709
   6   1 H      0.057  0.943  0.000  0.000     2.234     2.337
   7   1 H      0.061  0.939  0.000  0.000     2.182     2.310
   8   7 N     -0.169  1.236  3.933  0.000    24.659     7.375
   9   6 C      0.048  1.052  2.900  0.000    19.767     6.329
  10   6 C      0.276  1.044  2.680  0.000    22.334     7.739
  11   8 O     -0.495  1.729  4.767  0.000    23.681     6.524
  12   6 C     -0.093  1.069  3.023  0.000    22.268     6.718
  13   6 C      0.372  1.021  2.607  0.000    20.693     7.444
  14   8 O     -0.629  1.770  4.859  0.000    26.834     6.945
  15   8 O     -0.634  1.769  4.866  0.000    26.982     6.964
  16   1 H      0.191  0.809  0.000  0.000     1.156     1.684
  17   1 H      0.039  0.961  0.000  0.000     2.463     2.455
  18   1 H      0.036  0.964  0.000  0.000     2.500     2.472
  19   1 H      0.033  0.967  0.000  0.000     2.538     2.491
  20   7 N     -0.159  1.240  3.919  0.000    24.440     7.342
  21   6 C      0.018  1.062  2.920  0.000    20.274     6.412
  22   6 C      0.269  1.043  2.688  0.000    22.455     7.760
  23   8 O     -0.498  1.746  4.752  0.000    23.746     6.533
  24   6 C     -0.077  1.060  3.017  0.000    21.953     6.669
  25   6 C     -0.012  1.056  2.957  0.000    20.762     6.481
  26   6 C     -0.123  1.043  3.080  0.000    22.906     6.823
  27   6 C     -0.112  1.038  3.073  0.000    22.690     6.791
  28   1 H      0.199  0.801  0.000  0.000     1.112     1.652
  29   1 H      0.074  0.926  0.000  0.000     2.042     2.235
  30   1 H      0.058  0.942  0.000  0.000     2.221     2.331
  31   1 H      0.063  0.937  0.000  0.000     2.166     2.302
  32   1 H      0.038  0.962  0.000  0.000     2.481     2.463
  33   1 H      0.036  0.964  0.000  0.000     2.499     2.472
  34   1 H      0.053  0.947  0.000  0.000     2.278     2.360
  35   1 H      0.046  0.954  0.000  0.000     2.373     2.409
  36   1 H      0.025  0.975  0.000  0.000     2.652     2.546
  37   1 H      0.041  0.959  0.000  0.000     2.440     2.443
  38   1 H      0.044  0.956  0.000  0.000     2.396     2.421
  39   7 N     -0.167  1.239  3.929  0.000    24.620     7.369
  40   6 C      0.019  1.062  2.920  0.000    20.273     6.412
  41   6 C      0.196  1.088  2.717  0.000    23.827     7.994
  42   8 O     -0.363  1.749  4.615  0.000    20.962     6.138
  43   6 C     -0.016  1.066  2.950  0.000    20.820     6.490
  44   6 C     -0.116  1.039  3.077  0.000    22.776     6.805
  45   6 C     -0.112  1.036  3.076  0.000    22.697     6.793
  46   1 H      0.234  0.766  0.000  0.000     0.947     1.524
  47   1 H      0.104  0.896  0.000  0.000     1.747     2.067
  48   1 H      0.067  0.933  0.000  0.000     2.124     2.279
  49   1 H      0.063  0.937  0.000  0.000     2.159     2.298
  50   1 H      0.060  0.940  0.000  0.000     2.204     2.322
  51   1 H      0.034  0.966  0.000  0.000     2.529     2.487
  52   1 H      0.063  0.937  0.000  0.000     2.168     2.303
  53   1 H      0.035  0.965  0.000  0.000     2.518     2.482
  54   1 H      0.031  0.969  0.000  0.000     2.567     2.505
  55   7 N     -0.389  1.323  4.065  0.000    30.057     8.142
  56   6 C      0.037  1.058  2.905  0.000    19.972     6.365
  57   6 C      0.260  1.050  2.690  0.000    22.620     7.789
  58   8 O     -0.507  1.753  4.755  0.000    23.948     6.561
  59   6 C     -0.062  1.053  3.010  0.000    21.691     6.630
  60   6 C     -0.045  1.066  2.979  0.000    29.066     8.841
  61   6 C     -0.010  1.070  2.940  0.000    28.216     8.712
  62   6 C     -0.024  1.074  2.950  0.000    28.441     8.735
  63   7 N     -0.121  1.229  3.892  0.000    23.620     7.218
  64   6 C      0.042  1.062  2.895  0.000    26.951     8.509
  65   6 C     -0.045  1.077  2.968  0.000    29.117     8.848
  66   6 C     -0.053  1.070  2.982  0.000    29.305     8.877
  67   6 C     -0.048  1.077  2.971  0.000    29.188     8.859
  68   6 C     -0.041  1.079  2.962  0.000    29.018     8.834
  69   1 H      0.162  0.838  0.000  0.000     1.320     1.800
  70   1 H      0.040  0.960  0.000  0.000     2.453     2.449
  71   1 H      0.056  0.944  0.000  0.000     2.244     2.343
  72   1 H      0.029  0.971  0.000  0.000     2.600     2.522
  73   1 H      0.028  0.972  0.000  0.000     2.614     2.528
  74   1 H      0.173  0.827  0.000  0.000     1.252     1.753
  75   1 H      0.037  0.963  0.000  0.000     2.490     2.468
  76   1 H      0.005  0.995  0.000  0.000     2.965     2.693
  77   1 H      0.043  0.957  0.000  0.000     2.404     2.424
  78   1 H      0.044  0.956  0.000  0.000     2.402     2.423
  79   7 N     -0.084  1.231  3.853  0.000    22.879     7.104
  80   6 C      0.020  1.067  2.913  0.000    20.214     6.398
  81   6 C      0.282  1.043  2.675  0.000    22.231     7.721
  82   8 O     -0.502  1.740  4.762  0.000    23.829     6.545
  83   6 C     -0.067  1.053  3.014  0.000    21.753     6.636
  84   6 C     -0.062  1.048  3.014  0.000    21.667     6.623
  85   6 C     -0.011  1.052  2.959  0.000    20.809     6.501
  86   1 H      0.068  0.932  0.000  0.000     2.110     2.271
  87   1 H      0.040  0.960  0.000  0.000     2.450     2.448
  88   1 H      0.075  0.925  0.000  0.000     2.027     2.227
  89   1 H      0.039  0.961  0.000  0.000     2.469     2.457
  90   1 H      0.060  0.940  0.000  0.000     2.195     2.317
  91   1 H      0.068  0.932  0.000  0.000     2.108     2.271
  92   1 H      0.075  0.925  0.000  0.000     2.037     2.232
  93   7 N     -0.181  1.255  3.926  0.000    24.916     7.414
  94   6 C      0.031  1.053  2.916  0.000    20.056     6.377
  95   6 C      0.268  1.044  2.688  0.000    22.473     7.763
  96   8 O     -0.467  1.725  4.742  0.000    23.074     6.440
  97   6 C     -0.113  1.038  3.075  0.000    22.716     6.796
  98   1 H      0.241  0.759  0.000  0.000     0.920     1.503
  99   1 H      0.062  0.938  0.000  0.000     2.174     2.306
 100   1 H      0.056  0.944  0.000  0.000     2.248     2.345
 101   1 H      0.056  0.944  0.000  0.000     2.247     2.344
 102   1 H      0.060  0.940  0.000  0.000     2.196     2.317
 103   7 N     -0.171  1.239  3.931  0.000    24.693     7.380
 104   6 C      0.020  1.057  2.923  0.000    20.239     6.405
 105   6 C      0.270  1.043  2.687  0.000    22.443     7.758
 106   8 O     -0.495  1.738  4.758  0.000    23.682     6.525
 107   6 C     -0.071  1.052  3.019  0.000    21.850     6.654
 108   6 C     -0.068  1.047  3.021  0.000    21.795     6.645
 109   6 C     -0.019  1.053  2.967  0.000    20.997     6.538
 110   7 N     -0.143  1.208  3.935  0.000    24.088     7.289
 111   6 C      0.238  1.018  2.744  0.000    23.020     7.855
 112   7 N     -0.245  1.245  4.000  0.000    26.384     7.629
 113   7 N     -0.252  1.243  4.009  0.000    26.550     7.653
 114   1 H      0.220  0.780  0.000  0.000     1.012     1.576
 115   1 H      0.090  0.910  0.000  0.000     1.876     2.142
 116   1 H      0.060  0.940  0.000  0.000     2.197     2.318
 117   1 H      0.070  0.930  0.000  0.000     2.087     2.259
 118   1 H      0.057  0.943  0.000  0.000     2.234     2.337
 119   1 H      0.048  0.952  0.000  0.000     2.350     2.397
 120   1 H      0.085  0.915  0.000  0.000     1.933     2.174
 121   1 H      0.082  0.918  0.000  0.000     1.955     2.187
 122   1 H      0.209  0.791  0.000  0.000     1.063     1.615
 123   1 H      0.234  0.766  0.000  0.000     0.948     1.526
 124   1 H      0.228  0.772  0.000  0.000     0.972     1.545
 125   1 H      0.221  0.779  0.000  0.000     1.005     1.571
 126   1 H      0.252  0.748  0.000  0.000     0.874     1.465
 127   7 N     -0.166  1.252  3.914  0.000    24.596     7.366
 128   6 C      0.025  1.062  2.913  0.000    20.151     6.391
 129   6 C      0.271  1.046  2.683  0.000    22.426     7.756
 130   8 O     -0.492  1.742  4.750  0.000    23.602     6.514
 131   6 C     -0.017  1.061  2.956  0.000    20.844     6.493
 132   6 C     -0.069  1.053  3.016  0.000    21.811     6.648
 133   6 C     -0.122  1.042  3.081  0.000    22.899     6.822
 134   6 C     -0.111  1.035  3.076  0.000    22.684     6.792
 135   1 H      0.233  0.767  0.000  0.000     0.951     1.528
 136   1 H      0.065  0.935  0.000  0.000     2.143     2.289
 137   1 H      0.039  0.961  0.000  0.000     2.463     2.455
 138   1 H      0.062  0.938  0.000  0.000     2.181     2.310
 139   1 H      0.050  0.950  0.000  0.000     2.319     2.381
 140   1 H      0.070  0.930  0.000  0.000     2.086     2.258
 141   1 H      0.030  0.970  0.000  0.000     2.590     2.517
 142   1 H      0.054  0.946  0.000  0.000     2.266     2.354
 143   1 H      0.057  0.943  0.000  0.000     2.236     2.339
 144   1 H      0.038  0.962  0.000  0.000     2.475     2.460
 145   1 H      0.025  0.975  0.000  0.000     2.665     2.553
 146   7 N     -0.166  1.241  3.925  0.000    24.584     7.364
 147   6 C      0.037  1.053  2.910  0.000    19.960     6.361
 148   6 C      0.208  1.083  2.709  0.000    23.592     7.955
 149   8 O     -0.382  1.748  4.633  0.000    21.316     6.190
 150   6 C     -0.098  1.072  3.026  0.000    22.373     6.734
 151   6 C      0.371  1.021  2.609  0.000    20.720     7.449
 152   8 O     -0.612  1.765  4.847  0.000    26.426     6.892
 153   8 O     -0.626  1.770  4.856  0.000    26.770     6.937
 154   1 H      0.205  0.795  0.000  0.000     1.081     1.629
 155   1 H      0.098  0.902  0.000  0.000     1.803     2.100
 156   1 H      0.054  0.946  0.000  0.000     2.276     2.359
 157   1 H      0.033  0.967  0.000  0.000     2.551     2.498
 158   7 N     -0.397  1.326  4.071  0.000    30.284     8.173
 159   6 C      0.032  1.059  2.909  0.000    20.042     6.375
 160   6 C      0.276  1.047  2.676  0.000    22.325     7.737
 161   8 O     -0.503  1.742  4.761  0.000    23.860     6.549
 162   6 C     -0.017  1.063  2.954  0.000    20.848     6.494
 163   6 C     -0.110  1.038  3.072  0.000    22.661     6.787
 164   6 C     -0.119  1.042  3.077  0.000    22.833     6.813
 165   1 H      0.161  0.839  0.000  0.000     1.330     1.807
 166   1 H      0.040  0.960  0.000  0.000     2.444     2.445
 167   1 H      0.033  0.967  0.000  0.000     2.542     2.494
 168   1 H      0.058  0.942  0.000  0.000     2.219     2.330
 169   1 H      0.005  0.995  0.000  0.000     2.979     2.699
 170   1 H      0.038  0.962  0.000  0.000     2.472     2.459
 171   1 H      0.063  0.937  0.000  0.000     2.166     2.301
 172   1 H      0.042  0.958  0.000  0.000     2.423     2.434
 173   1 H      0.052  0.948  0.000  0.000     2.291     2.367
 174   7 N     -0.197  1.254  3.942  0.000    25.275     7.467
 175   6 C      0.042  1.053  2.905  0.000    19.874     6.348
 176   6 C      0.270  1.045  2.684  0.000    22.433     7.757
 177   8 O     -0.496  1.732  4.764  0.000    23.688     6.525
 178   6 C     -0.077  1.054  3.023  0.000    21.960     6.670
 179   6 C      0.001  1.083  2.916  0.000    27.995     8.679
 180   6 C     -0.039  1.082  2.957  0.000    28.961     8.825
 181   6 C     -0.049  1.079  2.970  0.000    29.225     8.865
 182   6 C     -0.027  1.083  2.944  0.000    28.669     8.780
 183   6 C     -0.031  1.078  2.953  0.000    28.770     8.796
 184   6 C     -0.031  1.077  2.954  0.000    28.778     8.797
 185   1 H      0.225  0.775  0.000  0.000     0.988     1.557
 186   1 H      0.058  0.942  0.000  0.000     2.228     2.334
 187   1 H      0.078  0.922  0.000  0.000     1.997     2.210
 188   1 H      0.047  0.953  0.000  0.000     2.359     2.402
 189   1 H      0.042  0.958  0.000  0.000     2.417     2.431
 190   1 H      0.029  0.971  0.000  0.000     2.599     2.521
 191   1 H      0.053  0.947  0.000  0.000     2.283     2.363
 192   1 H      0.015  0.985  0.000  0.000     2.811     2.622
 193   1 H      0.028  0.972  0.000  0.000     2.613     2.528
 194   7 N     -0.184  1.255  3.929  0.000    24.985     7.424
 195   6 C      0.038  1.056  2.906  0.000    19.939     6.358
 196   6 C      0.279  1.043  2.678  0.000    22.273     7.729
 197   8 O     -0.511  1.743  4.768  0.000    24.027     6.572
 198   6 C     -0.057  1.047  3.010  0.000    21.581     6.612
 199   6 C      0.012  1.079  2.909  0.000    27.743     8.640
 200   6 C     -0.038  1.079  2.959  0.000    28.949     8.824
 201   6 C     -0.038  1.079  2.959  0.000    28.943     8.823
 202   6 C     -0.031  1.080  2.951  0.000    28.766     8.795
 203   6 C     -0.030  1.078  2.952  0.000    28.749     8.793
 204   6 C     -0.035  1.080  2.954  0.000    28.869     8.811
 205   1 H      0.226  0.774  0.000  0.000     0.982     1.552
 206   1 H      0.067  0.933  0.000  0.000     2.117     2.276
 207   1 H      0.042  0.958  0.000  0.000     2.426     2.436
 208   1 H      0.053  0.947  0.000  0.000     2.286     2.364
 209   1 H      0.035  0.965  0.000  0.000     2.521     2.483
 210   1 H      0.008  0.992  0.000  0.000     2.925     2.675
 211   1 H      0.056  0.944  0.000  0.000     2.241     2.341
 212   1 H      0.031  0.969  0.000  0.000     2.579     2.511
 213   1 H      0.063  0.937  0.000  0.000     2.159     2.298
 214   7 N     -0.185  1.260  3.925  0.000    25.010     7.428
 215   6 C      0.052  1.049  2.899  0.000    19.697     6.318
 216   6 C      0.273  1.045  2.682  0.000    22.393     7.749
 217   8 O     -0.491  1.729  4.762  0.000    23.584     6.511
 218   6 C     -0.064  1.050  3.014  0.000    21.718     6.633
 219   6 C      0.014  1.079  2.907  0.000    27.695     8.632
 220   6 C     -0.033  1.079  2.954  0.000    28.812     8.803
 221   6 C     -0.045  1.078  2.966  0.000    29.114     8.849
 222   6 C     -0.026  1.080  2.947  0.000    28.658     8.779
 223   6 C     -0.035  1.079  2.956  0.000    28.876     8.812
 224   6 C     -0.036  1.080  2.956  0.000    28.898     8.815
 225   1 H      0.233  0.767  0.000  0.000     0.952     1.528
 226   1 H      0.044  0.956  0.000  0.000     2.396     2.421
 227   1 H      0.054  0.946  0.000  0.000     2.269     2.356
 228   1 H      0.058  0.942  0.000  0.000     2.227     2.334
 229   1 H      0.014  0.986  0.000  0.000     2.833     2.632
 230   1 H      0.039  0.961  0.000  0.000     2.458     2.452
 231   1 H      0.018  0.982  0.000  0.000     2.757     2.597
 232   1 H      0.052  0.948  0.000  0.000     2.294     2.368
 233   1 H      0.049  0.951  0.000  0.000     2.327     2.385
 234   7 N     -0.194  1.261  3.933  0.000    25.210     7.457
 235   6 C     -0.018  1.046  2.972  0.000    20.964     6.531
 236   6 C      0.275  1.040  2.685  0.000    22.352     7.742
 237   8 O     -0.468  1.731  4.737  0.000    23.093     6.443
 238   1 H      0.220  0.780  0.000  0.000     1.011     1.575
 239   1 H      0.063  0.937  0.000  0.000     2.161     2.299
 240   1 H      0.094  0.906  0.000  0.000     1.837     2.120
 241   7 N     -0.175  1.239  3.936  0.000    24.796     7.396
 242   6 C      0.013  1.065  2.922  0.000    20.362     6.425
 243   6 C      0.279  1.041  2.680  0.000    22.278     7.729
 244   8 O     -0.470  1.727  4.743  0.000    23.134     6.449
 245   6 C      0.134  1.040  2.826  0.000    18.496     6.139
 246   8 O     -0.519  1.734  4.785  0.000    23.312     6.518
 247   6 C     -0.125  1.042  3.083  0.000    22.954     6.832
 248   1 H      0.206  0.794  0.000  0.000     1.078     1.627
 249   1 H      0.099  0.901  0.000  0.000     1.799     2.097
 250   1 H      0.021  0.979  0.000  0.000     2.716     2.577
 251   1 H      0.327  0.673  0.000  0.000     0.645     1.262
 252   1 H      0.065  0.935  0.000  0.000     2.143     2.289
 253   1 H      0.065  0.935  0.000  0.000     2.146     2.291
 254   1 H      0.046  0.954  0.000  0.000     2.369     2.407
 255   7 N     -0.179  1.240  3.938  0.000    24.867     7.406
 256   6 C      0.037  1.054  2.909  0.000    19.962     6.362
 257   6 C      0.282  1.041  2.677  0.000    22.221     7.719
 258   8 O     -0.482  1.740  4.742  0.000    23.382     6.483
 259   6 C     -0.062  1.044  3.019  0.000    21.694     6.630
 260   6 C      0.049  1.065  2.885  0.000    26.471     8.398
 261   7 N     -0.276  1.454  3.822  0.000    28.005     7.846
 262   6 C     -0.018  1.057  2.961  0.000    28.411     8.742
 263   6 C      0.083  1.060  2.857  0.000    25.882     8.321
 264   7 N     -0.103  1.250  3.853  0.000    23.261     7.163
 265   1 H      0.200  0.800  0.000  0.000     1.108     1.649
 266   1 H      0.047  0.953  0.000  0.000     2.355     2.400
 267   1 H      0.088  0.912  0.000  0.000     1.894     2.152
 268   1 H      0.057  0.943  0.000  0.000     2.231     2.336
 269   1 H     -0.004  1.004  0.000  0.000     3.120     2.762
 270   1 H      0.059  0.941  0.000  0.000     2.213     2.326
 271   1 H      0.182  0.818  0.000  0.000     1.205     1.720
 272   7 N     -0.171  1.238  3.933  0.000    24.691     7.380
 273   6 C      0.040  1.055  2.905  0.000    19.911     6.353
 274   6 C      0.274  1.046  2.680  0.000    22.368     7.745
 275   8 O     -0.514  1.742  4.772  0.000    24.089     6.580
 276   6 C     -0.048  1.047  3.001  0.000    21.431     6.590
 277   6 C     -0.092  1.062  3.031  0.000    22.262     6.718
 278   6 C      0.372  1.024  2.604  0.000    20.700     7.446
 279   8 O     -0.628  1.770  4.859  0.000    26.826     6.944
 280   8 O     -0.591  1.758  4.833  0.000    25.911     6.825
 281   1 H      0.193  0.807  0.000  0.000     1.141     1.673
 282   1 H      0.069  0.931  0.000  0.000     2.094     2.263
 283   1 H      0.034  0.966  0.000  0.000     2.525     2.485
 284   1 H      0.052  0.948  0.000  0.000     2.296     2.370
 285   1 H      0.041  0.959  0.000  0.000     2.439     2.442
 286   1 H      0.032  0.968  0.000  0.000     2.561     2.503
 287   7 N     -0.158  1.238  3.920  0.000    24.427     7.340
 288   6 C      0.031  1.054  2.916  0.000    20.066     6.379
 289   6 C      0.206  1.082  2.712  0.000    23.635     7.962
 290   8 O     -0.344  1.744  4.600  0.000    20.587     6.083
 291   6 C      0.125  1.044  2.830  0.000    18.636     6.164
 292   8 O     -0.465  1.715  4.750  0.000    22.158     6.355
 293   6 C     -0.118  1.038  3.080  0.000    22.816     6.812
 294   1 H      0.230  0.770  0.000  0.000     0.965     1.539
 295   1 H      0.093  0.907  0.000  0.000     1.853     2.129
 296   1 H      0.042  0.958  0.000  0.000     2.422     2.434
 297   1 H      0.337  0.663  0.000  0.000     0.620     1.237
 298   1 H      0.058  0.942  0.000  0.000     2.219     2.330
 299   1 H      0.034  0.966  0.000  0.000     2.536     2.491
 300   1 H      0.057  0.943  0.000  0.000     2.236     2.338
 301   7 N     -0.400  1.326  4.074  0.000    30.378     8.186
 302   6 C      0.032  1.060  2.908  0.000    20.055     6.379
 303   6 C      0.272  1.049  2.679  0.000    22.406     7.751
 304   8 O     -0.463  1.751  4.712  0.000    22.976     6.427
 305   6 C     -0.076  1.058  3.018  0.000    21.938     6.667
 306   6 C     -0.081  1.053  3.027  0.000    22.042     6.684
 307   6 C     -0.093  1.053  3.040  0.000    22.263     6.717
 308   6 C     -0.051  1.060  2.991  0.000    21.586     6.632
 309   7 N     -0.146  1.229  3.917  0.000    24.153     7.299
 310   1 H      0.173  0.827  0.000  0.000     1.256     1.756
 311   1 H      0.027  0.973  0.000  0.000     2.636     2.539
 312   1 H      0.066  0.934  0.000  0.000     2.127     2.281
 313   1 H      0.056  0.944  0.000  0.000     2.250     2.346
 314   1 H      0.034  0.966  0.000  0.000     2.524     2.484
 315   1 H      0.059  0.941  0.000  0.000     2.209     2.324
 316   1 H      0.091  0.909  0.000  0.000     1.870     2.139
 317   1 H      0.077  0.923  0.000  0.000     2.006     2.215
 318   1 H      0.127  0.873  0.000  0.000     1.555     1.950
 319   1 H      0.107  0.893  0.000  0.000     1.721     2.051
 320   1 H      0.306  0.694  0.000  0.000     0.697     1.308
 321   1 H      0.286  0.714  0.000  0.000     0.757     1.363
 322   1 H      0.306  0.694  0.000  0.000     0.695     1.306
 323   7 N     -0.179  1.239  3.940  0.000    24.873     7.407
 324   6 C     -0.012  1.039  2.972  0.000    20.857     6.515
 325   6 C      0.213  1.089  2.698  0.000    23.501     7.939
 326   8 O     -0.398  1.755  4.643  0.000    21.639     6.237
 327   1 H      0.208  0.792  0.000  0.000     1.065     1.617
 328   1 H      0.098  0.902  0.000  0.000     1.799     2.097
 329   1 H      0.109  0.891  0.000  0.000     1.704     2.041
 330   7 N     -0.430  1.329  4.101  0.000    31.233     8.300
 331   6 C      0.047  1.055  2.898  0.000    19.802     6.338
 332   6 C      0.265  1.052  2.683  0.000    22.535     7.774
 333   8 O     -0.512  1.754  4.758  0.000    24.046     6.575
 334   6 C     -0.049  1.050  2.999  0.000    21.443     6.592
 335   6 C     -0.091  1.065  3.026  0.000    22.233     6.714
 336   6 C      0.373  1.025  2.602  0.000    20.687     7.443
 337   8 O     -0.616  1.764  4.852  0.000    26.521     6.905
 338   8 O     -0.624  1.767  4.856  0.000    26.706     6.929
 339   1 H      0.196  0.804  0.000  0.000     1.129     1.665
 340   1 H      0.013  0.987  0.000  0.000     2.846     2.638
 341   1 H      0.036  0.964  0.000  0.000     2.497     2.471
 342   1 H      0.005  0.995  0.000  0.000     2.972     2.696
 343   1 H      0.033  0.967  0.000  0.000     2.549     2.497
 344   1 H      0.019  0.981  0.000  0.000     2.745     2.591
 345   7 N     -0.172  1.245  3.927  0.000    24.721     7.384
 346   6 C     -0.015  1.046  2.969  0.000    20.907     6.523
 347   6 C      0.204  1.083  2.713  0.000    23.661     7.966
 348   8 O     -0.354  1.758  4.596  0.000    20.788     6.113
 349   1 H      0.242  0.758  0.000  0.000     0.914     1.498
 350   1 H      0.058  0.942  0.000  0.000     2.227     2.334
 351   1 H      0.102  0.898  0.000  0.000     1.769     2.080
 352   7 N     -0.395  1.316  4.079  0.000    30.229     8.166
 353   6 C      0.045  1.056  2.898  0.000    19.823     6.341
 354   6 C      0.273  1.049  2.678  0.000    22.388     7.748
 355   8 O     -0.510  1.753  4.757  0.000    24.010     6.570
 356   6 C     -0.060  1.050  3.010  0.000    21.642     6.622
 357   6 C     -0.032  1.067  2.965  0.000    28.751     8.794
 358   6 C     -0.004  1.068  2.936  0.000    28.082     8.691
 359   6 C     -0.014  1.075  2.939  0.000    28.198     8.698
 360   7 N     -0.112  1.233  3.879  0.000    23.446     7.192
 361   6 C      0.053  1.061  2.886  0.000    26.688     8.466
 362   6 C     -0.039  1.075  2.964  0.000    28.975     8.827
 363   6 C     -0.053  1.072  2.981  0.000    29.316     8.878
 364   6 C     -0.050  1.072  2.977  0.000    29.236     8.867
 365   6 C     -0.046  1.074  2.972  0.000    29.152     8.854
 366   1 H      0.157  0.843  0.000  0.000     1.352     1.821
 367   1 H      0.034  0.966  0.000  0.000     2.532     2.489
 368   1 H      0.054  0.946  0.000  0.000     2.272     2.357
 369   1 H      0.041  0.959  0.000  0.000     2.435     2.440
 370   1 H      0.054  0.946  0.000  0.000     2.272     2.357
 371   1 H      0.200  0.800  0.000  0.000     1.107     1.648
 372   1 H      0.001  0.999  0.000  0.000     3.049     2.730
 373   1 H      0.031  0.969  0.000  0.000     2.574     2.509
 374   1 H      0.002  0.998  0.000  0.000     3.025     2.720
 375   1 H      0.025  0.975  0.000  0.000     2.663     2.552
 376   7 N     -0.181  1.252  3.929  0.000    24.920     7.414
 377   6 C      0.047  1.056  2.897  0.000    19.794     6.336
 378   6 C      0.280  1.044  2.676  0.000    22.253     7.725
 379   8 O     -0.495  1.751  4.744  0.000    23.664     6.522
 380   6 C     -0.042  1.042  3.000  0.000    21.319     6.573
 381   6 C     -0.082  1.060  3.021  0.000    22.066     6.689
 382   6 C      0.365  1.030  2.605  0.000    20.811     7.465
 383   8 O     -0.615  1.757  4.858  0.000    26.491     6.901
 384   8 O     -0.622  1.764  4.858  0.000    26.663     6.923
 385   1 H      0.229  0.771  0.000  0.000     0.968     1.541
 386   1 H      0.031  0.969  0.000  0.000     2.571     2.508
 387   1 H      0.051  0.949  0.000  0.000     2.307     2.375
 388   1 H      0.038  0.962  0.000  0.000     2.479     2.462
 389   1 H      0.007  0.993  0.000  0.000     2.939     2.681
 390   1 H      0.037  0.963  0.000  0.000     2.483     2.464
 391   7 N     -0.185  1.245  3.939  0.000    25.000     7.426
 392   6 C      0.038  1.061  2.901  0.000    19.948     6.361
 393   6 C      0.272  1.054  2.674  0.000    22.411     7.751
 394   8 O     -0.466  1.737  4.728  0.000    23.032     6.435
 395   6 C     -0.022  1.066  2.956  0.000    20.935     6.508
 396   6 C     -0.064  1.050  3.014  0.000    21.733     6.637
 397   6 C     -0.121  1.043  3.078  0.000    22.869     6.818
 398   6 C     -0.108  1.037  3.071  0.000    22.618     6.782
 399   1 H      0.209  0.791  0.000  0.000     1.061     1.613
 400   1 H      0.037  0.963  0.000  0.000     2.492     2.469
 401   1 H      0.064  0.936  0.000  0.000     2.149     2.293
 402   1 H      0.054  0.946  0.000  0.000     2.265     2.353
 403   1 H      0.029  0.971  0.000  0.000     2.602     2.522
 404   1 H      0.075  0.925  0.000  0.000     2.028     2.227
 405   1 H      0.043  0.957  0.000  0.000     2.414     2.429
 406   1 H      0.036  0.964  0.000  0.000     2.504     2.475
 407   1 H      0.034  0.966  0.000  0.000     2.534     2.489
 408   1 H      0.024  0.976  0.000  0.000     2.674     2.557
 409   1 H      0.057  0.943  0.000  0.000     2.239     2.340
 410   7 N     -0.184  1.263  3.922  0.000    24.990     7.424
 411   6 C      0.022  1.063  2.914  0.000    20.216     6.404
 412   6 C      0.271  1.045  2.684  0.000    22.423     7.754
 413   8 O     -0.475  1.742  4.733  0.000    23.242     6.464
 414   6 C     -0.053  1.049  3.004  0.000    21.528     6.606
 415   6 C     -0.086  1.062  3.024  0.000    22.141     6.700
 416   6 C      0.366  1.027  2.607  0.000    20.789     7.462
 417   8 O     -0.647  1.774  4.873  0.000    27.299     7.005
 418   8 O     -0.635  1.761  4.874  0.000    26.991     6.965
 419   1 H      0.222  0.778  0.000  0.000     1.002     1.568
 420   1 H      0.094  0.906  0.000  0.000     1.837     2.119
 421   1 H      0.040  0.960  0.000  0.000     2.447     2.446
 422   1 H      0.025  0.975  0.000  0.000     2.662     2.552
 423   1 H      0.017  0.983  0.000  0.000     2.772     2.604
 424   1 H      0.044  0.956  0.000  0.000     2.393     2.419
 425   7 N     -0.192  1.250  3.942  0.000    25.168     7.451
 426   6 C      0.042  1.056  2.902  0.000    19.882     6.350
 427   6 C      0.289  1.038  2.672  0.000    22.096     7.698
 428   8 O     -0.481  1.742  4.738  0.000    23.357     6.480
 429   6 C     -0.093  1.058  3.035  0.000    22.271     6.717
 430   6 C      0.309  1.030  2.661  0.000    21.756     7.637
 431   8 O     -0.492  1.756  4.737  0.000    23.614     6.515
 432   7 N     -0.285  1.272  4.013  0.000    27.349     7.767
 433   1 H      0.196  0.804  0.000  0.000     1.125     1.662
 434   1 H      0.055  0.945  0.000  0.000     2.255     2.348
 435   1 H      0.073  0.927  0.000  0.000     2.051     2.240
 436   1 H      0.077  0.923  0.000  0.000     2.012     2.218
 437   1 H      0.218  0.782  0.000  0.000     1.019     1.582
 438   1 H      0.239  0.761  0.000  0.000     0.928     1.509
 439   7 N     -0.192  1.254  3.938  0.000    25.161     7.450
 440   6 C      0.048  1.048  2.903  0.000    19.761     6.328
 441   6 C      0.253  1.050  2.697  0.000    22.754     7.812
 442   8 O     -0.495  1.731  4.764  0.000    23.674     6.524
 443   6 C     -0.101  1.059  3.042  0.000    22.412     6.739
 444   6 C      0.287  1.034  2.678  0.000    22.128     7.702
 445   8 O     -0.495  1.758  4.737  0.000    23.674     6.524
 446   7 N     -0.277  1.263  4.015  0.000    27.171     7.742
 447   1 H      0.226  0.774  0.000  0.000     0.984     1.554
 448   1 H      0.088  0.912  0.000  0.000     1.898     2.155
 449   1 H      0.087  0.913  0.000  0.000     1.905     2.158
 450   1 H      0.082  0.918  0.000  0.000     1.960     2.189
 451   1 H      0.241  0.759  0.000  0.000     0.919     1.502
 452   1 H      0.227  0.773  0.000  0.000     0.977     1.549
 453   7 N     -0.086  1.234  3.852  0.000    22.924     7.111
 454   6 C      0.017  1.066  2.918  0.000    20.265     6.404
 455   6 C      0.279  1.045  2.677  0.000    22.282     7.730
 456   8 O     -0.470  1.738  4.731  0.000    23.123     6.447
 457   6 C     -0.056  1.048  3.007  0.000    21.558     6.608
 458   6 C     -0.053  1.049  3.004  0.000    21.500     6.598
 459   6 C      0.002  1.048  2.950  0.000    20.565     6.461
 460   1 H      0.091  0.909  0.000  0.000     1.867     2.137
 461   1 H      0.053  0.947  0.000  0.000     2.282     2.363
 462   1 H      0.069  0.931  0.000  0.000     2.100     2.266
 463   1 H      0.043  0.957  0.000  0.000     2.403     2.424
 464   1 H      0.058  0.942  0.000  0.000     2.227     2.333
 465   1 H      0.045  0.955  0.000  0.000     2.382     2.414
 466   1 H      0.067  0.933  0.000  0.000     2.124     2.279
 467   7 N     -0.182  1.254  3.927  0.000    24.933     7.416
 468   6 C      0.042  1.055  2.904  0.000    19.872     6.346
 469   6 C      0.283  1.039  2.678  0.000    22.202     7.717
 470   8 O     -0.498  1.722  4.777  0.000    23.750     6.534
 471   6 C      0.132  1.041  2.827  0.000    18.528     6.145
 472   8 O     -0.459  1.718  4.741  0.000    22.026     6.335
 473   6 C     -0.119  1.041  3.078  0.000    22.846     6.816
 474   1 H      0.202  0.798  0.000  0.000     1.096     1.640
 475   1 H      0.040  0.960  0.000  0.000     2.445     2.445
 476   1 H      0.015  0.985  0.000  0.000     2.811     2.622
 477   1 H      0.304  0.696  0.000  0.000     0.710     1.324
 478   1 H      0.061  0.939  0.000  0.000     2.192     2.315
 479   1 H      0.041  0.959  0.000  0.000     2.438     2.442
 480   1 H      0.065  0.935  0.000  0.000     2.141     2.288
 481   7 N     -0.152  1.241  3.911  0.000    24.280     7.318
 482   6 C      0.015  1.069  2.917  0.000    20.332     6.420
 483   6 C      0.269  1.041  2.690  0.000    22.453     7.760
 484   8 O     -0.491  1.741  4.750  0.000    23.596     6.513
 485   6 C     -0.012  1.062  2.949  0.000    20.748     6.479
 486   6 C     -0.122  1.042  3.080  0.000    22.900     6.823
 487   6 C     -0.122  1.039  3.083  0.000    22.887     6.822
 488   1 H      0.204  0.796  0.000  0.000     1.087     1.633
 489   1 H      0.056  0.944  0.000  0.000     2.250     2.346
 490   1 H      0.048  0.952  0.000  0.000     2.345     2.395
 491   1 H      0.067  0.933  0.000  0.000     2.113     2.273
 492   1 H      0.044  0.956  0.000  0.000     2.396     2.421
 493   1 H      0.042  0.958  0.000  0.000     2.416     2.431
 494   1 H      0.068  0.932  0.000  0.000     2.111     2.272
 495   1 H      0.035  0.965  0.000  0.000     2.511     2.478
 496   1 H      0.057  0.943  0.000  0.000     2.235     2.338
 497   7 N     -0.198  1.265  3.933  0.000    25.304     7.471
 498   6 C      0.014  1.072  2.914  0.000    20.345     6.424
 499   6 C      0.366  1.023  2.612  0.000    20.800     7.464
 500   8 O     -0.632  1.779  4.853  0.000    26.922     6.957
 501   6 C     -0.057  1.051  3.007  0.000    21.604     6.617
 502   6 C     -0.071  1.050  3.020  0.000    21.843     6.653
 503   6 C     -0.094  1.055  3.039  0.000    22.288     6.721
 504   6 C     -0.048  1.059  2.988  0.000    21.519     6.621
 505   7 N     -0.141  1.230  3.911  0.000    24.046     7.283
 506   8 O     -0.585  1.748  4.838  0.000    25.760     6.805
 507   1 H      0.196  0.804  0.000  0.000     1.129     1.664
 508   1 H      0.028  0.972  0.000  0.000     2.615     2.529
 509   1 H      0.029  0.971  0.000  0.000     2.608     2.525
 510   1 H      0.030  0.970  0.000  0.000     2.589     2.516
 511   1 H      0.067  0.933  0.000  0.000     2.121     2.278
 512   1 H      0.054  0.946  0.000  0.000     2.273     2.357
 513   1 H      0.099  0.901  0.000  0.000     1.798     2.097
 514   1 H      0.075  0.925  0.000  0.000     2.036     2.231
 515   1 H      0.094  0.906  0.000  0.000     1.842     2.122
 516   1 H      0.114  0.886  0.000  0.000     1.664     2.017
 517   1 H      0.285  0.715  0.000  0.000     0.761     1.367
 518   1 H      0.320  0.680  0.000  0.000     0.657     1.270
 519   1 H      0.294  0.706  0.000  0.000     0.731     1.339
 520   8 O     -0.658  1.769  4.889  0.000    26.615     6.963
 521   1 H      0.305  0.695  0.000  0.000     0.706     1.320
 522   1 H      0.320  0.680  0.000  0.000     0.664     1.280
 523   7 N     -0.384  1.319  4.066  0.000    29.943     8.127
 524   6 C      0.027  1.064  2.910  0.000    20.139     6.392
 525   6 C      0.263  1.046  2.690  0.000    22.560     7.778
 526   8 O     -0.513  1.759  4.754  0.000    24.073     6.578
 527   6 C     -0.057  1.051  3.007  0.000    21.583     6.610
 528   6 C     -0.010  1.067  2.943  0.000    20.764     6.488
 529  16 S     -0.235  1.918  4.264  0.054   151.137    20.691
 530   6 C     -0.054  1.053  3.001  0.000    21.620     6.633
 531   1 H      0.151  0.849  0.000  0.000     1.393     1.849
 532   1 H      0.058  0.942  0.000  0.000     2.225     2.333
 533   1 H      0.036  0.964  0.000  0.000     2.509     2.477
 534   1 H      0.028  0.972  0.000  0.000     2.619     2.531
 535   1 H      0.066  0.934  0.000  0.000     2.127     2.281
 536   1 H      0.063  0.937  0.000  0.000     2.161     2.299
 537   1 H      0.058  0.942  0.000  0.000     2.221     2.331
 538   1 H      0.065  0.935  0.000  0.000     2.136     2.286
 539   1 H      0.043  0.957  0.000  0.000     2.414     2.430
 540   7 N     -0.081  1.224  3.856  0.000    22.807     7.093
 541   6 C      0.018  1.065  2.917  0.000    20.245     6.401
 542   6 C      0.283  1.043  2.674  0.000    22.202     7.716
 543   8 O     -0.481  1.752  4.729  0.000    23.363     6.481
 544   6 C     -0.077  1.056  3.021  0.000    21.948     6.666
 545   6 C     -0.067  1.050  3.017  0.000    21.766     6.638
 546   6 C     -0.013  1.056  2.958  0.000    20.850     6.508
 547   1 H      0.071  0.929  0.000  0.000     2.078     2.254
 548   1 H      0.055  0.945  0.000  0.000     2.254     2.348
 549   1 H      0.093  0.907  0.000  0.000     1.854     2.129
 550   1 H      0.040  0.960  0.000  0.000     2.452     2.449
 551   1 H      0.089  0.911  0.000  0.000     1.886     2.147
 552   1 H      0.062  0.938  0.000  0.000     2.174     2.306
 553   1 H      0.084  0.916  0.000  0.000     1.943     2.180
 554   7 N     -0.207  1.270  3.937  0.000    25.514     7.502
 555   6 C      0.043  1.057  2.900  0.000    19.862     6.347
 556   6 C      0.274  1.046  2.680  0.000    22.372     7.745
 557   8 O     -0.519  1.742  4.777  0.000    24.211     6.597
 558   6 C     -0.051  1.054  2.997  0.000    21.489     6.600
 559   6 C     -0.077  1.063  3.014  0.000    21.969     6.674
 560   6 C      0.375  1.026  2.599  0.000    20.644     7.436
 561   8 O     -0.648  1.774  4.874  0.000    27.326     7.009
 562   8 O     -0.649  1.762  4.887  0.000    27.363     7.013
 563   1 H      0.211  0.789  0.000  0.000     1.054     1.608
 564   1 H      0.044  0.956  0.000  0.000     2.399     2.422
 565   1 H      0.044  0.956  0.000  0.000     2.394     2.420
 566   1 H      0.048  0.952  0.000  0.000     2.342     2.393
 567   1 H      0.005  0.995  0.000  0.000     2.975     2.697
 568   1 H      0.010  0.990  0.000  0.000     2.890     2.658
 569   7 N     -0.185  1.259  3.927  0.000    25.017     7.429
 570   6 C      0.018  1.069  2.913  0.000    20.298     6.419
 571   6 C      0.371  1.023  2.607  0.000    20.718     7.449
 572   8 O     -0.620  1.763  4.857  0.000    26.623     6.918
 573   6 C     -0.100  1.037  3.063  0.000    22.459     6.757
 574   8 O     -0.609  1.759  4.850  0.000    26.337     6.881
 575   1 H      0.213  0.787  0.000  0.000     1.042     1.599
 576   1 H      0.024  0.976  0.000  0.000     2.672     2.556
 577   1 H      0.044  0.956  0.000  0.000     2.396     2.420
 578   1 H      0.047  0.953  0.000  0.000     2.355     2.400
 579   1 H      0.027  0.973  0.000  0.000     2.634     2.538
 580   7 N     -0.381  1.308  4.072  0.000    29.836     8.112
 581   6 C      0.023  1.061  2.915  0.000    20.194     6.400
 582   6 C      0.283  1.041  2.676  0.000    22.205     7.717
 583   8 O     -0.497  1.752  4.745  0.000    23.707     6.528
 584   6 C      0.116  1.048  2.837  0.000    18.785     6.188
 585   8 O     -0.495  1.739  4.756  0.000    22.776     6.443
 586   6 C     -0.136  1.044  3.092  0.000    23.180     6.866
 587   1 H      0.160  0.840  0.000  0.000     1.335     1.810
 588   1 H      0.053  0.947  0.000  0.000     2.283     2.363
 589   1 H      0.012  0.988  0.000  0.000     2.866     2.647
 590   1 H      0.316  0.684  0.000  0.000     0.675     1.290
 591   1 H      0.055  0.945  0.000  0.000     2.262     2.352
 592   1 H      0.069  0.931  0.000  0.000     2.100     2.266
 593   1 H      0.060  0.940  0.000  0.000     2.201     2.320
 594   7 N     -0.181  1.242  3.939  0.000    24.925     7.415
 595   6 C      0.031  1.053  2.916  0.000    20.062     6.379
 596   6 C      0.269  1.041  2.690  0.000    22.462     7.761
 597   8 O     -0.477  1.741  4.736  0.000    23.285     6.470
 598   6 C     -0.123  1.041  3.082  0.000    22.916     6.826
 599   1 H      0.215  0.785  0.000  0.000     1.033     1.592
 600   1 H      0.046  0.954  0.000  0.000     2.371     2.408
 601   1 H      0.059  0.941  0.000  0.000     2.215     2.327
 602   1 H      0.060  0.940  0.000  0.000     2.198     2.318
 603   1 H      0.075  0.925  0.000  0.000     2.036     2.231
 604   7 N     -0.155  1.233  3.922  0.000    24.352     7.329
 605   6 C      0.022  1.061  2.917  0.000    20.218     6.403
 606   6 C      0.197  1.087  2.716  0.000    23.791     7.988
 607   8 O     -0.342  1.751  4.591  0.000    20.549     6.078
 608   6 C     -0.086  1.059  3.027  0.000    22.132     6.695
 609   6 C      0.006  1.075  2.918  0.000    27.875     8.660
 610   6 C     -0.046  1.081  2.965  0.000    29.154     8.855
 611   6 C     -0.044  1.079  2.966  0.000    29.099     8.846
 612   6 C     -0.034  1.081  2.953  0.000    28.848     8.808
 613   6 C     -0.025  1.080  2.945  0.000    28.637     8.775
 614   6 C     -0.036  1.087  2.949  0.000    28.893     8.815
 615   1 H      0.202  0.798  0.000  0.000     1.097     1.641
 616   1 H      0.100  0.900  0.000  0.000     1.785     2.089
 617   1 H      0.076  0.924  0.000  0.000     2.020     2.222
 618   1 H      0.095  0.905  0.000  0.000     1.831     2.116
 619   1 H      0.069  0.931  0.000  0.000     2.102     2.267
 620   1 H      0.022  0.978  0.000  0.000     2.703     2.571
 621   1 H      0.047  0.953  0.000  0.000     2.362     2.404
 622   1 H      0.003  0.997  0.000  0.000     3.010     2.713
 623   1 H      0.041  0.959  0.000  0.000     2.430     2.438
 624   1 H      0.169  0.831  0.000  0.000     1.277     1.770
 625   1 H      0.095  0.905  0.000  0.000     1.828     2.114
 626   1 H      0.194  0.806  0.000  0.000     1.134     1.668
 627   1 H      0.078  0.922  0.000  0.000     1.995     2.208
 628   1 H      0.193  0.807  0.000  0.000     1.140     1.673
 629   1 H      0.082  0.918  0.000  0.000     1.954     2.186
 630   1 H      0.183  0.817  0.000  0.000     1.194     1.712
 631   1 H      0.089  0.911  0.000  0.000     1.892     2.151
 632   1 H      0.168  0.832  0.000  0.000     1.283     1.774
 633   1 H      0.095  0.905  0.000  0.000     1.830     2.116
 634   1 H      0.196  0.804  0.000  0.000     1.128     1.663
 635   1 H      0.192  0.808  0.000  0.000     1.146     1.676
 636   1 H      0.191  0.809  0.000  0.000     1.155     1.683
 637   1 H      0.096  0.904  0.000  0.000     1.819     2.109

 Mol. C6AA /au·bohr⁶  :    4056765.611391
 Mol. C8AA /au·bohr⁸  :   91595121.433088
 Mol. α(0) /au        :       3030.442609

 
molecular dipole:
                 x           y           z       tot (Debye)
 q only:     -557.273    -479.000   -1098.871
   full:     -558.781    -477.629   -1095.621    3353.589
molecular quadrupole (traceless):
                xx          xy          yy          xz          yz          zz
 q only:    68091.008  -66916.230   89136.035 -153113.862 -132380.485 -157227.042
  q+dip:    67135.922  -66882.935   88780.221 -153121.584 -131683.589 -155916.143
   full:    67135.198  -66878.772   88778.702 -153123.804 -131683.919 -155913.901
speedup  1.58
cpu  time for grad   39.05 s
wall time for grad   24.77 s

SCC energy    :   -1031.0541768
rep           :      12.3409138
ES            :       4.4733990
AES           :      -0.1822508
AXC           :       0.2987141
disp          :      -0.9319873
XB            :       0.0000000
fix           :       0.0000000
Gborn         :       0.0000000
Gsasa         :       0.0000000
Ghb           :       0.0000000
Gshift        :       0.0000000
Gsolv         :      -1.6948979    -1063.56
Etot ala COSMO:   -1031.0541768
grad norm     :       0.6078417
total E       :   -1018.6099136
atomizationE  :     186.8139136   117227.50
(atE without considering molecular charge,
 total energy contains solvation terms)
H-L gap (eV)  :          1.4114

------------------------------------------------------------------------
 * finished run on 2019/05/09 at 22:31:19.271     
------------------------------------------------------------------------
 total:
 * wall-time:     0 d,  0 h,  0 min, 26.676 sec
 *  cpu-time:     0 d,  0 h,  0 min, 41.488 sec
 * ratio c/w:     1.555 speedup
 SCF:
 * wall-time:     0 d,  0 h,  0 min, 25.919 sec
 *  cpu-time:     0 d,  0 h,  0 min, 40.777 sec
 * ratio c/w:     1.573 speedup

