      -----------------------------------------------------------      
     |                   =====================                   |     
     |                           x T B                           |     
     |                   =====================                   |     
     |                         S. Grimme                         |     
     |          Mulliken Center for Theoretical Chemistry        |     
     |                    University of Bonn                     |     
     |                 Version 6.0.1 (SAW181210)                 |     
      -----------------------------------------------------------      

   This program is distributed in the hope that it will be useful,
   but WITHOUT ANY WARRANTY; without even the implied warranty of
   MERCHANTABILITY or FITNESS FOR A PARTICULAR PURPOSE.
   
   FOR NON-COMMERCIAL, ACADEMIA USE ONLY.
   
   Cite this work as:
   S. Grimme, C. Bannwarth, P. Shushkov, J. Comput. Theory Chem., 2017,
   13, 1989-2009.
   C. Bannwarth, S. Ehlert and S. Grimme., ChemRxiv, 2018, preprint.
   http://doi.org/10.26434/chemrxiv.7246238.v1
   
   for sTDA-xTB:
   S. Grimme and C. Bannwarth, J. Chem. Phys., 2016, 145, 054103.
   
   in the mass-spec context:
   V. Asgeirsson, C. Bauer and S. Grimme, Chem. Sci., 2017, 8, 4879.
   
   if GBSA is used:
   P. Shushkov, F. März and S. Grimme, unpublished.
   
   for ANC optimizer:
   S. Grimme, unpublished.
   Rational Function algorithm used in ANCopt:
   F. Eckert, P. Pulay, H.-J. Werner, J. Comput. Chem., 1997, 18, 1473.
   
   with help from (in alphabetical order)
   C. Bannwarth, F. Bohle, G. Brandenburg, E. Caldeweyher, M. Checinski,
   S. Dohm, S. Ehlert, S. Ehrlich, F. März, H. Neugebauer, J. Pisarek,
   P. Pracht, P. Shushkov, and S. Spicher.
   
 * started run on 2019/05/07 at 22:49:38.813     
========================================================================
 # omp threads = 2
========================================================================
number of atoms            : 623
number of electrons        : 1594
charge                     : 1
spin                       : .0
first test random number   : .3766

########################################################################
# WARNING! Please study the warnings concerning your input carefully
#  - Process number higher than OMP_NUM_THREADS, I hope you know what you are doing.
########################################################################

           ------------------------------------------------- 
          |                 G F N 2 - x T B                 |
          | Geometry, Frequencies, Noncovalent interactions |
          |            JCTC 2018 parametrisation            |
           ------------------------------------------------- 
 
      method parameters     
 k(s)        :  1.8500
 k(p)        :  2.2300
 k(d)        :  2.2300
 k(f)        :  2.0000
 kEN (H0ij)  : -2.0000
 D4 a1       :  0.5200
 D4 a2       :  5.0000
 D4 s6       :  1.0000
 D4 s8       :  2.7000
 D4 s9       :  5.0000
 alphaj      :  2.0000

 Solvent             : h2o
 Using internal parameter file: .param_gbsa2_h2o
 Gsolv ref. state (COSMO-RS): gsolv [1 M gas/solution]
 temperature (mdtemp)       :    298.150000000000     
 dielectric constant        :    80.2000000000000     
 rho                        :    1.00000000000000     
 mass                       :    18.0000000000000     
 surface tension            :    15.5689454083859     
 probe radius               :   0.975313790000000     
 vdW radii scaling          :    1.00000000000000     
 Gshift (Eh)                :   1.857443126794793E-003
 c1                         :    1.55243817000000     
 soset                      :   0.130326360000000     
 HB correction              :  T

            Z     q(EN)     CN     RAES       Cart. coordinates
     1  N   5.0   -0.21    3.24    1.96    90.72219    19.74343    -5.60964
     2  C   4.0    0.02    4.38    4.34    89.96853    21.32770    -3.49818
     3  C   4.0    0.15    3.48    3.11    91.68642    20.71072    -1.25765
     4  O   6.0   -0.32    1.36    1.80    92.92652    22.31455    -0.13732
     5  C   4.0   -0.04    4.30    4.19    87.11735    20.98912    -2.91664
     6  C   4.0   -0.01    3.58    3.15    86.40705    22.83013    -0.86021
     7  C   4.0   -0.04    3.52    3.12    87.36164    25.28628    -0.87703
     8  C   4.0   -0.04    3.46    3.10    85.03540    22.03629     1.22210
     9  C   4.0   -0.04    3.38    3.07    87.15432    26.82455     1.20940
    10  C   4.0   -0.05    3.39    3.08    84.78443    23.59833     3.29976
    11  C   4.0   -0.05    3.40    3.08    85.89435    25.95292     3.31702
    12  H   1.0    0.08    1.03    1.43    89.34109    18.62913    -6.32466
    13  H   1.0    0.04    1.06    1.44    90.36845    23.29403    -4.00264
    14  H   1.0    0.04    1.02    1.43    86.07714    21.30939    -4.66934
    15  H   1.0    0.04    1.03    1.43    86.76272    19.05642    -2.30800
    16  H   1.0    0.04    1.04    1.43    88.24645    26.01604    -2.55720
    17  H   1.0    0.05    1.03    1.43    84.25396    20.15013     1.24758
    18  H   1.0    0.05    1.03    1.43    87.92428    28.71311     1.18884
    19  H   1.0    0.04    1.03    1.43    83.73566    22.98574     4.93189
    20  H   1.0    0.04    1.03    1.43    85.62422    27.18431     4.91480
    21  N   5.0   -0.15    3.53    2.10    91.73343    18.25332    -0.70084
    22  C   4.0    0.04    4.46    4.49    93.12912    17.41286     1.45683
    23  C   4.0    0.16    3.58    3.16    95.85003    18.38879     1.24302
    24  O   6.0   -0.30    1.37    1.80    96.80037    19.46338     3.07756
    25  C   4.0   -0.04    4.32    4.23    92.74038    14.60717     1.84729
    26  C   4.0    0.16    3.25    3.04    93.69748    13.92035     4.44724
    27  O   6.0   -0.30    1.21    1.80    92.61989    14.47729     6.39985
    28  N   5.0   -0.18    3.20    1.96    95.90832    12.68384     4.39471
    29  H   1.0    0.07    1.07    1.44    90.67080    17.00503    -1.69854
    30  H   1.0    0.06    1.07    1.44    92.40239    18.40435     3.14544
    31  H   1.0    0.05    1.03    1.43    90.71416    14.23569     1.71872
    32  H   1.0    0.04    1.03    1.43    93.71840    13.54159     0.38168
    33  H   1.0    0.10    1.03    1.43    96.72649    12.23429     6.05415
    34  H   1.0    0.08    1.03    1.43    96.82389    12.25189     2.78845
    35  N   5.0   -0.15    3.43    2.04    97.15462    18.19209    -0.91522
    36  C   4.0    0.04    4.44    4.45    99.59005    19.46273    -0.76600
    37  C   4.0    0.16    3.62    3.18    99.12031    22.24719    -0.02176
    38  O   6.0   -0.30    1.41    1.80   100.48980    23.24618     1.58242
    39  C   4.0   -0.05    4.16    3.91   101.35858    19.18642    -3.04637
    40  C   4.0   -0.05    4.08    3.77   103.82545    20.78453    -2.89221
    41  C   4.0   -0.05    4.02    3.65   105.68785    20.38863    -0.58209
    42  C   4.0   -0.04    4.00    3.63   108.21894    22.00597    -0.62884
    43  N   5.0   -0.12    3.95    2.73   109.52935    22.39301     1.93464
    44  H   1.0    0.08    1.04    1.43    96.48345    17.35647    -2.50091
    45  H   1.0    0.06    1.07    1.44   100.55638    18.65306     0.89040
    46  H   1.0    0.04    1.02    1.43   101.83783    17.19294    -3.24722
    47  H   1.0    0.04    1.03    1.43   100.34601    19.78769    -4.73818
    48  H   1.0    0.04    1.02    1.43   104.87663    20.41354    -4.62300
    49  H   1.0    0.05    1.02    1.43   103.27914    22.77291    -2.89368
    50  H   1.0    0.05    1.02    1.43   104.65018    20.92108     1.11920
    51  H   1.0    0.04    1.02    1.43   106.18177    18.39663    -0.45532
    52  H   1.0    0.04    1.01    1.43   109.58294    21.10615    -1.87625
    53  H   1.0    0.05    1.02    1.43   107.76106    23.87733    -1.35253
    54  H   1.0    0.06    1.02    1.43   110.92568    23.72046     1.71744
    55  H   1.0    0.06    1.01    1.43   108.30039    22.94012     3.33834
    56  H   1.0    0.06    1.01    1.43   110.32710    20.74210     2.59668
    57  N   5.0   -0.13    3.53    2.10    97.36728    23.69673    -1.10158
    58  C   4.0    0.04    4.61    4.67    97.70745    26.37903    -0.54057
    59  C   4.0    0.17    3.59    3.16    97.57397    26.74556     2.30719
    60  O   6.0   -0.30    1.29    1.80    99.22697    27.97024     3.38910
    61  C   4.0   -0.03    4.34    4.28    96.13068    28.17885    -2.16638
    62  C   4.0   -0.05    4.22    4.04    93.36860    28.10858    -1.46049
    63  C   4.0   -0.07    4.17    3.94    96.52202    27.62408    -4.97757
    64  C   4.0   -0.08    4.10    3.80    91.88355    29.47074    -3.49695
    65  H   1.0    0.09    1.06    1.44    96.32508    23.12586    -2.59377
    66  H   1.0    0.06    1.07    1.44    99.68948    26.84412    -0.98811
    67  H   1.0    0.04    1.06    1.44    96.89237    30.06510    -1.77594
    68  H   1.0    0.06    1.05    1.44    92.72251    26.16827    -1.27202
    69  H   1.0    0.04    1.03    1.43    93.08440    29.03780     0.35896
    70  H   1.0    0.04    1.01    1.43    95.88352    29.18429    -6.13554
    71  H   1.0    0.05    1.00    1.43    98.51703    27.34319    -5.34904
    72  H   1.0    0.04    1.00    1.43    95.53690    25.91082    -5.54292
    73  H   1.0    0.04    1.00    1.43    89.96463    29.85863    -2.86017
    74  H   1.0    0.04    1.00    1.43    92.74882    31.28522    -3.92846
    75  H   1.0    0.04    1.00    1.43    91.75993    28.37255    -5.21915
    76  N   5.0   -0.14    3.46    2.05    95.63822    25.62845     3.48153
    77  C   4.0    0.04    4.55    4.61    95.59016    25.59333     6.22284
    78  C   4.0    0.16    3.66    3.20    98.18986    25.13212     7.34876
    79  O   6.0   -0.33    1.32    1.80    99.12377    26.54528     8.92947
    80  C   4.0   -0.02    4.37    4.32    93.89863    23.60592     7.46575
    81  C   4.0   -0.05    4.17    3.95    91.08139    24.12737     6.92626
    82  C   4.0   -0.07    4.17    3.95    94.45455    23.54782    10.31924
    83  C   4.0   -0.08    4.05    3.72    90.32970    26.83055     7.44008
    84  H   1.0    0.11    1.09    1.44    94.51504    24.42994     2.50594
    85  H   1.0    0.05    1.06    1.44    95.03286    27.47774     6.89332
    86  H   1.0    0.06    1.05    1.44    94.37613    21.75451     6.67203
    87  H   1.0    0.05    1.03    1.43    90.66798    23.67501     4.95471
    88  H   1.0    0.03    1.03    1.43    89.98256    22.84468     8.10088
    89  H   1.0    0.04    1.00    1.43    93.00238    22.47309    11.30008
    90  H   1.0    0.05    1.01    1.43    96.25644    22.65114    10.70995
    91  H   1.0    0.04    1.00    1.43    94.49445    25.44220    11.11029
    92  H   1.0    0.04    1.00    1.43    88.30167    26.99895     7.67247
    93  H   1.0    0.04    1.00    1.43    91.19134    27.52185     9.17687
    94  H   1.0    0.04    1.00    1.43    90.89449    28.05799     5.89418
    95  N   5.0   -0.13    3.55    2.11    99.32658    22.97564     6.70966
    96  C   4.0    0.05    4.47    4.49   101.91221    22.67253     7.55294
    97  C   4.0    0.09    3.15    3.03   103.88277    24.77163     6.81690
    98  O   6.0   -0.29    1.11    1.80   105.50834    25.45366     8.33120
    99  C   4.0   -0.04    4.07    3.75   102.70563    19.94737     6.96445
   100  S   6.0   -0.05    2.40    3.10   100.98525    18.09071     9.36485
   101  H   1.0    0.12    1.09    1.44    98.69331    21.92369     5.24350
   102  H   1.0    0.05    1.11    1.45   101.88716    22.83681     9.62904
   103  H   1.0    0.05    1.05    1.44   102.12802    19.40927     5.06773
   104  H   1.0    0.05    1.06    1.44   104.71652    19.65020     7.28227
   105  H   1.0    0.05    0.98    1.43   102.44599    16.05023     9.27599
   106  N   5.0   -0.19    3.20    1.96   103.53540    30.52152     6.52481
   107  C   4.0    0.03    4.24    4.09   102.94855    32.41714     8.47319
   108  C   4.0    0.15    3.36    3.07   104.08276    31.75184    11.15236
   109  O   6.0   -0.30    1.20    1.80   105.44712    33.31156    12.25377
   110  C   4.0   -0.05    4.36    4.31   100.04772    32.61445     8.62132
   111  C   4.0   -0.03    4.18    3.96    98.98925    34.01492    10.94568
   112  C   4.0   -0.08    4.11    3.82    99.50046    36.82721    10.56212
   113  C   4.0   -0.08    4.08    3.76    96.16773    33.42190    11.28680
   114  H   1.0    0.11    1.04    1.43   102.05801    29.49808     5.86286
   115  H   1.0    0.05    1.04    1.44   103.83770    34.20279     7.92319
   116  H   1.0    0.04    1.04    1.43    99.39176    33.56329     6.92174
   117  H   1.0    0.06    1.04    1.44    99.32476    30.68192     8.62326
   118  H   1.0    0.04    1.06    1.44    99.97982    33.35818    12.63001
   119  H   1.0    0.04    1.00    1.43    98.75316    37.93192    12.12490
   120  H   1.0    0.05    1.00    1.43   101.51670    37.17078    10.42880
   121  H   1.0    0.04    1.00    1.43    98.60865    37.47272     8.82794
   122  H   1.0    0.04    1.00    1.43    95.40043    34.42621    12.90255
   123  H   1.0    0.04    1.00    1.43    95.13337    34.02585     9.61652
   124  H   1.0    0.04    1.00    1.43    95.87852    31.40412    11.52200
   125  N   5.0   -0.14    3.44    2.04   103.32619    29.50015    12.12781
   126  C   4.0    0.04    4.40    4.38   103.92585    28.73419    14.67519
   127  C   4.0    0.09    3.24    3.04   106.64907    27.94303    15.00263
   128  O   6.0   -0.31    1.17    1.80   107.67588    28.71234    16.92390
   129  C   4.0   -0.03    4.23    4.05   101.91882    27.07470    15.99053
   130  C   4.0   -0.07    4.17    3.94   100.06437    25.96626    14.10962
   131  C   4.0   -0.07    4.12    3.84   103.03004    25.08635    17.75251
   132  H   1.0    0.10    1.08    1.44   102.31834    28.31492    11.01365
   133  H   1.0    0.06    1.09    1.44   103.93002    30.53422    15.72857
   134  H   1.0    0.03    1.06    1.44   100.81045    28.34850    17.19498
   135  H   1.0    0.04    1.00    1.43    98.64062    24.86995    15.11154
   136  H   1.0    0.05    1.01    1.43    99.09069    27.42837    13.05883
   137  H   1.0    0.05    1.00    1.43   101.01454    24.69786    12.80575
   138  H   1.0    0.04    1.00    1.43   101.51001    24.07890    18.69733
   139  H   1.0    0.05    1.00    1.43   104.15156    23.71491    16.70326
   140  H   1.0    0.05    1.00    1.43   104.23843    25.93218    19.17825
   141  N   5.0   -0.20    3.25    1.97   106.37579    36.59384    16.96737
   142  C   4.0    0.03    4.42    4.41   105.36711    36.41687    19.52724
   143  C   4.0    0.15    3.56    3.14   107.12864    35.24749    21.44153
   144  O   6.0   -0.32    1.29    1.80   107.07720    35.77114    23.67900
   145  C   4.0   -0.02    4.36    4.31   103.12514    34.60145    19.55532
   146  C   4.0   -0.05    4.15    3.89   101.18527    35.37801    17.43425
   147  C   4.0   -0.07    4.14    3.88   102.17062    34.16992    22.26417
   148  C   4.0   -0.08    3.99    3.60    98.38678    35.69691    18.11445
   149  H   1.0    0.10    1.04    1.44   105.44495    35.72328    15.54042
   150  H   1.0    0.04    1.05    1.44   104.82052    38.30843    20.16653
   151  H   1.0    0.04    1.07    1.44   103.88352    32.75954    18.96335
   152  H   1.0    0.04    1.04    1.43   101.78479    37.14893    16.58321
   153  H   1.0    0.04    1.03    1.43   101.29202    33.92303    15.97937
   154  H   1.0    0.03    1.00    1.43   100.43135    33.08075    22.21785
   155  H   1.0    0.05    1.01    1.43   103.53666    33.09199    23.34296
   156  H   1.0    0.04    1.00    1.43   101.82663    35.95209    23.22132
   157  H   1.0    0.03    1.00    1.43    97.31804    35.99900    16.39249
   158  H   1.0    0.04    1.00    1.43    97.62303    34.07133    19.09351
   159  H   1.0    0.04    1.00    1.43    98.14363    37.34519    19.31970
   160  N   5.0   -0.14    3.48    2.07   108.64163    33.44811    20.55284
   161  C   4.0    0.04    4.42    4.42   110.30098    32.21090    22.29787
   162  C   4.0    0.09    3.26    3.05   112.76686    33.59737    22.68182
   163  O   6.0   -0.28    1.14    1.80   113.79725    33.32635    24.74448
   164  C   4.0   -0.03    4.37    4.33   111.04859    29.53791    21.56115
   165  C   4.0   -0.04    4.07    3.74   109.01617    27.69999    22.34533
   166  S   6.0   -0.02    2.42    3.10   110.03233    24.36096    21.88340
   167  C   4.0   -0.05    3.86    3.41   111.32473    23.58677    25.01782
   168  H   1.0    0.10    1.07    1.44   108.43613    32.63973    18.83273
   169  H   1.0    0.06    1.08    1.44   109.38044    32.14974    24.16047
   170  H   1.0    0.06    1.04    1.43   111.30613    29.37286    19.52608
   171  H   1.0    0.06    1.05    1.44   112.81062    29.02829    22.50196
   172  H   1.0    0.04    1.07    1.44   108.54855    27.86339    24.34061
   173  H   1.0    0.06    1.07    1.44   107.34089    27.93139    21.18336
   174  H   1.0    0.06    1.04    1.43   112.55943    21.97294    24.76627
   175  H   1.0    0.05    1.03    1.43   112.37343    25.18702    25.74216
   176  H   1.0    0.06    1.03    1.43   109.79079    23.06675    26.27626
   177  N   5.0   -0.20    3.27    1.97   109.84906    38.66913    28.30456
   178  C   4.0    0.04    4.36    4.30   109.74043    37.89159    30.86955
   179  C   4.0    0.09    3.20    3.04   112.29480    37.16767    32.07314
   180  O   6.0   -0.28    1.15    1.80   112.45306    36.71632    34.33544
   181  C   4.0   -0.02    4.39    4.36   107.71232    35.89429    31.04464
   182  C   4.0   -0.05    4.23    4.07   105.17694    37.04134    30.27694
   183  C   4.0   -0.06    4.19    3.98   107.59817    34.91557    33.72401
   184  C   4.0   -0.08    4.01    3.64   103.23964    35.00784    29.59479
   185  H   1.0    0.11    1.04    1.43   108.99585    37.61352    26.95168
   186  H   1.0    0.05    1.06    1.44   109.14851    39.53462    32.00762
   187  H   1.0    0.05    1.05    1.44   108.20862    34.34132    29.76160
   188  H   1.0    0.04    1.03    1.43   104.45181    38.17669    31.83806
   189  H   1.0    0.05    1.04    1.43   105.39861    38.26043    28.63481
   190  H   1.0    0.04    1.00    1.43   106.00391    33.63542    33.95683
   191  H   1.0    0.07    1.01    1.43   109.28389    33.86747    34.24868
   192  H   1.0    0.05    1.00    1.43   107.37339    36.46399    35.05601
   193  H   1.0    0.04    1.00    1.43   101.46343    35.87872    29.04353
   194  H   1.0    0.04    1.00    1.43   103.92537    33.87505    28.02250
   195  H   1.0    0.04    1.00    1.43   102.87128    33.75168    31.17633
   196  N   5.0   -0.21    3.28    1.97   100.16035    13.93842    34.39012
   197  C   4.0    0.02    4.37    4.33   100.97120    16.59904    34.40152
   198  C   4.0    0.15    3.46    3.10   100.68592    17.57371    31.69068
   199  O   6.0   -0.34    1.38    1.80    99.41936    19.44588    31.19019
   200  C   4.0   -0.02    4.31    4.21   103.65044    16.68315    35.53032
   201  C   4.0   -0.05    4.19    3.97   103.41121    15.76950    38.30188
   202  C   4.0   -0.07    4.07    3.74   105.09899    19.15852    35.15519
   203  C   4.0   -0.07    4.01    3.63   105.97657    15.49354    39.61339
   204  H   1.0    0.08    1.03    1.43   101.47909    12.65645    34.92039
   205  H   1.0    0.04    1.05    1.44    99.67044    17.71534    35.57376
   206  H   1.0    0.05    1.06    1.44   104.74387    15.28708    34.45330
   207  H   1.0    0.04    1.03    1.43   102.26303    17.11874    39.35390
   208  H   1.0    0.04    1.03    1.43   102.45411    13.94739    38.34205
   209  H   1.0    0.05    1.00    1.43   107.04801    18.97038    35.75727
   210  H   1.0    0.05    1.00    1.43   105.14350    19.65351    33.15488
   211  H   1.0    0.04    1.00    1.43   104.23137    20.72275    36.17167
   212  H   1.0    0.05    1.00    1.43   105.74844    14.55343    41.42111
   213  H   1.0    0.05    1.00    1.43   107.29642    14.44198    38.44513
   214  H   1.0    0.04    1.00    1.43   106.82700    17.32950    39.92045
   215  N   5.0   -0.14    3.55    2.12   101.57052    16.11893    29.84169
   216  C   4.0    0.04    4.57    4.63   101.14808    17.00701    27.31351
   217  C   4.0    0.15    3.57    3.15    98.47796    16.49333    26.53092
   218  O   6.0   -0.33    1.53    1.80    97.39028    18.14985    25.34452
   219  C   4.0   -0.03    4.26    4.13   103.12681    15.96838    25.53962
   220  C   4.0    0.25    3.17    3.03   105.58574    17.38124    26.46954
   221  O   6.0   -0.31    1.17    1.80   105.86920    19.52136    25.56634
   222  O   6.0   -0.29    1.16    1.80   106.90938    16.30695    28.09436
   223  H   1.0    0.09    1.07    1.44   103.00619    14.87591    30.11388
   224  H   1.0    0.07    1.08    1.44   101.34003    19.08302    27.25373
   225  H   1.0    0.05    1.02    1.43   103.31106    13.92519    25.72392
   226  H   1.0    0.05    1.02    1.43   102.72364    16.51239    23.59783
   227  N   5.0   -0.15    3.48    2.07    97.27186    14.39140    27.17725
   228  C   4.0    0.03    4.48    4.51    94.58165    14.20881    26.46240
   229  C   4.0    0.16    3.65    3.20    93.35278    16.77906    26.94307
   230  O   6.0   -0.33    1.36    1.80    91.77507    17.76561    25.56047
   231  C   4.0   -0.04    4.31    4.22    93.04099    12.24202    27.98744
   232  C   4.0   -0.01    3.55    3.14    90.42706    11.80169    26.91882
   233  C   4.0   -0.04    3.49    3.11    89.78528     9.47364    25.91559
   234  C   4.0   -0.04    3.52    3.12    88.55188    13.61350    27.02690
   235  C   4.0   -0.03    3.40    3.08    87.35211     8.95816    25.12245
   236  C   4.0   -0.05    3.45    3.10    86.13655    13.11359    26.17455
   237  C   4.0   -0.04    3.37    3.07    85.49248    10.77553    25.22082
   238  H   1.0    0.08    1.05    1.44    98.21128    12.81548    27.74923
   239  H   1.0    0.05    1.05    1.44    94.47208    13.71708    24.45421
   240  H   1.0    0.05    1.03    1.43    94.10238    10.47217    27.93324
   241  H   1.0    0.04    1.03    1.43    92.90278    12.87140    29.94328
   242  H   1.0    0.06    1.03    1.43    91.23979     8.05650    25.71185
   243  H   1.0    0.06    1.04    1.44    88.93058    15.40887    27.91236
   244  H   1.0    0.06    1.03    1.43    86.91394     7.11084    24.38553
   245  H   1.0    0.05    1.03    1.43    84.71020    14.55506    26.40266
   246  H   1.0    0.05    1.03    1.43    83.59277    10.37546    24.60564
   247  N   5.0   -0.14    3.68    2.24    94.02654    17.59394    29.21769
   248  C   4.0    0.04    4.58    4.64    93.11291    19.85209    30.36545
   249  C   4.0    0.16    3.51    3.12    93.99132    22.09004    28.83725
   250  O   6.0   -0.33    1.34    1.80    92.30772    23.36818    27.84343
   251  C   4.0   -0.02    4.38    4.34    93.74703    19.75921    33.15336
   252  C   4.0   -0.05    4.22    4.05    91.70463    18.12351    34.37804
   253  C   4.0   -0.07    4.16    3.91    93.91076    22.37846    34.22368
   254  C   4.0   -0.08    4.00    3.63    92.22765    17.40981    37.11796
   255  H   1.0    0.08    1.11    1.45    95.30103    16.57089    30.20329
   256  H   1.0    0.05    1.08    1.44    91.04376    19.90527    30.13726
   257  H   1.0    0.05    1.07    1.44    95.58314    18.83932    33.38289
   258  H   1.0    0.04    1.03    1.43    89.89250    19.09864    34.24112
   259  H   1.0    0.04    1.04    1.43    91.58103    16.38079    33.27864
   260  H   1.0    0.04    1.00    1.43    94.26181    22.34967    36.24734
   261  H   1.0    0.05    1.01    1.43    95.44644    23.42726    33.34399
   262  H   1.0    0.04    1.00    1.43    92.16053    23.40958    33.88425
   263  H   1.0    0.04    1.00    1.43    90.88548    15.99432    37.75184
   264  H   1.0    0.04    1.00    1.43    94.12881    16.64838    37.29719
   265  H   1.0    0.04    1.00    1.43    92.07478    19.04851    38.34817
   266  N   5.0   -0.14    3.46    2.05    96.44769    22.55829    28.49120
   267  C   4.0    0.03    4.47    4.49    97.12726    24.86036    27.12876
   268  C   4.0    0.15    3.41    3.08    96.35652    24.75923    24.25153
   269  O   6.0   -0.33    1.29    1.80    95.58671    26.69165    23.21042
   270  C   4.0   -0.03    4.33    4.25    99.80626    25.93492    27.58816
   271  C   4.0   -0.04    4.30    4.19   101.40519    25.35886    25.31515
   272  C   4.0   -0.07    4.22    4.05   101.08330    24.91479    29.91485
   273  C   4.0   -0.07    4.12    3.85   104.15531    25.69519    25.97426
   274  H   1.0    0.12    1.13    1.45    97.77885    21.44431    29.29859
   275  H   1.0    0.05    1.07    1.44    95.78938    26.28703    27.85295
   276  H   1.0    0.04    1.06    1.44    99.62259    27.98606    27.77307
   277  H   1.0    0.05    1.03    1.43   101.13926    23.39769    24.71631
   278  H   1.0    0.04    1.03    1.43   100.91220    26.57485    23.72294
   279  H   1.0    0.04    1.01    1.43   102.67475    26.08533    30.45848
   280  H   1.0    0.04    1.00    1.43    99.77556    24.90739    31.51059
   281  H   1.0    0.06    1.01    1.43   101.74128    22.98924    29.65451
   282  H   1.0    0.04    1.02    1.43   105.25548    25.43090    24.25900
   283  H   1.0    0.04    1.00    1.43   104.52461    27.57432    26.71954
   284  H   1.0    0.05    1.01    1.43   104.83601    24.26966    27.27808
   285  N   5.0   -0.14    3.48    2.06    96.40445    22.54169    23.07404
   286  C   4.0    0.03    4.46    4.47    95.40058    22.04088    20.55940
   287  C   4.0    0.15    3.48    3.10    92.52437    22.42480    20.41045
   288  O   6.0   -0.31    1.22    1.80    91.54220    23.17564    18.43741
   289  C   4.0   -0.02    4.33    4.25    96.00295    19.29637    19.67901
   290  C   4.0   -0.05    4.20    4.01    95.68078    19.12353    16.81068
   291  C   4.0   -0.06    4.24    4.07    94.30826    17.29720    20.86944
   292  C   4.0   -0.07    4.03    3.67    95.71797    16.40909    15.76740
   293  H   1.0    0.12    1.15    1.45    97.00044    20.98337    24.01924
   294  H   1.0    0.05    1.05    1.44    96.25230    23.37974    19.22101
   295  H   1.0    0.05    1.05    1.44    97.97247    18.92100    20.19724
   296  H   1.0    0.05    1.04    1.43    93.87298    19.97692    16.30203
   297  H   1.0    0.04    1.02    1.43    97.16739    20.21459    15.87929
   298  H   1.0    0.04    1.01    1.43    95.13609    15.44770    20.56145
   299  H   1.0    0.08    1.08    1.44    94.14460    17.64327    22.84724
   300  H   1.0    0.05    1.01    1.43    92.43877    17.35422    20.01997
   301  H   1.0    0.05    1.00    1.43    95.78747    16.48906    13.71594
   302  H   1.0    0.04    1.00    1.43    97.37760    15.39268    16.42948
   303  H   1.0    0.05    1.00    1.43    94.02706    15.38261    16.28824
   304  N   5.0   -0.13    3.55    2.12    91.29186    21.80034    22.51946
   305  C   4.0    0.04    4.35    4.30    88.64951    22.34036    22.85018
   306  C   4.0    0.16    3.45    3.10    88.29176    25.23222    22.62546
   307  O   6.0   -0.31    1.26    1.80    87.06333    26.18721    20.89022
   308  C   4.0   -0.07    4.15    3.90    87.73281    21.35711    25.38767
   309  H   1.0    0.12    1.11    1.45    92.22110    21.17776    24.06129
   310  H   1.0    0.05    1.09    1.44    87.59574    21.51383    21.26643
   311  H   1.0    0.04    1.00    1.43    85.69406    21.59446    25.50885
   312  H   1.0    0.06    1.03    1.43    88.19193    19.37758    25.56723
   313  H   1.0    0.07    1.02    1.43    88.61769    22.38526    26.91663
   314  N   5.0   -0.14    3.48    2.07    89.40278    26.57779    24.46211
   315  C   4.0    0.04    4.42    4.41    89.38342    29.30236    24.50001
   316  C   4.0    0.16    3.60    3.17    90.01376    30.49314    21.93790
   317  O   6.0   -0.32    1.34    1.80    88.69213    32.18022    21.03792
   318  C   4.0   -0.04    4.37    4.33    91.33169    30.25752    26.37333
   319  C   4.0   -0.01    3.63    3.19    92.24301    32.88186    25.74833
   320  C   4.0   -0.04    3.48    3.11    90.81692    34.98850    26.38391
   321  C   4.0   -0.04    3.48    3.11    94.61716    33.25885    24.70162
   322  C   4.0   -0.05    3.38    3.07    91.78904    37.40839    26.18565
   323  C   4.0   -0.05    3.39    3.07    95.61382    35.67196    24.55718
   324  C   4.0   -0.05    3.38    3.07    94.24079    37.74597    25.35995
   325  H   1.0    0.11    1.10    1.44    90.51455    25.65327    25.71706
   326  H   1.0    0.05    1.05    1.44    87.47526    29.96250    24.99371
   327  H   1.0    0.04    1.03    1.43    90.56629    30.20766    28.28722
   328  H   1.0    0.06    1.04    1.43    92.94337    28.97247    26.28144
   329  H   1.0    0.05    1.03    1.43    88.93129    34.71444    27.11916
   330  H   1.0    0.05    1.03    1.43    95.74702    31.64722    24.15362
   331  H   1.0    0.05    1.03    1.43    90.66745    39.01185    26.75305
   332  H   1.0    0.04    1.03    1.43    97.51763    35.93192    23.88451
   333  H   1.0    0.04    1.03    1.43    95.07343    39.60633    25.29557
   334  N   5.0   -0.14    3.51    2.08    92.07704    29.72888    20.74212
   335  C   4.0    0.04    4.38    4.35    92.70271    30.96072    18.37402
   336  C   4.0    0.16    3.51    3.12    90.58280    30.75505    16.42542
   337  O   6.0   -0.32    1.27    1.80    90.38300    32.38259    14.78807
   338  C   4.0   -0.08    4.11    3.83    95.09692    29.90023    17.18332
   339  H   1.0    0.11    1.11    1.45    93.27660    28.43043    21.48377
   340  H   1.0    0.05    1.05    1.44    92.97002    32.98730    18.75100
   341  H   1.0    0.04    1.01    1.43    95.65164    31.04955    15.58576
   342  H   1.0    0.04    1.00    1.43    96.61116    29.88615    18.57342
   343  H   1.0    0.05    1.00    1.43    94.78495    27.96464    16.55807
   344  N   5.0   -0.13    3.53    2.10    89.08027    28.72212    16.57063
   345  C   4.0    0.03    4.44    4.45    86.94935    28.42662    14.83896
   346  C   4.0    0.16    3.53    3.13    85.43502    30.87185    15.04156
   347  O   6.0   -0.32    1.26    1.80    84.66786    32.12065    13.24243
   348  C   4.0   -0.05    4.30    4.20    85.20328    26.15139    15.38191
   349  C   4.0   -0.02    4.20    4.00    82.88669    26.10573    13.60710
   350  C   4.0   -0.08    4.14    3.88    83.59184    26.15896    10.82771
   351  C   4.0   -0.08    4.13    3.86    81.27494    23.76467    13.97330
   352  H   1.0    0.11    1.08    1.44    89.38799    27.34172    17.85619
   353  H   1.0    0.05    1.05    1.44    87.70197    28.28041    12.91207
   354  H   1.0    0.05    1.02    1.43    86.30416    24.42301    15.14281
   355  H   1.0    0.06    1.03    1.43    84.58651    26.22690    17.34223
   356  H   1.0    0.04    1.06    1.44    81.73594    27.77831    14.01938
   357  H   1.0    0.03    1.00    1.43    81.91373    25.93959     9.66421
   358  H   1.0    0.04    1.00    1.43    84.47156    27.94222    10.30055
   359  H   1.0    0.03    1.00    1.43    84.90211    24.63132    10.40388
   360  H   1.0    0.03    1.01    1.43    79.73571    23.81599    12.62675
   361  H   1.0    0.04    1.00    1.43    82.40481    22.07792    13.64541
   362  H   1.0    0.04    1.00    1.43    80.52856    23.67207    15.88573
   363  N   5.0   -0.14    3.59    2.15    84.95258    31.44518    17.44149
   364  C   4.0    0.04    4.39    4.37    83.26339    33.42927    18.25390
   365  C   4.0    0.16    3.49    3.11    84.16625    36.09247    17.48348
   366  O   6.0   -0.31    1.34    1.80    82.82866    37.32149    16.03240
   367  C   4.0   -0.03    4.38    4.34    82.81686    32.89410    21.04450
   368  C   4.0   -0.01    3.59    3.16    82.11688    35.14799    22.56461
   369  C   4.0   -0.04    3.45    3.10    79.65887    35.39241    23.44848
   370  C   4.0   -0.04    3.50    3.11    84.00684    36.82792    23.32600
   371  C   4.0   -0.04    3.36    3.07    79.12038    37.20642    25.25641
   372  C   4.0   -0.05    3.37    3.07    83.45549    38.66947    25.09765
   373  C   4.0   -0.05    3.41    3.08    81.02445    38.80060    26.12483
   374  H   1.0    0.11    1.12    1.45    85.88654    30.47278    18.79375
   375  H   1.0    0.05    1.06    1.44    81.48170    33.22712    17.20257
   376  H   1.0    0.04    1.03    1.43    81.39456    31.41465    21.20330
   377  H   1.0    0.06    1.06    1.44    84.58637    32.17102    21.82655
   378  H   1.0    0.05    1.03    1.43    78.21776    34.10365    22.80615
   379  H   1.0    0.06    1.05    1.44    85.92505    36.51249    22.74273
   380  H   1.0    0.05    1.03    1.43    77.23914    37.35327    26.02815
   381  H   1.0    0.04    1.03    1.43    84.94080    39.87293    25.80397
   382  H   1.0    0.05    1.03    1.43    80.61875    40.03412    27.70208
   383  N   5.0   -0.15    3.46    2.05    86.33662    37.01406    18.42572
   384  C   4.0    0.03    4.50    4.53    87.11637    39.42734    17.36546
   385  C   4.0    0.16    3.62    3.18    87.09896    39.42515    14.45986
   386  O   6.0   -0.32    1.32    1.80    86.66157    41.37707    13.29181
   387  C   4.0   -0.03    4.28    4.17    89.63620    40.63863    18.31592
   388  C   4.0   -0.04    4.26    4.12    91.28995    41.51522    16.07391
   389  C   4.0   -0.07    4.16    3.92    91.05660    38.89020    20.06924
   390  C   4.0   -0.08    4.04    3.69    93.89696    42.36758    16.85031
   391  H   1.0    0.10    1.07    1.44    87.63562    35.79705    19.13344
   392  H   1.0    0.05    1.07    1.44    85.57859    40.73810    17.83278
   393  H   1.0    0.03    1.06    1.44    89.15367    42.32830    19.40088
   394  H   1.0    0.05    1.04    1.43    91.47922    39.98900    14.69750
   395  H   1.0    0.05    1.04    1.43    90.33342    43.08075    15.14214
   396  H   1.0    0.04    1.01    1.43    92.70285    39.82897    20.84655
   397  H   1.0    0.05    1.00    1.43    89.90802    38.23313    21.63487
   398  H   1.0    0.05    1.00    1.43    91.73603    37.23093    19.04127
   399  H   1.0    0.04    1.00    1.43    94.79934    43.31678    15.26368
   400  H   1.0    0.04    1.00    1.43    93.80608    43.69493    18.41455
   401  H   1.0    0.03    1.00    1.43    95.09827    40.78760    17.37817
   402  N   5.0   -0.14    3.50    2.08    87.62797    37.29734    13.22241
   403  C   4.0    0.04    4.47    4.50    87.49708    37.41022    10.49926
   404  C   4.0    0.16    3.60    3.16    84.76330    37.87952     9.65141
   405  O   6.0   -0.31    1.30    1.80    84.41072    39.32528     7.86310
   406  C   4.0   -0.04    4.30    4.20    88.56077    35.02272     9.25373
   407  C   4.0   -0.01    3.59    3.16    87.94606    34.93949     6.45629
   408  C   4.0   -0.05    3.45    3.10    89.85366    34.94545     4.65664
   409  C   4.0   -0.03    3.59    3.16    85.44357    34.75384     5.64914
   410  C   4.0   -0.04    3.39    3.08    89.22495    34.79478     2.13433
   411  C   4.0   -0.04    3.37    3.07    84.81273    34.74977     3.13695
   412  C   4.0   -0.04    3.39    3.08    86.71946    34.74362     1.37622
   413  H   1.0    0.11    1.07    1.44    88.17809    35.65707    14.03681
   414  H   1.0    0.06    1.06    1.44    88.55229    39.07089     9.83547
   415  H   1.0    0.04    1.03    1.43    90.59124    34.92486     9.58427
   416  H   1.0    0.06    1.03    1.43    87.69172    33.41551    10.22244
   417  H   1.0    0.04    1.03    1.43    91.81122    35.05240     5.22612
   418  H   1.0    0.05    1.06    1.44    83.97054    34.46181     7.02416
   419  H   1.0    0.05    1.03    1.43    90.69682    34.74523     0.71926
   420  H   1.0    0.05    1.03    1.43    82.86240    34.66934     2.54367
   421  H   1.0    0.05    1.03    1.43    86.26962    34.68122    -0.61452
   422  N   5.0   -0.13    3.48    2.06    82.84891    36.71893    10.88137
   423  C   4.0    0.04    4.56    4.62    80.34447    37.00502     9.76651
   424  C   4.0    0.16    3.55    3.14    79.42324    39.71149    10.09130
   425  O   6.0   -0.30    1.27    1.80    78.31356    40.83013     8.39523
   426  C   4.0   -0.02    4.27    4.14    78.22575    35.27874    10.66752
   427  C   4.0   -0.07    4.18    3.95    75.98747    35.71090     8.88451
   428  C   4.0   -0.08    4.12    3.84    78.95836    32.50410    10.54768
   429  H   1.0    0.12    1.09    1.44    83.20147    35.32754    12.14745
   430  H   1.0    0.05    1.07    1.44    80.55938    36.74428     7.71224
   431  H   1.0    0.05    1.05    1.44    77.72740    35.78077    12.60961
   432  H   1.0    0.04    1.00    1.43    74.48269    34.38775     9.33389
   433  H   1.0    0.06    1.01    1.43    75.24430    37.61627     9.04242
   434  H   1.0    0.05    1.00    1.43    76.55898    35.43050     6.93368
   435  H   1.0    0.03    1.00    1.43    77.43578    31.34759    11.29133
   436  H   1.0    0.04    1.00    1.43    79.30423    31.95535     8.59599
   437  H   1.0    0.06    1.01    1.43    80.66893    32.11519    11.61814
   438  N   5.0   -0.14    3.46    2.05    79.82944    40.74771    12.37179
   439  C   4.0    0.04    4.42    4.42    79.16388    43.39579    12.63327
   440  C   4.0    0.16    3.41    3.08    80.81530    45.16929    10.97607
   441  O   6.0   -0.29    1.37    1.80    79.63545    46.31357     9.31936
   442  C   4.0   -0.05    4.24    4.09    78.67277    44.11197    15.36377
   443  C   4.0   -0.05    4.19    3.98    80.97716    43.92083    17.06549
   444  C   4.0   -0.05    4.18    3.97    80.14063    43.60190    19.82708
   445  C   4.0   -0.04    4.13    3.86    82.40381    43.89089    21.59131
   446  N   5.0   -0.12    4.04    2.97    81.49902    44.19491    24.22347
   447  H   1.0    0.11    1.08    1.44    80.86263    39.81142    13.68230
   448  H   1.0    0.06    1.09    1.44    77.33061    43.57251    11.66469
   449  H   1.0    0.05    1.03    1.43    77.89964    46.02123    15.40994
   450  H   1.0    0.04    1.04    1.43    77.21526    42.82196    16.05158
   451  H   1.0    0.06    1.03    1.43    82.12093    42.29975    16.51286
   452  H   1.0    0.04    1.03    1.43    82.12953    45.61540    16.86237
   453  H   1.0    0.04    1.03    1.43    78.74118    45.05701    20.23842
   454  H   1.0    0.04    1.02    1.43    79.26974    41.75350    20.07541
   455  H   1.0    0.04    1.02    1.43    83.62200    42.23085    21.49175
   456  H   1.0    0.04    1.02    1.43    83.49199    45.56016    21.05784
   457  H   1.0    0.05    1.02    1.43    82.99304    44.52021    25.43228
   458  H   1.0    0.05    1.02    1.43    80.28642    45.71663    24.34499
   459  H   1.0    0.06    1.06    1.44    80.57293    42.57089    24.81462
   460  N   5.0   -0.14    3.35    2.00    83.32021    45.47196    11.22033
   461  C   4.0    0.04    4.42    4.42    84.68283    47.09342     9.39055
   462  C   4.0    0.16    3.50    3.11    83.65823    46.93540     6.63418
   463  O   6.0   -0.28    1.23    1.80    83.56480    48.79511     5.24780
   464  C   4.0   -0.02    4.28    4.16    87.58807    46.59714     9.34873
   465  C   4.0   -0.05    4.16    3.93    88.83161    47.55511    11.80045
   466  C   4.0   -0.07    4.14    3.88    88.87374    47.78063     7.02581
   467  C   4.0   -0.08    4.02    3.65    91.70679    47.27651    11.86766
   468  H   1.0    0.10    1.08    1.44    84.36420    44.20775    12.22034
   469  H   1.0    0.06    1.05    1.44    84.36227    49.06532     9.95642
   470  H   1.0    0.05    1.05    1.44    87.83608    44.54403     9.23554
   471  H   1.0    0.04    1.03    1.43    88.35231    49.54214    12.07242
   472  H   1.0    0.05    1.03    1.43    88.03046    46.48186    13.36776
   473  H   1.0    0.04    1.00    1.43    90.85055    47.24692     6.99855
   474  H   1.0    0.06    1.01    1.43    88.01297    47.11889     5.28307
   475  H   1.0    0.05    1.00    1.43    88.71726    49.82826     7.07203
   476  H   1.0    0.04    1.00    1.43    92.38297    47.61399    13.77686
   477  H   1.0    0.04    1.00    1.43    92.26894    45.38487    11.29358
   478  H   1.0    0.04    1.00    1.43    92.62172    48.63292    10.62808
   479  N   5.0   -0.13    3.52    2.09    83.00999    44.64580     5.79089
   480  C   4.0    0.05    4.37    4.32    82.43509    44.24205     3.17460
   481  C   4.0    0.16    3.39    3.08    79.65950    44.58549     2.43976
   482  O   6.0   -0.27    1.23    1.80    79.06949    44.35069     0.20880
   483  C   4.0   -0.06    4.14    3.89    83.25797    41.58207     2.45561
   484  H   1.0    0.11    1.08    1.44    83.24250    43.07299     6.85387
   485  H   1.0    0.07    1.06    1.44    83.47284    45.63913     2.03858
   486  H   1.0    0.06    1.00    1.43    82.86295    41.26031     0.46902
   487  H   1.0    0.05    1.00    1.43    85.26674    41.35269     2.80965
   488  H   1.0    0.07    1.00    1.43    82.23725    40.20108     3.58250
   489  N   5.0   -0.12    3.44    2.04    78.00849    45.08234     4.29116
   490  C   4.0    0.05    4.25    4.09    75.29134    45.25100     3.84143
   491  C   4.0    0.10    3.18    3.03    74.53118    48.05695     3.55149
   492  O   6.0   -0.25    1.10    1.80    73.12132    48.90086     1.92033
   493  C   4.0   -0.03    4.25    4.09    73.78133    43.90964     5.95504
   494  C   4.0    0.16    3.17    3.03    72.42886    41.41342     5.25348
   495  O   6.0   -0.27    1.19    1.80    72.27430    40.48548     3.15305
   496  N   5.0   -0.19    3.19    1.95    71.39523    40.27314     7.29034
   497  H   1.0    0.12    1.11    1.44    78.64022    45.16823     6.10087
   498  H   1.0    0.09    1.06    1.44    74.89132    44.32133     2.02916
   499  H   1.0    0.07    1.04    1.44    75.10448    43.43972     7.46456
   500  H   1.0    0.05    1.03    1.43    72.33833    45.18356     6.69715
   501  H   1.0    0.10    1.03    1.43    70.37155    38.69038     7.02030
   502  H   1.0    0.08    1.03    1.43    71.34023    41.11076     8.99395
   503  N   5.0   -0.20    3.17    1.95    69.12252    24.22808     2.21784
   504  C   4.0    0.03    4.26    4.11    70.31439    24.42594     4.68576
   505  C   4.0    0.08    3.33    3.06    70.52965    21.94015     6.07919
   506  O   6.0   -0.32    1.18    1.80    72.61057    21.18413     6.74594
   507  C   4.0   -0.05    4.40    4.37    68.81522    26.13301     6.45664
   508  C   4.0   -0.02    4.25    4.09    69.87193    25.98899     9.15121
   509  C   4.0   -0.08    4.09    3.78    72.30380    27.54766     9.37239
   510  C   4.0   -0.08    4.09    3.79    67.80256    26.79395    10.99381
   511  H   1.0    0.08    1.03    1.43    67.91440    25.68966     1.85763
   512  H   1.0    0.05    1.05    1.44    72.25376    25.13262     4.45892
   513  H   1.0    0.04    1.02    1.43    68.84754    28.08165     5.78042
   514  H   1.0    0.04    1.03    1.43    66.85443    25.49313     6.46723
   515  H   1.0    0.05    1.09    1.44    70.34380    24.04206     9.61590
   516  H   1.0    0.03    1.00    1.43    72.88240    27.69625    11.33778
   517  H   1.0    0.04    1.00    1.43    73.81944    26.63285     8.33565
   518  H   1.0    0.04    1.00    1.43    72.02112    29.44193     8.62927
   519  H   1.0    0.04    1.00    1.43    68.48420    26.72718    12.93083
   520  H   1.0    0.04    1.00    1.43    67.18830    28.71535    10.59123
   521  H   1.0    0.04    1.00    1.43    66.18642    25.53680    10.84389
   522  N   5.0   -0.21    3.22    1.96    77.02955    18.62362     8.27614
   523  C   4.0    0.03    4.34    4.27    77.78691    17.93704    10.80456
   524  C   4.0    0.08    3.32    3.06    78.17671    15.12355    11.08267
   525  O   6.0   -0.32    1.19    1.80    79.66900    14.26746    12.64312
   526  C   4.0   -0.02    4.40    4.38    75.81181    18.57292    12.77713
   527  C   4.0   -0.05    4.20    3.99    75.32458    21.41960    12.89884
   528  C   4.0   -0.07    4.18    3.97    76.61377    17.53324    15.35794
   529  C   4.0   -0.08    4.02    3.65    72.64899    21.97107    13.83583
   530  H   1.0    0.12    1.07    1.44    75.29502    19.36043     7.96214
   531  H   1.0    0.04    1.05    1.44    79.59248    18.86430    11.24069
   532  H   1.0    0.05    1.06    1.44    74.06237    17.62575    12.18524
   533  H   1.0    0.03    1.04    1.43    76.65774    22.27606    14.20031
   534  H   1.0    0.04    1.03    1.43    75.55817    22.25597    11.03079
   535  H   1.0    0.04    1.00    1.43    75.48886    18.41970    16.83278
   536  H   1.0    0.06    1.01    1.43    76.30996    15.50807    15.47979
   537  H   1.0    0.04    1.00    1.43    78.59446    17.92957    15.70994
   538  H   1.0    0.04    1.00    1.43    72.35077    23.99709    13.96282
   539  H   1.0    0.04    1.00    1.43    71.24099    21.16051    12.57792
   540  H   1.0    0.04    1.00    1.43    72.36262    21.16520    15.70427
   541  N   5.0   -0.20    3.21    1.96    84.94142    13.68336     7.60669
   542  C   4.0    0.04    4.44    4.44    86.90923    14.78292     9.14251
   543  C   4.0    0.15    3.51    3.12    87.31815    13.60795    11.72132
   544  O   6.0   -0.31    1.23    1.80    89.49087    13.33590    12.50610
   545  C   4.0   -0.02    4.34    4.27    86.35828    17.54989     9.73163
   546  C   4.0   -0.07    4.19    3.99    88.30229    18.51977    11.63994
   547  C   4.0   -0.08    4.12    3.84    86.38709    19.14213     7.33518
   548  H   1.0    0.08    1.03    1.43    83.45145    14.78376     7.13120
   549  H   1.0    0.07    1.06    1.44    88.72926    14.62711     8.15355
   550  H   1.0    0.04    1.05    1.44    84.46458    17.63617    10.57414
   551  H   1.0    0.03    1.00    1.43    88.19280    20.56751    11.79939
   552  H   1.0    0.05    1.02    1.43    88.01544    17.75126    13.52069
   553  H   1.0    0.06    1.00    1.43    90.20087    18.01543    11.03296
   554  H   1.0    0.03    1.00    1.43    86.10464    21.11470     7.81842
   555  H   1.0    0.05    1.00    1.43    88.18481    18.94682     6.36244
   556  H   1.0    0.04    1.00    1.43    84.87541    18.55188     6.08017
   557  N   5.0   -0.15    3.44    2.04    85.20322    13.17761    13.08709
   558  C   4.0    0.04    4.35    4.30    85.24477    12.30402    15.68559
   559  C   4.0    0.08    3.20    3.04    85.18533     9.43141    15.96164
   560  O   6.0   -0.29    1.12    1.80    85.87251     8.35225    17.89756
   561  C   4.0   -0.04    4.29    4.18    83.17772    13.50181    17.26578
   562  C   4.0   -0.04    4.05    3.70    83.62133    16.32467    17.60481
   563  S   6.0   -0.05    2.53    3.10    86.76362    17.46996    18.68490
   564  C   4.0   -0.07    3.94    3.52    86.88846    16.14374    21.84374
   565  H   1.0    0.10    1.08    1.44    83.47592    13.46065    12.31349
   566  H   1.0    0.06    1.09    1.44    87.08623    12.89021    16.45986
   567  H   1.0    0.06    1.04    1.43    81.36127    13.26509    16.32786
   568  H   1.0    0.05    1.03    1.43    83.13081    12.55074    19.09526
   569  H   1.0    0.04    1.08    1.44    83.39234    17.28043    15.79386
   570  H   1.0    0.04    1.06    1.44    82.25717    17.10478    18.93609
   571  H   1.0    0.06    1.05    1.44    88.73892    16.57545    22.59631
   572  H   1.0    0.04    1.04    1.43    85.39736    16.99370    22.95815
   573  H   1.0    0.05    1.05    1.44    86.64606    14.11779    21.68375
   574  N   5.0   -0.19    3.19    1.95    92.04091     8.35518    15.57684
   575  C   4.0    0.04    4.14    3.88    93.02509     9.02060    18.05475
   576  C   4.0    0.09    3.22    3.04    92.98265     6.75135    19.82148
   577  O   6.0   -0.28    1.11    1.80    94.76257     6.17571    21.18381
   578  C   4.0   -0.07    4.12    3.84    91.41851    11.06866    19.28679
   579  H   1.0    0.11    1.03    1.43    90.89297     9.66326    14.78538
   580  H   1.0    0.05    1.05    1.44    94.98696     9.67658    17.87521
   581  H   1.0    0.04    1.00    1.43    92.22485    11.58387    21.10198
   582  H   1.0    0.04    1.00    1.43    91.37591    12.74654    18.09660
   583  H   1.0    0.06    1.00    1.43    89.49992    10.39828    19.58544
   584  N   5.0   -0.20    3.14    1.94   109.93625    35.80861    -0.16963
   585  C   4.0    0.03    4.21    4.03   107.14950    35.84193    -0.12287
   586  C   4.0    0.09    3.30    3.05   105.95568    36.21182    -2.68988
   587  O   6.0   -0.28    1.12    1.80   104.31584    34.78069    -3.50729
   588  C   4.0   -0.04    4.31    4.22   105.93501    38.06616     1.36372
   589  C   4.0   -0.01    3.54    3.13   103.06364    37.75677     1.49594
   590  C   4.0   -0.03    3.48    3.11   101.92683    35.55337     2.39935
   591  C   4.0   -0.04    3.46    3.10   101.43592    39.71634     0.89651
   592  C   4.0   -0.04    3.40    3.08    99.32668    35.30647     2.58444
   593  C   4.0   -0.04    3.39    3.08    98.82079    39.46000     1.09778
   594  C   4.0   -0.04    3.34    3.06    97.71334    37.24528     1.90369
   595  H   1.0    0.09    1.03    1.43   110.73744    37.20751     0.86160
   596  H   1.0    0.05    1.05    1.44   106.49325    34.05365     0.67478
   597  H   1.0    0.04    1.02    1.43   106.68068    38.05049     3.28998
   598  H   1.0    0.04    1.03    1.43   106.41849    39.87659     0.52248
   599  H   1.0    0.05    1.03    1.43   103.08604    33.98123     2.98608
   600  H   1.0    0.05    1.03    1.43   102.19430    41.49560     0.24091
   601  H   1.0    0.05    1.03    1.43    98.55998    33.49992     3.14666
   602  H   1.0    0.05    1.03    1.43    97.65580    41.05215     0.57052
   603  H   1.0    0.05    1.03    1.43    95.69130    37.04524     2.02129
   604  H   1.0    0.09    1.07    1.44    91.26453    20.72342    -6.88950
   605  H   1.0    0.07    1.04    1.43   103.82170    25.56571     5.10320
   606  H   1.0    0.09    1.07    1.44   104.21385    31.29223     5.16898
   607  H   1.0    0.07    1.04    1.43   107.48341    26.86425    13.69452
   608  H   1.0    0.09    1.07    1.44   106.44544    38.22654    16.49621
   609  H   1.0    0.06    1.04    1.43   113.47606    34.66593    21.29392
   610  H   1.0    0.09    1.08    1.44   109.13161    40.20291    28.14540
   611  H   1.0    0.07    1.04    1.43   113.84802    37.06252    31.00192
   612  H   1.0    0.09    1.07    1.44    98.85254    13.73890    35.45894
   613  H   1.0    0.07    1.05    1.44    75.20505    49.34775     4.75598
   614  H   1.0    0.10    1.07    1.44    70.31810    24.22938     1.00823
   615  H   1.0    0.05    1.05    1.44    68.97799    20.92708     6.44946
   616  H   1.0    0.09    1.07    1.44    78.09149    19.80377     7.66615
   617  H   1.0    0.06    1.05    1.44    77.21263    13.92321     9.98687
   618  H   1.0    0.10    1.07    1.44    85.59880    13.16768     6.12531
   619  H   1.0    0.06    1.05    1.44    84.57015     8.35749    14.53359
   620  H   1.0    0.10    1.07    1.44    93.33347     8.12434    14.49584
   621  H   1.0    0.07    1.05    1.44    91.44991     5.64936    19.90745
   622  H   1.0    0.10    1.07    1.44   110.49697    34.33095     0.45860
   623  H   1.0    0.06    1.05    1.44   106.49396    37.65628    -3.78298

  Z AO/shell   Hii/eV     exponent
  1     Wed Apr 25 08:07:45 CEST 2018   EN: 2.200 GM2: 0.406  GM3: 0.0800  RAES: 1.40
     1s    -10.707211    1.230000
  6     Wed Apr 25 08:07:45 CEST 2018   EN: 2.550 GM2: 0.538  GM3: 0.1500  RAES: 3.00
     2s    -13.970922    2.096432
     2p    -10.063292    1.800000
  7     Wed Apr 25 08:07:45 CEST 2018   EN: 3.040 GM2: 0.461  GM3:-0.0640  RAES: 1.90
     2s    -16.686243    2.339881
     2p    -12.523956    2.014332
  8     Wed Apr 25 08:07:45 CEST 2018   EN: 3.440 GM2: 0.452  GM3:-0.0517  RAES: 1.80
     2s    -20.229985    2.439742
     2p    -15.503117    2.137023
 16     Tue Apr 24 11:44:34 CEST 2018   EN: 2.580 GM2: 0.340  GM3:-0.0502  RAES: 3.10
     3s    -20.029654    1.981333
     3p    -11.377694    2.025643
     3d     -0.420282    1.702555
 no old-style atom pair restraining (fixing) potential

molecular fragmentation (1/2 indicates fragments):
111111111111111111111111111111111111111111111111111111111111111111111111
111111111111111111111111111111111222222222222222222222222222222222222222
222222222222222222222222222222222222222222222222222222222222222222222222
222222222222222222222222222222222222222222222222222222222222222222222222
222222222222222222222222222222222222222222222222222222222222222222222222
222222222222222222222222222222222222222222222222222222222222222222222222
222222222222222222222222222222222222222222222222222222222222222222222222
222222222222222222222222222222222222222222222222222222222222222222222222
22222222222222222222222222211222222222222222222
# atoms in fragment 1/2:   107   516
 fragment masses (1/2) :      721.93     3313.39
CMA distance (Bohr)    :  17.020
constraining FC (au)   :  0.0500
           ------------------------------------------------- 
          |        Self-Consistent Charge Iterations        |
           ------------------------------------------------- 

 Ncao       : 1490
 Nao        : 1487
 Nshell     : 909
 Nel        : 1594
 T(el)      :   500.0
 intcut     :    35.0
 scfconv/Eh :  0.100E-06
   qconv/e  :  0.100E-04
 intneglect :  0.100E-08
 broydamp   :      0.400
 iter      E             dE          RMSdq      gap      omega  full diag
   1   -897.9063026 -0.897906E+03  0.428E+00    2.68       0.0  T
   2   -899.6705105 -0.176421E+01  0.207E+00    1.44       1.0  T
   3   -899.7658117 -0.953012E-01  0.116E+00    1.80       1.0  T
   4   -899.9162366 -0.150425E+00  0.235E-01    1.28       1.0  T
   5   -899.9238059 -0.756937E-02  0.115E-01    1.47       1.0  T
   6   -899.9254718 -0.166584E-02  0.541E-02    1.47       1.0  T
   7   -899.9259947 -0.522979E-03  0.234E-02    1.49       1.0  T
   8   -899.9260482 -0.534532E-04  0.115E-02    1.51       1.0  T
   9   -899.9260653 -0.171111E-04  0.546E-03    1.51       1.0  T
  10   -899.9260688 -0.349095E-05  0.254E-03    1.52       1.6  T
  11   -899.9260697 -0.893483E-06  0.124E-03    1.52       3.2  T
  12   -899.9260699 -0.204995E-06  0.588E-04    1.52       6.8  T
  13   -899.9260700 -0.649269E-07  0.298E-04    1.52      13.4  T
  14   -899.9260700 -0.106986E-07  0.145E-04    1.52      27.7  T
  15   -899.9260700 -0.373984E-08  0.678E-05    1.52      59.1  T
  16   -899.9260700 -0.666091E-09  0.366E-05    1.52     109.3  T
speedup  1.95
cpu  time for SCC   56.34 s
wall time for SCC   28.85 s

   *** convergence criteria satisfied after 16 iterations ***

          eigenvalues
 #    :         785        786        787        788        789        790        791        792
 occ. :        2.000      2.000      2.000      2.000      2.000      2.000      2.000      2.000
 eps  :       -10.400    -10.179    -10.161    -10.126    -10.047    -10.032     -9.823     -9.797
 #    :         793        794        795        796        797        798        799        800
 occ. :        2.000      2.000      2.000      2.000      2.000      0.000      0.000      0.000
 eps  :        -9.745     -9.740     -9.672     -9.630     -9.626     -8.110     -7.868     -7.867
 #    :         801        802        803        804        805        806        807        808
 occ. :        0.000      0.000      0.000      0.000      0.000      0.000      0.000      0.000
 eps  :        -7.782     -7.779     -7.777     -7.718     -7.693     -7.652     -7.477     -6.990


   #   Z            q   n(s)   n(p)   n(d)      C6AA      α(0)
   1   7 N     -0.397  1.317  4.080  0.000    30.291     8.174
   2   6 C      0.024  1.063  2.912  0.000    20.178     6.397
   3   6 C      0.267  1.046  2.688  0.000    22.497     7.768
   4   8 O     -0.482  1.746  4.736  0.000    23.394     6.485
   5   6 C     -0.079  1.061  3.018  0.000    22.007     6.678
   6   6 C      0.004  1.083  2.913  0.000    27.919     8.667
   7   6 C     -0.043  1.080  2.963  0.000    29.079     8.844
   8   6 C     -0.044  1.080  2.964  0.000    29.102     8.847
   9   6 C     -0.029  1.077  2.952  0.000    28.726     8.789
  10   6 C     -0.035  1.079  2.956  0.000    28.882     8.813
  11   6 C     -0.034  1.078  2.956  0.000    28.847     8.808
  12   1 H      0.170  0.830  0.000  0.000     1.273     1.768
  13   1 H      0.047  0.953  0.000  0.000     2.353     2.399
  14   1 H      0.064  0.936  0.000  0.000     2.157     2.297
  15   1 H      0.053  0.947  0.000  0.000     2.278     2.360
  16   1 H      0.045  0.955  0.000  0.000     2.388     2.417
  17   1 H      0.037  0.963  0.000  0.000     2.492     2.468
  18   1 H      0.027  0.973  0.000  0.000     2.634     2.538
  19   1 H      0.039  0.961  0.000  0.000     2.462     2.454
  20   1 H      0.030  0.970  0.000  0.000     2.589     2.516
  21   7 N     -0.175  1.242  3.933  0.000    24.786     7.394
  22   6 C      0.035  1.052  2.913  0.000    19.986     6.363
  23   6 C      0.273  1.044  2.683  0.000    22.387     7.751
  24   8 O     -0.485  1.748  4.737  0.000    23.457     6.494
  25   6 C     -0.113  1.062  3.051  0.000    22.654     6.774
  26   6 C      0.295  1.028  2.677  0.000    22.003     7.681
  27   8 O     -0.485  1.756  4.729  0.000    23.450     6.493
  28   7 N     -0.289  1.266  4.022  0.000    27.446     7.781
  29   1 H      0.226  0.774  0.000  0.000     0.982     1.552
  30   1 H      0.069  0.931  0.000  0.000     2.102     2.267
  31   1 H      0.090  0.910  0.000  0.000     1.878     2.143
  32   1 H      0.084  0.916  0.000  0.000     1.936     2.176
  33   1 H      0.227  0.773  0.000  0.000     0.980     1.551
  34   1 H      0.237  0.763  0.000  0.000     0.935     1.515
  35   7 N     -0.177  1.244  3.934  0.000    24.841     7.402
  36   6 C      0.020  1.066  2.915  0.000    20.228     6.400
  37   6 C      0.275  1.047  2.677  0.000    22.346     7.743
  38   8 O     -0.487  1.749  4.738  0.000    23.500     6.500
  39   6 C     -0.083  1.059  3.024  0.000    22.086     6.692
  40   6 C     -0.074  1.058  3.016  0.000    21.927     6.669
  41   6 C     -0.092  1.063  3.029  0.000    22.274     6.723
  42   6 C     -0.053  1.074  2.980  0.000    21.660     6.649
  43   7 N     -0.144  1.230  3.914  0.000    24.099     7.291
  44   1 H      0.225  0.775  0.000  0.000     0.988     1.557
  45   1 H      0.088  0.912  0.000  0.000     1.902     2.157
  46   1 H      0.082  0.918  0.000  0.000     1.957     2.187
  47   1 H      0.065  0.935  0.000  0.000     2.138     2.287
  48   1 H      0.074  0.926  0.000  0.000     2.042     2.234
  49   1 H      0.046  0.954  0.000  0.000     2.370     2.408
  50   1 H      0.070  0.930  0.000  0.000     2.089     2.260
  51   1 H      0.084  0.916  0.000  0.000     1.939     2.177
  52   1 H      0.129  0.871  0.000  0.000     1.541     1.941
  53   1 H      0.116  0.884  0.000  0.000     1.647     2.007
  54   1 H      0.306  0.694  0.000  0.000     0.695     1.306
  55   1 H      0.269  0.731  0.000  0.000     0.815     1.414
  56   1 H      0.301  0.699  0.000  0.000     0.710     1.320
  57   7 N     -0.166  1.250  3.916  0.000    24.599     7.366
  58   6 C      0.026  1.066  2.907  0.000    20.111     6.381
  59   6 C      0.294  1.037  2.669  0.000    22.019     7.685
  60   8 O     -0.505  1.744  4.760  0.000    23.885     6.553
  61   6 C     -0.019  1.060  2.959  0.000    20.871     6.497
  62   6 C     -0.065  1.043  3.022  0.000    21.747     6.638
  63   6 C     -0.121  1.040  3.081  0.000    22.869     6.818
  64   6 C     -0.106  1.035  3.070  0.000    22.567     6.773
  65   1 H      0.203  0.797  0.000  0.000     1.093     1.638
  66   1 H      0.068  0.932  0.000  0.000     2.110     2.272
  67   1 H      0.037  0.963  0.000  0.000     2.485     2.465
  68   1 H      0.062  0.938  0.000  0.000     2.174     2.306
  69   1 H      0.018  0.982  0.000  0.000     2.768     2.602
  70   1 H      0.060  0.940  0.000  0.000     2.197     2.318
  71   1 H      0.048  0.952  0.000  0.000     2.341     2.393
  72   1 H      0.046  0.954  0.000  0.000     2.367     2.406
  73   1 H      0.035  0.965  0.000  0.000     2.522     2.483
  74   1 H      0.034  0.966  0.000  0.000     2.536     2.490
  75   1 H      0.045  0.955  0.000  0.000     2.381     2.413
  76   7 N     -0.191  1.253  3.937  0.000    25.134     7.446
  77   6 C      0.032  1.053  2.914  0.000    20.022     6.370
  78   6 C      0.293  1.040  2.667  0.000    22.037     7.689
  79   8 O     -0.498  1.739  4.759  0.000    23.738     6.532
  80   6 C     -0.018  1.065  2.952  0.000    20.852     6.494
  81   6 C     -0.061  1.049  3.012  0.000    21.665     6.627
  82   6 C     -0.104  1.037  3.067  0.000    22.538     6.769
  83   6 C     -0.103  1.032  3.071  0.000    22.534     6.769
  84   1 H      0.225  0.775  0.000  0.000     0.988     1.557
  85   1 H      0.054  0.946  0.000  0.000     2.272     2.357
  86   1 H      0.045  0.955  0.000  0.000     2.387     2.416
  87   1 H      0.035  0.965  0.000  0.000     2.512     2.478
  88   1 H      0.050  0.950  0.000  0.000     2.323     2.383
  89   1 H      0.048  0.952  0.000  0.000     2.343     2.394
  90   1 H      0.035  0.965  0.000  0.000     2.512     2.479
  91   1 H      0.034  0.966  0.000  0.000     2.537     2.491
  92   1 H      0.045  0.955  0.000  0.000     2.385     2.415
  93   1 H      0.029  0.971  0.000  0.000     2.600     2.521
  94   1 H      0.033  0.967  0.000  0.000     2.541     2.493
  95   7 N     -0.177  1.256  3.922  0.000    24.842     7.402
  96   6 C      0.039  1.058  2.903  0.000    19.866     6.336
  97   6 C      0.194  1.095  2.711  0.000    23.865     8.000
  98   8 O     -0.339  1.756  4.584  0.000    20.508     6.072
  99   6 C     -0.023  1.074  2.949  0.000    20.995     6.525
 100  16 S     -0.321  1.958  4.315  0.048   155.028    20.956
 101   1 H      0.228  0.772  0.000  0.000     0.973     1.545
 102   1 H      0.075  0.925  0.000  0.000     2.028     2.227
 103   1 H      0.089  0.911  0.000  0.000     1.889     2.150
 104   1 H      0.093  0.907  0.000  0.000     1.848     2.126
 105   1 H      0.212  0.788  0.000  0.000     1.040     1.595
 106   7 N     -0.393  1.319  4.074  0.000    30.175     8.158
 107   6 C      0.033  1.069  2.897  0.000    20.039     6.378
 108   6 C      0.262  1.065  2.673  0.000    22.578     7.780
 109   8 O     -0.501  1.758  4.743  0.000    23.799     6.541
 110   6 C     -0.081  1.065  3.016  0.000    22.036     6.682
 111   6 C     -0.012  1.058  2.953  0.000    20.750     6.479
 112   6 C     -0.111  1.039  3.072  0.000    22.670     6.788
 113   6 C     -0.100  1.040  3.061  0.000    22.472     6.760
 114   1 H      0.169  0.831  0.000  0.000     1.280     1.772
 115   1 H      0.035  0.965  0.000  0.000     2.522     2.483
 116   1 H      0.046  0.954  0.000  0.000     2.366     2.405
 117   1 H      0.057  0.943  0.000  0.000     2.236     2.339
 118   1 H      0.020  0.980  0.000  0.000     2.740     2.589
 119   1 H      0.041  0.959  0.000  0.000     2.440     2.443
 120   1 H      0.037  0.963  0.000  0.000     2.488     2.467
 121   1 H      0.038  0.962  0.000  0.000     2.471     2.458
 122   1 H      0.039  0.961  0.000  0.000     2.460     2.453
 123   1 H      0.033  0.967  0.000  0.000     2.545     2.495
 124   1 H      0.028  0.972  0.000  0.000     2.620     2.531
 125   7 N     -0.173  1.244  3.930  0.000    24.748     7.388
 126   6 C      0.026  1.057  2.917  0.000    20.144     6.391
 127   6 C      0.205  1.083  2.712  0.000    23.639     7.962
 128   8 O     -0.359  1.747  4.612  0.000    20.871     6.125
 129   6 C     -0.009  1.059  2.950  0.000    20.697     6.471
 130   6 C     -0.111  1.038  3.073  0.000    22.682     6.791
 131   6 C     -0.106  1.036  3.070  0.000    22.586     6.777
 132   1 H      0.225  0.775  0.000  0.000     0.987     1.556
 133   1 H      0.076  0.924  0.000  0.000     2.022     2.224
 134   1 H      0.043  0.957  0.000  0.000     2.416     2.431
 135   1 H      0.037  0.963  0.000  0.000     2.483     2.464
 136   1 H      0.066  0.934  0.000  0.000     2.135     2.285
 137   1 H      0.050  0.950  0.000  0.000     2.319     2.381
 138   1 H      0.040  0.960  0.000  0.000     2.446     2.446
 139   1 H      0.045  0.955  0.000  0.000     2.379     2.412
 140   1 H      0.038  0.962  0.000  0.000     2.476     2.461
 141   7 N     -0.402  1.312  4.090  0.000    30.442     8.194
 142   6 C      0.031  1.056  2.912  0.000    20.055     6.377
 143   6 C      0.276  1.043  2.681  0.000    22.329     7.741
 144   8 O     -0.497  1.738  4.759  0.000    23.724     6.530
 145   6 C     -0.019  1.072  2.947  0.000    20.868     6.496
 146   6 C     -0.059  1.055  3.004  0.000    21.638     6.624
 147   6 C     -0.102  1.037  3.066  0.000    22.515     6.767
 148   6 C     -0.108  1.036  3.071  0.000    22.619     6.783
 149   1 H      0.171  0.829  0.000  0.000     1.266     1.763
 150   1 H      0.036  0.964  0.000  0.000     2.499     2.472
 151   1 H      0.020  0.980  0.000  0.000     2.732     2.585
 152   1 H      0.044  0.956  0.000  0.000     2.398     2.422
 153   1 H      0.023  0.977  0.000  0.000     2.681     2.560
 154   1 H      0.044  0.956  0.000  0.000     2.400     2.423
 155   1 H      0.030  0.970  0.000  0.000     2.583     2.514
 156   1 H      0.049  0.951  0.000  0.000     2.329     2.387
 157   1 H      0.040  0.960  0.000  0.000     2.446     2.446
 158   1 H      0.038  0.962  0.000  0.000     2.470     2.457
 159   1 H      0.047  0.953  0.000  0.000     2.358     2.401
 160   7 N     -0.174  1.239  3.935  0.000    24.769     7.392
 161   6 C      0.033  1.049  2.918  0.000    20.014     6.367
 162   6 C      0.201  1.085  2.714  0.000    23.719     7.977
 163   8 O     -0.371  1.757  4.615  0.000    21.118     6.161
 164   6 C     -0.070  1.054  3.016  0.000    21.805     6.643
 165   6 C     -0.009  1.072  2.938  0.000    20.751     6.487
 166  16 S     -0.221  1.923  4.254  0.044   150.491    20.647
 167   6 C     -0.051  1.054  2.997  0.000    21.557     6.624
 168   1 H      0.220  0.780  0.000  0.000     1.008     1.573
 169   1 H      0.086  0.914  0.000  0.000     1.919     2.167
 170   1 H      0.091  0.909  0.000  0.000     1.866     2.136
 171   1 H      0.063  0.937  0.000  0.000     2.161     2.299
 172   1 H      0.052  0.948  0.000  0.000     2.299     2.371
 173   1 H      0.067  0.933  0.000  0.000     2.115     2.274
 174   1 H      0.053  0.947  0.000  0.000     2.287     2.365
 175   1 H      0.059  0.941  0.000  0.000     2.210     2.325
 176   1 H      0.043  0.957  0.000  0.000     2.409     2.427
 177   7 N     -0.394  1.298  4.096  0.000    30.204     8.162
 178   6 C      0.043  1.052  2.905  0.000    19.860     6.346
 179   6 C      0.197  1.093  2.710  0.000    23.802     7.990
 180   8 O     -0.384  1.756  4.628  0.000    21.362     6.197
 181   6 C     -0.008  1.059  2.949  0.000    20.673     6.466
 182   6 C     -0.062  1.052  3.010  0.000    21.686     6.629
 183   6 C     -0.112  1.038  3.074  0.000    22.686     6.790
 184   6 C     -0.104  1.037  3.068  0.000    22.555     6.773
 185   1 H      0.169  0.831  0.000  0.000     1.280     1.773
 186   1 H      0.056  0.944  0.000  0.000     2.245     2.343
 187   1 H      0.030  0.970  0.000  0.000     2.594     2.519
 188   1 H      0.041  0.959  0.000  0.000     2.432     2.439
 189   1 H      0.046  0.954  0.000  0.000     2.372     2.409
 190   1 H      0.041  0.959  0.000  0.000     2.437     2.441
 191   1 H      0.034  0.966  0.000  0.000     2.527     2.486
 192   1 H      0.045  0.955  0.000  0.000     2.384     2.414
 193   1 H      0.044  0.956  0.000  0.000     2.391     2.418
 194   1 H      0.031  0.969  0.000  0.000     2.571     2.507
 195   1 H      0.034  0.966  0.000  0.000     2.529     2.487
 196   7 N     -0.399  1.324  4.075  0.000    30.334     8.180
 197   6 C      0.025  1.067  2.907  0.000    20.158     6.395
 198   6 C      0.273  1.051  2.676  0.000    22.382     7.749
 199   8 O     -0.485  1.728  4.757  0.000    23.452     6.493
 200   6 C     -0.019  1.069  2.950  0.000    20.882     6.500
 201   6 C     -0.063  1.054  3.009  0.000    21.706     6.633
 202   6 C     -0.103  1.035  3.068  0.000    22.535     6.770
 203   6 C     -0.112  1.036  3.076  0.000    22.708     6.796
 204   1 H      0.167  0.833  0.000  0.000     1.293     1.781
 205   1 H      0.049  0.951  0.000  0.000     2.331     2.388
 206   1 H      0.029  0.971  0.000  0.000     2.601     2.522
 207   1 H      0.044  0.956  0.000  0.000     2.393     2.419
 208   1 H      0.045  0.955  0.000  0.000     2.384     2.415
 209   1 H      0.050  0.950  0.000  0.000     2.326     2.385
 210   1 H      0.012  0.988  0.000  0.000     2.856     2.643
 211   1 H      0.046  0.954  0.000  0.000     2.366     2.405
 212   1 H      0.048  0.952  0.000  0.000     2.340     2.392
 213   1 H      0.034  0.966  0.000  0.000     2.528     2.487
 214   1 H      0.041  0.959  0.000  0.000     2.439     2.442
 215   7 N     -0.179  1.252  3.927  0.000    24.880     7.408
 216   6 C      0.057  1.043  2.900  0.000    19.601     6.299
 217   6 C      0.276  1.042  2.682  0.000    22.327     7.739
 218   8 O     -0.478  1.728  4.750  0.000    23.294     6.471
 219   6 C     -0.103  1.070  3.033  0.000    22.464     6.748
 220   6 C      0.373  1.020  2.606  0.000    20.672     7.441
 221   8 O     -0.611  1.766  4.845  0.000    26.400     6.889
 222   8 O     -0.639  1.772  4.866  0.000    27.088     6.978
 223   1 H      0.209  0.791  0.000  0.000     1.059     1.612
 224   1 H      0.060  0.940  0.000  0.000     2.205     2.322
 225   1 H      0.030  0.970  0.000  0.000     2.580     2.512
 226   1 H      0.035  0.965  0.000  0.000     2.515     2.480
 227   7 N     -0.186  1.255  3.932  0.000    25.037     7.431
 228   6 C      0.018  1.068  2.913  0.000    20.254     6.405
 229   6 C      0.291  1.032  2.677  0.000    22.070     7.693
 230   8 O     -0.465  1.738  4.727  0.000    23.032     6.434
 231   6 C     -0.081  1.060  3.021  0.000    22.041     6.683
 232   6 C      0.009  1.076  2.916  0.000    27.818     8.651
 233   6 C     -0.038  1.080  2.959  0.000    28.953     8.825
 234   6 C     -0.037  1.077  2.960  0.000    28.933     8.821
 235   6 C     -0.029  1.078  2.950  0.000    28.719     8.789
 236   6 C     -0.033  1.081  2.952  0.000    28.818     8.804
 237   6 C     -0.033  1.078  2.955  0.000    28.820     8.803
 238   1 H      0.224  0.776  0.000  0.000     0.994     1.561
 239   1 H      0.070  0.930  0.000  0.000     2.087     2.259
 240   1 H      0.070  0.930  0.000  0.000     2.090     2.261
 241   1 H      0.063  0.937  0.000  0.000     2.167     2.302
 242   1 H      0.033  0.967  0.000  0.000     2.542     2.493
 243   1 H      0.036  0.964  0.000  0.000     2.509     2.477
 244   1 H      0.041  0.959  0.000  0.000     2.435     2.440
 245   1 H      0.047  0.953  0.000  0.000     2.359     2.402
 246   1 H      0.046  0.954  0.000  0.000     2.372     2.409
 247   7 N     -0.178  1.235  3.943  0.000    24.854     7.404
 248   6 C      0.026  1.058  2.916  0.000    20.131     6.386
 249   6 C      0.273  1.045  2.682  0.000    22.378     7.747
 250   8 O     -0.505  1.735  4.770  0.000    23.900     6.555
 251   6 C     -0.024  1.059  2.964  0.000    20.955     6.510
 252   6 C     -0.067  1.054  3.013  0.000    21.766     6.641
 253   6 C     -0.115  1.034  3.081  0.000    22.749     6.800
 254   6 C     -0.113  1.037  3.076  0.000    22.723     6.798
 255   1 H      0.194  0.806  0.000  0.000     1.139     1.672
 256   1 H      0.079  0.921  0.000  0.000     1.985     2.203
 257   1 H      0.046  0.954  0.000  0.000     2.368     2.406
 258   1 H      0.051  0.949  0.000  0.000     2.309     2.376
 259   1 H      0.035  0.965  0.000  0.000     2.518     2.481
 260   1 H      0.061  0.939  0.000  0.000     2.187     2.313
 261   1 H      0.033  0.967  0.000  0.000     2.544     2.494
 262   1 H      0.048  0.952  0.000  0.000     2.341     2.393
 263   1 H      0.051  0.949  0.000  0.000     2.306     2.375
 264   1 H      0.035  0.965  0.000  0.000     2.519     2.482
 265   1 H      0.047  0.953  0.000  0.000     2.353     2.399
 266   7 N     -0.194  1.261  3.934  0.000    25.219     7.458
 267   6 C      0.022  1.073  2.905  0.000    20.207     6.401
 268   6 C      0.273  1.053  2.674  0.000    22.378     7.745
 269   8 O     -0.503  1.730  4.773  0.000    23.848     6.547
 270   6 C     -0.014  1.057  2.957  0.000    20.786     6.484
 271   6 C     -0.047  1.042  3.005  0.000    21.395     6.583
 272   6 C     -0.107  1.034  3.072  0.000    22.589     6.775
 273   6 C     -0.100  1.033  3.067  0.000    22.459     6.756
 274   1 H      0.241  0.759  0.000  0.000     0.920     1.503
 275   1 H      0.065  0.935  0.000  0.000     2.136     2.286
 276   1 H      0.054  0.946  0.000  0.000     2.276     2.360
 277   1 H      0.020  0.980  0.000  0.000     2.736     2.587
 278   1 H      0.029  0.971  0.000  0.000     2.595     2.519
 279   1 H      0.057  0.943  0.000  0.000     2.237     2.339
 280   1 H      0.046  0.954  0.000  0.000     2.376     2.410
 281   1 H      0.033  0.967  0.000  0.000     2.544     2.494
 282   1 H      0.041  0.959  0.000  0.000     2.438     2.442
 283   1 H      0.034  0.966  0.000  0.000     2.533     2.489
 284   1 H      0.036  0.964  0.000  0.000     2.508     2.476
 285   7 N     -0.203  1.261  3.943  0.000    25.423     7.489
 286   6 C      0.028  1.067  2.905  0.000    20.114     6.387
 287   6 C      0.278  1.040  2.682  0.000    22.300     7.733
 288   8 O     -0.502  1.748  4.753  0.000    23.825     6.544
 289   6 C     -0.013  1.065  2.948  0.000    20.769     6.482
 290   6 C     -0.056  1.050  3.006  0.000    21.577     6.613
 291   6 C     -0.129  1.039  3.090  0.000    23.027     6.841
 292   6 C     -0.104  1.037  3.066  0.000    22.550     6.772
 293   1 H      0.235  0.765  0.000  0.000     0.945     1.523
 294   1 H      0.048  0.952  0.000  0.000     2.343     2.394
 295   1 H      0.028  0.972  0.000  0.000     2.617     2.530
 296   1 H      0.041  0.959  0.000  0.000     2.437     2.441
 297   1 H      0.026  0.974  0.000  0.000     2.641     2.541
 298   1 H      0.040  0.960  0.000  0.000     2.452     2.449
 299   1 H      0.077  0.923  0.000  0.000     2.010     2.217
 300   1 H      0.040  0.960  0.000  0.000     2.447     2.446
 301   1 H      0.045  0.955  0.000  0.000     2.380     2.412
 302   1 H      0.035  0.965  0.000  0.000     2.513     2.479
 303   1 H      0.045  0.955  0.000  0.000     2.387     2.416
 304   7 N     -0.172  1.245  3.927  0.000    24.731     7.386
 305   6 C      0.029  1.058  2.913  0.000    20.098     6.384
 306   6 C      0.268  1.053  2.679  0.000    22.477     7.764
 307   8 O     -0.495  1.743  4.752  0.000    23.674     6.523
 308   6 C     -0.146  1.043  3.103  0.000    23.376     6.893
 309   1 H      0.219  0.781  0.000  0.000     1.013     1.577
 310   1 H      0.078  0.922  0.000  0.000     1.995     2.209
 311   1 H      0.057  0.943  0.000  0.000     2.231     2.336
 312   1 H      0.089  0.911  0.000  0.000     1.887     2.148
 313   1 H      0.075  0.925  0.000  0.000     2.034     2.230
 314   7 N     -0.194  1.255  3.939  0.000    25.200     7.456
 315   6 C      0.033  1.056  2.912  0.000    20.029     6.373
 316   6 C      0.281  1.043  2.675  0.000    22.242     7.724
 317   8 O     -0.500  1.729  4.772  0.000    23.792     6.540
 318   6 C     -0.079  1.054  3.025  0.000    21.997     6.675
 319   6 C      0.004  1.082  2.914  0.000    27.932     8.669
 320   6 C     -0.042  1.080  2.963  0.000    29.050     8.839
 321   6 C     -0.042  1.082  2.961  0.000    29.048     8.839
 322   6 C     -0.036  1.081  2.955  0.000    28.892     8.815
 323   6 C     -0.037  1.081  2.956  0.000    28.914     8.818
 324   6 C     -0.037  1.081  2.956  0.000    28.911     8.817
 325   1 H      0.226  0.774  0.000  0.000     0.981     1.552
 326   1 H      0.072  0.928  0.000  0.000     2.069     2.250
 327   1 H      0.068  0.932  0.000  0.000     2.104     2.268
 328   1 H      0.051  0.949  0.000  0.000     2.307     2.375
 329   1 H      0.048  0.952  0.000  0.000     2.341     2.393
 330   1 H      0.021  0.979  0.000  0.000     2.720     2.579
 331   1 H      0.066  0.934  0.000  0.000     2.129     2.282
 332   1 H      0.040  0.960  0.000  0.000     2.455     2.450
 333   1 H      0.049  0.951  0.000  0.000     2.332     2.388
 334   7 N     -0.192  1.254  3.938  0.000    25.157     7.449
 335   6 C      0.040  1.054  2.906  0.000    19.897     6.350
 336   6 C      0.280  1.042  2.678  0.000    22.255     7.725
 337   8 O     -0.496  1.737  4.758  0.000    23.691     6.526
 338   6 C     -0.119  1.038  3.081  0.000    22.832     6.812
 339   1 H      0.225  0.775  0.000  0.000     0.989     1.558
 340   1 H      0.068  0.932  0.000  0.000     2.111     2.272
 341   1 H      0.078  0.922  0.000  0.000     2.001     2.212
 342   1 H      0.060  0.940  0.000  0.000     2.197     2.318
 343   1 H      0.044  0.956  0.000  0.000     2.398     2.422
 344   7 N     -0.183  1.247  3.936  0.000    24.955     7.419
 345   6 C      0.030  1.061  2.908  0.000    20.063     6.377
 346   6 C      0.283  1.040  2.677  0.000    22.214     7.718
 347   8 O     -0.492  1.735  4.757  0.000    23.601     6.513
 348   6 C     -0.077  1.060  3.017  0.000    21.970     6.673
 349   6 C     -0.008  1.054  2.954  0.000    20.686     6.469
 350   6 C     -0.109  1.039  3.070  0.000    22.621     6.779
 351   6 C     -0.117  1.043  3.075  0.000    22.788     6.804
 352   1 H      0.206  0.794  0.000  0.000     1.076     1.625
 353   1 H      0.060  0.940  0.000  0.000     2.193     2.316
 354   1 H      0.054  0.946  0.000  0.000     2.272     2.357
 355   1 H      0.068  0.932  0.000  0.000     2.113     2.273
 356   1 H      0.030  0.970  0.000  0.000     2.587     2.515
 357   1 H      0.050  0.950  0.000  0.000     2.323     2.383
 358   1 H      0.029  0.971  0.000  0.000     2.594     2.519
 359   1 H      0.035  0.965  0.000  0.000     2.511     2.478
 360   1 H      0.061  0.939  0.000  0.000     2.187     2.312
 361   1 H      0.038  0.962  0.000  0.000     2.469     2.457
 362   1 H      0.042  0.958  0.000  0.000     2.417     2.431
 363   7 N     -0.184  1.249  3.935  0.000    24.983     7.424
 364   6 C      0.028  1.062  2.910  0.000    20.107     6.386
 365   6 C      0.269  1.049  2.682  0.000    22.461     7.762
 366   8 O     -0.477  1.740  4.737  0.000    23.290     6.470
 367   6 C     -0.083  1.054  3.030  0.000    22.070     6.685
 368   6 C      0.010  1.081  2.909  0.000    27.786     8.647
 369   6 C     -0.038  1.082  2.956  0.000    28.949     8.823
 370   6 C     -0.048  1.085  2.963  0.000    29.204     8.862
 371   6 C     -0.035  1.084  2.951  0.000    28.864     8.810
 372   6 C     -0.047  1.085  2.962  0.000    29.167     8.856
 373   6 C     -0.063  1.083  2.980  0.000    29.557     8.915
 374   1 H      0.215  0.785  0.000  0.000     1.035     1.593
 375   1 H      0.073  0.927  0.000  0.000     2.051     2.240
 376   1 H      0.059  0.941  0.000  0.000     2.205     2.322
 377   1 H      0.070  0.930  0.000  0.000     2.088     2.260
 378   1 H      0.038  0.962  0.000  0.000     2.473     2.459
 379   1 H      0.049  0.951  0.000  0.000     2.330     2.387
 380   1 H      0.052  0.948  0.000  0.000     2.291     2.367
 381   1 H      0.070  0.930  0.000  0.000     2.089     2.260
 382   1 H      0.071  0.929  0.000  0.000     2.071     2.251
 383   7 N     -0.169  1.255  3.914  0.000    24.662     7.376
 384   6 C      0.005  1.070  2.925  0.000    20.492     6.444
 385   6 C      0.283  1.044  2.673  0.000    22.216     7.719
 386   8 O     -0.496  1.736  4.760  0.000    23.687     6.525
 387   6 C     -0.031  1.070  2.961  0.000    21.095     6.533
 388   6 C     -0.061  1.048  3.013  0.000    21.673     6.628
 389   6 C     -0.116  1.036  3.081  0.000    22.783     6.806
 390   6 C     -0.113  1.036  3.078  0.000    22.729     6.798
 391   1 H      0.217  0.783  0.000  0.000     1.024     1.585
 392   1 H      0.095  0.905  0.000  0.000     1.836     2.119
 393   1 H      0.079  0.921  0.000  0.000     1.989     2.205
 394   1 H      0.017  0.983  0.000  0.000     2.778     2.606
 395   1 H      0.055  0.945  0.000  0.000     2.258     2.350
 396   1 H      0.067  0.933  0.000  0.000     2.114     2.274
 397   1 H      0.057  0.943  0.000  0.000     2.239     2.340
 398   1 H      0.021  0.979  0.000  0.000     2.724     2.581
 399   1 H      0.039  0.961  0.000  0.000     2.461     2.453
 400   1 H      0.053  0.947  0.000  0.000     2.286     2.364
 401   1 H      0.039  0.961  0.000  0.000     2.465     2.455
 402   7 N     -0.181  1.242  3.939  0.000    24.923     7.414
 403   6 C      0.042  1.057  2.902  0.000    19.868     6.345
 404   6 C      0.285  1.047  2.668  0.000    22.174     7.712
 405   8 O     -0.507  1.750  4.757  0.000    23.934     6.559
 406   6 C     -0.074  1.054  3.020  0.000    21.911     6.663
 407   6 C      0.011  1.084  2.905  0.000    27.758     8.642
 408   6 C     -0.039  1.078  2.961  0.000    28.972     8.827
 409   6 C     -0.031  1.078  2.954  0.000    28.776     8.798
 410   6 C     -0.034  1.077  2.956  0.000    28.836     8.806
 411   6 C     -0.029  1.075  2.954  0.000    28.726     8.789
 412   6 C     -0.036  1.078  2.957  0.000    28.887     8.814
 413   1 H      0.202  0.798  0.000  0.000     1.094     1.639
 414   1 H      0.062  0.938  0.000  0.000     2.176     2.307
 415   1 H      0.055  0.945  0.000  0.000     2.256     2.349
 416   1 H      0.066  0.934  0.000  0.000     2.134     2.284
 417   1 H      0.032  0.968  0.000  0.000     2.561     2.502
 418   1 H      0.028  0.972  0.000  0.000     2.620     2.531
 419   1 H      0.038  0.962  0.000  0.000     2.478     2.462
 420   1 H      0.031  0.969  0.000  0.000     2.568     2.506
 421   1 H      0.037  0.963  0.000  0.000     2.484     2.465
 422   7 N     -0.192  1.258  3.935  0.000    25.176     7.452
 423   6 C      0.031  1.058  2.911  0.000    20.039     6.371
 424   6 C      0.276  1.044  2.680  0.000    22.328     7.739
 425   8 O     -0.495  1.750  4.746  0.000    23.684     6.525
 426   6 C     -0.017  1.059  2.958  0.000    20.845     6.493
 427   6 C     -0.120  1.042  3.078  0.000    22.844     6.813
 428   6 C     -0.119  1.039  3.080  0.000    22.824     6.811
 429   1 H      0.228  0.772  0.000  0.000     0.972     1.545
 430   1 H      0.052  0.948  0.000  0.000     2.295     2.369
 431   1 H      0.052  0.948  0.000  0.000     2.289     2.366
 432   1 H      0.061  0.939  0.000  0.000     2.192     2.315
 433   1 H      0.047  0.953  0.000  0.000     2.363     2.404
 434   1 H      0.038  0.962  0.000  0.000     2.482     2.464
 435   1 H      0.058  0.942  0.000  0.000     2.220     2.330
 436   1 H      0.041  0.959  0.000  0.000     2.440     2.443
 437   1 H      0.050  0.950  0.000  0.000     2.320     2.382
 438   7 N     -0.187  1.250  3.937  0.000    25.055     7.434
 439   6 C      0.019  1.064  2.917  0.000    20.254     6.407
 440   6 C      0.267  1.054  2.680  0.000    22.499     7.767
 441   8 O     -0.504  1.756  4.748  0.000    23.864     6.550
 442   6 C     -0.087  1.055  3.032  0.000    22.151     6.700
 443   6 C     -0.081  1.051  3.031  0.000    22.045     6.684
 444   6 C     -0.099  1.058  3.041  0.000    22.394     6.737
 445   6 C     -0.054  1.060  2.994  0.000    21.637     6.639
 446   7 N     -0.144  1.229  3.915  0.000    24.114     7.293
 447   1 H      0.226  0.774  0.000  0.000     0.984     1.554
 448   1 H      0.082  0.918  0.000  0.000     1.959     2.189
 449   1 H      0.073  0.927  0.000  0.000     2.058     2.243
 450   1 H      0.083  0.917  0.000  0.000     1.953     2.186
 451   1 H      0.050  0.950  0.000  0.000     2.320     2.382
 452   1 H      0.063  0.937  0.000  0.000     2.169     2.303
 453   1 H      0.089  0.911  0.000  0.000     1.884     2.147
 454   1 H      0.079  0.921  0.000  0.000     1.993     2.208
 455   1 H      0.106  0.894  0.000  0.000     1.735     2.060
 456   1 H      0.124  0.876  0.000  0.000     1.585     1.969
 457   1 H      0.297  0.703  0.000  0.000     0.723     1.332
 458   1 H      0.301  0.699  0.000  0.000     0.709     1.319
 459   1 H      0.276  0.724  0.000  0.000     0.789     1.391
 460   7 N     -0.178  1.261  3.917  0.000    24.849     7.404
 461   6 C      0.012  1.078  2.909  0.000    20.380     6.430
 462   6 C      0.289  1.043  2.668  0.000    22.101     7.698
 463   8 O     -0.509  1.755  4.754  0.000    23.978     6.565
 464   6 C     -0.020  1.069  2.950  0.000    20.894     6.502
 465   6 C     -0.067  1.054  3.013  0.000    21.783     6.645
 466   6 C     -0.111  1.038  3.074  0.000    22.692     6.793
 467   6 C     -0.112  1.037  3.075  0.000    22.709     6.796
 468   1 H      0.230  0.770  0.000  0.000     0.965     1.539
 469   1 H      0.075  0.925  0.000  0.000     2.034     2.230
 470   1 H      0.043  0.957  0.000  0.000     2.411     2.428
 471   1 H      0.046  0.954  0.000  0.000     2.366     2.406
 472   1 H      0.055  0.945  0.000  0.000     2.258     2.350
 473   1 H      0.060  0.940  0.000  0.000     2.198     2.318
 474   1 H      0.022  0.978  0.000  0.000     2.706     2.572
 475   1 H      0.047  0.953  0.000  0.000     2.352     2.399
 476   1 H      0.056  0.944  0.000  0.000     2.249     2.345
 477   1 H      0.036  0.964  0.000  0.000     2.498     2.472
 478   1 H      0.041  0.959  0.000  0.000     2.441     2.443
 479   7 N     -0.177  1.241  3.936  0.000    24.840     7.402
 480   6 C      0.035  1.052  2.913  0.000    19.987     6.365
 481   6 C      0.275  1.044  2.681  0.000    22.349     7.741
 482   8 O     -0.512  1.752  4.760  0.000    24.052     6.575
 483   6 C     -0.115  1.039  3.075  0.000    22.738     6.797
 484   1 H      0.209  0.791  0.000  0.000     1.064     1.616
 485   1 H      0.065  0.935  0.000  0.000     2.136     2.286
 486   1 H      0.065  0.935  0.000  0.000     2.146     2.291
 487   1 H      0.063  0.937  0.000  0.000     2.169     2.303
 488   1 H      0.057  0.943  0.000  0.000     2.228     2.334
 489   7 N     -0.177  1.251  3.927  0.000    24.840     7.402
 490   6 C      0.034  1.057  2.909  0.000    20.013     6.372
 491   6 C      0.201  1.091  2.708  0.000    23.727     7.977
 492   8 O     -0.366  1.758  4.608  0.000    21.007     6.145
 493   6 C     -0.112  1.069  3.043  0.000    22.633     6.773
 494   6 C      0.296  1.038  2.666  0.000    21.985     7.677
 495   8 O     -0.489  1.755  4.734  0.000    23.532     6.504
 496   7 N     -0.288  1.265  4.022  0.000    27.430     7.778
 497   1 H      0.231  0.769  0.000  0.000     0.963     1.537
 498   1 H      0.095  0.905  0.000  0.000     1.830     2.115
 499   1 H      0.114  0.886  0.000  0.000     1.666     2.019
 500   1 H      0.085  0.915  0.000  0.000     1.925     2.170
 501   1 H      0.236  0.764  0.000  0.000     0.941     1.520
 502   1 H      0.231  0.769  0.000  0.000     0.962     1.536
 503   7 N     -0.395  1.328  4.067  0.000    30.231     8.166
 504   6 C      0.042  1.050  2.908  0.000    19.890     6.352
 505   6 C      0.208  1.091  2.702  0.000    23.595     7.956
 506   8 O     -0.377  1.743  4.634  0.000    21.220     6.176
 507   6 C     -0.077  1.062  3.015  0.000    21.951     6.667
 508   6 C     -0.016  1.058  2.958  0.000    20.821     6.490
 509   6 C     -0.112  1.040  3.072  0.000    22.709     6.795
 510   6 C     -0.117  1.043  3.075  0.000    22.799     6.808
 511   1 H      0.169  0.831  0.000  0.000     1.276     1.770
 512   1 H      0.037  0.963  0.000  0.000     2.492     2.469
 513   1 H      0.054  0.946  0.000  0.000     2.270     2.356
 514   1 H      0.055  0.945  0.000  0.000     2.262     2.352
 515   1 H      0.037  0.963  0.000  0.000     2.492     2.469
 516   1 H      0.045  0.955  0.000  0.000     2.384     2.414
 517   1 H      0.038  0.962  0.000  0.000     2.479     2.462
 518   1 H      0.044  0.956  0.000  0.000     2.401     2.423
 519   1 H      0.044  0.956  0.000  0.000     2.397     2.421
 520   1 H      0.046  0.954  0.000  0.000     2.372     2.409
 521   1 H      0.039  0.961  0.000  0.000     2.468     2.457
 522   7 N     -0.408  1.310  4.099  0.000    30.605     8.216
 523   6 C      0.044  1.051  2.905  0.000    19.848     6.345
 524   6 C      0.197  1.094  2.709  0.000    23.805     7.992
 525   8 O     -0.390  1.747  4.642  0.000    21.474     6.213
 526   6 C     -0.017  1.065  2.952  0.000    20.828     6.489
 527   6 C     -0.067  1.052  3.015  0.000    21.774     6.643
 528   6 C     -0.116  1.041  3.076  0.000    22.781     6.805
 529   6 C     -0.106  1.039  3.068  0.000    22.594     6.778
 530   1 H      0.191  0.809  0.000  0.000     1.155     1.683
 531   1 H      0.046  0.954  0.000  0.000     2.368     2.406
 532   1 H      0.039  0.961  0.000  0.000     2.468     2.457
 533   1 H      0.055  0.945  0.000  0.000     2.254     2.348
 534   1 H      0.042  0.958  0.000  0.000     2.425     2.435
 535   1 H      0.049  0.951  0.000  0.000     2.326     2.385
 536   1 H      0.031  0.969  0.000  0.000     2.565     2.505
 537   1 H      0.049  0.951  0.000  0.000     2.335     2.390
 538   1 H      0.045  0.955  0.000  0.000     2.386     2.415
 539   1 H      0.031  0.969  0.000  0.000     2.572     2.508
 540   1 H      0.037  0.963  0.000  0.000     2.483     2.464
 541   7 N     -0.396  1.312  4.084  0.000    30.265     8.171
 542   6 C      0.026  1.057  2.917  0.000    20.137     6.390
 543   6 C      0.273  1.051  2.677  0.000    22.394     7.750
 544   8 O     -0.502  1.754  4.749  0.000    23.836     6.546
 545   6 C     -0.010  1.061  2.949  0.000    20.718     6.472
 546   6 C     -0.101  1.037  3.064  0.000    22.482     6.760
 547   6 C     -0.109  1.040  3.068  0.000    22.628     6.782
 548   1 H      0.157  0.843  0.000  0.000     1.356     1.824
 549   1 H      0.059  0.941  0.000  0.000     2.215     2.328
 550   1 H      0.025  0.975  0.000  0.000     2.654     2.548
 551   1 H      0.030  0.970  0.000  0.000     2.587     2.515
 552   1 H      0.034  0.966  0.000  0.000     2.524     2.484
 553   1 H      0.040  0.960  0.000  0.000     2.447     2.446
 554   1 H      0.045  0.955  0.000  0.000     2.380     2.412
 555   1 H      0.040  0.960  0.000  0.000     2.445     2.445
 556   1 H      0.046  0.954  0.000  0.000     2.374     2.410
 557   7 N     -0.181  1.241  3.940  0.000    24.921     7.414
 558   6 C      0.030  1.052  2.918  0.000    20.080     6.382
 559   6 C      0.196  1.088  2.716  0.000    23.827     7.994
 560   8 O     -0.368  1.755  4.613  0.000    21.053     6.152
 561   6 C     -0.071  1.052  3.018  0.000    21.840     6.652
 562   6 C     -0.017  1.070  2.947  0.000    20.896     6.510
 563  16 S     -0.240  1.929  4.251  0.059   151.318    20.704
 564   6 C     -0.064  1.059  3.005  0.000    21.795     6.659
 565   1 H      0.218  0.782  0.000  0.000     1.019     1.582
 566   1 H      0.096  0.904  0.000  0.000     1.826     2.113
 567   1 H      0.094  0.906  0.000  0.000     1.836     2.119
 568   1 H      0.064  0.936  0.000  0.000     2.153     2.295
 569   1 H      0.063  0.937  0.000  0.000     2.167     2.302
 570   1 H      0.066  0.934  0.000  0.000     2.125     2.280
 571   1 H      0.071  0.929  0.000  0.000     2.071     2.251
 572   1 H      0.063  0.937  0.000  0.000     2.163     2.300
 573   1 H      0.056  0.944  0.000  0.000     2.249     2.345
 574   7 N     -0.389  1.315  4.073  0.000    30.060     8.143
 575   6 C      0.050  1.049  2.901  0.000    19.761     6.333
 576   6 C      0.205  1.092  2.703  0.000    23.653     7.965
 577   8 O     -0.387  1.755  4.632  0.000    21.429     6.206
 578   6 C     -0.106  1.039  3.067  0.000    22.575     6.773
 579   1 H      0.165  0.835  0.000  0.000     1.303     1.788
 580   1 H      0.034  0.966  0.000  0.000     2.528     2.486
 581   1 H      0.039  0.961  0.000  0.000     2.457     2.451
 582   1 H      0.060  0.940  0.000  0.000     2.203     2.321
 583   1 H      0.065  0.935  0.000  0.000     2.137     2.286
 584   7 N     -0.394  1.331  4.063  0.000    30.217     8.164
 585   6 C      0.039  1.056  2.905  0.000    19.942     6.362
 586   6 C      0.206  1.088  2.706  0.000    23.631     7.963
 587   8 O     -0.388  1.761  4.628  0.000    21.452     6.210
 588   6 C     -0.076  1.061  3.015  0.000    21.929     6.663
 589   6 C      0.006  1.088  2.905  0.000    27.876     8.660
 590   6 C     -0.037  1.080  2.957  0.000    28.919     8.819
 591   6 C     -0.042  1.082  2.960  0.000    29.052     8.839
 592   6 C     -0.029  1.078  2.951  0.000    28.729     8.790
 593   6 C     -0.033  1.082  2.951  0.000    28.819     8.804
 594   6 C     -0.035  1.077  2.958  0.000    28.861     8.809
 595   1 H      0.171  0.829  0.000  0.000     1.268     1.764
 596   1 H      0.055  0.945  0.000  0.000     2.263     2.353
 597   1 H      0.068  0.932  0.000  0.000     2.112     2.273
 598   1 H      0.058  0.942  0.000  0.000     2.228     2.334
 599   1 H      0.035  0.965  0.000  0.000     2.510     2.478
 600   1 H      0.035  0.965  0.000  0.000     2.520     2.482
 601   1 H      0.032  0.968  0.000  0.000     2.556     2.500
 602   1 H      0.034  0.966  0.000  0.000     2.534     2.489
 603   1 H      0.033  0.967  0.000  0.000     2.546     2.495
 604   1 H      0.186  0.814  0.000  0.000     1.181     1.702
 605   1 H      0.095  0.905  0.000  0.000     1.830     2.115
 606   1 H      0.176  0.824  0.000  0.000     1.239     1.743
 607   1 H      0.083  0.917  0.000  0.000     1.947     2.182
 608   1 H      0.178  0.822  0.000  0.000     1.224     1.733
 609   1 H      0.084  0.916  0.000  0.000     1.940     2.178
 610   1 H      0.182  0.818  0.000  0.000     1.203     1.718
 611   1 H      0.066  0.934  0.000  0.000     2.127     2.281
 612   1 H      0.188  0.812  0.000  0.000     1.171     1.695
 613   1 H      0.084  0.916  0.000  0.000     1.940     2.178
 614   1 H      0.183  0.817  0.000  0.000     1.196     1.713
 615   1 H      0.070  0.930  0.000  0.000     2.080     2.255
 616   1 H      0.172  0.828  0.000  0.000     1.262     1.759
 617   1 H      0.068  0.932  0.000  0.000     2.102     2.267
 618   1 H      0.183  0.817  0.000  0.000     1.197     1.714
 619   1 H      0.075  0.925  0.000  0.000     2.033     2.230
 620   1 H      0.184  0.816  0.000  0.000     1.191     1.710
 621   1 H      0.075  0.925  0.000  0.000     2.030     2.228
 622   1 H      0.197  0.803  0.000  0.000     1.123     1.660
 623   1 H      0.072  0.928  0.000  0.000     2.064     2.246

 Mol. C6AA /au·bohr⁶  :    3517348.309481
 Mol. C8AA /au·bohr⁸  :   79540884.375343
 Mol. α(0) /au        :       2832.011930

 
molecular dipole:
                 x           y           z       tot (Debye)
 q only:       84.997      27.190       7.020
   full:       85.994      24.330       7.496     227.958
molecular quadrupole (traceless):
                xx          xy          yy          xz          yz          zz
 q only:     6789.480    3329.715   -2956.400    -159.364    1084.125   -3833.080
  q+dip:     7015.238    2983.954   -3234.249     -48.741    1028.771   -3780.989
   full:     7012.516    2982.146   -3238.397     -52.171    1028.242   -3774.119
speedup  1.96
cpu  time for grad    1 m 14.2 s
wall time for grad    0 m 37.8 s

SCC energy    :    -899.9586841
rep           :      11.7511860
ES            :       2.0634023
AES           :      -0.0547376
AXC           :       0.3722162
disp          :      -0.8621118
XB            :       0.0000000
fix           :       0.0000000
Gborn         :       0.0000000
Gsasa         :       0.0000000
Ghb           :       0.0000000
Gshift        :       0.0000000
Gsolv         :      -0.4776343     -299.72
Etot ala COSMO:    -899.9586841
grad norm     :       0.7227538
total E       :    -888.1127156
atomizationE  :     171.5106961   107624.59
(atE without considering molecular charge,
 total energy contains solvation terms)
H-L gap (eV)  :          1.5162

------------------------------------------------------------------------
 * finished run on 2019/05/07 at 22:50:18.837     
------------------------------------------------------------------------
 total:
 * wall-time:     0 d,  0 h,  0 min, 40.022 sec
 *  cpu-time:     0 d,  0 h,  1 min, 17.977 sec
 * ratio c/w:     1.948 speedup
 SCF:
 * wall-time:     0 d,  0 h,  0 min, 39.511 sec
 *  cpu-time:     0 d,  0 h,  1 min, 17.254 sec
 * ratio c/w:     1.955 speedup

