      -----------------------------------------------------------      
     |                   =====================                   |     
     |                           x T B                           |     
     |                   =====================                   |     
     |                         S. Grimme                         |     
     |          Mulliken Center for Theoretical Chemistry        |     
     |                    University of Bonn                     |     
     |                 Version 6.0.1 (SAW181210)                 |     
      -----------------------------------------------------------      

   This program is distributed in the hope that it will be useful,
   but WITHOUT ANY WARRANTY; without even the implied warranty of
   MERCHANTABILITY or FITNESS FOR A PARTICULAR PURPOSE.
   
   FOR NON-COMMERCIAL, ACADEMIA USE ONLY.
   
   Cite this work as:
   S. Grimme, C. Bannwarth, P. Shushkov, J. Comput. Theory Chem., 2017,
   13, 1989-2009.
   C. Bannwarth, S. Ehlert and S. Grimme., ChemRxiv, 2018, preprint.
   http://doi.org/10.26434/chemrxiv.7246238.v1
   
   for sTDA-xTB:
   S. Grimme and C. Bannwarth, J. Chem. Phys., 2016, 145, 054103.
   
   in the mass-spec context:
   V. Asgeirsson, C. Bauer and S. Grimme, Chem. Sci., 2017, 8, 4879.
   
   if GBSA is used:
   P. Shushkov, F. März and S. Grimme, unpublished.
   
   for ANC optimizer:
   S. Grimme, unpublished.
   Rational Function algorithm used in ANCopt:
   F. Eckert, P. Pulay, H.-J. Werner, J. Comput. Chem., 1997, 18, 1473.
   
   with help from (in alphabetical order)
   C. Bannwarth, F. Bohle, G. Brandenburg, E. Caldeweyher, M. Checinski,
   S. Dohm, S. Ehlert, S. Ehrlich, F. März, H. Neugebauer, J. Pisarek,
   P. Pracht, P. Shushkov, and S. Spicher.
   
 * started run on 2019/05/04 at 19:02:56.171     
========================================================================
 # omp threads = 2
========================================================================
number of atoms            : 1580
number of electrons        : 4340
charge                     : -1
spin                       : .0
first test random number   : .1938

########################################################################
# WARNING! Please study the warnings concerning your input carefully
#  - Process number higher than OMP_NUM_THREADS, I hope you know what you are doing.
########################################################################

           ------------------------------------------------- 
          |                 G F N 2 - x T B                 |
          | Geometry, Frequencies, Noncovalent interactions |
          |            JCTC 2018 parametrisation            |
           ------------------------------------------------- 
 
      method parameters     
 k(s)        :  1.8500
 k(p)        :  2.2300
 k(d)        :  2.2300
 k(f)        :  2.0000
 kEN (H0ij)  : -2.0000
 D4 a1       :  0.5200
 D4 a2       :  5.0000
 D4 s6       :  1.0000
 D4 s8       :  2.7000
 D4 s9       :  5.0000
 alphaj      :  2.0000

 Solvent             : h2o
 Using internal parameter file: .param_gbsa2_h2o
 Gsolv ref. state (COSMO-RS): gsolv [1 M gas/solution]
 temperature (mdtemp)       :    298.150000000000     
 dielectric constant        :    80.2000000000000     
 rho                        :    1.00000000000000     
 mass                       :    18.0000000000000     
 surface tension            :    15.5689454083859     
 probe radius               :   0.975313790000000     
 vdW radii scaling          :    1.00000000000000     
 Gshift (Eh)                :   1.857443126794793E-003
 c1                         :    1.55243817000000     
 soset                      :   0.130326360000000     
 HB correction              :  T

            Z     q(EN)     CN     RAES       Cart. coordinates
     1  N   5.0   -0.18    3.28    1.98    13.75532    57.16043   -19.44717
     2  C   4.0    0.03    4.29    4.17    14.58490    54.71513   -18.54955
     3  C   4.0    0.14    3.47    3.10    13.21107    54.26537   -16.09291
     4  O   6.0   -0.31    1.32    1.80    12.11503    56.01715   -15.03655
     5  C   4.0   -0.08    4.14    3.89    17.39115    54.73402   -18.11113
     6  H   1.0    0.11    1.05    1.44    13.59280    58.47757   -18.04877
     7  H   1.0    0.04    1.05    1.44    14.14271    53.21657   -19.89126
     8  H   1.0    0.04    1.00    1.43    17.97696    52.87831   -17.43650
     9  H   1.0    0.04    1.00    1.43    18.34357    55.17055   -19.88370
    10  H   1.0    0.04    1.00    1.43    17.84090    56.16832   -16.70140
    11  N   5.0   -0.15    3.43    2.04    13.26966    51.93156   -15.17450
    12  C   4.0    0.04    4.42    4.41    11.79945    51.25126   -12.94462
    13  C   4.0    0.14    3.44    3.09    12.58557    48.67934   -11.89771
    14  O   6.0   -0.31    1.24    1.80    12.24164    46.72347   -13.12604
    15  C   4.0   -0.03    4.29    4.18     8.97053    51.26260   -13.57579
    16  C   4.0   -0.04    4.21    4.01     7.26789    50.43112   -11.43284
    17  C   4.0   -0.05    4.17    3.94     5.05691    48.82485   -12.36448
    18  C   4.0   -0.04    4.13    3.86     3.20120    48.31840   -10.21397
    19  N   5.0   -0.12    3.99    2.83     1.36249    46.26238   -10.75821
    20  H   1.0    0.08    1.06    1.44    14.30334    50.48592   -15.92094
    21  H   1.0    0.05    1.07    1.44    12.15094    52.64776   -11.47064
    22  H   1.0    0.06    1.03    1.43     8.42251    53.17878   -14.09547
    23  H   1.0    0.05    1.04    1.43     8.64739    49.98325   -15.15749
    24  H   1.0    0.06    1.04    1.43     8.36015    49.30673   -10.09681
    25  H   1.0    0.05    1.03    1.43     6.50066    52.09596   -10.49176
    26  H   1.0    0.04    1.03    1.43     4.06291    49.82262   -13.86681
    27  H   1.0    0.05    1.03    1.43     5.76177    47.02016   -13.06368
    28  H   1.0    0.04    1.03    1.43     4.26511    47.77983    -8.53400
    29  H   1.0    0.04    1.02    1.43     2.12783    50.03805    -9.84736
    30  H   1.0    0.06    1.01    1.43     0.15874    46.01483    -9.22564
    31  H   1.0    0.05    1.01    1.43     0.29291    46.71969   -12.34180
    32  H   1.0    0.05    1.01    1.43     2.31869    44.57864   -11.09836
    33  N   5.0   -0.14    3.44    2.04    13.63059    48.69068    -9.61493
    34  C   4.0    0.04    4.36    4.31    14.29200    46.33230    -8.38093
    35  C   4.0    0.08    3.25    3.04    12.19818    45.24949    -6.74254
    36  O   6.0   -0.30    1.14    1.80    11.27788    46.48348    -4.99644
    37  C   4.0   -0.03    4.35    4.29    16.69384    46.54206    -6.81246
    38  C   4.0   -0.02    3.58    3.15    17.66705    44.02684    -5.95075
    39  C   4.0   -0.05    3.50    3.11    19.54166    42.78529    -7.30379
    40  C   4.0   -0.04    3.49    3.11    16.59746    42.82497    -3.88339
    41  C   4.0   -0.04    3.39    3.07    20.39959    40.43258    -6.56491
    42  C   4.0   -0.04    3.38    3.07    17.44784    40.47226    -3.12939
    43  C   4.0   -0.03    3.38    3.07    19.35835    39.27039    -4.47487
    44  H   1.0    0.10    1.06    1.44    14.03122    50.27805    -8.59825
    45  H   1.0    0.05    1.08    1.44    14.60002    45.00382    -9.92484
    46  H   1.0    0.05    1.05    1.44    18.16027    47.43779    -7.95008
    47  H   1.0    0.05    1.04    1.43    16.30456    47.68157    -5.14005
    48  H   1.0    0.05    1.08    1.44    20.34101    43.67157    -8.95919
    49  H   1.0    0.06    1.03    1.43    15.08757    43.73393    -2.85349
    50  H   1.0    0.06    1.03    1.43    21.88114    39.50472    -7.61938
    51  H   1.0    0.06    1.03    1.43    16.62770    39.56708    -1.49477
    52  H   1.0    0.07    1.03    1.43    20.02543    37.43358    -3.88717
    53  N   5.0   -0.18    3.21    1.96    18.01287    40.36266   -12.81045
    54  C   4.0    0.03    4.24    4.08    18.32089    42.65867   -14.30145
    55  C   4.0    0.08    3.22    3.04    17.19651    42.29396   -16.91116
    56  O   6.0   -0.28    1.13    1.80    17.75209    40.42880   -18.18861
    57  C   4.0   -0.04    4.31    4.21    21.11013    43.34464   -14.58302
    58  C   4.0   -0.03    3.70    3.24    22.11357    45.02083   -12.55345
    59  C   4.0   -0.02    3.61    3.17    24.16959    44.57675   -11.03978
    60  C   4.0   -0.01    3.89    3.45    21.11769    47.41700   -11.79378
    61  N   5.0   -0.11    3.49    2.07    24.50597    46.54962    -9.38249
    62  C   4.0    0.03    3.88    3.44    22.66726    48.32407    -9.81146
    63  C   4.0   -0.05    3.40    3.08    19.06356    48.87965   -12.57991
    64  C   4.0   -0.05    3.40    3.08    22.22696    50.64088    -8.61904
    65  C   4.0   -0.05    3.38    3.07    18.63081    51.17945   -11.38749
    66  C   4.0   -0.05    3.38    3.07    20.20495    52.03360    -9.43162
    67  H   1.0    0.09    1.03    1.43    19.66827    39.48582   -12.35503
    68  H   1.0    0.04    1.06    1.44    17.35524    44.19880   -13.33202
    69  H   1.0    0.05    1.04    1.43    22.21751    41.60799   -14.56034
    70  H   1.0    0.04    1.04    1.43    21.36713    44.31974   -16.37825
    71  H   1.0    0.05    1.01    1.43    25.35445    42.91757   -11.13616
    72  H   1.0    0.12    1.09    1.44    25.89491    46.67245    -8.05212
    73  H   1.0    0.05    1.03    1.43    17.83901    48.23714   -14.08035
    74  H   1.0    0.06    1.03    1.43    23.43638    51.30606    -7.11482
    75  H   1.0    0.05    1.03    1.43    17.05289    52.33218   -11.97708
    76  H   1.0    0.05    1.03    1.43    19.81189    53.83073    -8.54723
    77  N   5.0   -0.21    3.25    1.97    26.14814    63.95022   -28.22684
    78  C   4.0    0.03    4.38    4.35    26.54876    65.97978   -26.39191
    79  C   4.0    0.15    3.47    3.10    27.45961    64.97823   -23.83511
    80  O   6.0   -0.33    1.33    1.80    28.62179    66.35395   -22.37058
    81  C   4.0   -0.02    4.11    3.82    24.10723    67.47455   -26.01586
    82  S   6.0   -0.07    2.53    3.10    21.76964    65.81349   -24.14503
    83  H   1.0    0.08    1.03    1.43    24.31510    63.36629   -28.35345
    84  H   1.0    0.05    1.06    1.44    27.97550    67.26857   -27.12891
    85  H   1.0    0.06    1.07    1.44    24.55132    69.23956   -25.05210
    86  H   1.0    0.06    1.07    1.44    23.27764    67.86762   -27.86023
    87  H   1.0    0.05    1.00    1.43    20.09386    66.96519   -23.14121
    88  N   5.0   -0.13    3.57    2.13    26.85301    62.59528   -23.30221
    89  C   4.0    0.04    4.51    4.55    27.54276    61.35373   -20.93816
    90  C   4.0    0.14    3.45    3.09    28.64447    58.76292   -21.49374
    91  O   6.0   -0.30    1.26    1.80    28.68415    57.93711   -23.66693
    92  C   4.0   -0.02    4.33    4.25    25.23351    60.95500   -19.22418
    93  C   4.0   -0.08    4.13    3.85    24.79887    63.24535   -17.60280
    94  C   4.0   -0.07    4.17    3.94    22.89970    60.31438   -20.77943
    95  H   1.0    0.09    1.07    1.44    25.86279    61.45578   -24.50030
    96  H   1.0    0.06    1.07    1.44    28.96005    62.53292   -20.01976
    97  H   1.0    0.04    1.07    1.44    25.59445    59.35629   -17.97696
    98  H   1.0    0.03    1.00    1.43    23.15481    62.91654   -16.40471
    99  H   1.0    0.04    1.01    1.43    26.46561    63.56660   -16.43495
   100  H   1.0    0.05    1.00    1.43    24.46817    64.87429   -18.81789
   101  H   1.0    0.03    1.00    1.43    21.30099    60.04415   -19.50953
   102  H   1.0    0.05    1.08    1.44    22.51231    61.86585   -22.07578
   103  H   1.0    0.05    1.00    1.43    23.25497    58.58528   -21.83956
   104  N   5.0   -0.15    3.45    2.05    29.50996    57.46468   -19.52087
   105  C   4.0    0.04    4.46    4.48    30.37168    54.86630   -19.81567
   106  C   4.0    0.15    3.47    3.10    30.44915    53.32807   -17.39115
   107  O   6.0   -0.31    1.33    1.80    31.43748    54.18222   -15.47308
   108  C   4.0   -0.02    4.33    4.25    32.93414    54.69812   -21.11769
   109  C   4.0    0.16    3.26    3.05    33.77696    51.99959   -21.47485
   110  O   6.0   -0.30    1.22    1.80    32.28597    50.39143   -22.26664
   111  N   5.0   -0.17    3.16    1.95    36.16746    51.45913   -20.81533
   112  H   1.0    0.11    1.08    1.44    29.63468    58.15254   -17.72374
   113  H   1.0    0.06    1.08    1.44    28.90336    53.99703   -20.96840
   114  H   1.0    0.06    1.03    1.43    32.81131    55.58440   -22.97340
   115  H   1.0    0.05    1.04    1.43    34.34199    55.66566   -19.96684
   116  H   1.0    0.10    1.02    1.43    36.84021    49.66389   -21.01564
   117  H   1.0    0.09    1.02    1.43    37.31075    52.84430   -20.11424
   118  N   5.0   -0.13    3.53    2.10    29.49673    51.01315   -17.51965
   119  C   4.0    0.04    4.44    4.44    29.55342    49.34074   -15.32379
   120  C   4.0    0.16    3.48    3.11    32.21605    49.11587   -14.30145
   121  O   6.0   -0.28    1.27    1.80    33.98294    48.90611   -15.75087
   122  C   4.0   -0.05    4.33    4.25    28.52919    46.72536   -16.00409
   123  C   4.0   -0.05    4.27    4.14    26.84734    46.71403   -18.35491
   124  C   4.0   -0.04    4.17    3.93    28.23817    45.51972   -20.59612
   125  C   4.0   -0.04    4.17    3.94    29.63846    43.10276   -19.78921
   126  N   5.0   -0.12    4.01    2.89    27.99818    41.32453   -18.31333
   127  H   1.0    0.08    1.11    1.44    28.68415    50.24403   -19.09001
   128  H   1.0    0.04    1.06    1.44    28.34778    50.12876   -13.85169
   129  H   1.0    0.05    1.08    1.44    30.11845    45.46303   -16.35936
   130  H   1.0    0.04    1.03    1.43    27.41047    46.02050   -14.42617
   131  H   1.0    0.04    1.03    1.43    25.14469    45.61609   -17.97885
   132  H   1.0    0.04    1.06    1.44    26.34278    48.64910   -18.85191
   133  H   1.0    0.04    1.02    1.43    26.87946    45.02650   -22.06255
   134  H   1.0    0.06    1.03    1.43    29.61956    46.85575   -21.33690
   135  H   1.0    0.04    1.02    1.43    30.29609    42.11443   -21.47296
   136  H   1.0    0.05    1.03    1.43    31.24284    43.62054   -18.60435
   137  H   1.0    0.06    1.01    1.43    28.44793    39.46504   -18.76309
   138  H   1.0    0.05    1.01    1.43    28.27408    41.59854   -16.38770
   139  H   1.0    0.05    1.02    1.43    26.10656    41.64389   -18.73852
   140  N   5.0   -0.15    3.49    2.07    32.51462    49.23303   -11.81646
   141  C   4.0    0.04    4.57    4.63    34.94670    48.64155   -10.69585
   142  C   4.0    0.14    3.57    3.15    34.81631    46.13955    -9.32202
   143  O   6.0   -0.30    1.26    1.80    36.67202    44.74871    -9.20674
   144  C   4.0   -0.02    4.32    4.23    35.79708    50.61253    -8.79101
   145  C   4.0   -0.07    4.25    4.09    37.27484    49.31807    -6.68585
   146  C   4.0   -0.07    4.10    3.81    37.39201    52.64588   -10.07224
   147  H   1.0    0.10    1.07    1.44    31.13701    49.72058   -10.56168
   148  H   1.0    0.07    1.08    1.44    36.33754    48.57541   -12.21330
   149  H   1.0    0.05    1.06    1.44    34.15302    51.54605    -7.97464
   150  H   1.0    0.04    1.01    1.43    37.88145    50.73725    -5.32147
   151  H   1.0    0.06    1.04    1.43    36.05786    47.93479    -5.76555
   152  H   1.0    0.06    1.00    1.43    38.91702    48.37698    -7.50032
   153  H   1.0    0.04    1.00    1.43    37.97404    54.02915    -8.66250
   154  H   1.0    0.05    1.00    1.43    39.05119    51.76337   -10.91695
   155  H   1.0    0.06    1.00    1.43    36.26384    53.56239   -11.53111
   156  N   5.0   -0.13    3.51    2.09    32.60722    45.62743    -8.23543
   157  C   4.0    0.04    4.35    4.30    32.05731    43.26906    -6.88994
   158  C   4.0    0.15    3.43    3.09    29.41736    43.46937    -5.72020
   159  O   6.0   -0.31    1.46    1.80    28.24006    45.49137    -5.79579
   160  C   4.0    0.04    4.16    3.92    34.04719    42.72103    -4.84148
   161  O   6.0   -0.24    2.04    1.83    34.57254    44.86965    -3.32970
   162  H   1.0    0.11    1.10    1.44    31.11056    46.84253    -8.25243
   163  H   1.0    0.04    1.05    1.44    32.03274    41.71003    -8.23543
   164  H   1.0    0.04    1.02    1.43    33.34043    41.21681    -3.62449
   165  H   1.0    0.06    1.02    1.43    35.78952    42.12199    -5.76177
   166  H   1.0    0.12    1.01    1.43    35.84243    44.44824    -2.04846
   167  N   5.0   -0.13    3.42    2.03    28.48195    41.38878    -4.65628
   168  C   4.0    0.04    4.45    4.46    25.99129    41.36232    -3.45442
   169  C   4.0    0.15    3.54    3.13    25.46784    43.77928    -1.96720
   170  O   6.0   -0.29    1.29    1.80    26.85867    44.41801    -0.21165
   171  C   4.0   -0.03    4.29    4.17    25.70594    39.06253    -1.72532
   172  C   4.0    0.24    3.13    3.03    25.25430    36.63801    -3.18419
   173  O   6.0   -0.29    1.21    1.80    25.35823    36.70982    -5.54068
   174  O   6.0   -0.28    1.17    1.80    24.80832    34.65757    -1.97098
   175  H   1.0    0.08    1.06    1.44    29.40036    39.69558    -4.59581
   176  H   1.0    0.05    1.08    1.44    24.58344    41.21492    -4.95108
   177  H   1.0    0.06    1.03    1.43    27.42937    38.83198    -0.62172
   178  H   1.0    0.05    1.03    1.43    24.10156    39.36110    -0.46865
   179  N   5.0   -0.15    3.51    2.08    23.48362    45.13232    -2.71365
   180  C   4.0    0.03    4.46    4.48    22.55766    47.29795    -1.27745
   181  C   4.0    0.15    3.44    3.09    24.14881    49.61853    -1.73288
   182  O   6.0   -0.31    1.24    1.80    23.41559    51.72180    -1.03179
   183  C   4.0   -0.01    4.38    4.34    22.53498    46.69702     1.53446
   184  C   4.0   -0.01    3.71    3.24    20.63392    44.72792     2.16752
   185  C   4.0   -0.01    3.59    3.16    21.09312    42.30907     2.92152
   186  C   4.0    0.00    3.90    3.46    17.94295    44.98115     2.01823
   187  N   5.0   -0.12    3.49    2.07    18.85191    41.04674     3.27867
   188  C   4.0    0.03    3.90    3.47    16.89037    42.64734     2.74766
   189  C   4.0   -0.05    3.41    3.08    16.32345    46.96725     1.36249
   190  C   4.0   -0.05    3.40    3.08    14.29956    42.23349     2.82892
   191  C   4.0   -0.04    3.38    3.07    13.75343    46.56474     1.46832
   192  C   4.0   -0.04    3.39    3.08    12.76132    44.21203     2.19964
   193  H   1.0    0.08    1.06    1.44    22.48207    44.76194    -4.31802
   194  H   1.0    0.04    1.06    1.44    20.64337    47.77794    -1.86705
   195  H   1.0    0.08    1.07    1.44    24.39258    46.00538     2.09571
   196  H   1.0    0.06    1.03    1.43    22.07200    48.40533     2.58892
   197  H   1.0    0.06    1.01    1.43    22.94694    41.50216     3.19742
   198  H   1.0    0.07    1.04    1.43    18.67805    39.21370     3.84748
   199  H   1.0    0.05    1.03    1.43    17.07178    48.77572     0.78613
   200  H   1.0    0.05    1.03    1.43    13.53044    40.42124     3.36749
   201  H   1.0    0.05    1.03    1.43    12.47975    48.08219     0.98077
   202  H   1.0    0.06    1.03    1.43    10.73742    43.96069     2.26578
   203  N   5.0   -0.12    3.56    2.12    26.32766    49.22169    -2.91585
   204  C   4.0    0.04    4.47    4.49    28.11345    51.24181    -3.31269
   205  C   4.0    0.14    3.41    3.08    28.38746    51.86542    -6.09815
   206  O   6.0   -0.31    1.28    1.80    28.47628    50.17033    -7.67985
   207  C   4.0   -0.03    4.31    4.22    30.67025    50.53505    -2.21098
   208  C   4.0   -0.04    4.26    4.13    32.24250    52.81784    -1.61383
   209  C   4.0   -0.04    4.20    4.01    35.01284    52.23769    -1.42485
   210  C   4.0   -0.04    4.16    3.92    36.48683    54.59985    -2.08437
   211  N   5.0   -0.12    4.01    2.89    38.21971    55.41243    -0.00756
   212  H   1.0    0.13    1.16    1.46    26.89080    47.51527    -3.61316
   213  H   1.0    0.07    1.09    1.44    27.41803    52.94445    -2.38483
   214  H   1.0    0.07    1.03    1.43    30.38490    49.47492    -0.46676
   215  H   1.0    0.06    1.04    1.43    31.69826    49.38421    -3.57536
   216  H   1.0    0.05    1.05    1.44    31.98739    54.21624    -3.10482
   217  H   1.0    0.07    1.04    1.43    31.63401    53.59641     0.19275
   218  H   1.0    0.06    1.03    1.43    35.48338    51.66511     0.49700
   219  H   1.0    0.04    1.05    1.44    35.51173    50.74103    -2.74955
   220  H   1.0    0.03    1.02    1.43    37.62633    54.23513    -3.76055
   221  H   1.0    0.04    1.04    1.43    35.16591    56.13620    -2.45097
   222  H   1.0    0.05    1.01    1.43    39.19103    57.03571    -0.53857
   223  H   1.0    0.09    1.05    1.44    37.18603    55.79227     1.61950
   224  H   1.0    0.07    1.01    1.43    39.51984    53.98947     0.37983
   225  N   5.0   -0.14    3.46    2.05    28.62179    54.31072    -6.65184
   226  C   4.0    0.03    4.38    4.35    28.54242    55.31039    -9.22564
   227  C   4.0    0.14    3.43    3.09    30.40380    57.48546    -9.46375
   228  O   6.0   -0.32    1.28    1.80    30.83088    58.85740    -7.64583
   229  C   4.0   -0.04    4.38    4.34    25.88736    56.32517    -9.75666
   230  C   4.0   -0.03    4.18    3.96    25.04265    57.05461   -12.42495
   231  C   4.0   -0.08    4.11    3.82    24.18093    54.73402   -13.89138
   232  C   4.0   -0.08    4.11    3.83    22.90537    58.96701   -12.30023
   233  H   1.0    0.10    1.07    1.44    28.87501    55.68266    -5.32147
   234  H   1.0    0.05    1.06    1.44    29.06587    53.85530   -10.58624
   235  H   1.0    0.05    1.05    1.44    24.56266    54.87764    -9.12927
   236  H   1.0    0.05    1.05    1.44    25.66248    58.02592    -8.61715
   237  H   1.0    0.05    1.06    1.44    26.63947    57.89742   -13.41705
   238  H   1.0    0.04    1.00    1.43    23.59323    55.31417   -15.77921
   239  H   1.0    0.05    1.00    1.43    25.74752    53.40366   -14.02177
   240  H   1.0    0.04    1.01    1.43    22.59923    53.86286   -12.89927
   241  H   1.0    0.03    1.00    1.43    22.33278    59.46023   -14.21641
   242  H   1.0    0.04    1.00    1.43    21.31800    58.13364   -11.28544
   243  H   1.0    0.03    1.00    1.43    23.56677    60.64886   -11.31001
   244  N   5.0   -0.14    3.43    2.04    31.46205    57.84073   -11.70874
   245  C   4.0    0.04    4.41    4.40    33.13445    59.99880   -12.17928
   246  C   4.0    0.14    3.41    3.08    32.14424    61.87341   -14.16539
   247  O   6.0   -0.32    1.27    1.80    31.10678    61.11752   -16.11369
   248  C   4.0   -0.03    4.29    4.18    35.76306    59.09551   -12.94273
   249  C   4.0   -0.03    4.23    4.05    37.61500    61.25169   -13.37170
   250  C   4.0    0.24    3.13    3.03    39.67480    60.61107   -15.25576
   251  O   6.0   -0.29    1.19    1.80    39.44614    58.67977   -16.62959
   252  O   6.0   -0.29    1.17    1.80    41.51539    62.08506   -15.36347
   253  H   1.0    0.11    1.10    1.44    31.20504    56.68422   -13.22808
   254  H   1.0    0.06    1.08    1.44    33.21193    61.07405   -10.42373
   255  H   1.0    0.05    1.03    1.43    36.51895    57.89742   -11.44607
   256  H   1.0    0.07    1.04    1.43    35.61755    58.02404   -14.69640
   257  H   1.0    0.06    1.06    1.44    36.58509    62.88441   -14.09169
   258  H   1.0    0.06    1.03    1.43    38.51828    61.72223   -11.58213
   259  N   5.0   -0.15    3.50    2.08    32.54486    64.31493   -13.68540
   260  C   4.0    0.03    4.51    4.55    31.62456    66.33316   -15.34646
   261  C   4.0    0.15    3.40    3.08    33.57854    67.18732   -17.31745
   262  O   6.0   -0.32    1.33    1.80    35.64968    68.03958   -16.66738
   263  C   4.0   -0.02    4.36    4.31    30.75529    68.63296   -13.83657
   264  C   4.0   -0.04    4.24    4.08    29.12446    67.79770   -11.60859
   265  C   4.0   -0.06    4.16    3.92    29.28319    70.42442   -15.53355
   266  C   4.0   -0.08    4.04    3.70    26.50530    66.87929   -12.35314
   267  H   1.0    0.12    1.15    1.45    33.50862    64.96311   -12.14716
   268  H   1.0    0.05    1.08    1.44    30.06743    65.48278   -16.39337
   269  H   1.0    0.06    1.06    1.44    32.41447    69.61561   -13.10903
   270  H   1.0    0.06    1.05    1.44    30.07688    66.25190   -10.63727
   271  H   1.0    0.04    1.03    1.43    28.88824    69.39452   -10.32924
   272  H   1.0    0.05    1.00    1.43    28.67848    72.05336   -14.42617
   273  H   1.0    0.06    1.00    1.43    30.50018    71.03858   -17.07745
   274  H   1.0    0.05    1.01    1.43    27.63913    69.43798   -16.28566
   275  H   1.0    0.03    1.00    1.43    25.48106    66.32560   -10.65427
   276  H   1.0    0.04    1.00    1.43    25.50563    68.40619   -13.30934
   277  H   1.0    0.04    1.01    1.43    26.69616    65.26358   -13.61737
   278  N   5.0   -0.15    3.53    2.10    32.86800    67.00779   -19.72118
   279  C   4.0    0.04    4.43    4.43    34.59332    67.46133   -21.80933
   280  C   4.0    0.14    3.41    3.08    33.94515    69.89340   -23.23418
   281  O   6.0   -0.31    1.23    1.80    35.35488    70.71921   -24.89714
   282  C   4.0   -0.04    4.40    4.38    34.47427    65.24657   -23.64614
   283  C   4.0   -0.02    4.21    4.02    34.68970    62.61229   -22.51986
   284  C   4.0   -0.07    4.09    3.78    34.57632    60.61107   -24.60990
   285  C   4.0   -0.06    4.13    3.86    37.12367    62.44032   -21.00997
   286  H   1.0    0.11    1.13    1.45    31.08410    66.54481   -20.28243
   287  H   1.0    0.05    1.06    1.44    36.52462    67.60495   -21.10824
   288  H   1.0    0.06    1.04    1.43    32.66769    65.33350   -24.63069
   289  H   1.0    0.05    1.04    1.43    36.02007    65.45444   -24.99163
   290  H   1.0    0.06    1.06    1.44    33.11367    62.23623   -21.24808
   291  H   1.0    0.05    1.00    1.43    34.73505    58.74213   -23.75763
   292  H   1.0    0.06    1.00    1.43    32.77919    60.77926   -25.60390
   293  H   1.0    0.04    1.00    1.43    36.13534    60.92099   -25.91948
   294  H   1.0    0.06    1.00    1.43    37.28051    60.55249   -20.20306
   295  H   1.0    0.05    1.00    1.43    38.71671    62.80126   -22.26286
   296  H   1.0    0.06    1.00    1.43    37.08020    63.84628   -19.50575
   297  N   5.0   -0.13    3.50    2.08    31.77952    71.00456   -22.62947
   298  C   4.0    0.03    4.42    4.42    31.00851    73.35727   -23.81433
   299  C   4.0    0.15    3.43    3.09    30.05987    75.19031   -21.81311
   300  O   6.0   -0.31    1.32    1.80    28.44227    74.51378   -20.25219
   301  C   4.0   -0.02    4.30    4.19    28.92792    72.85838   -25.75130
   302  C   4.0   -0.03    4.21    4.01    29.83310    71.70376   -28.23440
   303  C   4.0    0.14    3.21    3.04    27.65047    71.16141   -30.05420
   304  O   6.0   -0.29    1.22    1.80    25.47162    71.84171   -29.54775
   305  N   5.0   -0.19    3.16    1.95    28.22306    69.91041   -32.16692
   306  H   1.0    0.10    1.07    1.44    30.53041    70.32048   -21.33123
   307  H   1.0    0.05    1.07    1.44    32.62612    74.22655   -24.74785
   308  H   1.0    0.06    1.03    1.43    27.56354    71.55447   -24.92360
   309  H   1.0    0.06    1.03    1.43    28.00952    74.64795   -26.19916
   310  H   1.0    0.05    1.03    1.43    31.12568    73.01523   -29.15658
   311  H   1.0    0.05    1.03    1.43    30.79497    69.92553   -27.84133
   312  H   1.0    0.08    1.02    1.43    30.04097    69.36617   -32.50140
   313  H   1.0    0.09    1.02    1.43    26.84167    69.49845   -33.44626
   314  N   5.0   -0.13    3.45    2.05    31.07654    77.49199   -21.81878
   315  C   4.0    0.04    4.41    4.39    30.12412    79.45353   -20.11424
   316  C   4.0    0.16    3.42    3.09    27.34811    79.99966   -20.71518
   317  O   6.0   -0.28    1.25    1.80    26.57522    79.83714   -22.90159
   318  C   4.0   -0.04    4.29    4.18    31.71905    81.87616   -20.29377
   319  C   4.0    0.15    3.23    3.04    34.54797    81.38105   -19.99708
   320  O   6.0   -0.31    1.22    1.80    35.54197    81.19774   -17.89570
   321  N   5.0   -0.19    3.19    1.95    35.85566    81.19397   -22.12113
   322  H   1.0    0.07    1.06    1.44    32.52974    78.05135   -22.95450
   323  H   1.0    0.07    1.06    1.44    30.26585    78.79779   -18.16594
   324  H   1.0    0.05    1.03    1.43    31.41480    82.74354   -22.13625
   325  H   1.0    0.05    1.03    1.43    31.14079    83.17251   -18.80088
   326  H   1.0    0.09    1.02    1.43    37.75295    80.86515   -22.05877
   327  H   1.0    0.08    1.03    1.43    34.96560    81.37916   -23.82000
   328  N   5.0   -0.13    3.32    1.99    25.82122    80.56469   -18.79899
   329  C   4.0    0.02    4.28    4.16    23.19450    81.25822   -19.30922
   330  C   4.0    0.14    3.30    3.05    21.29910    81.17129   -17.16816
   331  O   6.0   -0.31    1.27    1.80    21.94917    80.75177   -14.99498
   332  H   1.0    0.11    1.07    1.44    26.32388    80.56091   -16.93761
   333  H   1.0    0.05    1.03    1.43    23.18316    83.18952   -20.02543
   334  H   1.0    0.06    1.04    1.43    22.48396    79.99588   -20.77376
   335  N   5.0   -0.14    3.43    2.04    18.91994    81.59081   -17.83145
   336  C   4.0    0.03    4.44    4.45    16.87714    81.56624   -16.00220
   337  C   4.0    0.15    3.39    3.08    15.58835    78.95653   -15.81512
   338  O   6.0   -0.30    1.22    1.80    14.22019    78.14017   -17.53666
   339  C   4.0   -0.04    4.35    4.30    14.95718    83.64116   -16.60691
   340  C   4.0   -0.02    4.20    4.01    13.08635    84.16272   -14.47152
   341  C   4.0   -0.07    4.14    3.88    14.51499    84.49343   -11.99787
   342  C   4.0   -0.08    4.09    3.78    11.41394    86.44362   -15.03466
   343  H   1.0    0.08    1.06    1.44    18.34924    81.95552   -19.63614
   344  H   1.0    0.05    1.09    1.44    17.71618    81.91017   -14.15216
   345  H   1.0    0.04    1.03    1.43    15.97574    85.38916   -16.99242
   346  H   1.0    0.05    1.03    1.43    13.87626    83.07613   -18.26609
   347  H   1.0    0.05    1.06    1.44    11.81457    82.55268   -14.28822
   348  H   1.0    0.04    1.00    1.43    13.16383    84.86381   -10.48798
   349  H   1.0    0.05    1.01    1.43    15.56378    82.76811   -11.59347
   350  H   1.0    0.05    1.00    1.43    15.81512    86.08080   -12.18117
   351  H   1.0    0.04    1.00    1.43    10.11948    86.73086   -13.45863
   352  H   1.0    0.04    1.00    1.43    12.60636    88.10658   -15.27654
   353  H   1.0    0.04    1.00    1.43    10.35003    86.08458   -16.76187
   354  N   5.0   -0.14    3.48    2.06    16.02866    77.67341   -13.69673
   355  C   4.0    0.04    4.46    4.48    15.06301    75.13739   -13.34147
   356  C   4.0    0.15    3.45    3.09    13.10525    75.01645   -11.27788
   357  O   6.0   -0.31    1.36    1.80    13.56445    75.79691    -9.16328
   358  C   4.0   -0.03    4.36    4.31    17.20029    73.34782   -12.64794
   359  C   4.0   -0.02    3.55    3.14    19.07678    72.89240   -14.73986
   360  C   4.0   -0.04    3.48    3.10    21.11769    74.51378   -15.10647
   361  C   4.0   -0.05    3.47    3.10    18.83112    70.81937   -16.33479
   362  C   4.0   -0.03    3.43    3.09    22.87891    74.06970   -17.00186
   363  C   4.0   -0.04    3.43    3.09    20.56778    70.36017   -18.22830
   364  C   4.0    0.07    3.45    3.09    22.58600    71.98155   -18.55333
   365  O   6.0   -0.24    2.11    1.84    24.32266    71.49589   -20.42794
   366  H   1.0    0.12    1.14    1.45    17.04722    78.35182   -12.20763
   367  H   1.0    0.06    1.08    1.44    14.15783    74.56859   -15.10080
   368  H   1.0    0.05    1.04    1.43    18.22830    74.14151   -11.04923
   369  H   1.0    0.04    1.04    1.43    16.38959    71.52613   -12.13015
   370  H   1.0    0.07    1.03    1.43    21.33501    76.14273   -13.89704
   371  H   1.0    0.05    1.03    1.43    17.25509    69.54569   -16.08913
   372  H   1.0    0.07    1.03    1.43    24.45683    75.33770   -17.26265
   373  H   1.0    0.05    1.03    1.43    20.34857    68.74067   -19.44906
   374  H   1.0    0.16    1.09    1.44    25.77964    72.62406   -20.24841
   375  N   5.0   -0.14    3.48    2.07    10.93017    73.96198   -11.88827
   376  C   4.0    0.04    4.45    4.46     9.19352    73.08704    -9.95697
   377  C   4.0    0.15    3.46    3.10     9.97208    70.41497    -9.19730
   378  O   6.0   -0.31    1.26    1.80    10.09303    68.71799   -10.78845
   379  C   4.0   -0.04    4.43    4.42     6.51766    73.00578   -11.02466
   380  C   4.0   -0.03    4.21    4.01     4.37850    73.79758    -9.29745
   381  C   4.0   -0.07    4.14    3.88     5.01911    76.32792    -8.05590
   382  C   4.0   -0.08    4.14    3.88     2.03523    74.01112   -10.89427
   383  H   1.0    0.08    1.06    1.44    10.31790    73.68797   -13.69484
   384  H   1.0    0.06    1.07    1.44     9.25588    74.33804    -8.32235
   385  H   1.0    0.04    1.05    1.44     6.45530    74.25489   -12.66116
   386  H   1.0    0.05    1.05    1.44     6.13027    71.06692   -11.60292
   387  H   1.0    0.05    1.06    1.44     4.06669    72.43131    -7.78756
   388  H   1.0    0.05    1.00    1.43     3.46765    76.87972    -6.81813
   389  H   1.0    0.05    1.01    1.43     6.75010    76.11816    -6.96175
   390  H   1.0    0.04    1.00    1.43     5.28367    77.74711    -9.52422
   391  H   1.0    0.04    1.00    1.43     0.45731    74.57992    -9.69807
   392  H   1.0    0.04    1.00    1.43     2.34893    75.42274   -12.36070
   393  H   1.0    0.04    1.00    1.43     1.64028    72.18186   -11.75410
   394  N   5.0   -0.13    3.51    2.09    10.55223    70.02757    -6.79356
   395  C   4.0    0.04    4.59    4.65    10.68262    67.45566    -5.84303
   396  C   4.0    0.14    3.57    3.15     8.14283    66.88874    -4.72620
   397  O   6.0   -0.31    1.28    1.80     6.75766    68.62540    -3.99299
   398  C   4.0   -0.02    4.40    4.39    12.61581    67.14007    -3.73221
   399  C   4.0   -0.05    4.22    4.04    15.29544    67.13251    -4.80557
   400  C   4.0   -0.08    4.25    4.09    12.07535    64.70800    -2.29413
   401  C   4.0   -0.08    4.03    3.68    17.05100    68.83516    -3.40151
   402  H   1.0    0.11    1.10    1.44    10.92829    71.40896    -5.50288
   403  H   1.0    0.06    1.07    1.44    11.17962    66.20655    -7.40395
   404  H   1.0    0.05    1.07    1.44    12.46463    68.73311    -2.43397
   405  H   1.0    0.04    1.04    1.43    16.04944    65.21822    -4.70542
   406  H   1.0    0.04    1.05    1.44    15.23119    67.76179    -6.76522
   407  H   1.0    0.03    1.00    1.43    13.46619    64.49635    -0.78991
   408  H   1.0    0.05    1.05    1.44    10.18184    64.81004    -1.49099
   409  H   1.0    0.05    1.01    1.43    12.20196    63.11685    -3.59615
   410  H   1.0    0.03    1.00    1.43    18.91805    68.73500    -4.26700
   411  H   1.0    0.04    1.00    1.43    16.33479    70.76457    -3.49788
   412  H   1.0    0.04    1.00    1.43    17.15304    68.22100    -1.43808
   413  N   5.0   -0.14    3.61    2.16     7.55134    64.46422    -4.55046
   414  C   4.0    0.04    4.47    4.49     5.16084    63.65731    -3.47899
   415  C   4.0    0.15    3.52    3.12     5.43863    60.93232    -2.69853
   416  O   6.0   -0.33    1.42    1.80     7.19419    59.64353    -3.52434
   417  C   4.0   -0.03    4.36    4.31     3.07080    63.86518    -5.44808
   418  C   4.0   -0.01    3.60    3.16     3.28812    61.89419    -7.48709
   419  C   4.0   -0.04    3.48    3.11     2.07303    59.58495    -7.25466
   420  C   4.0   -0.03    3.47    3.10     4.76589    62.32127    -9.62437
   421  C   4.0   -0.04    3.43    3.09     2.28846    57.75758    -9.11037
   422  C   4.0   -0.04    3.43    3.09     4.99455    60.50714   -11.50465
   423  C   4.0    0.07    3.45    3.10     3.74355    58.23191   -11.23442
   424  O   6.0   -0.25    2.10    1.84     3.94953    56.41588   -13.08257
   425  H   1.0    0.11    1.11    1.45     8.68707    63.01858    -5.13250
   426  H   1.0    0.07    1.06    1.44     4.68841    64.80248    -1.83303
   427  H   1.0    0.05    1.03    1.43     1.24722    63.62518    -4.52022
   428  H   1.0    0.05    1.04    1.43     3.16907    65.71900    -6.33814
   429  H   1.0    0.05    1.03    1.43     0.94108    59.20700    -5.59926
   430  H   1.0    0.06    1.03    1.43     5.75233    64.09761    -9.82091
   431  H   1.0    0.05    1.03    1.43     1.32659    55.96990    -8.90439
   432  H   1.0    0.06    1.03    1.43     6.13594    60.86996   -13.15816
   433  H   1.0    0.12    1.03    1.43     5.03234    57.02815   -14.45451
   434  N   5.0   -0.13    3.43    2.04     3.68875    60.02148    -1.16029
   435  C   4.0    0.02    4.31    4.21     3.76622    57.39476    -0.39495
   436  C   4.0    0.15    3.38    3.07     2.49255    57.20011     2.12216
   437  O   6.0   -0.32    1.42    1.80     1.90106    59.12197     3.26356
   438  H   1.0    0.10    1.07    1.44     2.22421    61.03815    -0.42897
   439  H   1.0    0.04    1.03    1.43     2.77601    56.21557    -1.76311
   440  H   1.0    0.05    1.04    1.43     5.71453    56.74658    -0.23622
   441  N   5.0   -0.14    3.46    2.05     2.00500    54.89843     2.97821
   442  C   4.0    0.04    4.46    4.47     0.75022    54.55261     5.40651
   443  C   4.0    0.15    3.45    3.09     1.90106    52.37753     6.87671
   444  O   6.0   -0.31    1.26    1.80     2.65318    50.44245     5.79579
   445  C   4.0   -0.03    4.29    4.18    -2.06736    54.00270     5.09848
   446  C   4.0   -0.03    4.27    4.15    -2.59081    51.80306     3.32970
   447  C   4.0    0.15    3.23    3.04    -4.54290    49.98703     4.34826
   448  O   6.0   -0.28    1.20    1.80    -3.90417    48.02739     5.42351
   449  N   5.0   -0.18    3.17    1.95    -6.95230    50.61631     3.98921
   450  H   1.0    0.10    1.06    1.44     2.44531    53.26571     2.05413
   451  H   1.0    0.07    1.08    1.44     1.02234    56.29116     6.47798
   452  H   1.0    0.07    1.04    1.43    -2.86482    53.54161     6.94096
   453  H   1.0    0.06    1.03    1.43    -2.99522    55.67322     4.32747
   454  H   1.0    0.05    1.04    1.43    -3.28434    52.53816     1.53446
   455  H   1.0    0.07    1.05    1.44    -0.84282    50.75426     3.03301
   456  H   1.0    0.08    1.03    1.43    -7.39450    52.25092     3.06891
   457  H   1.0    0.10    1.02    1.43    -8.35637    49.46358     4.63550
   458  N   5.0   -0.14    3.49    2.07     2.01067    52.70446     9.35792
   459  C   4.0    0.04    4.45    4.47     2.86482    50.70324    11.02088
   460  C   4.0    0.08    3.29    3.05     0.68408    49.71869    12.61203
   461  O   6.0   -0.30    1.19    1.80    -0.38550    51.07929    14.17294
   462  C   4.0   -0.02    4.31    4.22     4.98132    51.61220    12.74053
   463  C   4.0   -0.07    4.16    3.93     5.27423    49.84908    14.99120
   464  C   4.0   -0.08    4.13    3.85     7.41339    51.80306    11.25143
   465  H   1.0    0.11    1.11    1.45     1.51934    54.33529    10.26121
   466  H   1.0    0.05    1.09    1.44     3.50166    49.14988     9.82657
   467  H   1.0    0.05    1.06    1.44     4.52400    53.48113    13.47564
   468  H   1.0    0.04    1.00    1.43     6.79923    50.54072    16.19117
   469  H   1.0    0.06    1.02    1.43     3.50733    49.81507    16.05133
   470  H   1.0    0.04    1.00    1.43     5.72020    47.95747    14.30712
   471  H   1.0    0.03    1.00    1.43     8.91573    52.45501    12.50054
   472  H   1.0    0.04    1.01    1.43     7.88583    49.94546    10.49743
   473  H   1.0    0.04    1.00    1.43     7.15261    53.14287     9.70941
   474  N   5.0   -0.20    3.19    1.95    14.45640    51.02827    28.12857
   475  C   4.0    0.03    4.30    4.21    15.02899    53.32996    26.71317
   476  C   4.0    0.14    3.48    3.11    15.81512    52.64588    24.00519
   477  O   6.0   -0.31    1.26    1.80    17.31556    50.91489    23.57622
   478  C   4.0   -0.04    4.26    4.11    17.05856    54.93055    28.03597
   479  C   4.0   -0.03    4.25    4.10    18.80844    56.29872    26.21050
   480  C   4.0    0.24    3.12    3.03    19.04655    59.12386    26.72828
   481  O   6.0   -0.29    1.17    1.80    21.21406    60.03092    27.11001
   482  O   6.0   -0.30    1.23    1.80    17.06800    60.43722    26.71128
   483  H   1.0    0.09    1.03    1.43    15.22930    49.44846    27.34056
   484  H   1.0    0.07    1.07    1.44    13.32068    54.47324    26.58466
   485  H   1.0    0.06    1.03    1.43    16.12881    56.34974    29.20382
   486  H   1.0    0.05    1.03    1.43    18.21318    53.69656    29.21327
   487  H   1.0    0.05    1.06    1.44    20.69061    55.47291    26.35223
   488  H   1.0    0.06    1.07    1.44    18.08090    56.07006    24.29621
   489  N   5.0   -0.14    3.47    2.06    14.69451    53.92711    22.16838
   490  C   4.0    0.04    4.54    4.59    15.60347    53.74759    19.58134
   491  C   4.0    0.14    3.44    3.09    16.67872    56.28927    18.73096
   492  O   6.0   -0.32    1.33    1.80    15.59591    58.27159    19.30922
   493  C   4.0   -0.02    4.30    4.20    13.52666    52.87453    17.77476
   494  C   4.0   -0.08    4.17    3.93    14.47719    52.97280    15.09324
   495  C   4.0   -0.07    4.13    3.86    12.69707    50.21002    18.43428
   496  H   1.0    0.11    1.08    1.44    13.17517    55.08740    22.41215
   497  H   1.0    0.06    1.08    1.44    17.13603    52.37186    19.54544
   498  H   1.0    0.04    1.06    1.44    11.89960    54.12364    17.94862
   499  H   1.0    0.03    1.00    1.43    12.97864    52.34541    13.82712
   500  H   1.0    0.05    1.01    1.43    15.01387    54.90977    14.64160
   501  H   1.0    0.05    1.00    1.43    16.11180    51.73125    14.91561
   502  H   1.0    0.03    1.00    1.43    11.21741    49.62420    17.12659
   503  H   1.0    0.04    1.00    1.43    14.31467    48.94579    18.27554
   504  H   1.0    0.05    1.00    1.43    11.97708    50.19112    20.36369
   505  N   5.0   -0.14    3.42    2.03    18.83679    56.23446    17.43272
   506  C   4.0    0.04    4.40    4.39    20.18605    58.55505    16.76754
   507  C   4.0    0.14    3.40    3.08    20.61124    58.81583    13.92539
   508  O   6.0   -0.31    1.26    1.80    21.55799    57.08295    12.68573
   509  C   4.0   -0.04    4.28    4.16    22.70695    58.73079    18.18105
   510  C   4.0   -0.04    4.18    3.96    22.45183    59.22401    21.01942
   511  C   4.0   -0.00    4.22    4.03    24.99729    59.06338    22.39325
   512  N   5.0   -0.14    3.43    2.04    26.35412    56.78626    21.65059
   513  C   4.0    0.10    3.35    3.06    25.91003    54.49970    22.60301
   514  N   5.0   -0.17    3.32    1.99    24.19416    54.21435    24.41337
   515  N   5.0   -0.18    3.23    1.96    27.19505    52.49659    21.77720
   516  H   1.0    0.10    1.07    1.44    19.69094    54.61875    16.81856
   517  H   1.0    0.07    1.08    1.44    18.98230    60.13864    17.30422
   518  H   1.0    0.06    1.04    1.43    23.71795    56.95067    17.94673
   519  H   1.0    0.05    1.03    1.43    23.80488    60.27659    17.37603
   520  H   1.0    0.06    1.03    1.43    21.68461    61.11374    21.31044
   521  H   1.0    0.06    1.03    1.43    21.19139    57.81617    21.83956
   522  H   1.0    0.05    1.02    1.43    26.14814    60.70178    21.90759
   523  H   1.0    0.06    1.03    1.43    24.67982    59.00480    24.42849
   524  H   1.0    0.09    1.07    1.44    27.73362    56.95445    20.31455
   525  H   1.0    0.09    1.06    1.44    23.22095    55.74314    25.06910
   526  H   1.0    0.13    1.13    1.45    23.84834    52.46635    25.14658
   527  H   1.0    0.08    1.02    1.43    28.53108    52.70824    20.40526
   528  H   1.0    0.10    1.02    1.43    26.84167    50.75237    22.51797
   529  N   5.0   -0.14    3.48    2.06    19.87614    60.98335    12.89549
   530  C   4.0    0.04    4.47    4.49    20.47329    61.59940    10.29523
   531  C   4.0    0.15    3.45    3.09    22.77876    63.27558    10.27633
   532  O   6.0   -0.33    1.33    1.80    22.82978    65.20688    11.56323
   533  C   4.0   -0.05    4.37    4.33    18.29066    62.98646     9.01966
   534  C   4.0   -0.03    4.21    4.02    18.69128    63.41731     6.18318
   535  C   4.0   -0.08    4.11    3.82    18.83301    60.88319     4.79423
   536  C   4.0   -0.08    4.11    3.82    16.63526    65.07460     5.07958
   537  H   1.0    0.11    1.10    1.44    18.86702    62.34017    13.82146
   538  H   1.0    0.07    1.08    1.44    20.84557    59.86652     9.24454
   539  H   1.0    0.04    1.03    1.43    16.57290    61.87530     9.25399
   540  H   1.0    0.05    1.03    1.43    18.06389    64.82894     9.91350
   541  H   1.0    0.04    1.06    1.44    20.47896    64.40564     5.91106
   542  H   1.0    0.04    1.00    1.43    19.11836    61.23468     2.78546
   543  H   1.0    0.06    1.01    1.43    20.41093    59.79282     5.54635
   544  H   1.0    0.04    1.00    1.43    17.06989    59.85896     5.08525
   545  H   1.0    0.03    1.00    1.43    16.99053    65.33161     3.06703
   546  H   1.0    0.05    1.00    1.43    14.81167    64.15809     5.35926
   547  H   1.0    0.04    1.00    1.43    16.65793    66.89819     6.03578
   548  N   5.0   -0.14    3.48    2.07    24.67604    62.50835     8.80990
   549  C   4.0    0.04    4.45    4.45    27.03820    63.91620     8.57369
   550  C   4.0    0.15    3.42    3.08    27.24985    65.17665     6.02067
   551  O   6.0   -0.32    1.29    1.80    26.52986    64.07116     4.10637
   552  C   4.0   -0.02    4.35    4.29    29.30776    62.17387     8.94218
   553  C   4.0   -0.01    3.56    3.15    29.71972    61.50869    11.66906
   554  C   4.0   -0.03    3.48    3.11    29.06210    59.15031    12.58557
   555  C   4.0   -0.03    3.50    3.11    30.64569    63.29448    13.35658
   556  C   4.0   -0.04    3.43    3.09    29.36256    58.55694    15.09891
   557  C   4.0   -0.04    3.43    3.09    30.96883    62.72945    15.88315
   558  C   4.0    0.06    3.44    3.09    30.32254    60.34840    16.75809
   559  O   6.0   -0.26    2.10    1.84    30.59655    59.76258    19.29977
   560  H   1.0    0.12    1.14    1.45    24.62880    60.89831     7.74977
   561  H   1.0    0.06    1.08    1.44    27.05521    65.39208    10.00988
   562  H   1.0    0.06    1.04    1.43    28.99407    60.42777     7.89528
   563  H   1.0    0.07    1.04    1.43    31.00284    63.11685     8.24865
   564  H   1.0    0.06    1.03    1.43    28.30054    57.75191    11.30812
   565  H   1.0    0.07    1.07    1.44    31.12190    65.15964    12.67817
   566  H   1.0    0.05    1.03    1.43    28.85234    56.70123    15.77921
   567  H   1.0    0.05    1.03    1.43    31.71716    64.12974    17.16438
   568  H   1.0    0.11    1.02    1.43    31.29575    61.21389    20.21251
   569  N   5.0   -0.14    3.48    2.06    28.18337    67.51424     6.01311
   570  C   4.0    0.04    4.43    4.43    29.20760    68.66697     3.72465
   571  C   4.0    0.16    3.54    3.13    32.05164    68.57626     3.93630
   572  O   6.0   -0.31    1.31    1.80    33.20437    70.05970     5.34414
   573  C   4.0   -0.05    4.30    4.21    28.35723    71.41085     3.42418
   574  C   4.0   -0.05    4.20    4.01    29.54398    72.75445     1.16785
   575  C   4.0   -0.05    4.19    3.98    28.84100    75.54368     1.11494
   576  C   4.0   -0.03    4.14    3.88    30.93292    77.13483    -0.03590
   577  N   5.0   -0.11    4.01    2.88    30.12601    79.81258    -0.22299
   578  H   1.0    0.11    1.11    1.45    28.25518    68.65374     7.56457
   579  H   1.0    0.05    1.08    1.44    28.55187    67.58416     2.09949
   580  H   1.0    0.03    1.03    1.43    26.31254    71.44676     3.17285
   581  H   1.0    0.05    1.03    1.43    28.87690    72.45398     5.12305
   582  H   1.0    0.06    1.04    1.43    31.59433    72.60516     1.28690
   583  H   1.0    0.04    1.03    1.43    28.87312    71.88518    -0.57448
   584  H   1.0    0.04    1.03    1.43    27.13835    75.79691    -0.01701
   585  H   1.0    0.04    1.03    1.43    28.51219    76.20131     3.03868
   586  H   1.0    0.05    1.02    1.43    32.61289    77.03468     1.15273
   587  H   1.0    0.07    1.03    1.43    31.36567    76.44319    -1.92752
   588  H   1.0    0.06    1.01    1.43    31.56409    80.89539    -1.01289
   589  H   1.0    0.06    1.02    1.43    28.52541    79.95430    -1.35493
   590  H   1.0    0.06    1.02    1.43    29.70649    80.51555     1.56469
   591  N   5.0   -0.13    3.52    2.09    33.18359    66.79992     2.57948
   592  C   4.0    0.05    4.48    4.51    35.80653    66.22167     3.03112
   593  C   4.0    0.15    3.46    3.10    36.11833    65.34294     5.74099
   594  O   6.0   -0.30    1.26    1.80    34.94859    63.48534     6.51955
   595  C   4.0   -0.03    4.46    4.48    37.41657    68.56304     2.57381
   596  C   4.0    0.16    3.24    3.04    37.59232    69.24712    -0.20220
   597  O   6.0   -0.31    1.37    1.80    37.98349    67.61062    -1.82170
   598  N   5.0   -0.18    3.17    1.95    37.33343    71.67731    -0.76534
   599  H   1.0    0.12    1.13    1.45    32.33888    65.76435     1.19053
   600  H   1.0    0.07    1.08    1.44    36.25628    64.70611     1.71020
   601  H   1.0    0.06    1.06    1.44    36.58320    70.15986     3.57347
   602  H   1.0    0.04    1.04    1.43    39.32331    68.21533     3.26923
   603  H   1.0    0.11    1.03    1.43    37.43358    72.25745    -2.60026
   604  H   1.0    0.09    1.03    1.43    37.03485    72.96421     0.63684
   605  N   5.0   -0.15    3.57    2.13    37.65090    66.71677     7.18096
   606  C   4.0    0.03    4.41    4.40    38.38033    65.88907     9.71130
   607  C   4.0    0.15    3.40    3.08    36.75328    67.16464    11.70307
   608  O   6.0   -0.30    1.23    1.80    36.97438    66.61851    13.95374
   609  C   4.0   -0.04    4.28    4.15    41.17524    66.47111    10.22342
   610  C   4.0   -0.05    4.15    3.91    43.04418    64.42832     9.37682
   611  C   4.0   -0.05    4.16    3.91    45.63877    64.90264    10.58058
   612  C   4.0   -0.03    4.10    3.80    47.82329    63.81416     9.01021
   613  N   5.0   -0.11    3.98    2.81    50.24781    65.26924     9.35792
   614  H   1.0    0.07    1.08    1.44    38.41624    68.40430     6.64995
   615  H   1.0    0.05    1.06    1.44    38.16868    63.84439     9.85303
   616  H   1.0    0.05    1.03    1.43    41.66846    68.20588     9.22942
   617  H   1.0    0.06    1.04    1.43    41.42279    66.72811    12.25298
   618  H   1.0    0.04    1.03    1.43    42.36766    62.57639     9.97397
   619  H   1.0    0.04    1.03    1.43    43.24638    64.47745     7.32836
   620  H   1.0    0.04    1.03    1.43    45.93546    66.93220    10.76010
   621  H   1.0    0.05    1.03    1.43    45.68979    64.01636    12.44007
   622  H   1.0    0.05    1.02    1.43    48.15967    61.86585     9.58469
   623  H   1.0    0.04    1.02    1.43    47.31874    63.88219     7.01466
   624  H   1.0    0.06    1.01    1.43    51.67267    64.47178     8.26377
   625  H   1.0    0.05    1.01    1.43    49.99459    67.14007     8.80990
   626  H   1.0    0.07    1.01    1.43    50.79205    65.22578    11.24576
   627  N   5.0   -0.13    3.49    2.07    35.13001    68.87862    10.84136
   628  C   4.0    0.04    4.47    4.49    33.47838    70.33182    12.50243
   629  C   4.0    0.15    3.47    3.10    30.80253    69.32649    12.60447
   630  O   6.0   -0.32    1.33    1.80    29.58555    68.94476    10.65050
   631  C   4.0   -0.02    4.33    4.25    33.41224    73.07948    11.66528
   632  C   4.0    0.25    3.16    3.03    35.62700    74.51945    12.63471
   633  O   6.0   -0.27    1.21    1.80    36.31297    74.06970    14.84947
   634  O   6.0   -0.28    1.18    1.80    36.72682    76.02556    11.18907
   635  H   1.0    0.11    1.09    1.44    34.91458    69.30759     8.97431
   636  H   1.0    0.07    1.08    1.44    34.23617    70.15608    14.40916
   637  H   1.0    0.06    1.04    1.43    33.43870    73.16263     9.60737
   638  H   1.0    0.06    1.04    1.43    31.69826    73.96765    12.38526
   639  N   5.0   -0.14    3.46    2.05    29.86712    68.94665    14.90049
   640  C   4.0    0.04    4.48    4.50    27.20638    68.42698    15.23875
   641  C   4.0    0.15    3.49    3.11    25.59445    70.63229    14.30900
   642  O   6.0   -0.30    1.27    1.80    25.87602    72.77902    15.14426
   643  C   4.0   -0.04    4.41    4.39    26.60167    67.84494    17.98074
   644  C   4.0   -0.03    4.10    3.80    23.97306    66.85661    18.26798
   645  S   6.0   -0.01    2.54    3.10    22.17971    68.69721    20.48463
   646  C   4.0   -0.06    3.89    3.45    22.07956    71.81903    19.07489
   647  H   1.0    0.08    1.06    1.44    30.89513    68.98823    16.53132
   648  H   1.0    0.05    1.07    1.44    26.76041    66.74701    14.13515
   649  H   1.0    0.04    1.03    1.43    27.91314    66.41820    18.67994
   650  H   1.0    0.05    1.07    1.44    26.77364    69.56648    19.09757
   651  H   1.0    0.06    1.09    1.44    23.01686    66.92653    16.44440
   652  H   1.0    0.05    1.07    1.44    24.04676    64.91398    18.95017
   653  H   1.0    0.04    1.04    1.43    21.01186    73.07759    20.30700
   654  H   1.0    0.06    1.05    1.44    24.00519    72.51823    18.85380
   655  H   1.0    0.06    1.05    1.44    21.16304    71.69431    17.23430
   656  N   5.0   -0.15    3.58    2.14    23.92393    70.10316    12.53644
   657  C   4.0    0.04    4.57    4.63    22.16460    72.01368    11.74465
   658  C   4.0    0.14    3.46    3.10    19.52654    71.47510    12.77077
   659  O   6.0   -0.29    1.23    1.80    17.87303    73.10783    12.68195
   660  C   4.0   -0.02    4.38    4.35    22.10223    72.26123     8.87793
   661  C   4.0   -0.04    4.25    4.10    21.09690    69.82726     7.68174
   662  C   4.0   -0.07    4.17    3.94    24.71006    72.86972     7.91606
   663  C   4.0   -0.08    4.03    3.66    20.59234    70.05781     4.87738
   664  H   1.0    0.11    1.12    1.45    23.75574    68.40430    11.64260
   665  H   1.0    0.07    1.08    1.44    22.77120    73.84293    12.47030
   666  H   1.0    0.06    1.06    1.44    20.83045    73.79569     8.35826
   667  H   1.0    0.05    1.03    1.43    22.48774    68.33060     7.95197
   668  H   1.0    0.05    1.04    1.43    19.32623    69.31704     8.60203
   669  H   1.0    0.03    1.01    1.43    24.64392    73.04169     5.86382
   670  H   1.0    0.05    1.00    1.43    25.33556    74.64606     8.75132
   671  H   1.0    0.06    1.01    1.43    25.99318    71.35038     8.45274
   672  H   1.0    0.04    1.01    1.43    19.88559    68.25501     4.17251
   673  H   1.0    0.05    1.00    1.43    19.18828    71.53180     4.56747
   674  H   1.0    0.04    1.00    1.43    22.34790    70.54725     3.91740
   675  N   5.0   -0.14    3.48    2.06    19.14103    69.21310    13.79878
   676  C   4.0    0.03    4.43    4.42    16.66927    68.54603    14.81356
   677  C   4.0    0.14    3.39    3.08    16.74297    66.34639    16.69762
   678  O   6.0   -0.31    1.29    1.80    18.19050    64.55115    16.39904
   679  C   4.0   -0.03    4.31    4.21    14.85325    67.96966    12.64983
   680  C   4.0   -0.03    4.24    4.07    12.08669    68.15486    13.35280
   681  C   4.0    0.15    3.23    3.04    10.44074    66.50890    11.69173
   682  O   6.0   -0.31    1.24    1.80    10.82057    66.38229     9.39950
   683  N   5.0   -0.19    3.21    1.96     8.62849    65.20121    12.84069
   684  H   1.0    0.10    1.08    1.44    20.47707    67.83171    13.95185
   685  H   1.0    0.05    1.07    1.44    16.00598    70.14285    15.93228
   686  H   1.0    0.06    1.04    1.43    15.20096    69.31137    11.12482
   687  H   1.0    0.05    1.04    1.43    15.20285    66.04970    11.99220
   688  H   1.0    0.05    1.04    1.43    11.84291    67.54447    15.30489
   689  H   1.0    0.05    1.03    1.43    11.46497    70.10694    13.14115
   690  H   1.0    0.08    1.04    1.43     8.40361    65.33916    14.74931
   691  H   1.0    0.10    1.03    1.43     7.46253    64.06171    11.81268
   692  N   5.0   -0.14    3.46    2.05    15.18017    66.52969    18.65537
   693  C   4.0    0.04    4.50    4.54    15.02710    64.60784    20.62258
   694  C   4.0    0.14    3.62    3.18    12.35503    63.67243    20.82856
   695  O   6.0   -0.32    1.30    1.80    10.58624    65.17098    20.76809
   696  C   4.0    0.06    4.27    4.13    15.65827    65.70766    23.22095
   697  O   6.0   -0.24    2.10    1.84    18.18105    65.01035    23.89181
   698  C   4.0   -0.05    4.23    4.06    13.84791    64.66453    25.21083
   699  H   1.0    0.08    1.06    1.44    13.97830    68.01124    18.93316
   700  H   1.0    0.07    1.07    1.44    16.32345    63.08472    20.12936
   701  H   1.0    0.05    1.04    1.43    15.48441    67.75990    23.16993
   702  H   1.0    0.15    1.05    1.44    18.16216    63.44944    24.88958
   703  H   1.0    0.06    1.00    1.43    14.30334    65.45066    27.05899
   704  H   1.0    0.06    1.03    1.43    11.90905    65.16531    24.73084
   705  H   1.0    0.08    1.02    1.43    14.00476    62.61229    25.29965
   706  N   5.0   -0.14    3.52    2.09    12.04133    61.22145    21.18572
   707  C   4.0    0.04    4.47    4.50     9.52611    60.24257    21.57122
   708  C   4.0    0.15    3.42    3.09     9.35792    58.87441    24.08834
   709  O   6.0   -0.30    1.28    1.80    10.53144    56.90910    24.47951
   710  C   4.0   -0.04    4.37    4.33     8.75132    58.55127    19.37536
   711  C   4.0   -0.02    4.21    4.02     8.49054    59.87030    16.81667
   712  C   4.0   -0.08    4.11    3.83     7.89339    57.95601    14.77955
   713  C   4.0   -0.07    4.15    3.89     6.45908    61.89986    16.93950
   714  H   1.0    0.12    1.11    1.45    13.45674    59.91376    21.21595
   715  H   1.0    0.05    1.09    1.44     8.21464    61.82616    21.68838
   716  H   1.0    0.05    1.04    1.43    10.17239    57.07539    19.16371
   717  H   1.0    0.06    1.03    1.43     6.92396    57.71034    19.82134
   718  H   1.0    0.05    1.06    1.44    10.27066    60.78681    16.33290
   719  H   1.0    0.04    1.00    1.43     7.71386    58.93110    12.97486
   720  H   1.0    0.03    1.00    1.43     9.42217    56.57839    14.68506
   721  H   1.0    0.04    1.00    1.43     6.12460    57.01114    15.24631
   722  H   1.0    0.05    1.03    1.43     6.30791    62.81071    15.09891
   723  H   1.0    0.05    1.00    1.43     4.66384    61.02303    17.43839
   724  H   1.0    0.06    1.00    1.43     6.98254    63.28692    18.36814
   725  N   5.0   -0.14    3.46    2.05     7.91039    59.95345    25.81933
   726  C   4.0    0.05    4.43    4.43     7.99921    59.10496    28.41014
   727  C   4.0    0.08    3.31    3.06     5.58225    57.74247    29.07910
   728  O   6.0   -0.28    1.12    1.80     5.62949    55.82817    30.40947
   729  C   4.0    0.05    4.26    4.12     8.37716    61.33106    30.19782
   730  O   6.0   -0.24    2.09    1.84    11.01710    61.91876    30.34144
   731  C   4.0   -0.06    4.16    3.91     7.41528    60.67532    32.79997
   732  H   1.0    0.07    1.06    1.44     6.68018    61.39720    25.47729
   733  H   1.0    0.08    1.07    1.44     9.61115    57.85774    28.70872
   734  H   1.0    0.04    1.04    1.44     7.33970    62.97134    29.50807
   735  H   1.0    0.12    1.01    1.43    11.28544    63.35117    31.48472
   736  H   1.0    0.04    1.00    1.43     7.68741    62.27025    34.07365
   737  H   1.0    0.05    1.02    1.43     5.40840    60.22368    32.71494
   738  H   1.0    0.06    1.00    1.43     8.43763    59.04638    33.53886
   739  N   5.0   -0.18    3.22    1.96    -3.13695    55.53149    14.71908
   740  C   4.0    0.03    4.33    4.25    -2.33570    58.13553    14.36948
   741  C   4.0    0.15    3.41    3.08    -1.39651    58.65331    11.70685
   742  O   6.0   -0.31    1.33    1.80    -0.50834    56.96201    10.37649
   743  C   4.0   -0.05    4.29    4.18    -0.28535    58.85362    16.26487
   744  C   4.0   -0.04    4.21    4.01    -1.17352    59.14842    18.98041
   745  C   4.0    0.14    3.21    3.04     0.98644    58.77426    20.85880
   746  O   6.0   -0.29    1.19    1.80     1.98988    56.67477    21.10635
   747  N   5.0   -0.19    3.15    1.95     1.74233    60.81894    22.16082
   748  H   1.0    0.13    1.06    1.44    -1.70642    54.24080    14.75498
   749  H   1.0    0.04    1.06    1.44    -3.98354    59.33739    14.66049
   750  H   1.0    0.06    1.04    1.43     1.15840    57.38531    16.24597
   751  H   1.0    0.05    1.03    1.43     0.53290    60.65453    15.68662
   752  H   1.0    0.04    1.03    1.43    -1.93697    61.04382    19.24308
   753  H   1.0    0.05    1.03    1.43    -2.62483    57.74247    19.37725
   754  H   1.0    0.08    1.02    1.43     0.88061    62.51780    21.87169
   755  H   1.0    0.09    1.02    1.43     3.17852    60.67154    23.43827
   756  N   5.0   -0.13    3.48    2.07    -1.62327    61.03437    10.95852
   757  C   4.0    0.05    4.47    4.50    -0.67841    61.90742     8.55290
   758  C   4.0    0.15    3.44    3.09     2.02579    62.77103     8.81179
   759  O   6.0   -0.30    1.24    1.80     2.71365    64.01447    10.65239
   760  C   4.0   -0.03    4.35    4.30    -2.24877    64.12596     7.61938
   761  C   4.0    0.15    3.23    3.04    -4.38983    63.31527     5.91862
   762  O   6.0   -0.28    1.21    1.80    -5.81280    61.57294     6.52900
   763  N   5.0   -0.17    3.17    1.95    -4.64117    64.58516     3.76055
   764  H   1.0    0.08    1.06    1.44    -2.46798    62.41576    12.00354
   765  H   1.0    0.07    1.07    1.44    -0.77479    60.36730     7.18852
   766  H   1.0    0.05    1.04    1.43    -3.05758    65.10673     9.24076
   767  H   1.0    0.05    1.04    1.43    -1.03746    65.40719     6.55357
   768  H   1.0    0.11    1.02    1.43    -6.05279    64.12596     2.53034
   769  H   1.0    0.09    1.03    1.43    -3.42229    66.01758     3.33726
   770  N   5.0   -0.14    3.57    2.13     3.54135    62.11151     6.92963
   771  C   4.0    0.04    4.50    4.53     6.13594    62.99024     6.72176
   772  C   4.0    0.15    3.53    3.13     6.40050    64.56816     4.32180
   773  O   6.0   -0.30    1.28    1.80     5.07391    64.13352     2.45097
   774  C   4.0   -0.02    4.28    4.16     7.98409    60.73957     6.56869
   775  C   4.0   -0.07    4.17    3.94     6.71798    58.36041     7.56079
   776  C   4.0   -0.07    4.18    3.96     8.88549    60.32194     3.84370
   777  H   1.0    0.12    1.16    1.46     3.01222    60.94555     5.48965
   778  H   1.0    0.06    1.07    1.44     6.57814    64.16564     8.35448
   779  H   1.0    0.04    1.05    1.44     9.63193    61.15909     7.73087
   780  H   1.0    0.04    1.00    1.43     8.04834    56.79193     7.43796
   781  H   1.0    0.04    1.00    1.43     6.16618    58.66276     9.52233
   782  H   1.0    0.06    1.02    1.43     5.05313    57.95978     6.41562
   783  H   1.0    0.04    1.00    1.43    10.18373    58.72323     3.80402
   784  H   1.0    0.06    1.00    1.43     7.25277    59.93077     2.64940
   785  H   1.0    0.05    1.02    1.43     9.84547    62.02270     3.18608
   786  N   5.0   -0.14    3.37    2.01     8.10692    66.39741     4.36716
   787  C   4.0    0.02    4.31    4.22     8.74187    67.72967     2.07114
   788  C   4.0    0.15    3.32    3.06     8.85148    70.54536     2.43964
   789  O   6.0   -0.29    1.24    1.80     9.64894    71.44487     4.42763
   790  H   1.0    0.11    1.07    1.44     9.05935    66.98323     5.93752
   791  H   1.0    0.04    1.04    1.43    10.58247    67.09094     1.40218
   792  H   1.0    0.06    1.05    1.44     7.32647    67.31960     0.63306
   793  N   5.0   -0.13    3.38    2.01     8.05212    71.92108     0.49322
   794  C   4.0    0.01    4.26    4.12     8.19196    74.66685     0.47243
   795  C   4.0    0.14    3.32    3.06     9.30123    75.60982    -1.99177
   796  O   6.0   -0.31    1.32    1.80    10.14783    74.12072    -3.56969
   797  H   1.0    0.11    1.08    1.44     7.29056    71.17275    -1.11116
   798  H   1.0    0.05    1.03    1.43     6.30413    75.46054     0.69731
   799  H   1.0    0.06    1.03    1.43     9.38060    75.31503     2.02579
   800  N   5.0   -0.13    3.46    2.05     9.25966    78.09670    -2.32247
   801  C   4.0    0.04    4.49    4.53    10.25743    79.33825    -4.57314
   802  C   4.0    0.14    3.49    3.11    12.96352    80.13383    -4.07425
   803  O   6.0   -0.31    1.26    1.80    13.46052    81.55868    -2.30925
   804  C   4.0    0.05    4.29    4.17     8.80612    81.76655    -5.10604
   805  O   6.0   -0.26    2.10    1.84     6.14728    81.24877    -5.18163
   806  C   4.0   -0.08    4.11    3.83     9.68296    82.90984    -7.56268
   807  H   1.0    0.08    1.06    1.44     8.53022    79.33259    -1.03557
   808  H   1.0    0.06    1.06    1.44    10.12704    78.02112    -6.15106
   809  H   1.0    0.05    1.05    1.44     9.15194    83.14227    -3.61316
   810  H   1.0    0.11    1.01    1.43     5.20808    82.80779    -5.51989
   811  H   1.0    0.04    1.00    1.43     8.64361    84.64649    -7.94252
   812  H   1.0    0.04    1.01    1.43    11.69362    83.34258    -7.46064
   813  H   1.0    0.04    1.00    1.43     9.36170    81.58703    -9.10848
   814  N   5.0   -0.14    3.51    2.08    14.71719    79.22865    -5.61627
   815  C   4.0    0.04    4.49    4.52    17.38170    79.63494    -5.11738
   816  C   4.0    0.14    3.48    3.11    18.68561    80.26044    -7.53056
   817  O   6.0   -0.32    1.37    1.80    18.37570    78.95275    -9.42217
   818  C   4.0   -0.03    4.36    4.30    18.60057    77.27278    -4.03079
   819  C   4.0   -0.02    3.53    3.13    17.80878    76.67563    -1.35871
   820  C   4.0   -0.05    3.45    3.10    19.36780    77.30113     0.66518
   821  C   4.0   -0.03    3.45    3.10    15.52032    75.45676    -0.84471
   822  C   4.0   -0.03    3.41    3.08    18.68750    76.73610     3.14450
   823  C   4.0   -0.04    3.41    3.08    14.80789    74.89740     1.62516
   824  C   4.0    0.07    3.42    3.09    16.40660    75.54746     3.63016
   825  O   6.0   -0.23    2.08    1.84    15.75087    75.04291     6.12271
   826  H   1.0    0.12    1.13    1.45    14.34869    78.21387    -7.21308
   827  H   1.0    0.06    1.07    1.44    17.58201    81.19963    -3.79268
   828  H   1.0    0.05    1.04    1.43    18.08657    75.66463    -5.20997
   829  H   1.0    0.04    1.04    1.43    20.64526    77.52412    -4.03645
   830  H   1.0    0.05    1.03    1.43    21.14225    78.24410     0.30614
   831  H   1.0    0.07    1.04    1.43    14.28822    74.94086    -2.38672
   832  H   1.0    0.07    1.03    1.43    19.93472    77.22365     4.68463
   833  H   1.0    0.07    1.03    1.43    13.02966    73.96576     1.99366
   834  H   1.0    0.13    1.02    1.43    14.10114    74.20387     6.18696
   835  N   5.0   -0.15    3.46    2.06    20.13692    82.29190    -7.46064
   836  C   4.0    0.04    4.44    4.44    21.94917    82.81913    -9.44107
   837  C   4.0    0.15    3.44    3.09    24.45305    81.49821    -8.86092
   838  O   6.0   -0.29    1.24    1.80    25.81933    82.20875    -7.11482
   839  C   4.0   -0.04    4.30    4.20    22.32900    85.65939    -9.72453
   840  C   4.0   -0.02    4.22    4.05    24.25463    86.37937   -11.70685
   841  C   4.0    0.24    3.13    3.03    24.73840    89.19129   -11.75221
   842  O   6.0   -0.29    1.17    1.80    23.06599    90.58968   -12.67628
   843  O   6.0   -0.29    1.17    1.80    26.76608    90.00576   -10.82624
   844  H   1.0    0.08    1.06    1.44    20.09724    83.60715    -6.05279
   845  H   1.0    0.07    1.08    1.44    21.22918    82.05379   -11.21363
   846  H   1.0    0.05    1.03    1.43    20.53187    86.51543   -10.25554
   847  H   1.0    0.06    1.03    1.43    22.96962    86.42284    -7.92173
   848  H   1.0    0.07    1.04    1.43    26.03475    85.42506   -11.30056
   849  H   1.0    0.06    1.03    1.43    23.56110    85.81435   -13.56256
   850  N   5.0   -0.13    3.51    2.09    25.02753    79.54801   -10.32357
   851  C   4.0    0.04    4.46    4.48    27.22906    78.00600    -9.83035
   852  C   4.0    0.15    3.41    3.08    29.21327    78.40095   -11.85992
   853  O   6.0   -0.30    1.27    1.80    28.62935    79.27967   -13.92917
   854  C   4.0   -0.05    4.38    4.34    26.47506    75.22999    -9.69051
   855  C   4.0   -0.02    4.24    4.07    24.22818    74.77079    -7.94063
   856  C   4.0   -0.08    4.10    3.80    22.53687    72.63351    -8.89872
   857  C   4.0   -0.08    4.12    3.83    25.14658    74.25678    -5.28745
   858  H   1.0    0.10    1.07    1.44    23.99952    78.99999   -11.85803
   859  H   1.0    0.06    1.07    1.44    28.07566    78.55024    -8.03323
   860  H   1.0    0.04    1.04    1.43    25.95917    74.58181   -11.57646
   861  H   1.0    0.04    1.04    1.43    28.07188    74.13773    -8.98187
   862  H   1.0    0.05    1.08    1.44    23.06033    76.46587    -7.90661
   863  H   1.0    0.04    1.00    1.43    20.96840    72.38217    -7.58914
   864  H   1.0    0.04    1.02    1.43    21.82067    73.13050   -10.76577
   865  H   1.0    0.03    1.00    1.43    23.64425    70.90063    -9.01021
   866  H   1.0    0.03    1.00    1.43    23.51953    73.93364    -4.06480
   867  H   1.0    0.04    1.00    1.43    26.35223    72.58626    -5.30635
   868  H   1.0    0.05    1.00    1.43    26.21428    75.88761    -4.62038
   869  N   5.0   -0.14    3.47    2.06    31.55464    77.72443   -11.24387
   870  C   4.0    0.04    4.47    4.49    33.67492    78.08159   -12.95974
   871  C   4.0    0.16    3.44    3.09    35.07898    75.66841   -13.55122
   872  O   6.0   -0.30    1.33    1.80    34.81820    73.76734   -12.24164
   873  C   4.0   -0.02    4.32    4.23    35.48527    80.02611   -11.87693
   874  C   4.0    0.02    3.75    3.29    34.26451    82.52055   -11.42717
   875  N   5.0   -0.10    3.57    2.13    33.09288    83.86226   -13.33391
   876  C   4.0    0.03    3.57    3.15    33.90168    83.86037    -9.28044
   877  C   4.0    0.07    3.56    3.14    32.11211    85.95418   -12.39093
   878  N   5.0   -0.14    2.51    1.90    32.57132    85.99576    -9.93429
   879  H   1.0    0.10    1.07    1.44    32.03841    76.92129    -9.56012
   880  H   1.0    0.06    1.08    1.44    32.92658    78.72220   -14.76821
   881  H   1.0    0.06    1.04    1.43    36.21093    79.33825   -10.07602
   882  H   1.0    0.06    1.04    1.43    37.03863    80.30579   -13.20163
   883  H   1.0    0.09    1.05    1.44    33.00028    83.32180   -15.18206
   884  H   1.0    0.05    1.01    1.43    34.53663    83.35014    -7.40962
   885  H   1.0    0.06    1.01    1.43    31.10867    87.38471   -13.44351
   886  N   5.0   -0.14    3.49    2.07    36.58698    75.76856   -15.54111
   887  C   4.0    0.04    4.57    4.63    37.92680    73.54624   -16.41227
   888  C   4.0    0.16    3.50    3.12    39.61621    72.38217   -14.38270
   889  O   6.0   -0.28    1.24    1.80    40.89367    73.70876   -12.97297
   890  C   4.0   -0.02    4.33    4.26    39.48960    74.16607   -18.71963
   891  C   4.0   -0.07    4.18    3.96    40.93902    71.87195   -19.53410
   892  C   4.0   -0.07    4.14    3.87    37.76239    75.11472   -20.83612
   893  H   1.0    0.09    1.08    1.44    36.91958    77.35404   -16.58612
   894  H   1.0    0.06    1.08    1.44    36.48116    72.15352   -16.87525
   895  H   1.0    0.05    1.06    1.44    40.84454    75.65518   -18.28310
   896  H   1.0    0.05    1.00    1.43    42.05774    72.34249   -21.19895
   897  H   1.0    0.05    1.02    1.43    42.17868    71.28235   -17.99775
   898  H   1.0    0.05    1.00    1.43    39.61055    70.36395   -19.98385
   899  H   1.0    0.05    1.00    1.43    38.90757    75.55502   -22.48963
   900  H   1.0    0.06    1.00    1.43    36.39801    73.64262   -21.29910
   901  H   1.0    0.05    1.01    1.43    36.77974    76.80602   -20.19172
   902  N   5.0   -0.14    3.44    2.04    39.58220    69.88018   -14.21830
   903  C   4.0    0.02    4.27    4.13    40.99760    68.55170   -12.26243
   904  C   4.0    0.16    3.34    3.06    39.50094    68.22478    -9.84547
   905  O   6.0   -0.28    1.23    1.80    40.21526    66.75079    -8.19007
   906  H   1.0    0.11    1.12    1.45    38.59765    68.72555   -15.40505
   907  H   1.0    0.06    1.03    1.43    41.52295    66.68465   -12.95596
   908  H   1.0    0.06    1.03    1.43    42.70970    69.61183   -11.82590
   909  N   5.0   -0.11    3.50    2.08    37.40901    69.59672    -9.65083
   910  C   4.0    0.05    4.44    4.45    35.74606    69.34349    -7.49087
   911  C   4.0    0.16    3.44    3.09    34.77474    66.63552    -7.28489
   912  O   6.0   -0.33    1.40    1.80    33.95271    65.53948    -9.14249
   913  C   4.0   -0.03    4.27    4.14    33.54075    71.23700    -7.66284
   914  C   4.0    0.25    3.12    3.03    34.22105    73.84293    -6.58192
   915  O   6.0   -0.28    1.20    1.80    36.49439    74.46087    -6.54601
   916  O   6.0   -0.32    1.19    1.80    32.51462    75.27723    -5.78067
   917  H   1.0    0.12    1.11    1.44    36.82320    70.89118   -10.95285
   918  H   1.0    0.07    1.07    1.44    36.79296    69.78002    -5.77122
   919  H   1.0    0.06    1.05    1.44    33.01729    71.48266    -9.63949
   920  H   1.0    0.05    1.03    1.43    31.93826    70.50190    -6.59703
   921  N   5.0   -0.13    3.50    2.08    34.92591    65.54703    -5.03612
   922  C   4.0    0.04    4.48    4.50    33.52941    63.23590    -4.48999
   923  C   4.0    0.15    3.41    3.08    31.17481    63.65920    -2.86105
   924  O   6.0   -0.32    1.32    1.80    30.85356    65.66420    -1.66863
   925  C   4.0    0.05    4.23    4.06    35.18292    61.22145    -3.18608
   926  O   6.0   -0.24    2.12    1.84    35.34354    61.70144    -0.50267
   927  C   4.0   -0.06    4.10    3.81    37.78696    61.17610    -4.38227
   928  H   1.0    0.13    1.17    1.46    35.98605    66.21033    -3.56969
   929  H   1.0    0.07    1.08    1.44    32.92281    62.54615    -6.33247
   930  H   1.0    0.04    1.05    1.44    34.33821    59.35818    -3.42796
   931  H   1.0    0.11    1.00    1.43    36.39423    60.41076     0.30992
   932  H   1.0    0.04    1.00    1.43    38.96048    59.75313    -3.46387
   933  H   1.0    0.05    1.00    1.43    37.63389    60.72445    -6.38538
   934  H   1.0    0.07    1.01    1.43    38.68836    63.01669    -4.18007
   935  N   5.0   -0.14    3.46    2.05    29.58177    61.70522    -2.79301
   936  C   4.0    0.04    4.54    4.59    27.26686    61.70522    -1.31147
   937  C   4.0    0.14    3.51    3.12    26.81899    59.08039    -0.22866
   938  O   6.0   -0.31    1.27    1.80    27.11379    57.19445    -1.53824
   939  C   4.0   -0.02    4.38    4.34    25.00107    62.47434    -2.93852
   940  C   4.0   -0.05    4.23    4.05    24.99729    65.32972    -3.33537
   941  C   4.0   -0.08    4.19    3.97    22.54632    61.60129    -1.73855
   942  C   4.0   -0.07    4.08    3.76    24.84423    66.78480    -0.92030
   943  H   1.0    0.10    1.07    1.44    29.85956    60.06683    -3.77000
   944  H   1.0    0.07    1.09    1.44    27.48984    63.02425     0.25511
   945  H   1.0    0.04    1.06    1.44    25.16926    61.55782    -4.77534
   946  H   1.0    0.05    1.03    1.43    26.73773    65.87207    -4.29346
   947  H   1.0    0.03    1.03    1.43    23.36835    65.84183    -4.48810
   948  H   1.0    0.04    1.00    1.43    20.97218    62.17576    -2.93663
   949  H   1.0    0.05    1.02    1.43    22.58034    59.54904    -1.55902
   950  H   1.0    0.04    1.00    1.43    22.36491    62.46678     0.12283
   951  H   1.0    0.03    1.00    1.43    24.84990    68.79925    -1.34926
   952  H   1.0    0.04    1.00    1.43    23.10379    66.28025     0.05858
   953  H   1.0    0.06    1.02    1.43    26.47128    66.31237     0.25133
   954  N   5.0   -0.14    3.46    2.05    26.11412    58.94622     2.16563
   955  C   4.0    0.04    4.46    4.48    26.05554    56.51036     3.41662
   956  C   4.0    0.14    3.40    3.08    23.99007    56.34218     5.42729
   957  O   6.0   -0.33    1.37    1.80    23.79354    57.95601     7.10915
   958  C   4.0   -0.01    4.27    4.14    28.64636    55.93589     4.58070
   959  C   4.0    0.24    3.12    3.03    29.40414    53.15043     4.36338
   960  O   6.0   -0.28    1.19    1.80    27.82621    51.56495     3.58103
   961  O   6.0   -0.26    1.19    1.80    31.61323    52.55706     4.99644
   962  H   1.0    0.10    1.08    1.44    25.58878    60.44666     3.25411
   963  H   1.0    0.08    1.08    1.44    25.56043    55.08929     2.01067
   964  H   1.0    0.07    1.03    1.43    30.07688    57.05839     3.61127
   965  H   1.0    0.06    1.03    1.43    28.60289    56.42533     6.58192
   966  N   5.0   -0.13    3.45    2.04    22.44994    54.37120     5.21186
   967  C   4.0    0.03    4.41    4.39    20.71707    53.64743     7.20741
   968  C   4.0    0.15    3.38    3.07    21.89248    51.51015     8.81179
   969  O   6.0   -0.29    1.22    1.80    22.75986    49.58641     7.81024
   970  C   4.0   -0.05    4.36    4.31    18.18105    52.85941     6.06413
   971  C   4.0   -0.03    4.20    4.01    15.91905    52.95390     7.85748
   972  C   4.0   -0.08    4.12    3.85    15.49953    55.62408     8.82502
   973  C   4.0   -0.08    4.11    3.83    13.57012    51.97880     6.55924
   974  H   1.0    0.09    1.06    1.44    22.36491    53.23358     3.65851
   975  H   1.0    0.06    1.07    1.44    20.37880    55.22913     8.48109
   976  H   1.0    0.04    1.04    1.43    17.76531    54.11608     4.48621
   977  H   1.0    0.05    1.03    1.43    18.35113    50.91867     5.39328
   978  H   1.0    0.04    1.06    1.44    16.30645    51.74448     9.47887
   979  H   1.0    0.03    1.00    1.43    13.88004    55.62975    10.09681
   980  H   1.0    0.05    1.00    1.43    17.18517    56.24391     9.83224
   981  H   1.0    0.04    1.00    1.43    15.14048    56.86941     7.22442
   982  H   1.0    0.04    1.00    1.43    11.99031    52.06573     7.87827
   983  H   1.0    0.04    1.00    1.43    13.17706    53.15232     4.91329
   984  H   1.0    0.04    1.00    1.43    13.88760    50.03049     5.97153
   985  N   5.0   -0.14    3.45    2.04    21.91704    51.87865    11.30245
   986  C   4.0    0.03    4.48    4.52    23.44016    50.34041    13.03344
   987  C   4.0    0.14    3.46    3.10    21.92271    49.61475    15.38048
   988  O   6.0   -0.31    1.27    1.80    21.66193    51.12276    17.14737
   989  C   4.0   -0.01    4.38    4.35    25.76263    51.85786    13.92917
   990  C   4.0   -0.04    4.23    4.05    27.37457    52.65343    11.67662
   991  C   4.0   -0.07    4.16    3.93    27.29331    50.38198    15.87559
   992  C   4.0   -0.06    4.07    3.75    29.14713    50.62954    10.79411
   993  H   1.0    0.10    1.07    1.44    20.89092    53.24492    12.19629
   994  H   1.0    0.05    1.06    1.44    23.98062    48.62832    12.02433
   995  H   1.0    0.06    1.06    1.44    25.09178    53.56806    14.86080
   996  H   1.0    0.07    1.05    1.44    26.13113    53.13531    10.10625
   997  H   1.0    0.04    1.04    1.43    28.50274    54.29183    12.21141
   998  H   1.0    0.04    1.00    1.43    28.91092    51.51771    16.45762
   999  H   1.0    0.07    1.01    1.43    26.09712    49.97758    17.50264
  1000  H   1.0    0.05    1.00    1.43    27.93960    48.62076    15.02521
  1001  H   1.0    0.07    1.00    1.43    30.22806    51.33818     9.18974
  1002  H   1.0    0.04    1.01    1.43    30.42081    50.13443    12.33613
[...]
1294   7 N     -0.286  1.273  4.014  0.000    27.389     7.773
1295   1 H      0.224  0.776  0.000  0.000     0.992     1.560
1296   1 H      0.096  0.904  0.000  0.000     1.822     2.111
1297   1 H      0.098  0.902  0.000  0.000     1.804     2.100
1298   1 H      0.057  0.943  0.000  0.000     2.230     2.335
1299   1 H      0.257  0.743  0.000  0.000     0.856     1.449
1300   1 H      0.219  0.781  0.000  0.000     1.013     1.577
1301   7 N     -0.400  1.328  4.072  0.000    30.362     8.184
1302   6 C      0.034  1.059  2.907  0.000    20.019     6.373
1303   6 C      0.275  1.050  2.675  0.000    22.356     7.742
1304   8 O     -0.486  1.738  4.748  0.000    23.477     6.496
1305   6 C     -0.053  1.050  3.003  0.000    21.523     6.604
1306   6 C     -0.088  1.059  3.030  0.000    22.182     6.705
1307   6 C      0.368  1.024  2.607  0.000    20.755     7.456
1308   8 O     -0.652  1.773  4.878  0.000    27.419     7.021
1309   8 O     -0.659  1.772  4.887  0.000    27.620     7.046
1310   1 H      0.184  0.816  0.000  0.000     1.189     1.708
1311   1 H      0.031  0.969  0.000  0.000     2.568     2.506
1312   1 H      0.031  0.969  0.000  0.000     2.579     2.511
1313   1 H      0.044  0.956  0.000  0.000     2.401     2.423
1314   1 H      0.014  0.986  0.000  0.000     2.829     2.630
1315   1 H      0.015  0.985  0.000  0.000     2.811     2.622
1316   7 N     -0.171  1.247  3.924  0.000    24.698     7.381
1317   6 C      0.020  1.063  2.916  0.000    20.236     6.405
1318   6 C      0.272  1.045  2.683  0.000    22.411     7.752
1319   8 O     -0.507  1.744  4.763  0.000    23.936     6.560
1320   6 C     -0.021  1.059  2.962  0.000    20.914     6.504
1321   6 C     -0.071  1.051  3.020  0.000    21.846     6.654
1322   6 C     -0.118  1.042  3.076  0.000    22.815     6.810
1323   6 C     -0.126  1.043  3.083  0.000    22.974     6.836
1324   1 H      0.192  0.808  0.000  0.000     1.147     1.678
1325   1 H      0.069  0.931  0.000  0.000     2.091     2.261
1326   1 H      0.038  0.962  0.000  0.000     2.477     2.461
1327   1 H      0.035  0.965  0.000  0.000     2.517     2.481
1328   1 H      0.054  0.946  0.000  0.000     2.274     2.358
1329   1 H      0.070  0.930  0.000  0.000     2.087     2.259
1330   1 H      0.022  0.978  0.000  0.000     2.704     2.572
1331   1 H      0.064  0.936  0.000  0.000     2.154     2.295
1332   1 H      0.054  0.946  0.000  0.000     2.271     2.357
1333   1 H      0.056  0.944  0.000  0.000     2.241     2.341
1334   1 H      0.042  0.958  0.000  0.000     2.418     2.432
1335   7 N     -0.198  1.260  3.938  0.000    25.296     7.470
1336   6 C      0.029  1.057  2.915  0.000    20.098     6.384
1337   6 C      0.268  1.043  2.690  0.000    22.484     7.765
1338   8 O     -0.484  1.750  4.734  0.000    23.438     6.491
1339   6 C     -0.069  1.053  3.016  0.000    21.807     6.646
1340   6 C     -0.007  1.053  2.955  0.000    20.673     6.467
1341   6 C     -0.121  1.046  3.075  0.000    22.869     6.819
1342   6 C     -0.096  1.036  3.060  0.000    22.382     6.745
1343   1 H      0.242  0.758  0.000  0.000     0.916     1.500
1344   1 H      0.071  0.929  0.000  0.000     2.073     2.251
1345   1 H      0.045  0.955  0.000  0.000     2.384     2.414
1346   1 H      0.059  0.941  0.000  0.000     2.208     2.323
1347   1 H      0.023  0.977  0.000  0.000     2.686     2.563
1348   1 H      0.046  0.954  0.000  0.000     2.366     2.405
1349   1 H      0.046  0.954  0.000  0.000     2.375     2.410
1350   1 H      0.049  0.951  0.000  0.000     2.333     2.388
1351   1 H      0.037  0.963  0.000  0.000     2.484     2.465
1352   1 H      0.034  0.966  0.000  0.000     2.533     2.489
1353   1 H      0.016  0.984  0.000  0.000     2.799     2.616
1354   7 N     -0.161  1.234  3.927  0.000    24.478     7.348
1355   6 C      0.022  1.054  2.924  0.000    20.211     6.402
1356   6 C      0.189  1.092  2.720  0.000    23.964     8.017
1357   8 O     -0.343  1.759  4.584  0.000    20.582     6.083
1358   6 C     -0.059  1.049  3.011  0.000    21.636     6.621
1359   6 C     -0.098  1.057  3.041  0.000    22.362     6.732
1360   6 C      0.280  1.042  2.678  0.000    22.266     7.726
1361   8 O     -0.494  1.748  4.745  0.000    23.647     6.520
1362   7 N     -0.262  1.257  4.004  0.000    26.792     7.687
1363   1 H      0.214  0.786  0.000  0.000     1.036     1.594
1364   1 H      0.094  0.906  0.000  0.000     1.842     2.122
1365   1 H      0.068  0.932  0.000  0.000     2.113     2.273
1366   1 H      0.077  0.923  0.000  0.000     2.005     2.215
1367   1 H      0.082  0.918  0.000  0.000     1.962     2.191
1368   1 H      0.060  0.940  0.000  0.000     2.196     2.317
1369   1 H      0.201  0.799  0.000  0.000     1.103     1.645
1370   1 H      0.228  0.772  0.000  0.000     0.976     1.548
1371   7 N     -0.388  1.319  4.068  0.000    30.029     8.139
1372   6 C      0.038  1.051  2.911  0.000    19.952     6.362
1373   6 C      0.201  1.082  2.717  0.000    23.718     7.976
1374   8 O     -0.382  1.761  4.621  0.000    21.330     6.192
1375   6 C     -0.076  1.056  3.019  0.000    21.934     6.665
1376   6 C     -0.004  1.077  2.927  0.000    28.125     8.699
1377   6 C     -0.044  1.082  2.962  0.000    29.082     8.844
1378   6 C     -0.041  1.083  2.959  0.000    29.030     8.836
1379   6 C     -0.051  1.071  2.980  0.000    29.270     8.872
1380   6 C     -0.074  1.079  2.995  0.000    29.840     8.958
1381   6 C      0.146  1.046  2.808  0.000    24.821     8.166
1382   8 O     -0.432  1.732  4.701  0.000    21.487     6.258
1383   1 H      0.168  0.832  0.000  0.000     1.285     1.776
1384   1 H      0.075  0.925  0.000  0.000     2.033     2.230
1385   1 H      0.053  0.947  0.000  0.000     2.283     2.363
1386   1 H      0.070  0.930  0.000  0.000     2.082     2.257
1387   1 H      0.024  0.976  0.000  0.000     2.672     2.556
1388   1 H      0.051  0.949  0.000  0.000     2.307     2.375
1389   1 H      0.033  0.967  0.000  0.000     2.546     2.495
1390   1 H      0.051  0.949  0.000  0.000     2.302     2.373
1391   1 H      0.336  0.664  0.000  0.000     0.622     1.239
1392   7 N     -0.283  1.291  3.992  0.000    27.306     7.761
1393   6 C      0.028  1.062  2.910  0.000    20.086     6.379
1394   6 C      0.194  1.089  2.717  0.000    23.857     7.999
1395   8 O     -0.371  1.767  4.604  0.000    21.119     6.161
1396   6 C     -0.054  1.049  3.005  0.000    21.510     6.597
1397   6 C     -0.052  1.038  3.015  0.000    21.485     6.594
1398   6 C      0.018  1.043  2.939  0.000    20.307     6.422
1399   1 H      0.056  0.944  0.000  0.000     2.243     2.342
1400   1 H      0.045  0.955  0.000  0.000     2.389     2.417
1401   1 H      0.061  0.939  0.000  0.000     2.193     2.316
1402   1 H      0.035  0.965  0.000  0.000     2.521     2.483
1403   1 H      0.029  0.971  0.000  0.000     2.594     2.519
1404   1 H      0.028  0.972  0.000  0.000     2.617     2.530
1405   1 H      0.015  0.985  0.000  0.000     2.807     2.620
1406   7 N     -0.400  1.331  4.069  0.000    30.360     8.183
1407   6 C      0.028  1.057  2.915  0.000    20.114     6.388
1408   6 C      0.269  1.047  2.684  0.000    22.451     7.759
1409   8 O     -0.528  1.759  4.769  0.000    24.413     6.625
1410   6 C      0.075  1.039  2.886  0.000    19.528     6.329
1411   8 O     -0.479  1.727  4.752  0.000    22.452     6.396
1412   1 H      0.180  0.820  0.000  0.000     1.213     1.725
1413   1 H      0.041  0.959  0.000  0.000     2.438     2.442
1414   1 H      0.023  0.977  0.000  0.000     2.683     2.561
1415   1 H      0.026  0.974  0.000  0.000     2.643     2.542
1416   1 H      0.347  0.653  0.000  0.000     0.595     1.211
1417   7 N     -0.170  1.248  3.922  0.000    24.685     7.379
1418   6 C      0.016  1.064  2.920  0.000    20.307     6.416
1419   6 C      0.277  1.042  2.681  0.000    22.312     7.735
1420   8 O     -0.482  1.758  4.724  0.000    23.393     6.485
1421   6 C     -0.074  1.055  3.020  0.000    21.912     6.663
1422   6 C     -0.082  1.054  3.027  0.000    22.051     6.685
1423   6 C     -0.104  1.056  3.048  0.000    22.481     6.749
1424   6 C     -0.055  1.062  2.992  0.000    21.648     6.641
1425   7 N     -0.149  1.238  3.911  0.000    24.209     7.308
1426   1 H      0.235  0.765  0.000  0.000     0.943     1.521
1427   1 H      0.067  0.933  0.000  0.000     2.122     2.278
1428   1 H      0.078  0.922  0.000  0.000     1.997     2.210
1429   1 H      0.049  0.951  0.000  0.000     2.337     2.391
1430   1 H      0.069  0.931  0.000  0.000     2.091     2.261
1431   1 H      0.054  0.946  0.000  0.000     2.265     2.354
1432   1 H      0.083  0.917  0.000  0.000     1.953     2.185
1433   1 H      0.095  0.905  0.000  0.000     1.834     2.118
1434   1 H      0.121  0.879  0.000  0.000     1.604     1.981
1435   1 H      0.107  0.893  0.000  0.000     1.720     2.051
1436   1 H      0.300  0.700  0.000  0.000     0.715     1.324
1437   1 H      0.291  0.709  0.000  0.000     0.741     1.349
1438   1 H      0.308  0.692  0.000  0.000     0.691     1.302
1439   7 N     -0.183  1.240  3.943  0.000    24.975     7.422
1440   6 C      0.022  1.064  2.914  0.000    20.204     6.399
1441   6 C      0.283  1.036  2.680  0.000    22.200     7.717
1442   8 O     -0.492  1.745  4.747  0.000    23.599     6.513
1443   6 C     -0.023  1.061  2.962  0.000    20.937     6.507
1444   6 C     -0.065  1.049  3.016  0.000    21.748     6.639
1445   6 C     -0.122  1.043  3.080  0.000    22.897     6.823
1446   6 C     -0.118  1.042  3.076  0.000    22.824     6.813
1447   1 H      0.204  0.796  0.000  0.000     1.086     1.632
1448   1 H      0.051  0.949  0.000  0.000     2.307     2.375
1449   1 H      0.046  0.954  0.000  0.000     2.364     2.405
1450   1 H      0.040  0.960  0.000  0.000     2.445     2.445
1451   1 H      0.026  0.974  0.000  0.000     2.641     2.541
1452   1 H      0.072  0.928  0.000  0.000     2.069     2.249
1453   1 H      0.038  0.962  0.000  0.000     2.481     2.463
1454   1 H      0.051  0.949  0.000  0.000     2.307     2.375
1455   1 H      0.044  0.956  0.000  0.000     2.395     2.420
1456   1 H      0.040  0.960  0.000  0.000     2.447     2.446
1457   1 H      0.061  0.939  0.000  0.000     2.188     2.313
1458   7 N     -0.157  1.239  3.918  0.000    24.397     7.336
1459   6 C      0.015  1.056  2.929  0.000    20.328     6.419
1460   6 C      0.272  1.039  2.689  0.000    22.399     7.750
1461   8 O     -0.494  1.752  4.742  0.000    23.649     6.520
1462   6 C     -0.067  1.050  3.016  0.000    21.775     6.642
1463   6 C     -0.099  1.058  3.041  0.000    22.383     6.735
1464   6 C      0.283  1.040  2.678  0.000    22.213     7.717
1465   8 O     -0.486  1.773  4.713  0.000    23.475     6.496
1466   7 N     -0.284  1.267  4.017  0.000    27.336     7.765
1467   1 H      0.209  0.791  0.000  0.000     1.062     1.614
1468   1 H      0.086  0.914  0.000  0.000     1.922     2.168
1469   1 H      0.062  0.938  0.000  0.000     2.176     2.307
1470   1 H      0.066  0.934  0.000  0.000     2.126     2.280
1471   1 H      0.065  0.935  0.000  0.000     2.143     2.289
1472   1 H      0.072  0.928  0.000  0.000     2.066     2.248
1473   1 H      0.232  0.768  0.000  0.000     0.955     1.531
1474   1 H      0.225  0.775  0.000  0.000     0.988     1.557
1475   7 N     -0.155  1.237  3.919  0.000    24.362     7.331
1476   6 C      0.035  1.046  2.920  0.000    19.989     6.366
1477   6 C      0.194  1.086  2.719  0.000    23.849     7.998
1478   8 O     -0.349  1.752  4.596  0.000    20.681     6.097
1479   6 C     -0.108  1.064  3.045  0.000    22.550     6.758
1480   6 C      0.285  1.031  2.683  0.000    22.164     7.709
1481   8 O     -0.498  1.761  4.738  0.000    23.751     6.534
1482   7 N     -0.258  1.260  3.999  0.000    26.712     7.676
1483   1 H      0.221  0.779  0.000  0.000     1.007     1.572
1484   1 H      0.093  0.907  0.000  0.000     1.854     2.130
1485   1 H      0.107  0.893  0.000  0.000     1.722     2.052
1486   1 H      0.088  0.912  0.000  0.000     1.902     2.157
1487   1 H      0.216  0.784  0.000  0.000     1.029     1.589
1488   1 H      0.231  0.769  0.000  0.000     0.961     1.536
1489   7 N     -0.379  1.321  4.057  0.000    29.784     8.105
1490   6 C      0.030  1.055  2.915  0.000    20.084     6.383
1491   6 C      0.194  1.092  2.715  0.000    23.868     8.002
1492   8 O     -0.357  1.750  4.606  0.000    20.835     6.120
1493   6 C      0.116  1.045  2.839  0.000    18.760     6.180
1494   8 O     -0.477  1.723  4.754  0.000    22.402     6.389
1495   6 C     -0.134  1.046  3.088  0.000    23.126     6.857
1496   1 H      0.165  0.835  0.000  0.000     1.301     1.786
1497   1 H      0.062  0.938  0.000  0.000     2.176     2.307
1498   1 H      0.030  0.970  0.000  0.000     2.588     2.516
1499   1 H      0.311  0.689  0.000  0.000     0.688     1.303
1500   1 H      0.050  0.950  0.000  0.000     2.321     2.383
1501   1 H      0.047  0.953  0.000  0.000     2.355     2.400
1502   1 H      0.064  0.936  0.000  0.000     2.155     2.296
1503   7 N     -0.389  1.319  4.069  0.000    30.067     8.144
1504   6 C      0.034  1.053  2.913  0.000    19.997     6.367
1505   6 C      0.274  1.046  2.680  0.000    22.369     7.745
1506   8 O     -0.498  1.746  4.753  0.000    23.750     6.534
1507   6 C     -0.016  1.055  2.960  0.000    20.811     6.488
1508   6 C     -0.110  1.039  3.071  0.000    22.652     6.785
1509   6 C     -0.113  1.043  3.070  0.000    22.722     6.796
1510   1 H      0.165  0.835  0.000  0.000     1.302     1.788
1511   1 H      0.024  0.976  0.000  0.000     2.675     2.557
1512   1 H      0.040  0.960  0.000  0.000     2.446     2.446
1513   1 H      0.047  0.953  0.000  0.000     2.361     2.403
1514   1 H      0.030  0.970  0.000  0.000     2.588     2.516
1515   1 H      0.033  0.967  0.000  0.000     2.551     2.498
1516   1 H      0.053  0.947  0.000  0.000     2.286     2.365
1517   1 H      0.029  0.971  0.000  0.000     2.597     2.520
1518   1 H      0.044  0.956  0.000  0.000     2.395     2.420
1519   7 N     -0.189  1.248  3.941  0.000    25.093     7.440
1520   6 C     -0.025  1.047  2.977  0.000    21.089     6.551
1521   6 C      0.207  1.083  2.711  0.000    23.611     7.957
1522   8 O     -0.379  1.757  4.622  0.000    21.260     6.182
1523   1 H      0.225  0.775  0.000  0.000     0.985     1.555
1524   1 H      0.101  0.899  0.000  0.000     1.780     2.086
1525   1 H      0.123  0.877  0.000  0.000     1.591     1.973
1526   7 N     -0.390  1.320  4.070  0.000    30.098     8.148
1527   6 C      0.034  1.055  2.911  0.000    20.016     6.372
1528   6 C      0.201  1.082  2.717  0.000    23.722     7.977
1529   8 O     -0.392  1.762  4.629  0.000    21.513     6.219
1530   6 C     -0.083  1.058  3.025  0.000    22.070     6.686
1531   6 C     -0.006  1.079  2.927  0.000    28.176     8.707
1532   6 C     -0.044  1.082  2.962  0.000    29.104     8.847
1533   6 C     -0.044  1.081  2.962  0.000    29.082     8.844
1534   6 C     -0.052  1.071  2.980  0.000    29.280     8.873
1535   6 C     -0.072  1.077  2.995  0.000    29.805     8.952
1536   6 C      0.144  1.050  2.806  0.000    24.854     8.171
1537   8 O     -0.456  1.737  4.719  0.000    21.964     6.327
1538   1 H      0.158  0.842  0.000  0.000     1.350     1.820
1539   1 H      0.083  0.917  0.000  0.000     1.945     2.181
1540   1 H      0.066  0.934  0.000  0.000     2.132     2.283
1541   1 H      0.082  0.918  0.000  0.000     1.960     2.190
1542   1 H      0.045  0.955  0.000  0.000     2.386     2.416
1543   1 H      0.050  0.950  0.000  0.000     2.317     2.380
1544   1 H      0.033  0.967  0.000  0.000     2.548     2.496
1545   1 H      0.047  0.953  0.000  0.000     2.359     2.402
1546   1 H      0.348  0.652  0.000  0.000     0.594     1.211
1547   1 H      0.176  0.824  0.000  0.000     1.236     1.742
1548   1 H      0.079  0.921  0.000  0.000     1.991     2.206
1549   1 H      0.184  0.816  0.000  0.000     1.194     1.711
1550   1 H      0.066  0.934  0.000  0.000     2.133     2.284
1551   1 H      0.175  0.825  0.000  0.000     1.241     1.745
1552   1 H      0.093  0.907  0.000  0.000     1.853     2.128
1553   1 H      0.168  0.832  0.000  0.000     1.286     1.776
1554   1 H      0.076  0.924  0.000  0.000     2.016     2.220
1555   1 H      0.191  0.809  0.000  0.000     1.154     1.682
1556   1 H      0.080  0.920  0.000  0.000     1.982     2.201
1557   1 H      0.184  0.816  0.000  0.000     1.193     1.711
1558   1 H      0.095  0.905  0.000  0.000     1.832     2.117
1559   1 H      0.178  0.822  0.000  0.000     1.224     1.733
1560   1 H      0.094  0.906  0.000  0.000     1.836     2.119
1561   1 H      0.178  0.822  0.000  0.000     1.224     1.733
1562   1 H      0.075  0.925  0.000  0.000     2.034     2.230
1563   1 H      0.197  0.803  0.000  0.000     1.120     1.658
1564   1 H      0.088  0.912  0.000  0.000     1.894     2.152
1565   1 H      0.192  0.808  0.000  0.000     1.147     1.678
1566   1 H      0.068  0.932  0.000  0.000     2.110     2.271
1567   1 H      0.194  0.806  0.000  0.000     1.135     1.669
1568   1 H      0.066  0.934  0.000  0.000     2.131     2.283
1569   1 H      0.183  0.817  0.000  0.000     1.194     1.712
1570   1 H      0.098  0.902  0.000  0.000     1.800     2.098
1571   1 H      0.187  0.813  0.000  0.000     1.173     1.697
1572   1 H      0.096  0.904  0.000  0.000     1.819     2.109
1573   1 H      0.187  0.813  0.000  0.000     1.176     1.698
1574   1 H      0.059  0.941  0.000  0.000     2.205     2.322
1575   1 H      0.178  0.822  0.000  0.000     1.225     1.734
1576   1 H      0.077  0.923  0.000  0.000     2.012     2.218
1577   1 H      0.184  0.816  0.000  0.000     1.188     1.708
1578   1 H      0.090  0.910  0.000  0.000     1.877     2.143
1579   1 H      0.193  0.807  0.000  0.000     1.140     1.673
1580   1 H      0.081  0.919  0.000  0.000     1.963     2.191

 Mol. C6AA /au·bohr⁶  :   23863066.536184
 Mol. C8AA /au·bohr⁸  :  539558512.097668
 Mol. α(0) /au        :       7340.251612

 
molecular dipole:
                 x           y           z       tot (Debye)
 q only:      -66.721     -44.113     -36.161
   full:      -61.603     -45.465     -34.151     213.092
molecular quadrupole (traceless):
                xx          xy          yy          xz          yz          zz
 q only:     -715.957   -5458.890    -374.753    -895.521   -2187.495    1090.710
  q+dip:     -449.265   -5071.397    -683.606    -933.915   -2159.766    1132.871
   full:     -436.080   -5073.025    -695.720    -936.011   -2160.951    1131.800
speedup  1.16
cpu  time for grad   19 m 57.5 s
wall time for grad   17 m 10.7 s

SCC energy    :   -2489.6393527
rep           :      29.9030620
ES            :       7.6624943
AES           :      -0.2668139
AXC           :       0.7719145
disp          :      -2.3466917
XB            :       0.0000000
fix           :       0.0000000
Gborn         :       0.0000000
Gsasa         :       0.0000000
Ghb           :       0.0000000
Gshift        :       0.0000000
Gsolv         :      -1.7292997    -1085.15
Etot ala COSMO:   -2489.6393527
grad norm     :       1.0596933
total E       :   -2459.4209200
atomizationE  :     449.4416500   282028.89
(atE without considering molecular charge,
 total energy contains solvation terms)
H-L gap (eV)  :          0.9292

------------------------------------------------------------------------
 * finished run on 2019/05/04 at 19:20:58.612     
------------------------------------------------------------------------
 total:
 * wall-time:     0 d,  0 h, 18 min,  2.439 sec
 *  cpu-time:     0 d,  0 h, 20 min, 27.956 sec
 * ratio c/w:     1.134 speedup
 SCF:
 * wall-time:     0 d,  0 h, 17 min, 29.041 sec
 *  cpu-time:     0 d,  0 h, 20 min, 11.008 sec
 * ratio c/w:     1.154 speedup

