      -----------------------------------------------------------      
     |                   =====================                   |     
     |                           x T B                           |     
     |                   =====================                   |     
     |                         S. Grimme                         |     
     |          Mulliken Center for Theoretical Chemistry        |     
     |                    University of Bonn                     |     
     |                 Version 6.0.1 (SAW181210)                 |     
      -----------------------------------------------------------      

   This program is distributed in the hope that it will be useful,
   but WITHOUT ANY WARRANTY; without even the implied warranty of
   MERCHANTABILITY or FITNESS FOR A PARTICULAR PURPOSE.
   
   FOR NON-COMMERCIAL, ACADEMIA USE ONLY.
   
   Cite this work as:
   S. Grimme, C. Bannwarth, P. Shushkov, J. Comput. Theory Chem., 2017,
   13, 1989-2009.
   C. Bannwarth, S. Ehlert and S. Grimme., ChemRxiv, 2018, preprint.
   http://doi.org/10.26434/chemrxiv.7246238.v1
   
   for sTDA-xTB:
   S. Grimme and C. Bannwarth, J. Chem. Phys., 2016, 145, 054103.
   
   in the mass-spec context:
   V. Asgeirsson, C. Bauer and S. Grimme, Chem. Sci., 2017, 8, 4879.
   
   if GBSA is used:
   P. Shushkov, F. März and S. Grimme, unpublished.
   
   for ANC optimizer:
   S. Grimme, unpublished.
   Rational Function algorithm used in ANCopt:
   F. Eckert, P. Pulay, H.-J. Werner, J. Comput. Chem., 1997, 18, 1473.
   
   with help from (in alphabetical order)
   C. Bannwarth, F. Bohle, G. Brandenburg, E. Caldeweyher, M. Checinski,
   S. Dohm, S. Ehlert, S. Ehrlich, F. März, H. Neugebauer, J. Pisarek,
   P. Pracht, P. Shushkov, and S. Spicher.
   
 * started run on 2019/05/05 at 23:27:18.992     
========================================================================
 # omp threads = 2
========================================================================
number of atoms            : 1733
number of electrons        : 4694
charge                     : 6
spin                       : .0
first test random number   : .3377

########################################################################
# WARNING! Please study the warnings concerning your input carefully
#  - Process number higher than OMP_NUM_THREADS, I hope you know what you are doing.
########################################################################

           ------------------------------------------------- 
          |                 G F N 2 - x T B                 |
          | Geometry, Frequencies, Noncovalent interactions |
          |            JCTC 2018 parametrisation            |
           ------------------------------------------------- 
 
      method parameters     
 k(s)        :  1.8500
 k(p)        :  2.2300
 k(d)        :  2.2300
 k(f)        :  2.0000
 kEN (H0ij)  : -2.0000
 D4 a1       :  0.5200
 D4 a2       :  5.0000
 D4 s6       :  1.0000
 D4 s8       :  2.7000
 D4 s9       :  5.0000
 alphaj      :  2.0000

 Solvent             : h2o
 Using internal parameter file: .param_gbsa2_h2o
 Gsolv ref. state (COSMO-RS): gsolv [1 M gas/solution]
 temperature (mdtemp)       :    298.150000000000     
 dielectric constant        :    80.2000000000000     
 rho                        :    1.00000000000000     
 mass                       :    18.0000000000000     
 surface tension            :    15.5689454083859     
 probe radius               :   0.975313790000000     
 vdW radii scaling          :    1.00000000000000     
 Gshift (Eh)                :   1.857443126794793E-003
 c1                         :    1.55243817000000     
 soset                      :   0.130326360000000     
 HB correction              :  T

            Z     q(EN)     CN     RAES       Cart. coordinates
     1  N   5.0   -0.07    4.34    3.88   -13.67784    39.31386     6.92018
     2  C   4.0    0.00    4.48    4.51   -15.34268    41.53618     6.74065
     3  C   4.0    0.14    3.43    3.09   -14.53577    43.72826     8.47164
     4  O   6.0   -0.29    1.24    1.80   -13.44729    43.22937    10.48042
     5  C   4.0   -0.03    4.37    4.32   -17.94106    40.49305     7.47954
     6  C   4.0   -0.03    4.31    4.22   -17.37414    38.26128     9.07257
     7  C   4.0   -0.03    4.30    4.20   -15.00820    37.11800     7.99165
     8  H   1.0    0.06    1.06    1.44   -13.03344    38.85277     5.12116
     9  H   1.0    0.07    1.07    1.44   -12.14716    39.75605     8.07102
    10  H   1.0    0.05    1.05    1.44   -15.41827    42.22782     4.80179
    11  H   1.0    0.06    1.03    1.43   -18.99553    41.91034     8.53778
    12  H   1.0    0.06    1.03    1.43   -18.98986    39.95070     5.79201
    13  H   1.0    0.06    1.03    1.43   -17.07178    38.85654    11.02088
    14  H   1.0    0.05    1.03    1.43   -18.93883    36.92525     8.97809
    15  H   1.0    0.05    1.02    1.43   -13.88193    36.22605     9.46753
    16  H   1.0    0.05    1.02    1.43   -15.45985    35.74606     6.52333
    17  N   5.0   -0.09    3.64    2.20   -15.02143    46.15278     7.75166
    18  C   4.0    0.04    4.55    4.60   -14.33357    48.26360     9.43351
    19  C   4.0    0.15    3.40    3.08   -16.09291    48.30895    11.71252
    20  O   6.0   -0.30    1.25    1.80   -18.29822    47.59653    11.47064
    21  C   4.0   -0.04    4.35    4.30   -14.71530    50.62009     7.77811
    22  C   4.0   -0.03    4.30    4.21   -15.27277    49.67145     5.17218
    23  C   4.0   -0.01    4.35    4.28   -16.30078    47.08063     5.45942
    24  H   1.0    0.06    1.05    1.44   -12.36259    48.16156    10.02122
    25  H   1.0    0.05    1.03    1.43   -16.29511    51.72558     8.50377
    26  H   1.0    0.03    1.03    1.43   -12.99754    51.75581     7.78756
    27  H   1.0    0.06    1.03    1.43   -16.65793    50.90355     4.27456
    28  H   1.0    0.05    1.03    1.43   -13.53611    49.64121     4.06669
    29  H   1.0    0.05    1.02    1.43   -18.34357    47.12410     5.72398
    30  H   1.0    0.05    1.02    1.43   -15.82645    45.91467     3.82858
    31  N   5.0   -0.14    3.42    2.03   -15.12348    49.04595    13.93484
    32  C   4.0    0.04    4.47    4.50   -16.66171    49.09508    16.23653
    33  C   4.0    0.14    3.42    3.09   -16.60691    51.69912    17.45918
    34  O   6.0   -0.32    1.30    1.80   -14.56979    52.65154    18.05255
    35  C   4.0   -0.01    4.24    4.08   -15.93795    46.92945    18.07901
    36  C   4.0   -0.07    4.11    3.83   -17.05478    47.33008    20.71140
    37  C   4.0   -0.06    4.10    3.79   -16.73541    44.37077    17.01509
    38  H   1.0    0.12    1.09    1.44   -13.29800    49.61098    14.18806
    39  H   1.0    0.05    1.08    1.44   -18.63081    48.83241    15.69606
    40  H   1.0    0.06    1.06    1.44   -13.88760    46.94079    18.28121
    41  H   1.0    0.05    1.00    1.43   -16.49164    45.76349    21.92460
    42  H   1.0    0.06    1.00    1.43   -16.34235    49.10264    21.47863
    43  H   1.0    0.05    1.00    1.43   -19.10891    47.40189    20.56400
    44  H   1.0    0.05    1.00    1.43   -16.20251    42.89489    18.34924
    45  H   1.0    0.05    1.00    1.43   -18.77632    44.36510    16.74108
    46  H   1.0    0.07    1.00    1.43   -15.78299    44.06652    15.21418
    47  N   5.0   -0.15    3.43    2.03   -18.83490    52.86319    17.80878
    48  C   4.0    0.04    4.51    4.54   -18.92183    55.34440    19.00119
    49  C   4.0    0.15    3.39    3.08   -19.17127    55.00803    21.83767
    50  O   6.0   -0.29    1.21    1.80   -21.06478    53.99892    22.74285
    51  C   4.0   -0.02    4.30    4.20   -20.85313    57.22468    17.84468
    52  C   4.0   -0.05    4.22    4.04   -20.50920    57.42310    14.96096
    53  C   4.0   -0.06    4.11    3.83   -20.58478    59.81172    19.11836
    54  C   4.0   -0.07    4.05    3.71   -22.62380    58.57961    13.60792
    55  H   1.0    0.08    1.05    1.44   -20.54699    52.14321    17.29666
    56  H   1.0    0.06    1.09    1.44   -17.10580    56.24958    18.64782
    57  H   1.0    0.05    1.06    1.44   -22.75608    56.51603    18.18861
    58  H   1.0    0.04    1.04    1.43   -18.83679    58.56261    14.58113
    59  H   1.0    0.04    1.04    1.43   -20.25597    55.52393    14.20318
    60  H   1.0    0.04    1.00    1.43   -21.94917    61.11185    18.28877
    61  H   1.0    0.06    1.00    1.43   -20.94572    59.60574    21.13658
    62  H   1.0    0.06    1.00    1.43   -18.67238    60.51280    18.81600
    63  H   1.0    0.06    1.01    1.43   -22.18727    58.62686    11.59536
    64  H   1.0    0.05    1.01    1.43   -24.32077    57.45901    13.93295
    65  H   1.0    0.05    1.01    1.43   -22.90159    60.49580    14.31089
    66  N   5.0   -0.14    3.44    2.04   -17.21351    55.83006    23.20961
    67  C   4.0    0.03    4.34    4.28   -16.99242    55.67511    25.95917
    68  C   4.0    0.15    3.33    3.06   -18.13570    58.02404    27.29331
    69  O   6.0   -0.28    1.21    1.80   -19.61536    57.73302    29.07532
    70  C   4.0   -0.05    4.23    4.07   -14.22019    55.22346    26.70183
    71  C   4.0   -0.05    4.16    3.93   -12.96163    52.94067    25.37524
    72  C   4.0   -0.01    4.20    4.00   -13.56256    50.35364    26.49018
    73  N   5.0   -0.14    3.39    2.02   -12.62904    50.08719    29.08099
    74  C   4.0    0.10    3.35    3.06   -14.02555    50.46135    31.13701
    75  N   5.0   -0.17    3.27    1.97   -16.44251    51.10575    30.92914
    76  N   5.0   -0.18    3.24    1.96   -13.01643    50.19868    33.41413
    77  H   1.0    0.09    1.07    1.44   -15.66394    56.65965    22.41971
    78  H   1.0    0.06    1.06    1.44   -18.05822    54.04994    26.64136
    79  H   1.0    0.04    1.03    1.43   -13.12982    56.90154    26.21617
    80  H   1.0    0.05    1.03    1.43   -14.13137    54.88898    28.73139
    81  H   1.0    0.05    1.03    1.43   -13.57768    52.91422    23.40993
    82  H   1.0    0.04    1.03    1.43   -10.91884    53.18445    25.46973
    83  H   1.0    0.05    1.04    1.43   -15.60536    50.08530    26.51474
    84  H   1.0    0.04    1.02    1.43   -12.67439    48.89666    25.33556
    85  H   1.0    0.08    1.06    1.44   -10.78467    49.58074    29.32477
    86  H   1.0    0.09    1.04    1.43   -17.23808    51.31551    29.18493
    87  H   1.0    0.10    1.02    1.43   -17.50453    51.38921    32.51273
    88  H   1.0    0.09    1.02    1.43   -11.16072    49.70735    33.59555
    89  H   1.0    0.09    1.03    1.43   -14.09547    50.48781    34.98450
    90  N   5.0   -0.13    3.44    2.04   -17.46107    60.31816    26.42782
    91  C   4.0    0.04    4.40    4.38   -18.48530    62.68788    27.39725
    92  C   4.0    0.15    3.41    3.08   -19.70417    64.01069    25.14847
    93  O   6.0   -0.31    1.29    1.80   -18.48530    64.38107    23.19450
    94  C   4.0   -0.04    4.24    4.08   -16.42550    64.32627    28.63880
    95  C   4.0   -0.03    4.22    4.03   -17.44973    66.62796    30.07310
    96  C   4.0    0.15    3.22    3.04   -18.91427    65.94010    32.42770
    97  O   6.0   -0.27    1.20    1.80   -17.86358    65.03492    34.30608
    98  N   5.0   -0.18    3.18    1.95   -21.37469    66.39552    32.38423
    99  H   1.0    0.09    1.06    1.44   -16.17416    60.58083    25.01808
   100  H   1.0    0.06    1.06    1.44   -19.90259    62.34962    28.85234
   101  H   1.0    0.05    1.04    1.43   -15.38048    63.16598    29.98239
   102  H   1.0    0.04    1.03    1.43   -15.15749    65.01791    27.17048
   103  H   1.0    0.05    1.04    1.43   -15.86614    67.81848    30.64002
   104  H   1.0    0.05    1.04    1.43   -18.71207    67.67865    28.82966
   105  H   1.0    0.09    1.03    1.43   -22.18349    67.17031    30.81576
   106  H   1.0    0.10    1.02    1.43   -22.46128    65.97033    33.91869
   107  N   5.0   -0.13    3.35    2.00   -22.13625    64.55871    25.39036
   108  C   4.0    0.01    4.26    4.11   -23.62535    65.73412    23.38914
   109  C   4.0    0.15    3.37    3.07   -24.46250    68.41186    23.95984
   110  O   6.0   -0.28    1.25    1.80   -24.05432    69.32082    26.07066
   111  H   1.0    0.08    1.06    1.44   -23.15859    64.20533    26.98529
   112  H   1.0    0.05    1.04    1.43   -22.50286    65.77758    21.66193
   113  H   1.0    0.04    1.04    1.44   -25.31477    64.60028    23.06222
   114  N   5.0   -0.08    3.63    2.19   -25.64169    69.75356    22.12680
   115  C   4.0    0.04    4.57    4.63   -26.43160    72.37083    22.62947
   116  C   4.0    0.15    3.41    3.08   -28.32132    72.53902    24.79320
   117  O   6.0   -0.29    1.25    1.80   -29.87846    70.84016    25.08422
   118  C   4.0   -0.05    4.37    4.32   -27.55409    73.23255    20.09724
   119  C   4.0   -0.03    4.30    4.19   -28.30432    70.84772    18.78388
   120  C   4.0   -0.01    4.35    4.29   -26.28042    68.99578    19.52087
   121  H   1.0    0.06    1.05    1.44   -24.80265    73.54435    23.08867
   122  H   1.0    0.04    1.03    1.43   -29.19060    74.43819    20.42983
   123  H   1.0    0.04    1.03    1.43   -26.13302    74.25678    19.01253
   124  H   1.0    0.06    1.03    1.43   -30.15625    70.22789    19.43961
   125  H   1.0    0.05    1.03    1.43   -28.34022    71.13873    16.74486
   126  H   1.0    0.04    1.03    1.43   -26.99851    67.06637    19.47363
   127  H   1.0    0.04    1.03    1.43   -24.64203    69.16775    18.28499
   128  N   5.0   -0.14    3.42    2.03   -28.09267    74.49111    26.38813
   129  C   4.0    0.03    4.49    4.52   -29.81043    74.80291    28.52163
   130  C   4.0    0.15    3.38    3.07   -31.63968    76.96098    28.03408
   131  O   6.0   -0.31    1.25    1.80   -30.88757    79.00566    27.22339
   132  C   4.0   -0.02    4.24    4.08   -28.55187    74.94275    31.17103
   133  C   4.0   -0.07    4.10    3.79   -27.69204    72.33493    32.03463
   134  C   4.0   -0.06    4.10    3.81   -26.36924    76.81736    31.25607
   135  H   1.0    0.08    1.05    1.44   -26.74718    75.86305    26.24073
   136  H   1.0    0.06    1.09    1.44   -30.92537    73.07192    28.57455
   137  H   1.0    0.05    1.06    1.44   -29.97672    75.63250    32.49006
   138  H   1.0    0.04    1.00    1.43   -26.81899    72.49745    33.89223
   139  H   1.0    0.04    1.00    1.43   -29.32855    71.08771    32.13479
   140  H   1.0    0.06    1.00    1.43   -26.32766    71.59605    30.67970
   141  H   1.0    0.05    1.00    1.43   -25.56799    76.82870    33.15335
   142  H   1.0    0.05    1.00    1.43   -24.93682    76.24099    29.89169
   143  H   1.0    0.06    1.00    1.43   -27.07788    78.69197    30.78175
   144  N   5.0   -0.13    3.46    2.06   -34.07554    76.43375    28.48384
   145  C   4.0    0.03    4.37    4.33   -36.22227    78.15529    28.16070
   146  C   4.0    0.15    3.41    3.08   -35.79708    80.56469    29.66492
   147  O   6.0   -0.27    1.23    1.80   -34.79552    80.44563    31.77574
   148  C   4.0   -0.03    4.32    4.24   -38.68647    76.90051    29.07154
   149  C   4.0    0.15    3.27    3.05   -38.95292    74.15474    28.38179
   150  O   6.0   -0.30    1.26    1.80   -39.90723    73.50656    26.36168
   151  N   5.0   -0.18    3.26    1.97   -38.08932    72.49367    30.04286
   152  H   1.0    0.08    1.10    1.44   -34.66324    74.71032    29.11690
   153  H   1.0    0.05    1.05    1.44   -36.41313    78.61449    26.16137
   154  H   1.0    0.06    1.04    1.43   -38.76773    77.03279    31.12568
   155  H   1.0    0.06    1.03    1.43   -40.27951    77.90584    28.23817
   156  H   1.0    0.08    1.23    1.47   -38.21971    70.60583    29.67437
   157  H   1.0    0.08    1.03    1.43   -37.29374    73.10216    31.68881
   158  N   5.0   -0.13    3.40    2.02   -36.54541    82.74354    28.58399
   159  C   4.0    0.04    4.29    4.18   -36.28085    85.20018    29.83688
   160  C   4.0    0.09    3.20    3.04   -38.07042    87.22597    28.86367
   161  O   6.0   -0.26    1.12    1.80   -38.77718    87.26376    26.64703
   162  C   4.0   -0.02    4.28    4.17   -33.54642    86.17528    29.82177
   163  C   4.0   -0.02    4.25    4.11   -32.21416    86.09025    27.29520
   164  C   4.0    0.16    3.25    3.04   -29.41358    86.18662    27.70149
   165  O   6.0   -0.26    1.20    1.80   -28.32510    88.20485    28.20038
   166  N   5.0   -0.17    3.18    1.95   -28.20038    83.98887    27.57110
   167  H   1.0    0.09    1.06    1.44   -37.34476    82.85692    26.83411
   168  H   1.0    0.06    1.07    1.44   -36.88556    84.86192    31.77763
   169  H   1.0    0.06    1.03    1.43   -33.55775    88.14060    30.44160
   170  H   1.0    0.07    1.04    1.43   -32.44470    85.03011    31.13324
   171  H   1.0    0.06    1.04    1.43   -32.68470    84.34036    26.31632
   172  H   1.0    0.07    1.03    1.43   -32.77730    87.70974    26.15381
   173  H   1.0    0.11    1.05    1.44   -29.17926    82.36748    27.21205
   174  H   1.0    0.11    1.02    1.43   -26.29176    83.92462    27.82999
   175  N   5.0   -0.18    3.20    1.96   -22.44239    89.65238    22.50853
   176  C   4.0    0.03    4.36    4.31   -20.59045    87.80423    21.60146
   177  C   4.0    0.15    3.38    3.07   -21.74697    85.14349    21.81878
   178  O   6.0   -0.29    1.22    1.80   -22.83167    84.51232    23.79354
   179  C   4.0   -0.02    4.25    4.09   -18.02232    87.97808    23.00552
   180  C   4.0   -0.07    4.11    3.82   -16.11180    86.12804    21.89625
   181  C   4.0   -0.06    4.11    3.81   -16.95651    90.65771    22.95828
   182  H   1.0    0.11    1.02    1.43   -22.97151    89.35758    24.33778
   183  H   1.0    0.06    1.06    1.44   -20.21818    88.17839    19.60969
   184  H   1.0    0.06    1.06    1.44   -18.35869    87.47163    24.97273
   185  H   1.0    0.05    1.00    1.43   -14.33546    86.30000    22.92427
   186  H   1.0    0.05    1.00    1.43   -16.84691    84.21375    22.08145
   187  H   1.0    0.05    1.00    1.43   -15.81890    86.57779    19.90826
   188  H   1.0    0.05    1.00    1.43   -15.15938    90.68228    23.96550
   189  H   1.0    0.05    1.00    1.43   -16.67305    91.23219    21.00052
   190  H   1.0    0.06    1.00    1.43   -18.29255    91.92761    23.87669
   191  N   5.0   -0.14    3.43    2.04   -21.51642    83.60148    19.80244
   192  C   4.0    0.03    4.39    4.37   -22.41971    80.99932    19.77787
   193  C   4.0    0.14    3.39    3.08   -20.20117    79.23432    19.25064
   194  O   6.0   -0.31    1.26    1.80   -19.29221    79.10771    17.11903
   195  C   4.0   -0.04    4.36    4.30   -24.54376    80.66106    17.83145
   196  C   4.0   -0.02    4.21    4.02   -27.06088    81.90072    18.48719
   197  C   4.0   -0.07    4.11    3.83   -28.79753    81.98954    16.22141
   198  C   4.0   -0.07    4.12    3.84   -28.32132    80.57602    20.68116
   199  H   1.0    0.11    1.10    1.44   -20.69439    84.13438    18.14326
   200  H   1.0    0.05    1.07    1.44   -23.15103    80.53256    21.64681
   201  H   1.0    0.05    1.03    1.43   -23.91259    81.46798    16.04377
   202  H   1.0    0.04    1.03    1.43   -24.89525    78.64472    17.60847
   203  H   1.0    0.06    1.06    1.44   -26.68671    83.84336    19.05789
   204  H   1.0    0.05    1.00    1.43   -30.57010    82.88527    16.76943
   205  H   1.0    0.04    1.00    1.43   -27.89236    83.07802    14.72474
   206  H   1.0    0.04    1.00    1.43   -29.15469    80.06769    15.57323
   207  H   1.0    0.05    1.00    1.43   -30.10900    81.51333    21.09312
   208  H   1.0    0.04    1.00    1.43   -28.65958    78.60882    20.17282
   209  H   1.0    0.05    1.00    1.43   -27.08355    80.67240    22.32333
   210  N   5.0   -0.13    3.44    2.04   -19.25064    77.97009    21.21973
   211  C   4.0    0.04    4.39    4.37   -17.10013    76.25989    20.97974
   212  C   4.0    0.15    3.38    3.07   -17.89570    73.51412    20.70195
   213  O   6.0   -0.29    1.23    1.80   -20.07456    72.85649    21.16115
   214  C   4.0    0.03    4.14    3.88   -15.19529    76.62839    23.11513
   215  O   6.0   -0.24    2.04    1.83   -16.39715    76.86460    25.49996
   216  H   1.0    0.09    1.06    1.44   -19.94039    78.09859    23.01497
   217  H   1.0    0.06    1.08    1.44   -16.11936    76.72476    19.22985
   218  H   1.0    0.04    1.02    1.43   -13.93673    74.99755    23.16804
   219  H   1.0    0.04    1.02    1.43   -14.11247    78.34237    22.74663
   220  H   1.0    0.12    1.01    1.43   -15.12726    77.09893    26.82844
   221  N   5.0   -0.14    3.47    2.06   -16.11936    71.93242    19.86480
   222  C   4.0    0.04    4.48    4.51   -16.51054    69.27357    19.32245
   223  C   4.0    0.14    3.39    3.08   -14.02366    67.81282    19.26765
   224  O   6.0   -0.30    1.22    1.80   -12.24353    68.56871    17.94673
   225  C   4.0   -0.02    4.21    4.02   -17.91649    68.99200    16.83557
   226  S   6.0   -0.03    2.42    3.10   -19.96118    66.27836    16.74108
   227  H   1.0    0.10    1.08    1.44   -14.30145    72.47666    19.53032
   228  H   1.0    0.06    1.09    1.44   -17.60469    68.44209    20.85691
   229  H   1.0    0.05    1.08    1.44   -19.07489    70.66819    16.53321
   230  H   1.0    0.05    1.08    1.44   -16.54266    68.80114    15.31245
   231  N   5.0   -0.14    3.43    2.04   -13.91972    65.69632    20.67927
   232  C   4.0    0.04    4.46    4.48   -11.70685    64.03336    20.83423
   233  C   4.0    0.14    3.42    3.08   -12.40416    61.42743    19.79488
   234  O   6.0   -0.31    1.25    1.80   -14.25231    60.29738    20.66604
   235  C   4.0   -0.02    4.26    4.13   -10.66183    63.87463    23.55732
   236  C   4.0   -0.08    4.13    3.86    -8.64361    61.84695    23.77086
   237  C   4.0   -0.07    4.11    3.82    -9.62815    66.41064    24.42471
   238  H   1.0    0.11    1.10    1.44   -15.38993    65.07838    21.76208
   239  H   1.0    0.06    1.07    1.44   -10.22342    64.78170    19.61725
   240  H   1.0    0.04    1.06    1.44   -12.22086    63.36251    24.80265
   241  H   1.0    0.03    1.00    1.43    -7.95386    61.79026    25.71161
   242  H   1.0    0.05    1.01    1.43    -9.46564    60.02714    23.26253
   243  H   1.0    0.04    1.00    1.43    -7.09781    62.30237    22.48774
   244  H   1.0    0.04    1.00    1.43    -8.91195    66.22167    26.34656
   245  H   1.0    0.06    1.00    1.43    -8.10503    66.98134    23.16048
   246  H   1.0    0.05    1.00    1.43   -11.14371    67.80526    24.37369
   247  N   5.0   -0.14    3.43    2.04   -10.97364    60.49580    17.92405
   248  C   4.0    0.04    4.37    4.32   -11.49709    58.03159    16.82234
   249  C   4.0    0.14    3.39    3.08    -9.15005    56.38753    16.73163
   250  O   6.0   -0.29    1.23    1.80    -7.06002    57.32106    16.24786
   251  C   4.0   -0.07    4.11    3.83   -12.62715    58.31694    14.21263
   252  H   1.0    0.09    1.07    1.44    -9.45997    61.40853    17.15304
   253  H   1.0    0.06    1.08    1.44   -12.83691    57.03571    18.02988
   254  H   1.0    0.04    1.00    1.43   -12.99942    56.44611    13.43406
   255  H   1.0    0.04    1.00    1.43   -14.38459    59.38086    14.35625
   256  H   1.0    0.04    1.00    1.43   -11.29300    59.32417    13.01076
   257  N   5.0   -0.14    3.46    2.06    -9.50910    53.92522    17.20784
   258  C   4.0    0.04    4.45    4.47    -7.48709    52.05817    17.24186
   259  C   4.0    0.15    3.39    3.08    -7.73654    50.16655    15.09702
   260  O   6.0   -0.30    1.28    1.80    -9.84547    49.49003    14.36381
   261  C   4.0    0.05    4.22    4.05    -7.39072    50.71269    19.81378
   262  O   6.0   -0.24    2.09    1.84    -9.68862    49.35964    20.25597
   263  C   4.0   -0.07    4.07    3.74    -6.83703    52.51548    21.99263
   264  H   1.0    0.12    1.11    1.44   -11.23820    53.16177    17.58579
   265  H   1.0    0.05    1.07    1.44    -5.68619    53.01059    16.93950
   266  H   1.0    0.04    1.05    1.44    -5.82791    49.37098    19.76842
   267  H   1.0    0.11    1.01    1.43    -9.61493    48.50738    21.89814
   268  H   1.0    0.04    1.00    1.43    -6.78790    51.47802    23.77086
   269  H   1.0    0.04    1.00    1.43    -5.01533    53.43200    21.70350
   270  H   1.0    0.05    1.00    1.43    -8.30157    53.95923    22.10223
   271  N   5.0   -0.14    3.34    2.00    -5.57280    49.28594    14.16539
   272  C   4.0    0.02    4.25    4.09    -5.42918    47.38488    12.17739
   273  C   4.0    0.15    3.29    3.05    -2.96309    47.32819    10.72419
   274  O   6.0   -0.29    1.22    1.80    -1.44186    49.09508    10.86592
   275  H   1.0    0.08    1.06    1.44    -3.83614    49.86987    14.76632
   276  H   1.0    0.05    1.03    1.43    -5.69752    45.52539    13.02210
   277  H   1.0    0.06    1.03    1.43    -6.94285    47.73070    10.82246
   278  N   5.0   -0.14    3.45    2.05    -2.57003    45.25516     9.31257
   279  C   4.0    0.04    4.37    4.32    -0.41196    44.89611     7.64205
   280  C   4.0    0.15    3.46    3.10    -1.55335    44.43124     5.01533
   281  O   6.0   -0.29    1.25    1.80    -2.89506    42.55096     4.69975
   282  C   4.0    0.04    4.14    3.88     1.22643    42.68513     8.50377
   283  O   6.0   -0.24    2.02    1.83     3.75678    42.98560     7.66851
   284  H   1.0    0.09    1.06    1.44    -3.77000    43.74716     9.29934
   285  H   1.0    0.06    1.06    1.44     0.83337    46.53639     7.61749
   286  H   1.0    0.05    1.02    1.43     1.20565    42.59820    10.56168
   287  H   1.0    0.06    1.02    1.43     0.46487    40.94091     7.71764
   288  H   1.0    0.13    1.01    1.43     4.78479    41.55318     8.23543
   289  N   5.0   -0.09    3.60    2.16    -1.29257    46.18868     3.16718
   290  C   4.0    0.02    4.51    4.55     0.17763    48.56785     3.20309
   291  C   4.0    0.15    3.35    3.06    -1.02045    50.70513     4.75833
   292  O   6.0   -0.29    1.23    1.80    -3.12372    50.40466     5.71075
   293  C   4.0   -0.04    4.36    4.32     0.38361    49.23681     0.38928
   294  C   4.0   -0.05    4.30    4.19    -2.01823    48.23525    -0.71243
   295  C   4.0    0.00    4.37    4.33    -2.46987    45.78239     0.66707
   296  H   1.0    0.04    1.05    1.44     2.05980    48.23903     3.97409
   297  H   1.0    0.05    1.03    1.43     0.52156    51.27771     0.15118
   298  H   1.0    0.04    1.03    1.43     2.02768    48.31840    -0.44409
   299  H   1.0    0.05    1.03    1.43    -3.55646    49.56562    -0.37983
   300  H   1.0    0.04    1.03    1.43    -1.78768    47.91589    -2.73443
   301  H   1.0    0.05    1.02    1.43    -4.48810    45.41956     0.86360
   302  H   1.0    0.05    1.02    1.43    -1.56469    44.21581    -0.31747
   303  N   5.0   -0.14    3.42    2.03     0.34204    52.84997     5.00966
   304  C   4.0    0.04    4.47    4.49    -0.47243    55.06661     6.44963
   305  C   4.0    0.15    3.46    3.10    -2.86105    56.20801     5.26667
   306  O   6.0   -0.27    1.22    1.80    -2.74388    57.10941     3.11427
   307  C   4.0   -0.02    4.26    4.12     1.66674    57.02248     6.76711
   308  C   4.0   -0.06    4.11    3.83     0.85227    59.13519     8.53589
   309  C   4.0   -0.07    4.11    3.83     4.09126    55.76959     7.72142
   310  H   1.0    0.07    1.06    1.44     2.07492    53.09752     4.20275
   311  H   1.0    0.05    1.08    1.44    -0.99589    54.43545     8.33936
   312  H   1.0    0.06    1.06    1.44     2.07114    57.84640     4.92274
   313  H   1.0    0.05    1.00    1.43     2.39617    60.48446     8.72486
   314  H   1.0    0.07    1.00    1.43    -0.80502    60.06872     7.74599
   315  H   1.0    0.06    1.00    1.43     0.39495    58.33017    10.37649
   316  H   1.0    0.05    1.00    1.43     5.55390    57.20578     7.92173
   317  H   1.0    0.05    1.00    1.43     3.71709    54.88898     9.54501
   318  H   1.0    0.05    1.00    1.43     4.68841    54.34285     6.36082
   319  N   5.0   -0.09    3.61    2.17    -5.05502    56.08896     6.61026
   320  C   4.0    0.04    4.57    4.63    -7.42284    56.99980     5.48398
   321  C   4.0    0.16    3.38    3.07    -7.51544    59.80605     4.90006
   322  O   6.0   -0.30    1.26    1.80    -6.49121    61.37074     6.29657
   323  C   4.0   -0.05    4.37    4.33    -9.44107    56.21557     7.40962
   324  C   4.0   -0.04    4.30    4.20    -8.21464    54.23891     9.02344
   325  C   4.0   -0.00    4.36    4.31    -5.51800    55.01937     9.14816
   326  H   1.0    0.06    1.07    1.44    -7.69496    56.01148     3.69819
   327  H   1.0    0.04    1.03    1.43    -9.99665    57.84451     8.53967
   328  H   1.0    0.04    1.02    1.43   -11.08135    55.44834     6.42696
   329  H   1.0    0.05    1.03    1.43    -9.06879    54.22380    10.89805
   330  H   1.0    0.05    1.03    1.43    -8.41117    52.38698     8.14472
   331  H   1.0    0.06    1.02    1.43    -5.23076    56.44233    10.60892
   332  H   1.0    0.06    1.03    1.43    -4.29724    53.39610     9.49587
   333  N   5.0   -0.12    3.51    2.08    -8.70786    60.40131     2.75900
   334  C   4.0    0.04    4.46    4.48    -9.06879    62.97890     1.86516
   335  C   4.0    0.14    3.46    3.10   -11.60292    63.80282     2.88939
   336  O   6.0   -0.31    1.33    1.80   -13.39816    62.32694     2.82136
   337  C   4.0    0.06    4.24    4.07    -9.05935    63.06960    -1.03557
   338  O   6.0   -0.22    2.10    1.84    -7.04490    61.54459    -1.98043
   339  C   4.0   -0.06    4.07    3.74    -8.84014    65.75301    -2.05035
   340  H   1.0    0.11    1.10    1.44    -9.46753    59.08984     1.56847
   341  H   1.0    0.07    1.06    1.44    -7.57024    64.24690     2.48877
   342  H   1.0    0.05    1.05    1.44   -10.85837    62.33639    -1.71965
   343  H   1.0    0.12    1.01    1.43    -7.02789    61.59373    -3.83236
   344  H   1.0    0.05    1.00    1.43    -8.84014    65.73034    -4.11015
   345  H   1.0    0.05    1.00    1.43   -10.43129    66.88685    -1.39462
   346  H   1.0    0.07    1.00    1.43    -7.08836    66.61473    -1.39084
   347  N   5.0   -0.14    3.43    2.04   -11.77110    66.11962     3.85504
   348  C   4.0    0.04    4.47    4.49   -14.15783    67.04559     4.86982
   349  C   4.0    0.15    3.39    3.07   -15.37859    68.89941     3.03868
   350  O   6.0   -0.29    1.23    1.80   -14.15216    70.63229     2.09382
   351  C   4.0   -0.02    4.23    4.07   -13.94996    68.09816     7.63638
   352  C   4.0   -0.04    4.14    3.88   -12.45329    66.29159     9.42784
   353  C   4.0   -0.07    4.06    3.73   -16.55589    68.82760     8.77022
   354  C   4.0   -0.07    3.99    3.60   -13.45296    63.59873     9.74343
   355  H   1.0    0.11    1.08    1.44   -10.31034    67.37251     3.95709
   356  H   1.0    0.07    1.10    1.44   -15.42961    65.42987     4.98510
   357  H   1.0    0.05    1.06    1.44   -12.85392    69.83482     7.48143
   358  H   1.0    0.05    1.03    1.43   -10.53144    66.13096     8.70219
   359  H   1.0    0.04    1.03    1.43   -12.42873    67.14007    11.30434
   360  H   1.0    0.04    1.00    1.43   -16.27999    69.54003    10.68262
   361  H   1.0    0.06    1.00    1.43   -17.41382    70.28458     7.59481
   362  H   1.0    0.05    1.01    1.43   -17.76153    67.15708     8.81179
   363  H   1.0    0.04    1.00    1.43   -12.22275    62.57450    11.03789
   364  H   1.0    0.04    1.00    1.43   -15.36536    63.67810    10.50688
   365  H   1.0    0.05    1.00    1.43   -13.46808    62.66898     7.90472
   366  N   5.0   -0.13    3.48    2.06   -17.79366    68.47422     2.50767
   367  C   4.0    0.03    4.42    4.41   -19.33568    70.13718     0.95998
   368  C   4.0    0.14    3.42    3.08   -21.55421    70.98378     2.58703
   369  O   6.0   -0.31    1.32    1.80   -22.38758    69.60428     4.28401
   370  C   4.0   -0.05    4.34    4.27   -20.28999    68.81437    -1.45509
   371  C   4.0   -0.02    4.19    3.97   -18.52687    68.65941    -3.72843
   372  C   4.0   -0.07    4.12    3.84   -16.82801    70.98378    -3.94386
   373  C   4.0   -0.07    4.10    3.81   -17.06045    66.20655    -3.72843
   374  H   1.0    0.11    1.09    1.44   -18.76498    66.93598     3.14828
   375  H   1.0    0.05    1.07    1.44   -18.25664    71.77557     0.33070
   376  H   1.0    0.05    1.04    1.43   -20.76998    66.87551    -0.95242
   377  H   1.0    0.04    1.04    1.43   -21.97562    69.81593    -2.08626
   378  H   1.0    0.04    1.07    1.44   -19.67205    68.65752    -5.44052
   379  H   1.0    0.05    1.00    1.43   -15.61292    70.77591    -5.59359
   380  H   1.0    0.06    1.00    1.43   -18.00720    72.65996    -4.14795
   381  H   1.0    0.06    1.01    1.43   -15.68095    71.13495    -2.23933
   382  H   1.0    0.05    1.00    1.43   -15.82457    66.16308    -5.37627
   383  H   1.0    0.06    1.00    1.43   -15.93795    66.09694    -2.00500
   384  H   1.0    0.05    1.00    1.43   -18.38703    64.63241    -3.80402
   385  N   5.0   -0.14    3.47    2.06   -22.47640    73.26656     2.09004
   386  C   4.0    0.04    4.48    4.50   -24.58156    74.31914     3.47521
   387  C   4.0    0.14    3.44    3.09   -26.83600    74.65362     1.78579
   388  O   6.0   -0.33    1.30    1.80   -26.61490    75.54557    -0.34771
   389  C   4.0   -0.04    4.30    4.20   -23.82755    76.80602     4.73565
   390  C   4.0   -0.02    3.71    3.24   -21.98507    76.40729     6.82569
   391  C   4.0   -0.01    3.60    3.17   -19.42071    76.48666     6.65373
   392  C   4.0    0.01    3.89    3.44   -22.55766    75.63061     9.35036
   393  N   5.0   -0.12    3.50    2.07   -18.35491    75.92730     8.95163
   394  C   4.0    0.03    3.88    3.44   -20.24085    75.36605    10.63916
   395  C   4.0   -0.04    3.40    3.08   -24.80832    75.24889    10.68640
   396  C   4.0   -0.03    3.39    3.08   -20.11235    74.69709    13.19785
   397  C   4.0   -0.05    3.37    3.07   -24.67982    74.62528    13.22619
   398  C   4.0   -0.04    3.37    3.07   -22.35735    74.34560    14.45451
   399  H   1.0    0.09    1.06    1.44   -21.78476    74.43253     0.71999
   400  H   1.0    0.07    1.08    1.44   -25.15981    73.01145     4.95864
   401  H   1.0    0.04    1.03    1.43   -22.95639    78.04001     3.33348
   402  H   1.0    0.04    1.03    1.43   -25.50752    77.70553     5.51800
   403  H   1.0    0.05    1.01    1.43   -18.37570    76.92507     4.95675
   404  H   1.0    0.09    1.06    1.44   -16.46707    75.92919     9.34092
   405  H   1.0    0.06    1.03    1.43   -26.61301    75.43786     9.75288
   406  H   1.0    0.07    1.02    1.43   -18.31900    74.46654    14.14460
   407  H   1.0    0.05    1.03    1.43   -26.40703    74.34938    14.27688
   408  H   1.0    0.06    1.03    1.43   -22.32711    73.84293    16.43306
   409  N   5.0   -0.14    3.52    2.09   -29.01485    73.95631     2.74766
   410  C   4.0    0.04    4.45    4.46   -31.33544    74.18686     1.33415
   411  C   4.0    0.14    3.43    3.09   -33.14012    75.77234     2.87805
   412  O   6.0   -0.32    1.31    1.80   -33.37823    75.34526     5.15706
   413  C   4.0   -0.04    4.33    4.26   -32.43148    71.54880     0.93352
   414  C   4.0   -0.05    4.20    3.99   -34.11333    71.29180    -1.36249
   415  C   4.0   -0.01    4.24    4.08   -35.11111    68.61784    -1.57792
   416  N   5.0   -0.13    3.42    2.03   -36.71738    67.98478     0.58204
   417  C   4.0    0.10    3.35    3.06   -36.79863    65.72467     1.66674
   418  N   5.0   -0.18    3.29    1.98   -35.38701    63.84628     0.79180
   419  N   5.0   -0.18    3.30    1.98   -38.29152    65.32216     3.63772
   420  H   1.0    0.11    1.09    1.44   -29.23406    73.21932     4.51456
   421  H   1.0    0.06    1.07    1.44   -31.04442    75.10149    -0.48944
   422  H   1.0    0.04    1.04    1.43   -30.87434    70.21844     0.71432
   423  H   1.0    0.06    1.04    1.43   -33.55586    71.04992     2.58515
   424  H   1.0    0.05    1.03    1.43   -35.71393    72.57870    -1.19431
   425  H   1.0    0.04    1.03    1.43   -33.03430    71.72833    -3.06136
   426  H   1.0    0.05    1.03    1.43   -36.22983    68.44020    -3.29757
   427  H   1.0    0.04    1.04    1.43   -33.53130    67.29692    -1.62516
   428  H   1.0    0.08    1.06    1.44   -37.84743    69.36995     1.30013
   429  H   1.0    0.08    1.04    1.43   -34.23050    64.13541    -0.72377
   430  H   1.0    0.11    1.07    1.44   -35.45882    62.11340     1.63461
   431  H   1.0    0.09    1.03    1.43   -39.38378    66.75268     4.32747
   432  H   1.0    0.07    1.22    1.47   -38.34821    63.58172     4.46542
   433  N   5.0   -0.14    3.46    2.05   -34.37223    77.62994     1.67997
   434  C   4.0    0.04    4.31    4.22   -36.30164    79.15306     2.92719
   435  C   4.0    0.07    3.27    3.05   -38.72615    78.72598     1.49288
   436  O   6.0   -0.29    1.15    1.80   -38.88111    79.29857    -0.77101
   437  C   4.0   -0.04    4.23    4.05   -35.56086    81.95552     3.12183
   438  C   4.0   -0.04    4.23    4.06   -37.75672    83.85848     3.14450
   439  C   4.0   -0.04    4.17    3.95   -39.22882    84.02477     5.59170
   440  C   4.0   -0.03    4.16    3.91   -40.54785    86.54756     5.73532
   441  N   5.0   -0.11    4.01    2.89   -42.47915    86.92550     3.72465
   442  H   1.0    0.12    1.12    1.45   -34.06420    78.11560    -0.16063
   443  H   1.0    0.07    1.07    1.44   -36.57187    78.54646     4.87738
   444  H   1.0    0.04    1.03    1.43   -34.50829    82.22198     4.87171
   445  H   1.0    0.05    1.03    1.43   -34.37034    82.42040     1.50611
   446  H   1.0    0.05    1.04    1.43   -36.99328    85.73309     2.76467
   447  H   1.0    0.06    1.04    1.43   -39.08898    83.32747     1.66674
   448  H   1.0    0.05    1.03    1.43   -40.64423    82.53000     5.65973
   449  H   1.0    0.05    1.03    1.43   -37.94381    83.85281     7.19230
   450  H   1.0    0.05    1.02    1.43   -41.49838    86.69874     7.55701
   451  H   1.0    0.05    1.03    1.43   -39.14378    88.04233     5.54824
   452  H   1.0    0.07    1.01    1.43   -43.31819    88.69051     3.92307
   453  H   1.0    0.06    1.02    1.43   -41.63633    86.81590     1.95398
   454  H   1.0    0.06    1.01    1.43   -43.86810    85.54033     3.85693
   455  N   5.0   -0.21    3.14    1.94   -41.10721    73.71065    -0.88061
   456  C   4.0    0.01    4.18    3.96   -40.79351    72.10060    -3.09159
   457  C   4.0    0.14    3.32    3.06   -39.44992    73.27601    -5.30824
   458  O   6.0   -0.31    1.26    1.80   -39.68047    72.38217    -7.44552
   459  H   1.0    0.09    1.02    1.43   -39.86188    73.31381     0.53668
   460  H   1.0    0.05    1.03    1.43   -39.72204    70.43198    -2.53412
   461  H   1.0    0.05    1.04    1.43   -42.65867    71.51479    -3.73977
   462  N   5.0   -0.14    3.51    2.09   -38.04396    75.26023    -4.80179
   463  C   4.0    0.04    4.48    4.51   -36.57943    76.61327    -6.67640
   464  C   4.0    0.14    3.42    3.08   -33.98672    77.21420    -5.54446
   465  O   6.0   -0.31    1.31    1.80   -33.83932    78.21009    -3.42985
   466  C   4.0   -0.01    4.26    4.11   -38.07420    78.92629    -7.65150
   467  C   4.0   -0.06    4.12    3.85   -36.35833    81.14861    -8.30912
   468  C   4.0   -0.06    4.10    3.80   -39.70125    78.17796    -9.90594
   469  H   1.0    0.10    1.09    1.44   -37.87011    76.01234    -3.03490
   470  H   1.0    0.05    1.08    1.44   -36.16558    75.45487    -8.32802
   471  H   1.0    0.06    1.06    1.44   -39.30252    79.57258    -6.13027
   472  H   1.0    0.06    1.00    1.43   -37.51673    82.71330    -8.98187
   473  H   1.0    0.07    1.00    1.43   -35.32087    81.71742    -6.62349
   474  H   1.0    0.06    1.00    1.43   -35.04119    80.56658    -9.78122
   475  H   1.0    0.05    1.00    1.43   -40.73871    79.83147   -10.56357
   476  H   1.0    0.05    1.00    1.43   -38.48238    77.47121   -11.40828
   477  H   1.0    0.06    1.00    1.43   -41.02028    76.70776    -9.32202
   478  N   5.0   -0.14    3.39    2.02   -31.95338    76.50178    -6.92018
   479  C   4.0    0.03    4.39    4.36   -29.33611    76.87594    -6.08870
   480  C   4.0    0.16    3.42    3.08   -28.74462    79.62171    -5.57091
   481  O   6.0   -0.28    1.22    1.80   -29.28130    81.26011    -7.14127
   482  C   4.0   -0.04    4.35    4.29   -27.39536    75.78746    -7.95764
   483  C   4.0   -0.03    4.19    3.98   -26.73584    72.98689    -7.72898
   484  C   4.0   -0.08    4.10    3.80   -25.32989    72.06659   -10.08169
   485  C   4.0   -0.07    4.12    3.84   -25.15981    72.46721    -5.40840
   486  H   1.0    0.07    1.06    1.44   -32.07432    75.64762    -8.64361
   487  H   1.0    0.05    1.07    1.44   -29.14713    75.82903    -4.32558
   488  H   1.0    0.05    1.04    1.43   -28.12857    76.07092    -9.86059
   489  H   1.0    0.06    1.04    1.43   -25.63791    76.83248    -7.71764
   490  H   1.0    0.04    1.06    1.44   -28.50085    71.93998    -7.55323
   491  H   1.0    0.04    1.00    1.43   -24.88769    70.06726    -9.85870
   492  H   1.0    0.04    1.00    1.43   -26.53175    72.34060   -11.73142
   493  H   1.0    0.05    1.00    1.43   -23.59134    73.15129   -10.29145
   494  H   1.0    0.04    1.00    1.43   -24.73651    70.45276    -5.32336
   495  H   1.0    0.05    1.00    1.43   -23.40993    73.54813    -5.52934
   496  H   1.0    0.06    1.01    1.43   -26.22184    73.03413    -3.73599
   497  N   5.0   -0.13    3.47    2.06   -27.66559    80.10170    -3.33915
   498  C   4.0    0.04    4.48    4.51   -26.90592    82.57913    -2.44908
   499  C   4.0    0.16    3.41    3.08   -24.89714    83.64305    -4.23677
   500  O   6.0   -0.28    1.21    1.80   -23.05655    82.33158    -4.85471
   501  C   4.0   -0.02    4.29    4.17   -26.03475    82.40150     0.31936
   502  C   4.0   -0.07    4.13    3.87   -24.73840    84.81090     1.14517
   503  C   4.0   -0.07    4.11    3.82   -28.26463    81.82135     2.05980
   504  H   1.0    0.10    1.10    1.44   -27.27630    78.72976    -2.04279
   505  H   1.0    0.05    1.06    1.44   -28.49896    83.88493    -2.49255
   506  H   1.0    0.05    1.06    1.44   -24.67604    80.85948     0.46676
   507  H   1.0    0.04    1.00    1.43   -24.15070    84.61626     3.10860
   508  H   1.0    0.06    1.01    1.43   -23.09434    85.13215    -0.05291
   509  H   1.0    0.05    1.00    1.43   -26.05932    86.38126     0.95998
   510  H   1.0    0.04    1.00    1.43   -27.58811    81.70797     4.00244
   511  H   1.0    0.04    1.00    1.43   -29.65925    83.32747     1.88784
   512  H   1.0    0.05    1.00    1.43   -29.09989    80.02422     1.50233
   513  N   5.0   -0.13    3.38    2.01   -25.33745    85.98820    -5.15706
   514  C   4.0    0.05    4.25    4.10   -23.72173    87.27888    -7.02222
   515  C   4.0    0.11    3.22    3.04   -20.99863    87.70029    -6.18885
   516  O   6.0   -0.26    1.19    1.80   -20.45817    88.48453    -4.05157
   517  C   4.0    0.04    4.14    3.88   -24.88391    89.77521    -7.90283
   518  O   6.0   -0.21    2.04    1.83   -24.50597    91.74997    -6.13405
   519  H   1.0    0.09    1.06    1.44   -26.84356    87.06723    -4.62794
   520  H   1.0    0.06    1.06    1.44   -23.62157    85.98820    -8.62471
   521  H   1.0    0.06    1.01    1.43   -24.01086    90.31378    -9.68862
   522  H   1.0    0.05    1.02    1.43   -26.90970    89.50309    -8.16362
   523  H   1.0    0.14    1.01    1.43   -25.27319    93.31467    -6.75955
   524  N   5.0   -0.19    3.20    1.96   -12.15661    87.74565     4.64873
   525  C   4.0    0.04    4.19    3.99   -11.68229    85.07357     5.17974
   526  C   4.0    0.10    3.19    3.03    -8.92896    84.83925     6.05846
   527  O   6.0   -0.25    1.13    1.80    -7.33025    83.72242     4.74888
   528  C   4.0   -0.02    4.25    4.10   -12.24731    83.42006     2.84215
   529  C   4.0   -0.04    4.20    4.01   -15.04222    83.35014     2.05602
   530  C   4.0    0.15    3.21    3.04   -15.84346    85.35514     0.16063
   531  O   6.0   -0.26    1.22    1.80   -14.43751    87.09180    -0.53857
   532  N   5.0   -0.17    3.20    1.96   -18.15649    85.14727    -0.73321
   533  H   1.0    0.12    1.03    1.43   -11.57457    88.25398     2.88372
   534  H   1.0    0.05    1.05    1.44   -12.94651    84.39516     6.65750
   535  H   1.0    0.08    1.03    1.43   -11.17206    84.15328     1.24533
   536  H   1.0    0.06    1.03    1.43   -11.66906    81.48687     3.25222
   537  H   1.0    0.05    1.03    1.43   -15.43150    81.51522     1.20753
   538  H   1.0    0.04    1.03    1.43   -16.19684    83.60526     3.74166
   539  H   1.0    0.08    1.03    1.43   -19.29032    83.70352    -0.14740
   540  H   1.0    0.14    1.08    1.44   -18.81411    86.43040    -2.01256
   541  N   5.0   -0.17    3.26    1.97    -4.92463    81.89316    10.21964
   542  C   4.0    0.03    4.29    4.18    -3.48088    79.56502    10.08358
   543  C   4.0    0.16    3.43    3.09    -5.31958    77.47309     9.28422
   544  O   6.0   -0.29    1.28    1.80    -7.60804    77.93986     9.12927
   545  C   4.0   -0.05    4.28    4.17    -2.39428    79.05669    12.73864
   546  C   4.0   -0.03    4.18    3.97    -0.11149    77.31625    12.85392
   547  C   4.0    0.26    3.12    3.03    -0.67652    74.66118    13.77232
   548  O   6.0   -0.27    1.18    1.80    -2.26389    74.35127    15.50520
   549  O   6.0   -0.25    1.18    1.80     0.52723    72.88295    12.78022
   550  H   1.0    0.10    1.04    1.43    -6.64239    81.63049    11.05301
   551  H   1.0    0.06    1.05    1.44    -1.95398    79.62927     8.70219
   552  H   1.0    0.05    1.03    1.43    -1.82736    80.85948    13.55689
   553  H   1.0    0.06    1.05    1.44    -3.87394    78.19686    13.88571
   554  H   1.0    0.06    1.04    1.43     0.68975    77.15940    10.96230
   555  H   1.0    0.06    1.03    1.43     1.27368    78.13450    14.14082
   556  N   5.0   -0.12    3.46    2.05    -4.33881    75.20164     8.72297
   557  C   4.0    0.04    4.41    4.40    -5.93752    73.06247     8.09370
   558  C   4.0    0.15    3.44    3.09    -7.22631    72.38406    10.59758
   559  O   6.0   -0.28    1.25    1.80    -5.95642    71.57715    12.38148
   560  C   4.0   -0.02    4.33    4.25    -4.32558    70.87417     7.10726
   561  C   4.0    0.16    3.22    3.04    -5.77500    68.68209     6.00555
   562  O   6.0   -0.29    1.24    1.80    -6.89183    68.86539     3.96653
   563  N   5.0   -0.17    3.20    1.96    -5.59926    66.49568     7.21875
   564  H   1.0    0.09    1.06    1.44    -2.45286    74.80858     8.69463
   565  H   1.0    0.06    1.05    1.44    -7.30946    73.48766     6.61782
   566  H   1.0    0.07    1.03    1.43    -3.08781    71.59605     5.62760
   567  H   1.0    0.07    1.04    1.43    -3.20120    70.14096     8.67006
   568  H   1.0    0.12    1.06    1.44    -6.54034    64.94799     6.55735
   569  H   1.0    0.10    1.03    1.43    -4.52400    66.36151     8.81179
   570  N   5.0   -0.14    3.36    2.00    -9.66406    72.99822    10.78278
   571  C   4.0    0.02    4.25    4.10   -11.19096    72.50689    13.02777
   572  C   4.0    0.15    3.33    3.06   -12.18306    74.81803    14.38081
   573  O   6.0   -0.31    1.30    1.80   -13.70429    74.58748    16.10613
   574  H   1.0    0.09    1.06    1.44   -10.65427    73.85994     9.37115
   575  H   1.0    0.04    1.03    1.43   -12.81423    71.36739    12.47597
   576  H   1.0    0.07    1.04    1.43   -10.04956    71.44298    14.37326
   577  N   5.0   -0.13    3.50    2.08   -11.33080    77.04413    13.67595
   578  C   4.0    0.04    4.52    4.56   -12.21708    79.31369    14.94395
   579  C   4.0    0.15    3.41    3.08   -13.40383    81.05035    13.02210
   580  O   6.0   -0.30    1.24    1.80   -12.27944    81.59837    11.05112
   581  C   4.0   -0.02    4.24    4.08   -10.20263    80.72909    16.57101
   582  C   4.0   -0.08    4.09    3.79   -11.36292    81.68907    19.02009
   583  C   4.0   -0.07    4.11    3.82    -7.85181    79.13038    17.10958
   584  H   1.0    0.11    1.08    1.44   -10.05334    77.33892    12.26432
   585  H   1.0    0.06    1.10    1.44   -13.66650    78.69953    16.27432
   586  H   1.0    0.05    1.06    1.44    -9.56201    82.34103    15.46174
   587  H   1.0    0.04    1.00    1.43    -9.91350    82.66606    20.11046
   588  H   1.0    0.05    1.00    1.43   -12.89927    82.98543    18.57034
   589  H   1.0    0.04    1.00    1.43   -12.08858    80.08659    20.09157
   590  H   1.0    0.04    1.00    1.43    -6.53656    80.23398    18.24719
   591  H   1.0    0.05    1.00    1.43    -8.41495    77.43341    18.13381
   592  H   1.0    0.05    1.00    1.43    -6.96931    78.61260    15.32190
   593  N   5.0   -0.14    3.47    2.06   -15.67717    81.91206    13.59847
   594  C   4.0    0.04    4.29    4.19   -17.06612    83.66951    12.01110
   595  C   4.0    0.08    3.22    3.04   -17.76342    85.93151    13.64949
   596  O   6.0   -0.31    1.20    1.80   -18.93127    85.58947    15.64504
   597  C   4.0   -0.04    4.32    4.24   -19.44906    82.37126    10.90750
   598  C   4.0   -0.02    4.19    3.97   -21.30099    83.98509     9.34469
   599  C   4.0   -0.08    4.12    3.84   -20.20684    84.65405     6.81246
   600  C   4.0   -0.08    4.09    3.79   -23.85212    82.66228     9.03478
   601  H   1.0    0.11    1.08    1.44   -16.63337    81.41317    15.19718
   602  H   1.0    0.05    1.06    1.44   -15.91527    84.33091    10.43696
   603  H   1.0    0.05    1.03    1.43   -18.81411    80.84626     9.67729
   604  H   1.0    0.06    1.03    1.43   -20.52620    81.60215    12.48542
   605  H   1.0    0.05    1.06    1.44   -21.62791    85.74065    10.37082
   606  H   1.0    0.04    1.00    1.43   -21.57122    85.79167     5.77122
   607  H   1.0    0.04    1.00    1.43   -18.47018    85.72364     7.09403
   608  H   1.0    0.04    1.00    1.43   -19.80433    82.91928     5.77689
   609  H   1.0    0.04    1.00    1.43   -25.10123    83.86415     7.92173
   610  H   1.0    0.04    1.00    1.43   -23.56299    80.86515     8.06913
   611  H   1.0    0.04    1.00    1.43   -24.66848    82.33536    10.89805
   612  N   5.0   -0.19    3.21    1.96   -43.15945    78.79968    10.87915
   613  C   4.0    0.03    4.31    4.22   -41.75727    76.66051    11.87126
   614  C   4.0    0.15    3.42    3.08   -39.17402    76.56603    10.62593
   615  O   6.0   -0.30    1.24    1.80   -38.98505    76.78523     8.30724
   616  C   4.0   -0.04    4.29    4.17   -43.21425    74.19253    11.38560
   617  C   4.0   -0.05    4.19    3.98   -42.14089    71.90407    12.74431
   618  C   4.0   -0.01    4.24    4.09   -43.79629    69.62695    12.34558
   619  N   5.0   -0.14    3.39    2.01   -43.08197    68.09438    10.15539
   620  C   4.0    0.09    3.34    3.06   -43.53740    65.62451     9.97019
   621  N   5.0   -0.19    3.26    1.97   -44.69013    64.40186    11.83913
   622  N   5.0   -0.19    3.23    1.96   -42.82119    64.35462     7.93118
   623  H   1.0    0.09    1.02    1.43   -43.82274    78.53134     9.08958
   624  H   1.0    0.05    1.06    1.44   -41.47948    76.87027    13.90082
   625  H   1.0    0.04    1.03    1.43   -45.15878    74.44008    12.02055
   626  H   1.0    0.05    1.03    1.43   -43.17835    73.79380     9.36548
   627  H   1.0    0.06    1.03    1.43   -40.26250    71.48455    12.00732
   628  H   1.0    0.05    1.03    1.43   -42.03506    72.28958    14.76443
   629  H   1.0    0.04    1.04    1.43   -43.68291    68.42509    14.01421
   630  H   1.0    0.04    1.03    1.43   -45.73515    70.26001    12.06212
   631  H   1.0    0.08    1.06    1.44   -42.18435    68.96555     8.68896
   632  H   1.0    0.08    1.04    1.43   -45.23059    65.35428    13.42461
   633  H   1.0    0.08    1.02    1.43   -45.03406    62.51213    11.68607
   634  H   1.0    0.08    1.03    1.43   -41.91790    65.26924     6.49499
   635  H   1.0    0.08    1.03    1.43   -43.17457    62.46489     7.79890
   636  N   5.0   -0.14    3.45    2.05   -37.18792    76.21265    12.15094
   637  C   4.0    0.04    4.44    4.45   -34.64435    75.97265    11.12860
   638  C   4.0    0.15    3.41    3.08   -33.71460    73.30058    11.49898
   639  O   6.0   -0.30    1.25    1.80   -33.77507    72.31225    13.60603
   640  C   4.0   -0.03    4.32    4.24   -32.81320    77.89261    12.26054
   641  C   4.0   -0.02    3.53    3.13   -33.28185    80.57602    11.43095
   642  C   4.0   -0.04    3.47    3.10   -35.03930    82.08592    12.66872
   643  C   4.0   -0.05    3.46    3.10   -31.86267    81.66262     9.51288
   644  C   4.0   -0.04    3.43    3.09   -35.41346    84.59736    11.97708
   645  C   4.0   -0.04    3.42    3.09   -32.21038    84.17784     8.80990
   646  C   4.0    0.07    3.44    3.09   -33.99428    85.63671    10.04578
   647  O   6.0   -0.23    2.10    1.84   -34.35333    88.11036     9.36737
   648  H   1.0    0.11    1.10    1.44   -37.29563    76.08793    14.07090
   649  H   1.0    0.07    1.09    1.44   -34.70482    76.34871     9.10470
   650  H   1.0    0.05    1.03    1.43   -32.98139    77.83403    14.31278
   651  H   1.0    0.04    1.04    1.43   -30.89702    77.38806    11.69551
   652  H   1.0    0.06    1.03    1.43   -36.13723    81.29601    14.19751
   653  H   1.0    0.05    1.03    1.43   -30.46049    80.53823     8.54534
   654  H   1.0    0.06    1.03    1.43   -36.80808    85.72931    12.94651
   655  H   1.0    0.05    1.03    1.43   -31.09166    84.98476     7.30568
   656  H   1.0    0.12    1.03    1.43   -35.67047    88.87192    10.42373
   657  N   5.0   -0.13    3.48    2.07   -32.91525    72.11572     9.42595
   658  C   4.0    0.04    4.51    4.55   -32.03085    69.52113     9.42028
   659  C   4.0    0.14    3.41    3.08   -29.22650    69.41152     8.89305
   660  O   6.0   -0.31    1.26    1.80   -28.30432    70.59071     7.11104
   661  C   4.0    0.06    4.25    4.11   -33.57665    67.94321     7.57402
   662  O   6.0   -0.24    2.15    1.85   -36.17313    68.52335     7.91795
   663  C   4.0   -0.07    4.09    3.79   -33.17603    65.14830     7.93118
   664  H   1.0    0.11    1.10    1.44   -32.86233    72.93775     7.68363
   665  H   1.0    0.07    1.08    1.44   -32.26518    68.68965    11.29111
   666  H   1.0    0.05    1.05    1.44   -32.97761    68.38540     5.65406
   667  H   1.0    0.14    1.08    1.44   -36.68525    68.13029     9.65461
   668  H   1.0    0.05    1.00    1.43   -34.31364    64.09384     6.57625
   669  H   1.0    0.04    1.00    1.43   -31.19182    64.67965     7.64394
   670  H   1.0    0.06    1.00    1.43   -33.72594    64.59650     9.83791
   671  N   5.0   -0.14    3.48    2.07   -27.89802    67.96966    10.47097
   672  C   4.0    0.04    4.48    4.50   -25.20705    67.51424    10.31223
   673  C   4.0    0.15    3.48    3.11   -24.83100    65.01602     8.92896
   674  O   6.0   -0.31    1.26    1.80   -25.56232    63.04504     9.91917
   675  C   4.0   -0.03    4.20    4.01   -24.06566    67.44243    12.95407
   676  S   6.0   -0.03    2.48    3.10   -20.96840    66.02513    13.06368
   677  H   1.0    0.11    1.11    1.44   -28.69738    67.04370    11.96197
   678  H   1.0    0.06    1.06    1.44   -24.27353    69.00523     9.24265
   679  H   1.0    0.04    1.07    1.44   -23.90125    69.37184    13.65894
   680  H   1.0    0.05    1.08    1.44   -25.30343    66.34639    14.18239
   681  N   5.0   -0.14    3.42    2.03   -23.70094    65.08027     6.65561
   682  C   4.0    0.03    4.43    4.43   -23.26631    62.81071     5.10982
   683  C   4.0    0.14    3.37    3.07   -20.46951    61.98868     5.06636
   684  O   6.0   -0.31    1.27    1.80   -18.87458    63.33417     4.01000
   685  C   4.0   -0.02    4.32    4.23   -24.35857    63.17165     2.40562
   686  C   4.0   -0.05    4.23    4.06   -27.20449    63.82738     2.47176
   687  C   4.0   -0.06    4.09    3.79   -23.81622    60.86051     0.73888
   688  C   4.0   -0.08    4.08    3.76   -27.85456    65.95522     0.94108
   689  H   1.0    0.11    1.11    1.44   -23.06033    66.69977     5.82980
   690  H   1.0    0.07    1.08    1.44   -24.20550    61.24980     6.06980
   691  H   1.0    0.05    1.07    1.44   -23.39481    64.78358     1.55902
   692  H   1.0    0.04    1.04    1.43   -28.27597    62.20600     1.78768
   693  H   1.0    0.05    1.05    1.44   -27.74307    64.25824     4.41251
   694  H   1.0    0.05    1.00    1.43   -24.60801    61.18366    -1.13573
   695  H   1.0    0.06    1.00    1.43   -21.77720    60.59406     0.60471
   696  H   1.0    0.06    1.00    1.43   -24.68549    59.19944     1.59115
   697  H   1.0    0.04    1.01    1.43   -29.88035    66.29348     1.08848
   698  H   1.0    0.05    1.01    1.43   -26.81710    67.60495     1.60816
   699  H   1.0    0.04    1.01    1.43   -27.35000    65.55270    -1.01478
   700  N   5.0   -0.14    3.42    2.03   -19.89126    59.76069     6.14917
   701  C   4.0    0.04    4.33    4.26   -17.30233    58.76859     6.16240
   702  C   4.0    0.15    3.39    3.08   -16.98675    56.91099     3.97409
   703  O   6.0   -0.32    1.26    1.80   -18.33979    55.02126     3.88528
   704  C   4.0   -0.08    4.11    3.81   -16.72785    57.49869     8.66817
   705  H   1.0    0.10    1.08    1.44   -21.17438    58.61741     7.02222
   706  H   1.0    0.06    1.07    1.44   -15.96629    60.31249     5.88839
   707  H   1.0    0.04    1.00    1.43   -14.79844    56.78060     8.62849
   708  H   1.0    0.04    1.00    1.43   -16.93194    58.88008    10.18184
   709  H   1.0    0.05    1.00    1.43   -18.05066    55.94534     8.95163
   710  N   5.0   -0.14    3.40    2.02   -15.25009    57.46279     2.18830
   711  C   4.0    0.03    4.37    4.32   -14.92695    55.90565    -0.06614
   712  C   4.0    0.14    3.32    3.06   -12.26810    54.76048    -0.47810
   713  O   6.0   -0.30    1.23    1.80   -10.34247    56.04171    -0.15307
   714  C   4.0    0.04    4.14    3.89   -15.73008    57.38909    -2.39995
   715  O   6.0   -0.22    2.03    1.83   -16.39526    55.74692    -4.40873
   716  H   1.0    0.11    1.09    1.44   -14.05767    58.97457     2.27334
   717  H   1.0    0.06    1.08    1.44   -16.10424    54.24080     0.22299
   718  H   1.0    0.05    1.02    1.43   -17.36091    58.55505    -1.92185
   719  H   1.0    0.06    1.02    1.43   -14.16350    58.58339    -3.00466
   720  H   1.0    0.13    1.02    1.43   -17.80311    54.65843    -3.89661
   721  N   5.0   -0.12    3.44    2.04   -12.23975    52.29817    -1.19809
   722  C   4.0    0.04    4.34    4.28   -10.09303    50.64843    -1.87083
   723  C   4.0    0.15    3.48    3.11   -11.12860    48.77005    -3.87583
   724  O   6.0   -0.26    1.31    1.80   -13.43784    48.44879    -3.95898
   725  C   4.0    0.05    4.21    4.01    -9.13305    49.08563     0.42708
   726  O   6.0   -0.24    2.11    1.84   -10.83947    47.06740     0.98833
   727  C   4.0   -0.06    4.07    3.75    -8.59447    50.65599     2.75711
   728  H   1.0    0.12    1.09    1.44   -13.87437    51.28716    -1.34737
   729  H   1.0    0.05    1.04    1.43    -8.53211    51.77849    -2.60026
   730  H   1.0    0.04    1.05    1.44    -7.31135    48.28628    -0.10771
   731  H   1.0    0.12    1.01    1.43   -10.21775    46.09609     2.43775
   732  H   1.0    0.06    1.00    1.43    -7.93118    49.44468     4.28590
   733  H   1.0    0.06    1.00    1.43    -7.14694    52.06006     2.34137
   734  H   1.0    0.05    1.00    1.43   -10.30846    51.62353     3.36560
   735  N   5.0   -0.10    3.62    2.18    -9.57713    47.36976    -5.37249
   736  C   4.0    0.04    4.54    4.59   -10.68829    45.55184    -7.18285
   737  C   4.0    0.16    3.34    3.06   -12.10747    43.31630    -5.97720
   738  O   6.0   -0.26    1.21    1.80   -13.60603    42.08420    -7.26033
   739  C   4.0   -0.03    4.36    4.32    -8.39983    44.65233    -8.71920
   740  C   4.0   -0.04    4.31    4.21    -6.38538    46.58174    -8.25810
   741  C   4.0   -0.02    4.34    4.28    -6.79923    47.42456    -5.61060
   742  H   1.0    0.07    1.05    1.44   -11.99787    46.55151    -8.41873
   743  H   1.0    0.06    1.03    1.43    -7.80268    42.79473    -8.05968
   744  H   1.0    0.06    1.02    1.43    -8.89116    44.56541   -10.71853
   745  H   1.0    0.05    1.03    1.43    -4.52589    45.72570    -8.47731
   746  H   1.0    0.06    1.03    1.43    -6.59892    48.15211    -9.57524
   747  H   1.0    0.04    1.02    1.43    -5.91862    46.12443    -4.27645
   748  H   1.0    0.04    1.02    1.43    -6.07169    49.32941    -5.32147
   749  N   5.0   -0.13    3.45    2.04   -11.67095    42.83064    -3.51489
   750  C   4.0    0.04    4.31    4.22   -12.83502    40.77273    -2.05980
   751  C   4.0    0.16    3.33    3.06   -15.46552    41.42279    -0.87305
   752  O   6.0   -0.30    1.22    1.80   -16.49353    39.89778     0.57070
   753  C   4.0    0.04    4.14    3.88   -10.99254    39.80330    -0.05480
   754  O   6.0   -0.25    2.05    1.83    -9.60170    41.78562     1.10171
   755  H   1.0    0.10    1.08    1.44   -10.46530    43.88133    -2.43964
   756  H   1.0    0.07    1.06    1.44   -13.20163    39.22315    -3.36749
   757  H   1.0    0.05    1.02    1.43   -12.06590    38.81686     1.40029
   758  H   1.0    0.05    1.01    1.43    -9.66595    38.50695    -0.95242
   759  H   1.0    0.13    1.01    1.43    -8.44707    41.09209     2.37161
   760  N   5.0   -0.11    3.33    1.99   -16.53510    43.61299    -1.53635
   761  C   4.0    0.02    4.24    4.08   -19.01064    44.40478    -0.61038
   762  C   4.0    0.14    3.26    3.05   -19.33757    47.19780    -0.03968
   763  O   6.0   -0.28    1.22    1.80   -17.68217    48.74170    -0.61983
   764  H   1.0    0.12    1.07    1.44   -15.71685    44.88855    -2.72687
   765  H   1.0    0.08    1.04    1.43   -20.42227    43.90400    -2.02390
   766  H   1.0    0.05    1.04    1.43   -19.41126    43.37677     1.13006
   767  N   5.0   -0.14    3.39    2.02   -21.51075    47.85164     1.14706
   768  C   4.0    0.03    4.37    4.33   -22.20806    50.41978     1.93886
   769  C   4.0    0.14    3.36    3.07   -23.75008    50.43868     4.38038
   770  O   6.0   -0.29    1.21    1.80   -25.40359    48.83052     4.74510
   771  C   4.0   -0.03    4.25    4.10   -23.60457    51.86542    -0.15685
   772  C   4.0   -0.03    4.20    4.01   -21.83011    53.32807    -1.87272
   773  C   4.0    0.24    3.11    3.03   -23.00741    55.14409    -3.75489
   774  O   6.0   -0.30    1.18    1.80   -25.05777    56.18722    -3.19364
   775  O   6.0   -0.27    1.17    1.80   -21.82822    55.58818    -5.75988
   776  H   1.0    0.09    1.06    1.44   -22.87891    46.57041     1.59871
   777  H   1.0    0.06    1.07    1.44   -20.45439    51.40810     2.37539
   778  H   1.0    0.06    1.03    1.43   -24.64770    50.51993    -1.31714
   779  H   1.0    0.06    1.03    1.43   -24.90470    53.20901     0.70865
   780  H   1.0    0.05    1.04    1.43   -20.57156    54.44111    -0.68030
   781  H   1.0    0.07    1.04    1.43   -20.73974    51.96368    -2.96498
   782  N   5.0   -0.13    3.42    2.03   -23.18883    52.28305     6.04523
   783  C   4.0    0.03    4.32    4.24   -24.45872    52.65532     8.46786
   784  C   4.0    0.14    3.38    3.07   -25.53776    55.32740     8.67573
   785  O   6.0   -0.32    1.27    1.80   -24.46817    57.13019     7.63827
   786  C   4.0   -0.07    4.11    3.82   -22.64837    52.14321    10.62593
   787  H   1.0    0.10    1.07    1.44   -21.80555    53.58885     5.73721
   788  H   1.0    0.06    1.07    1.44   -26.05554    51.36275     8.61526
   789  H   1.0    0.05    1.00    1.43   -23.63480    52.43234    12.41172
   790  H   1.0    0.07    1.00    1.43   -21.98318    50.19868    10.49743
   791  H   1.0    0.05    1.00    1.43   -21.05533    53.43956    10.48609
   792  N   5.0   -0.13    3.42    2.03   -27.68449    55.57306    10.00988
   793  C   4.0    0.04    4.45    4.46   -28.99029    57.98435    10.39160
   794  C   4.0    0.15    3.39    3.08   -29.67248    58.46056    13.13171
   795  O   6.0   -0.28    1.22    1.80   -30.21294    56.70123    14.56034
   796  C   4.0    0.06    4.21    4.03   -31.36000    58.23191     8.71353
   797  O   6.0   -0.24    2.08    1.84   -33.00406    56.11541     9.08013
   798  C   4.0   -0.07    4.06    3.72   -30.73261    58.60418     5.92807
   799  H   1.0    0.09    1.06    1.44   -28.57644    54.09530    10.86592
   800  H   1.0    0.07    1.09    1.44   -27.65992    59.47157     9.87760
   801  H   1.0    0.04    1.05    1.44   -32.36345    59.93833     9.28233
   802  H   1.0    0.11    1.01    1.43   -34.50451    56.28549     8.00866
   803  H   1.0    0.05    1.00    1.43   -32.46738    58.76859     4.83014
   804  H   1.0    0.04    1.00    1.43   -29.61956    60.32005     5.68052
   805  H   1.0    0.06    1.00    1.43   -29.64980    56.99791     5.22887
   806  N   5.0   -0.14    3.49    2.07   -29.68382    60.87185    13.82712
   807  C   4.0    0.04    4.43    4.43   -30.42459    61.78081    16.30267
   808  C   4.0    0.14    3.46    3.10   -31.75495    64.26580    15.87559
   809  O   6.0   -0.32    1.31    1.80   -30.70049    65.90230    14.59435
   810  C   4.0   -0.03    4.30    4.21   -28.11534    62.19277    17.99397
   811  C   4.0   -0.03    3.70    3.24   -28.80509    62.42899    20.72273
   812  C   4.0   -0.00    3.62    3.18   -30.32443    64.21667    21.79421
   813  C   4.0    0.01    3.90    3.46   -28.00385    60.81327    22.72773
   814  N   5.0   -0.11    3.48    2.07   -30.55498    63.78203    24.33589
   815  C   4.0    0.04    3.89    3.45   -29.09233    61.74302    24.97651
   816  C   4.0   -0.03    3.40    3.08   -26.38624    58.71945    22.86379
   817  C   4.0   -0.04    3.39    3.08   -28.65202    60.62619    27.32733
   818  C   4.0   -0.02    3.37    3.07   -25.98751    57.58562    25.18438
   819  C   4.0   -0.03    3.38    3.07   -27.12324    58.52859    27.38213
   820  H   1.0    0.10    1.08    1.44   -29.16225    62.30615    12.65172
   821  H   1.0    0.07    1.06    1.44   -31.67181    60.44099    17.24753
   822  H   1.0    0.05    1.03    1.43   -26.83978    60.58839    17.79366
   823  H   1.0    0.04    1.04    1.43   -27.16292    63.92754    17.42138
   824  H   1.0    0.06    1.02    1.43   -31.21449    65.75112    20.78510
   825  H   1.0    0.09    1.04    1.43   -31.63968    64.81004    25.55476
   826  H   1.0    0.06    1.03    1.43   -25.46784    58.00514    21.18761
   827  H   1.0    0.06    1.02    1.43   -29.47972    61.38208    29.03375
   828  H   1.0    0.08    1.03    1.43   -24.77998    55.94534    25.30532
   829  H   1.0    0.07    1.03    1.43   -26.78876    57.58562    29.16036
   830  N   5.0   -0.13    3.41    2.03   -34.04908    64.58327    16.93194
   831  C   4.0    0.04    4.41    4.40   -35.42291    66.95866    16.60313
   832  C   4.0    0.14    3.36    3.07   -36.02763    68.36840    19.04844
   833  O   6.0   -0.30    1.21    1.80   -36.13534    67.26857    21.09501
   834  C   4.0    0.04    4.15    3.90   -37.79641    66.57505    15.03844
   835  O   6.0   -0.26    2.12    1.84   -37.10855    66.49190    12.45518
   836  H   1.0    0.10    1.07    1.44   -34.96182    63.25669    17.99208
   837  H   1.0    0.08    1.09    1.44   -34.14357    68.23422    15.61481
   838  H   1.0    0.05    1.02    1.43   -38.69403    64.79870    15.57134
   839  H   1.0    0.04    1.02    1.43   -39.09276    68.14352    15.35591
   840  H   1.0    0.12    1.02    1.43   -38.61466    66.24434    11.40639
   841  N   5.0   -0.14    3.46    2.05   -36.28085    70.86661    18.78010
   842  C   4.0    0.04    4.22    4.05   -36.91013    72.69965    20.74352
   843  C   4.0    0.08    3.23    3.04   -38.46159    74.79346    19.51331
   844  O   6.0   -0.31    1.20    1.80   -37.85877    75.60982    17.40060
   845  C   4.0   -0.05    4.10    3.80   -34.51773    73.80514    21.90003
   846  H   1.0    0.11    1.09    1.44   -36.04085    71.74534    17.08123
   847  H   1.0    0.06    1.05    1.44   -38.01940    71.82281    22.24018
   848  H   1.0    0.05    1.00    1.43   -35.04308    75.16385    23.35701
   849  H   1.0    0.07    1.00    1.43   -33.40658    72.28013    22.72962
   850  H   1.0    0.05    1.00    1.43   -33.43114    74.74244    20.42416
   851  O   6.0   -0.36    2.03    1.83   -13.44351    77.69608     7.66284
   852  H   1.0    0.18    1.02    1.43   -12.07724    78.50489     7.63449
   853  H   1.0    0.15    1.02    1.43   -14.61136    78.76189     7.50788
   854  O   6.0   -0.37    1.99    1.83   -19.68528    76.77201    -3.08781
   855  H   1.0    0.16    1.02    1.43   -18.41160    77.71876    -3.08781
   856  H   1.0    0.17    1.02    1.43   -20.96084    77.71687    -3.08781
   857  O   6.0   -0.36    2.00    1.83   -39.20803    72.05525     5.07769
   858  H   1.0    0.17    1.02    1.43   -37.93436    73.00200     5.07769
   859  H   1.0    0.16    1.02    1.43   -40.48360    73.00011     5.07769
   860  O   6.0   -0.34    1.99    1.83   -10.56546    54.26348    -7.15639
   861  H   1.0    0.16    1.02    1.43    -9.29178    55.21023    -7.15639
   862  H   1.0    0.17    1.02    1.43   -11.84102    55.20834    -7.15639
   863  O   6.0   -0.34    1.99    1.82   -32.97761    49.62231     9.29556
   864  H   1.0    0.16    1.02    1.43   -31.70393    50.56907     9.29556
   865  H   1.0    0.16    1.02    1.43   -34.25317    50.56718     9.29556
   866  O   6.0   -0.32    1.99    1.82    -0.07748    35.87078     5.64272
   867  H   1.0    0.16    1.02    1.43     1.19620    36.81753     5.64272
   868  H   1.0    0.17    1.02    1.43    -1.35304    36.81564     5.64272
   869  O   6.0   -0.37    1.99    1.83   -37.15579    60.21078    30.42837
   870  H   1.0    0.17    1.02    1.43   -38.42947    59.26402    30.42837
   871  H   1.0    0.16    1.02    1.43   -35.88023    59.26591    30.42837
   872  N   5.0   -0.19    3.20    1.95   -48.27116    57.77492     1.03746
   873  C   4.0    0.03    4.39    4.36   -46.55340    57.46311     3.17096
   874  C   4.0    0.15    3.37    3.07   -44.72414    55.30505     2.68341
   875  O   6.0   -0.30    1.25    1.80   -45.47625    53.26036     1.87272
   876  C   4.0   -0.02    4.24    4.08   -47.81196    57.32327     5.82036
   877  C   4.0   -0.08    4.10    3.79   -48.67178    59.93110     6.68396
   878  C   4.0   -0.06    4.10    3.81   -49.99459    55.44867     5.90539
   879  H   1.0    0.10    1.02    1.43   -49.61664    56.40298     0.89006
   880  H   1.0    0.04    1.08    1.44   -45.43846    59.19410     3.22387
   881  H   1.0    0.05    1.06    1.44   -46.38710    56.63352     7.13938
   882  H   1.0    0.04    1.00    1.43   -49.54483    59.76858     8.54156
   883  H   1.0    0.04    1.00    1.43   -47.03528    61.17832     6.78412
   884  H   1.0    0.05    1.00    1.43   -50.03616    60.66998     5.32903
   885  H   1.0    0.05    1.00    1.43   -50.79583    55.43733     7.80268
   886  H   1.0    0.05    1.00    1.43   -51.42700    56.02503     4.54101
   887  H   1.0    0.06    1.00    1.43   -49.28594    53.57406     5.43107
   888  N   5.0   -0.14    3.46    2.06   -42.28829    55.83228     3.13317
   889  C   4.0    0.04    4.37    4.33   -40.14156    54.11074     2.81002
   890  C   4.0    0.15    3.41    3.08   -40.56675    51.70134     4.31424
   891  O   6.0   -0.29    1.23    1.80   -41.56830    51.82039     6.42507
   892  C   4.0   -0.03    4.33    4.25   -37.67736    55.36552     3.72087
   893  C   4.0    0.14    3.27    3.05   -37.41090    58.11129     3.03112
   894  O   6.0   -0.32    1.27    1.80   -36.45659    58.75947     1.01100
   895  N   5.0   -0.20    3.26    1.97   -38.27451    59.77236     4.69219
   896  H   1.0    0.08    1.10    1.44   -41.70058    57.55571     3.76622
   897  H   1.0    0.05    1.05    1.44   -39.95070    53.65154     0.81069
   898  H   1.0    0.05    1.04    1.43   -37.59610    55.23324     5.77500
   899  H   1.0    0.06    1.03    1.43   -36.08432    54.36018     2.88750
   900  H   1.0    0.08    1.23    1.47   -38.14412    61.66020     4.32369
   901  H   1.0    0.08    1.03    1.43   -39.07008    59.16387     6.33814
   902  N   5.0   -0.14    3.41    2.02   -39.81842    49.52249     3.23332
   903  C   4.0    0.04    4.40    4.38   -40.08298    47.06584     4.48621
   904  C   4.0    0.15    3.38    3.07   -38.29341    45.04006     3.51300
   905  O   6.0   -0.30    1.22    1.80   -37.58665    45.00226     1.29635
   906  C   4.0   -0.03    4.29    4.18   -42.81741    46.09074     4.47109
   907  C   4.0   -0.02    4.26    4.11   -44.14967    46.17578     1.94453
   908  C   4.0    0.16    3.25    3.04   -46.95024    46.07940     2.35082
   909  O   6.0   -0.26    1.20    1.80   -48.03872    44.06118     2.84971
   910  N   5.0   -0.17    3.18    1.95   -48.16345    48.27716     2.22043
   911  H   1.0    0.09    1.06    1.44   -39.01906    49.40910     1.48343
   912  H   1.0    0.06    1.07    1.44   -39.47826    47.40410     6.42696
   913  H   1.0    0.06    1.03    1.43   -42.80607    44.12543     5.09092
   914  H   1.0    0.07    1.04    1.43   -43.91912    47.23592     5.78256
   915  H   1.0    0.05    1.04    1.44   -43.67913    47.92567     0.96565
   916  H   1.0    0.06    1.03    1.43   -43.58653    44.55629     0.80313
   917  H   1.0    0.11    1.05    1.44   -47.18457    49.89854     1.86138
   918  H   1.0    0.11    1.02    1.43   -50.07207    48.34141     2.47932
   919  N   5.0   -0.12    3.49    2.07   -37.56019    43.36387     5.23832
   920  C   4.0    0.04    4.44    4.45   -35.91802    41.21903     4.73943
   921  C   4.0    0.15    3.43    3.09   -37.68303    39.03451     4.12905
   922  O   6.0   -0.28    1.25    1.80   -39.20803    38.31263     5.74099
   923  C   4.0    0.06    4.22    4.05   -34.25506    40.69558     7.07702
   924  O   6.0   -0.23    2.09    1.84   -32.95115    42.96136     7.77055
   925  C   4.0   -0.06    4.06    3.73   -32.37667    38.55074     6.65750
   926  H   1.0    0.09    1.06    1.44   -38.10254    43.45080     7.08647
   927  H   1.0    0.06    1.06    1.44   -34.63112    41.52517     3.16151
   928  H   1.0    0.06    1.05    1.44   -35.47394    40.08708     8.62093
   929  H   1.0    0.13    1.01    1.43   -31.88724    42.65144     9.25399
   930  H   1.0    0.06    1.00    1.43   -31.25040    38.25783     8.35826
   931  H   1.0    0.06    1.00    1.43   -33.38390    36.81030     6.21342
   932  H   1.0    0.06    1.00    1.43   -31.11812    39.01183     5.09470
   933  N   5.0   -0.13    3.42    2.03   -37.54319    38.03106     1.81036
   934  C   4.0    0.04    4.37    4.33   -39.15701    35.91268     1.10738
   935  C   4.0    0.09    3.19    3.03   -37.58476    33.49761     0.68975
   936  O   6.0   -0.29    1.15    1.80   -35.53441    33.61288    -0.38550
   937  C   4.0   -0.02    4.23    4.06   -40.96359    36.55519    -1.12817
   938  C   4.0   -0.06    4.10    3.81   -39.53496    37.32052    -3.51111
   939  C   4.0   -0.06    4.09    3.78   -42.82308    34.41791    -1.67619
   940  H   1.0    0.11    1.09    1.44   -36.35455    38.64144     0.42141
   941  H   1.0    0.07    1.08    1.44   -40.36833    35.48371     2.71743
   942  H   1.0    0.05    1.06    1.44   -42.06719    38.18980    -0.53479
   943  H   1.0    0.05    1.00    1.43   -40.89367    37.74571    -5.00021
   944  H   1.0    0.06    1.00    1.43   -38.39545    38.98726    -3.10293
   945  H   1.0    0.05    1.01    1.43   -38.31797    35.76339    -4.09315
   946  H   1.0    0.06    1.00    1.43   -44.03439    34.96971    -3.24844
   947  H   1.0    0.06    1.00    1.43   -41.76672    32.71904    -2.16563
   948  H   1.0    0.06    1.00    1.43   -43.96636    34.07587     0.00378
   949  N   5.0   -0.17    3.20    1.95   -28.09267    74.49111   -24.31321
   950  C   4.0    0.03    4.29    4.17   -29.81043    74.80291   -22.17971
   951  C   4.0    0.09    3.19    3.04   -31.63968    76.96098   -22.66726
   952  O   6.0   -0.24    1.13    1.80   -30.88757    79.00566   -23.47796
   953  C   4.0   -0.03    4.24    4.07   -28.55187    74.94275   -19.53032
   954  C   4.0   -0.07    4.10    3.79   -27.69204    72.33493   -18.66671
   955  C   4.0   -0.06    4.10    3.81   -26.36924    76.81736   -19.44528
   956  H   1.0    0.11    1.02    1.43   -26.74718    75.86305   -24.46061
   957  H   1.0    0.05    1.07    1.44   -30.92537    73.07192   -22.12680
   958  H   1.0    0.04    1.06    1.44   -29.97672    75.63250   -18.21129
   959  H   1.0    0.04    1.00    1.43   -26.81899    72.49745   -16.80911
   960  H   1.0    0.04    1.00    1.43   -29.32855    71.08771   -18.56656
   961  H   1.0    0.05    1.00    1.43   -26.32766    71.59605   -20.02165
   962  H   1.0    0.05    1.00    1.43   -25.56799    76.82870   -17.54800
   963  H   1.0    0.06    1.00    1.43   -24.93682    76.24099   -20.80966
   964  H   1.0    0.07    1.00    1.43   -27.07788    78.69197   -19.91960
   965  N   5.0   -0.16    3.22    1.96     7.87414    49.04068    -6.81939
   966  C   4.0    0.04    4.16    3.92     6.27426    46.80775    -7.14064
   967  C   4.0    0.10    3.22    3.04     4.98518    46.99960    -9.71256
   968  O   6.0   -0.24    1.14    1.80     4.44982    49.10606   -10.56483
   969  C   4.0   -0.07    4.12    3.84     4.29351    46.73119    -5.07328
   970  H   1.0    0.10    1.03    1.43     7.00031    50.41057    -5.78193
   971  H   1.0    0.05    1.05    1.44     7.37265    45.06781    -7.03293
   972  H   1.0    0.05    1.00    1.43     3.11702    45.06128    -5.33407
   973  H   1.0    0.05    1.00    1.43     5.23661    46.64725    -3.24403
   974  H   1.0    0.05    1.00    1.43     3.13741    48.43126    -5.19045
   975  N   5.0   -0.18    3.19    1.95     4.48481    44.82759    39.74913
   976  C   4.0    0.03    4.34    4.28     3.25084    44.75013    37.24902
   977  C   4.0    0.15    3.33    3.06     0.62171    45.99689    37.39642
   978  O   6.0   -0.28    1.20    1.80    -0.74284    45.55601    39.24079
   979  C   4.0   -0.02    4.23    4.05     3.19390    42.05951    36.04148
   980  C   4.0   -0.06    4.10    3.79     2.32225    42.15196    33.28815
   981  C   4.0   -0.07    4.11    3.82     5.76720    40.76961    36.20589
   982  H   1.0    0.09    1.03    1.43     4.91498    43.07717    40.43132
   983  H   1.0    0.05    1.06    1.44     4.41151    45.86539    35.96400
   984  H   1.0    0.06    1.06    1.44     1.83775    40.94268    37.11674
   985  H   1.0    0.05    1.00    1.43     2.31178    40.23879    32.52281
   986  H   1.0    0.07    1.00    1.43     0.42362    42.94982    33.21256
   987  H   1.0    0.06    1.00    1.43     3.62305    43.33066    32.21101
   988  H   1.0    0.05    1.00    1.43     5.63792    38.90349    35.34417
   989  H   1.0    0.05    1.00    1.43     7.15558    41.91377    35.20244
   990  H   1.0    0.05    1.00    1.43     6.30358    40.59269    38.18632
   991  N   5.0   -0.14    3.41    2.03     0.01405    47.60119    35.45567
   992  C   4.0    0.04    4.33    4.25    -2.30251    49.08514    35.06449
   993  C   4.0    0.15    3.35    3.06    -2.46676    51.44077    36.80682
   994  O   6.0   -0.30    1.22    1.80    -4.29547    52.90743    36.64809
   995  C   4.0   -0.02    4.24    4.08    -4.72591    47.45468    35.17410
   996  C   4.0    0.25    3.11    3.03    -5.03235    45.57793    33.01036
   997  O   6.0   -0.28    1.19    1.80    -3.55375    45.72679    31.16032
   998  O   6.0   -0.27    1.17    1.80    -6.77433    43.99177    33.14264
   999  H   1.0    0.11    1.12    1.45     1.24254    47.91114    34.00247
  1000  H   1.0    0.06    1.06    1.44    -2.26197    49.87663    33.16343
  1001  H   1.0    0.07    1.03    1.43    -4.70681    46.37468    36.92776
  1002  H   1.0    0.05    1.03    1.43    -6.35820    48.70963    35.13630
[...]
1447   6 C     -0.088  1.063  3.025  0.000    22.164     6.700
1448   6 C     -0.011  1.048  2.963  0.000    20.732     6.476
1449   6 C     -0.118  1.045  3.073  0.000    22.807     6.809
1450   6 C     -0.121  1.045  3.076  0.000    22.869     6.818
1451   1 H      0.232  0.768  0.000  0.000     0.955     1.531
1452   1 H      0.075  0.925  0.000  0.000     2.030     2.228
1453   1 H      0.082  0.918  0.000  0.000     1.963     2.191
1454   1 H      0.065  0.935  0.000  0.000     2.141     2.288
1455   1 H      0.027  0.973  0.000  0.000     2.629     2.536
1456   1 H      0.040  0.960  0.000  0.000     2.442     2.444
1457   1 H      0.033  0.967  0.000  0.000     2.550     2.497
1458   1 H      0.051  0.949  0.000  0.000     2.306     2.375
1459   1 H      0.042  0.958  0.000  0.000     2.419     2.432
1460   1 H      0.056  0.944  0.000  0.000     2.247     2.344
1461   1 H      0.043  0.957  0.000  0.000     2.415     2.430
1462   7 N     -0.176  1.237  3.938  0.000    24.801     7.396
1463   6 C     -0.040  1.055  2.985  0.000    21.363     6.594
1464   6 C      0.280  1.039  2.682  0.000    22.261     7.726
1465   8 O     -0.506  1.760  4.745  0.000    23.907     6.555
1466   1 H      0.226  0.774  0.000  0.000     0.984     1.554
1467   1 H      0.102  0.898  0.000  0.000     1.768     2.079
1468   1 H      0.120  0.880  0.000  0.000     1.613     1.986
1469   7 N     -0.180  1.245  3.936  0.000    24.903     7.412
1470   6 C      0.035  1.056  2.909  0.000    20.002     6.370
1471   6 C      0.201  1.088  2.711  0.000    23.726     7.977
1472   8 O     -0.384  1.760  4.624  0.000    21.363     6.197
1473   6 C     -0.095  1.065  3.030  0.000    22.306     6.724
1474   6 C      0.366  1.020  2.613  0.000    20.790     7.462
1475   8 O     -0.604  1.776  4.828  0.000    26.219     6.865
1476   8 O     -0.588  1.745  4.843  0.000    25.827     6.814
1477   1 H      0.206  0.794  0.000  0.000     1.078     1.626
1478   1 H      0.105  0.895  0.000  0.000     1.741     2.063
1479   1 H      0.063  0.937  0.000  0.000     2.161     2.299
1480   1 H      0.056  0.944  0.000  0.000     2.246     2.344
1481   7 N     -0.386  1.326  4.060  0.000    29.987     8.133
1482   6 C      0.036  1.052  2.912  0.000    19.980     6.367
1483   6 C      0.198  1.094  2.708  0.000    23.784     7.987
1484   8 O     -0.365  1.740  4.625  0.000    20.990     6.142
1485   6 C     -0.080  1.062  3.018  0.000    22.015     6.679
1486   6 C     -0.089  1.050  3.039  0.000    22.203     6.708
1487   6 C     -0.033  1.054  2.979  0.000    21.232     6.573
1488   7 N     -0.140  1.212  3.928  0.000    24.028     7.280
1489   6 C      0.217  1.020  2.763  0.000    23.412     7.922
1490   7 N     -0.235  1.227  4.008  0.000    26.162     7.597
1491   7 N     -0.239  1.222  4.018  0.000    26.251     7.609
1492   1 H      0.165  0.835  0.000  0.000     1.306     1.790
1493   1 H      0.046  0.954  0.000  0.000     2.365     2.405
1494   1 H      0.060  0.940  0.000  0.000     2.200     2.319
1495   1 H      0.066  0.934  0.000  0.000     2.133     2.284
1496   1 H      0.077  0.923  0.000  0.000     2.014     2.219
1497   1 H      0.062  0.938  0.000  0.000     2.175     2.307
1498   1 H      0.089  0.911  0.000  0.000     1.889     2.149
1499   1 H      0.091  0.909  0.000  0.000     1.868     2.137
1500   1 H      0.234  0.766  0.000  0.000     0.948     1.525
1501   1 H      0.237  0.763  0.000  0.000     0.937     1.516
1502   1 H      0.251  0.749  0.000  0.000     0.881     1.470
1503   1 H      0.244  0.756  0.000  0.000     0.908     1.493
1504   1 H      0.246  0.754  0.000  0.000     0.898     1.484
1505   7 N     -0.379  1.327  4.052  0.000    29.801     8.108
1506   6 C      0.025  1.058  2.917  0.000    20.176     6.398
1507   6 C      0.273  1.045  2.682  0.000    22.382     7.747
1508   8 O     -0.494  1.747  4.747  0.000    23.657     6.521
1509   6 C      0.121  1.051  2.828  0.000    18.711     6.178
1510   8 O     -0.477  1.725  4.752  0.000    22.404     6.390
1511   6 C     -0.121  1.044  3.077  0.000    22.882     6.822
1512   1 H      0.159  0.841  0.000  0.000     1.341     1.814
1513   1 H      0.051  0.949  0.000  0.000     2.312     2.378
1514   1 H      0.019  0.981  0.000  0.000     2.749     2.593
1515   1 H      0.287  0.713  0.000  0.000     0.761     1.370
1516   1 H      0.038  0.962  0.000  0.000     2.476     2.461
1517   1 H      0.058  0.942  0.000  0.000     2.218     2.329
1518   1 H      0.044  0.956  0.000  0.000     2.394     2.420
1519   7 N     -0.165  1.238  3.928  0.000    24.580     7.363
1520   6 C     -0.028  1.044  2.984  0.000    21.150     6.560
1521   6 C      0.272  1.037  2.691  0.000    22.399     7.750
1522   8 O     -0.487  1.740  4.747  0.000    23.505     6.500
1523   1 H      0.215  0.785  0.000  0.000     1.033     1.592
1524   1 H      0.078  0.922  0.000  0.000     2.000     2.212
1525   1 H      0.092  0.908  0.000  0.000     1.857     2.131
1526   7 N     -0.156  1.234  3.922  0.000    24.375     7.333
1527   6 C      0.019  1.055  2.926  0.000    20.259     6.410
1528   6 C      0.199  1.087  2.714  0.000    23.761     7.983
1529   8 O     -0.363  1.765  4.597  0.000    20.953     6.137
1530   6 C     -0.088  1.059  3.029  0.000    22.172     6.703
1531   6 C     -0.090  1.048  3.042  0.000    22.210     6.709
1532   6 C     -0.038  1.055  2.983  0.000    21.330     6.588
1533   7 N     -0.148  1.213  3.935  0.000    24.209     7.308
1534   6 C      0.219  1.019  2.762  0.000    23.385     7.918
1535   7 N     -0.238  1.226  4.012  0.000    26.220     7.605
1536   7 N     -0.248  1.233  4.015  0.000    26.461     7.640
1537   1 H      0.223  0.777  0.000  0.000     0.997     1.564
1538   1 H      0.099  0.901  0.000  0.000     1.794     2.095
1539   1 H      0.074  0.926  0.000  0.000     2.038     2.232
1540   1 H      0.079  0.921  0.000  0.000     1.991     2.207
1541   1 H      0.083  0.917  0.000  0.000     1.949     2.183
1542   1 H      0.084  0.916  0.000  0.000     1.935     2.176
1543   1 H      0.107  0.893  0.000  0.000     1.719     2.050
1544   1 H      0.095  0.905  0.000  0.000     1.831     2.116
1545   1 H      0.226  0.774  0.000  0.000     0.981     1.552
1546   1 H      0.254  0.746  0.000  0.000     0.867     1.459
1547   1 H      0.250  0.750  0.000  0.000     0.882     1.471
1548   1 H      0.247  0.753  0.000  0.000     0.896     1.483
1549   1 H      0.246  0.754  0.000  0.000     0.899     1.485
1550   7 N     -0.302  1.310  3.992  0.000    27.783     7.828
1551   6 C      0.024  1.068  2.908  0.000    20.174     6.394
1552   6 C      0.199  1.093  2.708  0.000    23.751     7.981
1553   8 O     -0.385  1.761  4.624  0.000    21.378     6.199
1554   6 C     -0.047  1.049  2.998  0.000    21.389     6.579
1555   6 C     -0.056  1.041  3.015  0.000    21.555     6.605
1556   6 C      0.006  1.045  2.949  0.000    20.509     6.454
1557   1 H      0.069  0.931  0.000  0.000     2.097     2.265
1558   1 H      0.026  0.974  0.000  0.000     2.649     2.545
1559   1 H      0.045  0.955  0.000  0.000     2.386     2.416
1560   1 H      0.040  0.960  0.000  0.000     2.455     2.450
1561   1 H      0.039  0.961  0.000  0.000     2.464     2.455
1562   1 H      0.034  0.966  0.000  0.000     2.532     2.488
1563   1 H      0.045  0.955  0.000  0.000     2.385     2.415
1564   7 N     -0.396  1.328  4.067  0.000    30.250     8.169
1565   6 C      0.037  1.054  2.909  0.000    19.958     6.362
1566   6 C      0.282  1.045  2.673  0.000    22.226     7.721
1567   8 O     -0.524  1.765  4.760  0.000    24.330     6.613
1568   6 C     -0.061  1.047  3.014  0.000    21.673     6.627
1569   6 C     -0.051  1.070  2.980  0.000    29.200     8.862
1570   6 C     -0.020  1.068  2.952  0.000    28.471     8.752
1571   6 C     -0.023  1.073  2.949  0.000    28.390     8.727
1572   7 N     -0.097  1.224  3.872  0.000    23.126     7.142
1573   6 C      0.041  1.063  2.896  0.000    26.993     8.518
1574   6 C     -0.040  1.077  2.963  0.000    28.992     8.829
1575   6 C     -0.063  1.076  2.987  0.000    29.558     8.915
1576   6 C     -0.047  1.076  2.971  0.000    29.179     8.858
1577   6 C     -0.045  1.078  2.967  0.000    29.109     8.848
1578   1 H      0.150  0.850  0.000  0.000     1.403     1.856
1579   1 H      0.048  0.952  0.000  0.000     2.350     2.397
1580   1 H      0.028  0.972  0.000  0.000     2.617     2.530
1581   1 H      0.019  0.981  0.000  0.000     2.743     2.590
1582   1 H      0.034  0.966  0.000  0.000     2.536     2.490
1583   1 H      0.229  0.771  0.000  0.000     0.969     1.542
1584   1 H     -0.013  1.013  0.000  0.000     3.299     2.840
1585   1 H      0.088  0.912  0.000  0.000     1.899     2.155
1586   1 H      0.005  0.995  0.000  0.000     2.969     2.694
1587   1 H      0.047  0.953  0.000  0.000     2.352     2.398
1588   7 N     -0.173  1.248  3.925  0.000    24.750     7.389
1589   6 C      0.006  1.055  2.939  0.000    20.484     6.444
1590   6 C      0.249  1.048  2.703  0.000    22.826     7.823
1591   8 O     -0.434  1.714  4.720  0.000    22.362     6.340
1592   6 C      0.059  1.041  2.900  0.000    19.797     6.373
1593   8 O     -0.486  1.742  4.744  0.000    22.591     6.416
1594   1 H      0.235  0.765  0.000  0.000     0.944     1.522
1595   1 H      0.082  0.918  0.000  0.000     1.958     2.188
1596   1 H      0.072  0.928  0.000  0.000     2.058     2.244
1597   1 H      0.051  0.949  0.000  0.000     2.306     2.375
1598   1 H      0.325  0.675  0.000  0.000     0.650     1.267
1599   7 N     -0.158  1.234  3.924  0.000    24.428     7.341
1600   6 C      0.004  1.064  2.933  0.000    20.531     6.453
1601   6 C      0.260  1.046  2.694  0.000    22.612     7.787
1602   8 O     -0.499  1.762  4.737  0.000    23.768     6.536
1603   6 C     -0.133  1.046  3.088  0.000    23.119     6.856
1604   1 H      0.196  0.804  0.000  0.000     1.125     1.662
1605   1 H      0.115  0.885  0.000  0.000     1.655     2.012
1606   1 H      0.061  0.939  0.000  0.000     2.182     2.310
1607   1 H      0.103  0.897  0.000  0.000     1.757     2.073
1608   1 H      0.052  0.948  0.000  0.000     2.297     2.370
1609   7 N     -0.163  1.244  3.919  0.000    24.518     7.354
1610   6 C      0.017  1.060  2.924  0.000    20.305     6.417
1611   6 C      0.269  1.047  2.684  0.000    22.453     7.759
1612   8 O     -0.485  1.736  4.749  0.000    23.452     6.493
1613   6 C     -0.084  1.059  3.025  0.000    22.105     6.693
1614   6 C      0.011  1.079  2.910  0.000    27.774     8.644
1615   6 C     -0.044  1.087  2.957  0.000    29.095     8.846
1616   6 C     -0.037  1.083  2.954  0.000    28.927     8.820
1617   6 C     -0.062  1.073  2.989  0.000    29.537     8.912
1618   6 C     -0.070  1.082  2.988  0.000    29.751     8.944
1619   6 C      0.146  1.047  2.807  0.000    24.825     8.166
1620   8 O     -0.447  1.718  4.729  0.000    21.789     6.301
1621   1 H      0.247  0.753  0.000  0.000     0.895     1.482
1622   1 H      0.072  0.928  0.000  0.000     2.059     2.244
1623   1 H      0.098  0.902  0.000  0.000     1.804     2.100
1624   1 H      0.077  0.923  0.000  0.000     2.005     2.215
1625   1 H      0.069  0.931  0.000  0.000     2.093     2.262
1626   1 H      0.023  0.977  0.000  0.000     2.686     2.563
1627   1 H      0.036  0.964  0.000  0.000     2.500     2.473
1628   1 H      0.019  0.981  0.000  0.000     2.747     2.592
1629   1 H      0.307  0.693  0.000  0.000     0.702     1.316
1630   7 N     -0.172  1.252  3.921  0.000    24.731     7.386
1631   6 C      0.018  1.064  2.919  0.000    20.286     6.415
1632   6 C      0.275  1.048  2.677  0.000    22.353     7.742
1633   8 O     -0.501  1.753  4.748  0.000    23.809     6.542
1634   6 C     -0.020  1.068  2.952  0.000    20.904     6.504
1635   6 C     -0.073  1.062  3.011  0.000    21.903     6.665
1636   6 C     -0.115  1.042  3.073  0.000    22.756     6.803
1637   6 C     -0.121  1.048  3.073  0.000    22.897     6.827
1638   1 H      0.217  0.783  0.000  0.000     1.022     1.584
1639   1 H      0.080  0.920  0.000  0.000     1.975     2.198
1640   1 H      0.033  0.967  0.000  0.000     2.543     2.494
1641   1 H      0.045  0.955  0.000  0.000     2.389     2.417
1642   1 H      0.053  0.947  0.000  0.000     2.283     2.363
1643   1 H      0.060  0.940  0.000  0.000     2.204     2.322
1644   1 H      0.019  0.981  0.000  0.000     2.746     2.591
1645   1 H      0.058  0.942  0.000  0.000     2.225     2.333
1646   1 H      0.062  0.938  0.000  0.000     2.176     2.307
1647   1 H      0.046  0.954  0.000  0.000     2.365     2.405
1648   1 H      0.043  0.957  0.000  0.000     2.412     2.429
1649   7 N     -0.175  1.249  3.926  0.000    24.792     7.395
1650   6 C      0.029  1.055  2.915  0.000    20.096     6.385
1651   6 C      0.267  1.049  2.683  0.000    22.487     7.765
1652   8 O     -0.465  1.725  4.740  0.000    23.025     6.433
1653   6 C     -0.055  1.052  3.004  0.000    21.566     6.612
1654   6 C     -0.087  1.059  3.028  0.000    22.156     6.701
1655   6 C      0.367  1.023  2.609  0.000    20.775     7.459
1656   8 O     -0.650  1.773  4.877  0.000    27.380     7.016
1657   8 O     -0.659  1.779  4.879  0.000    27.602     7.044
1658   1 H      0.220  0.780  0.000  0.000     1.008     1.573
1659   1 H      0.056  0.944  0.000  0.000     2.250     2.346
1660   1 H      0.048  0.952  0.000  0.000     2.345     2.395
1661   1 H      0.054  0.946  0.000  0.000     2.271     2.356
1662   1 H      0.042  0.958  0.000  0.000     2.421     2.433
1663   1 H      0.015  0.985  0.000  0.000     2.803     2.618
1664   7 N     -0.160  1.242  3.918  0.000    24.452     7.344
1665   6 C      0.007  1.067  2.926  0.000    20.480     6.445
1666   6 C      0.271  1.050  2.679  0.000    22.415     7.752
1667   8 O     -0.497  1.758  4.738  0.000    23.711     6.529
1668   6 C     -0.019  1.063  2.956  0.000    20.872     6.498
1669   6 C     -0.110  1.038  3.072  0.000    22.666     6.789
1670   6 C     -0.118  1.042  3.076  0.000    22.817     6.812
1671   1 H      0.179  0.821  0.000  0.000     1.219     1.729
1672   1 H      0.097  0.903  0.000  0.000     1.817     2.108
1673   1 H      0.057  0.943  0.000  0.000     2.230     2.335
1674   1 H      0.056  0.944  0.000  0.000     2.247     2.344
1675   1 H      0.028  0.972  0.000  0.000     2.611     2.527
1676   1 H      0.039  0.961  0.000  0.000     2.469     2.457
1677   1 H      0.062  0.938  0.000  0.000     2.175     2.306
1678   1 H      0.036  0.964  0.000  0.000     2.497     2.471
1679   1 H      0.050  0.950  0.000  0.000     2.315     2.379
1680   7 N     -0.164  1.244  3.920  0.000    24.538     7.357
1681   6 C      0.021  1.061  2.917  0.000    20.232     6.407
1682   6 C      0.192  1.090  2.718  0.000    23.895     8.005
1683   8 O     -0.350  1.759  4.591  0.000    20.710     6.101
1684   6 C     -0.067  1.054  3.013  0.000    21.788     6.645
1685   6 C     -0.089  1.053  3.036  0.000    22.187     6.705
1686   6 C      0.283  1.036  2.681  0.000    22.200     7.715
1687   8 O     -0.502  1.748  4.754  0.000    23.826     6.544
1688   7 N     -0.261  1.264  3.997  0.000    26.762     7.683
1689   1 H      0.218  0.782  0.000  0.000     1.017     1.580
1690   1 H      0.094  0.906  0.000  0.000     1.838     2.120
1691   1 H      0.081  0.919  0.000  0.000     1.970     2.195
1692   1 H      0.080  0.920  0.000  0.000     1.974     2.197
1693   1 H      0.051  0.949  0.000  0.000     2.310     2.377
1694   1 H      0.052  0.948  0.000  0.000     2.295     2.369
1695   1 H      0.220  0.780  0.000  0.000     1.011     1.575
1696   1 H      0.239  0.761  0.000  0.000     0.926     1.507
1697   1 H      0.198  0.802  0.000  0.000     1.118     1.656
1698   1 H      0.086  0.914  0.000  0.000     1.922     2.168
1699   1 H      0.187  0.813  0.000  0.000     1.176     1.698
1700   1 H      0.077  0.923  0.000  0.000     2.009     2.216
1701   1 H      0.183  0.817  0.000  0.000     1.199     1.715
1702   1 H      0.069  0.931  0.000  0.000     2.101     2.266
1703   1 H      0.180  0.820  0.000  0.000     1.214     1.726
1704   1 H      0.085  0.915  0.000  0.000     1.924     2.169
1705   1 H      0.076  0.924  0.000  0.000     2.020     2.222
1706   1 H      0.173  0.827  0.000  0.000     1.252     1.753
1707   1 H      0.107  0.893  0.000  0.000     1.723     2.053
1708   1 H      0.169  0.831  0.000  0.000     1.278     1.771
1709   1 H      0.077  0.923  0.000  0.000     2.011     2.217
1710   1 H      0.195  0.805  0.000  0.000     1.133     1.667
1711   1 H      0.082  0.918  0.000  0.000     1.957     2.187
1712   1 H      0.188  0.812  0.000  0.000     1.170     1.694
1713   1 H      0.080  0.920  0.000  0.000     1.979     2.200
1714   1 H      0.174  0.826  0.000  0.000     1.246     1.748
1715   1 H      0.097  0.903  0.000  0.000     1.808     2.103
1716   1 H      0.184  0.816  0.000  0.000     1.190     1.708
1717   1 H      0.066  0.934  0.000  0.000     2.131     2.283
1718   1 H      0.182  0.818  0.000  0.000     1.205     1.719
1719   1 H      0.050  0.950  0.000  0.000     2.321     2.382
1720   1 H      0.199  0.801  0.000  0.000     1.110     1.651
1721   1 H      0.077  0.923  0.000  0.000     2.008     2.216
1722   1 H      0.189  0.811  0.000  0.000     1.165     1.691
1723   1 H      0.074  0.926  0.000  0.000     2.043     2.235
1724   1 H      0.183  0.817  0.000  0.000     1.194     1.712
1725   1 H      0.071  0.929  0.000  0.000     2.077     2.253
1726   1 H      0.176  0.824  0.000  0.000     1.238     1.743
1727   1 H      0.075  0.925  0.000  0.000     2.029     2.227
1728   1 H      0.190  0.810  0.000  0.000     1.155     1.684
1729   1 H      0.097  0.903  0.000  0.000     1.812     2.105
1730   1 H      0.189  0.811  0.000  0.000     1.163     1.689
1731   1 H      0.075  0.925  0.000  0.000     2.031     2.229
1732   1 H      0.177  0.823  0.000  0.000     1.230     1.737
1733   1 H      0.096  0.904  0.000  0.000     1.824     2.112

 Mol. C6AA /au·bohr⁶  :   27146553.480086
 Mol. C8AA /au·bohr⁸  :  602977004.473044
 Mol. α(0) /au        :       7783.019449

 
molecular dipole:
                 x           y           z       tot (Debye)
 q only:     -232.882     417.990     142.888
   full:     -220.067     416.151     136.119    1245.585
molecular quadrupole (traceless):
                xx          xy          yy          xz          yz          zz
 q only:    -8311.407  -25533.888   23474.033   -6848.324   13784.258  -15162.626
  q+dip:    -8502.100  -24227.718   23539.233   -6423.709   13064.509  -15037.133
   full:    -8492.735  -24220.270   23545.038   -6410.909   13075.052  -15052.303
speedup  1.83
cpu  time for grad    9 m 33.4 s
wall time for grad    5 m 12.9 s

SCC energy    :   -2699.0008860
rep           :      31.8177198
ES            :       9.4974504
AES           :      -0.4457881
AXC           :       0.8096342
disp          :      -2.3608539
XB            :       0.0000000
fix           :       0.0000000
Gborn         :       0.0000000
Gsasa         :       0.0000000
Ghb           :       0.0000000
Gshift        :       0.0000000
Gsolv         :      -3.1035009    -1947.48
Etot ala COSMO:   -2699.0008860
grad norm     :       1.4190571
total E       :   -2666.8884977
atomizationE  :     481.2750055   302004.63
(atE without considering molecular charge,
 total energy contains solvation terms)
H-L gap (eV)  :          0.8251

------------------------------------------------------------------------
 * finished run on 2019/05/05 at 23:32:42.186     
------------------------------------------------------------------------
 total:
 * wall-time:     0 d,  0 h,  5 min, 23.191 sec
 *  cpu-time:     0 d,  0 h,  9 min, 45.775 sec
 * ratio c/w:     1.812 speedup
 SCF:
 * wall-time:     0 d,  0 h,  5 min, 16.597 sec
 *  cpu-time:     0 d,  0 h,  9 min, 38.950 sec
 * ratio c/w:     1.829 speedup

