      -----------------------------------------------------------      
     |                   =====================                   |     
     |                           x T B                           |     
     |                   =====================                   |     
     |                         S. Grimme                         |     
     |          Mulliken Center for Theoretical Chemistry        |     
     |                    University of Bonn                     |     
     |                 Version 6.0.1 (SAW181210)                 |     
      -----------------------------------------------------------      

   This program is distributed in the hope that it will be useful,
   but WITHOUT ANY WARRANTY; without even the implied warranty of
   MERCHANTABILITY or FITNESS FOR A PARTICULAR PURPOSE.
   
   FOR NON-COMMERCIAL, ACADEMIA USE ONLY.
   
   Cite this work as:
   S. Grimme, C. Bannwarth, P. Shushkov, J. Comput. Theory Chem., 2017,
   13, 1989-2009.
   C. Bannwarth, S. Ehlert and S. Grimme., ChemRxiv, 2018, preprint.
   http://doi.org/10.26434/chemrxiv.7246238.v1
   
   for sTDA-xTB:
   S. Grimme and C. Bannwarth, J. Chem. Phys., 2016, 145, 054103.
   
   in the mass-spec context:
   V. Asgeirsson, C. Bauer and S. Grimme, Chem. Sci., 2017, 8, 4879.
   
   if GBSA is used:
   P. Shushkov, F. März and S. Grimme, unpublished.
   
   for ANC optimizer:
   S. Grimme, unpublished.
   Rational Function algorithm used in ANCopt:
   F. Eckert, P. Pulay, H.-J. Werner, J. Comput. Chem., 1997, 18, 1473.
   
   with help from (in alphabetical order)
   C. Bannwarth, F. Bohle, G. Brandenburg, E. Caldeweyher, M. Checinski,
   S. Dohm, S. Ehlert, S. Ehrlich, F. März, H. Neugebauer, J. Pisarek,
   P. Pracht, P. Shushkov, and S. Spicher.
   
 * started run on 2019/05/07 at 20:37:26.526     
========================================================================
 # omp threads = 2
========================================================================
number of atoms            : 715
number of electrons        : 1970
charge                     : 2
spin                       : .0
first test random number   : .1500

########################################################################
# WARNING! Please study the warnings concerning your input carefully
#  - Process number higher than OMP_NUM_THREADS, I hope you know what you are doing.
########################################################################

           ------------------------------------------------- 
          |                 G F N 2 - x T B                 |
          | Geometry, Frequencies, Noncovalent interactions |
          |            JCTC 2018 parametrisation            |
           ------------------------------------------------- 
 
      method parameters     
 k(s)        :  1.8500
 k(p)        :  2.2300
 k(d)        :  2.2300
 k(f)        :  2.0000
 kEN (H0ij)  : -2.0000
 D4 a1       :  0.5200
 D4 a2       :  5.0000
 D4 s6       :  1.0000
 D4 s8       :  2.7000
 D4 s9       :  5.0000
 alphaj      :  2.0000

 Solvent             : h2o
 Using internal parameter file: .param_gbsa2_h2o
 Gsolv ref. state (COSMO-RS): gsolv [1 M gas/solution]
 temperature (mdtemp)       :    298.150000000000     
 dielectric constant        :    80.2000000000000     
 rho                        :    1.00000000000000     
 mass                       :    18.0000000000000     
 surface tension            :    15.5689454083859     
 probe radius               :   0.975313790000000     
 vdW radii scaling          :    1.00000000000000     
 Gshift (Eh)                :   1.857443126794793E-003
 c1                         :    1.55243817000000     
 soset                      :   0.130326360000000     
 HB correction              :  T

            Z     q(EN)     CN     RAES       Cart. coordinates
     1  N   5.0   -0.20    3.27    1.97    79.58366    79.07875   171.48748
     2  C   4.0    0.03    4.41    4.39    77.33166    78.30141   170.15257
     3  C   4.0    0.15    3.46    3.10    76.14570    76.06286   171.52000
     4  O   6.0   -0.30    1.30    1.80    77.29944    74.83676   173.10582
     5  C   4.0   -0.02    4.29    4.17    77.94556    77.41786   167.42128
     6  C   4.0   -0.07    4.10    3.80    78.30408    79.67505   165.67422
     7  C   4.0   -0.06    4.14    3.88    80.28266    75.72995   167.40208
     8  H   1.0    0.13    1.08    1.44    80.58634    77.63015   172.27271
     9  H   1.0    0.05    1.06    1.44    75.97330    79.85032   170.04970
    10  H   1.0    0.06    1.06    1.44    76.32414    76.32675   166.74226
    11  H   1.0    0.05    1.00    1.43    78.91012    79.05063   163.81481
    12  H   1.0    0.05    1.00    1.43    76.53705    80.70125   165.46416
    13  H   1.0    0.05    1.00    1.43    79.73119    80.95444   166.41651
    14  H   1.0    0.05    1.00    1.43    80.53971    74.89839   165.54170
    15  H   1.0    0.05    1.00    1.43    81.95829    76.82946   167.85570
    16  H   1.0    0.06    1.00    1.43    80.09792    74.21749   168.78100
    17  N   5.0   -0.14    3.52    2.09    73.80349    75.49280   170.76850
    18  C   4.0    0.04    4.45    4.46    72.85192    72.93972   170.92117
    19  C   4.0    0.14    3.44    3.09    73.17035    71.78280   168.28886
    20  O   6.0   -0.32    1.28    1.80    72.98391    73.10691   166.38971
    21  C   4.0   -0.03    4.32    4.24    70.05763    72.80085   171.68789
    22  C   4.0   -0.01    3.57    3.15    69.70190    73.66730   174.35932
    23  C   4.0   -0.04    3.46    3.10    69.78954    71.95587   176.34577
    24  C   4.0   -0.04    3.47    3.10    69.36497    76.21446   174.88476
    25  C   4.0   -0.04    3.37    3.07    69.55579    72.77688   178.81891
    26  C   4.0   -0.04    3.38    3.07    69.13067    77.03681   177.35564
    27  C   4.0   -0.04    3.37    3.07    69.23440    75.32135   179.33180
    28  H   1.0    0.11    1.11    1.45    72.93930    76.66557   169.51557
    29  H   1.0    0.07    1.07    1.44    74.01445    71.90646   172.28344
    30  H   1.0    0.04    1.03    1.43    68.95030    73.97690   170.40210
    31  H   1.0    0.04    1.03    1.43    69.45679    70.83785   171.48821
    32  H   1.0    0.06    1.03    1.43    70.01597    69.96441   175.94776
    33  H   1.0    0.06    1.03    1.43    69.23444    77.56064   173.35205
    34  H   1.0    0.05    1.03    1.43    69.59820    71.42161   180.34268
    35  H   1.0    0.07    1.03    1.43    68.85215    79.02716   177.71931
    36  H   1.0    0.05    1.03    1.43    69.01632    75.97591   181.24972
    37  N   5.0   -0.14    3.47    2.06    73.60460    69.31089   168.25245
    38  C   4.0    0.04    4.34    4.28    74.15036    67.97323   165.92246
    39  C   4.0    0.14    3.42    3.08    72.60820    65.53471   165.89141
    40  O   6.0   -0.31    1.28    1.80    72.74066    63.99109   167.62185
    41  C   4.0   -0.06    4.10    3.81    76.97572    67.39595   165.78198
    42  H   1.0    0.11    1.11    1.44    74.05201    68.42370   169.91112
    43  H   1.0    0.05    1.06    1.44    73.56634    69.18648   164.35469
    44  H   1.0    0.05    1.00    1.43    77.37688    66.20209   164.16427
    45  H   1.0    0.05    1.00    1.43    78.02974    69.15106   165.60781
    46  H   1.0    0.05    1.00    1.43    77.56995    66.43880   167.50038
    47  N   5.0   -0.14    3.46    2.05    71.06239    65.24473   163.91894
    48  C   4.0    0.03    4.42    4.42    69.49625    63.01994   163.63302
    49  C   4.0    0.15    3.41    3.08    70.84834    61.12362   161.92055
    50  O   6.0   -0.29    1.23    1.80    72.05433    61.79459   160.07126
    51  C   4.0   -0.05    4.26    4.11    66.94764    63.75774   162.46632
    52  C   4.0   -0.05    4.18    3.96    65.09457    61.55676   162.18899
    53  C   4.0   -0.04    4.17    3.94    63.99987    60.65121   164.70868
    54  C   4.0   -0.03    4.12    3.85    61.91709    58.68651   164.34207
    55  N   5.0   -0.11    4.05    2.99    63.02889    56.19114   163.72711
    56  H   1.0    0.08    1.06    1.44    71.12170    66.50474   162.48220
    57  H   1.0    0.06    1.06    1.44    69.26182    62.22260   165.52873
    58  H   1.0    0.04    1.03    1.43    66.11815    65.24227   163.63544
    59  H   1.0    0.05    1.03    1.43    67.33551    64.55931   160.59952
    60  H   1.0    0.04    1.03    1.43    63.55104    62.22361   160.99357
    61  H   1.0    0.05    1.03    1.43    66.05447    60.03558   161.18312
    62  H   1.0    0.06    1.03    1.43    65.47266    59.85011   165.90367
    63  H   1.0    0.05    1.04    1.43    63.21085    62.27026   165.70179
    64  H   1.0    0.05    1.02    1.43    60.83888    58.50052   166.08500
    65  H   1.0    0.04    1.02    1.43    60.65133    59.27432   162.82656
    66  H   1.0    0.06    1.00    1.43    61.67930    54.75108   163.45702
    67  H   1.0    0.07    1.03    1.43    64.13725    56.32787   162.14707
    68  H   1.0    0.11    1.09    1.44    64.23727    55.68156   165.20873
    69  N   5.0   -0.14    3.49    2.07    70.49487    58.69628   162.57329
    70  C   4.0    0.04    4.31    4.22    71.39527    56.56108   161.12523
    71  C   4.0    0.07    3.23    3.04    69.37727    54.50933   161.31127
    72  O   6.0   -0.31    1.20    1.80    67.92079    54.40432   163.10323
    73  C   4.0   -0.04    4.33    4.25    73.89468    55.49140   162.13962
    74  C   4.0   -0.03    4.07    3.74    75.97302    57.47543   162.00521
    75  S   6.0   -0.02    2.48    3.10    79.08509    56.04142   161.62821
    76  C   4.0   -0.06    3.88    3.44    79.56749    54.76449   164.75791
    77  H   1.0    0.10    1.07    1.44    69.64444    58.24295   164.22549
    78  H   1.0    0.06    1.05    1.44    71.67370    57.21036   159.18151
    79  H   1.0    0.05    1.02    1.43    73.64652    54.85337   164.08770
    80  H   1.0    0.05    1.05    1.44    74.45101    53.86602   160.99783
    81  H   1.0    0.06    1.08    1.44    75.73543    58.67268   160.34776
    82  H   1.0    0.05    1.06    1.44    76.01891    58.67056   163.68342
    83  H   1.0    0.05    1.04    1.44    81.45779    53.97248   164.82320
    84  H   1.0    0.04    1.04    1.43    79.42653    56.26311   166.15386
    85  H   1.0    0.04    1.03    1.43    78.21169    53.27936   165.15967
    86  N   5.0   -0.20    3.15    1.95    66.14315    48.74020   163.32399
    87  C   4.0    0.02    4.15    3.91    66.42747    47.08168   165.46870
    88  C   4.0    0.15    3.33    3.06    66.64598    48.40623   168.01169
    89  O   6.0   -0.30    1.26    1.80    66.39749    47.23742   169.99828
    90  H   1.0    0.10    1.02    1.43    64.43771    49.56155   163.06715
    91  H   1.0    0.06    1.02    1.43    64.86681    45.73105   165.55761
    92  H   1.0    0.05    1.03    1.43    68.18758    46.01733   165.21297
    93  N   5.0   -0.13    3.55    2.12    67.07006    50.88904   167.93579
    94  C   4.0    0.04    4.46    4.48    67.73262    52.28315   170.19166
    95  C   4.0    0.15    3.53    3.13    66.35485    54.80159   170.10617
    96  O   6.0   -0.31    1.36    1.80    65.81563    55.79308   168.07559
    97  C   4.0   -0.03    4.32    4.23    70.61853    52.75833   170.26398
    98  C   4.0   -0.01    3.57    3.15    72.05429    50.31820   169.99913
    99  C   4.0   -0.04    3.48    3.11    72.69352    49.39667   167.62182
   100  C   4.0   -0.04    3.46    3.10    72.71505    48.90767   172.10666
   101  C   4.0   -0.03    3.43    3.09    73.93861    47.12454   167.34008
   102  C   4.0   -0.04    3.43    3.09    73.98229    46.63470   171.85216
   103  C   4.0    0.08    3.44    3.09    74.59085    45.71556   169.46551
   104  O   6.0   -0.23    2.11    1.84    75.79516    43.47101   169.11442
   105  H   1.0    0.10    1.09    1.44    67.36983    51.80755   166.27914
   106  H   1.0    0.05    1.07    1.44    67.15498    51.13667   171.80689
   107  H   1.0    0.05    1.03    1.43    71.09469    54.02694   168.70705
   108  H   1.0    0.04    1.03    1.43    71.12143    53.70597   172.02075
   109  H   1.0    0.05    1.03    1.43    72.22262    50.46319   165.94595
   110  H   1.0    0.05    1.03    1.43    72.28223    49.61492   173.96890
   111  H   1.0    0.07    1.03    1.43    74.42549    46.41130   165.49443
   112  H   1.0    0.05    1.03    1.43    74.54366    45.57888   173.50664
   113  H   1.0    0.13    1.03    1.43    76.19586    42.69444   170.72003
   114  N   5.0   -0.09    3.69    2.26    65.67902    55.83999   172.28009
   115  C   4.0    0.03    4.61    4.68    64.47764    58.31626   172.28769
   116  C   4.0    0.16    3.47    3.10    66.36700    60.37247   171.49613
   117  O   6.0   -0.29    1.27    1.80    68.64542    60.02783   171.45742
   118  C   4.0   -0.04    4.36    4.31    63.76530    58.72640   175.06613
   119  C   4.0   -0.03    4.29    4.19    65.86684    57.31148   176.44086
   120  C   4.0   -0.01    4.37    4.33    66.21974    54.95199   174.81925
   121  H   1.0    0.05    1.05    1.44    62.85819    58.32156   171.00797
   122  H   1.0    0.05    1.02    1.43    63.71028    60.71468   175.58047
   123  H   1.0    0.05    1.02    1.43    61.94387    57.86100   175.46914
   124  H   1.0    0.05    1.03    1.43    67.58379    58.44642   176.44020
   125  H   1.0    0.06    1.04    1.43    65.38077    56.85258   178.38000
   126  H   1.0    0.04    1.02    1.43    68.12161    54.18985   174.97795
   127  H   1.0    0.05    1.02    1.43    64.83691    53.51151   175.35267
   128  N   5.0   -0.14    3.50    2.08    65.26844    62.58802   170.92813
   129  C   4.0    0.04    4.44    4.44    66.70611    64.92109   170.87910
   130  C   4.0    0.16    3.48    3.11    68.43291    64.93740   173.20299
   131  O   6.0   -0.31    1.24    1.80    67.54639    64.97860   175.33342
   132  C   4.0   -0.04    4.32    4.23    64.86710    67.15540   171.02133
   133  C   4.0    0.05    3.79    3.33    63.25022    67.27900   168.72201
   134  N   5.0   -0.19    2.57    1.90    61.38468    65.55898   168.25813
   135  C   4.0   -0.02    3.61    3.17    63.37876    68.95775   166.75536
   136  C   4.0    0.06    3.64    3.19    60.39541    66.19766   166.08618
   137  N   5.0   -0.12    3.45    2.05    61.54837    68.24363   165.09103
   138  H   1.0    0.08    1.08    1.44    63.36429    62.79356   170.89277
   139  H   1.0    0.05    1.05    1.44    67.86353    65.02089   169.16255
   140  H   1.0    0.06    1.03    1.43    63.72204    66.92736   172.72122
   141  H   1.0    0.04    1.03    1.43    65.93200    68.90978   171.20267
   142  H   1.0    0.05    1.02    1.43    64.57444    70.55821   166.45083
   143  H   1.0    0.04    1.02    1.43    58.86374    65.22113   165.19819
   144  H   1.0    0.07    1.05    1.44    61.13611    69.12997   163.45633
   145  N   5.0   -0.13    3.48    2.07    70.91721    64.91290   172.70039
   146  C   4.0    0.04    4.44    4.44    72.76760    64.38662   174.64954
   147  C   4.0    0.14    3.50    3.11    74.47995    66.68085   174.98816
   148  O   6.0   -0.31    1.33    1.80    75.17265    67.89905   173.12640
   149  C   4.0   -0.03    4.29    4.19    74.31177    62.05807   173.80773
   150  C   4.0   -0.03    3.68    3.23    75.69638    60.86192   175.94529
   151  C   4.0   -0.01    3.63    3.18    77.82231    61.73258   177.12727
   152  C   4.0    0.00    3.90    3.46    74.95806    58.62538   177.25800
   153  N   5.0   -0.12    3.49    2.07    78.43454    60.20454   179.11173
   154  C   4.0    0.03    3.89    3.45    76.71999    58.28605   179.24851
   155  C   4.0   -0.05    3.41    3.08    73.02045    56.86528   176.92149
   156  C   4.0   -0.04    3.40    3.08    76.51766    56.27214   180.92625
   157  C   4.0   -0.05    3.38    3.07    72.84533    54.86781   178.58162
   158  C   4.0   -0.04    3.38    3.07    74.56832    54.58165   180.57114
   159  H   1.0    0.11    1.10    1.44    71.54243    64.63219   170.90544
   160  H   1.0    0.05    1.07    1.44    71.73548    63.99611   176.39408
   161  H   1.0    0.06    1.04    1.43    72.97529    60.71208   173.00026
   162  H   1.0    0.06    1.03    1.43    75.60726    62.65829   172.31759
   163  H   1.0    0.07    1.03    1.43    78.95178    63.36810   176.72340
   164  H   1.0    0.10    1.07    1.44    79.98244    60.43042   180.19767
   165  H   1.0    0.05    1.03    1.43    71.70772    57.11239   175.38308
   166  H   1.0    0.06    1.03    1.43    77.86508    56.03723   182.44352
   167  H   1.0    0.05    1.03    1.43    71.35582    53.49303   178.37870
   168  H   1.0    0.06    1.03    1.43    74.43355    52.98447   181.83142
   169  N   5.0   -0.10    3.66    2.22    75.16997    67.36576   177.31716
   170  C   4.0    0.03    4.58    4.64    76.78220    69.58132   177.69876
   171  C   4.0    0.15    3.44    3.09    79.42760    69.10662   176.62224
   172  O   6.0   -0.32    1.29    1.80    80.56871    67.12122   177.00867
   173  C   4.0   -0.04    4.33    4.26    76.83753    69.92775   180.57780
   174  C   4.0   -0.04    4.27    4.14    76.38474    67.25580   181.56518
   175  C   4.0   -0.01    4.36    4.31    74.45485    66.20199   179.70028
   176  H   1.0    0.05    1.05    1.44    75.97086    71.21957   176.72971
   177  H   1.0    0.04    1.02    1.43    78.60999    70.72935   181.24997
   178  H   1.0    0.04    1.02    1.43    75.30991    71.18423   181.15216
   179  H   1.0    0.05    1.02    1.43    78.13662    66.17269   181.45639
   180  H   1.0    0.04    1.02    1.43    75.72333    67.21711   183.51057
   181  H   1.0    0.04    1.03    1.43    74.53272    64.14956   179.59777
   182  H   1.0    0.04    1.02    1.43    72.54104    66.79962   180.22140
   183  N   5.0   -0.13    3.49    2.07    80.41764    70.99349   175.28039
   184  C   4.0    0.04    4.25    4.11    82.67706    70.61831   173.78016
   185  C   4.0    0.07    3.21    3.04    83.74960    73.18862   173.02896
   186  O   6.0   -0.30    1.21    1.80    82.64175    75.17001   173.48494
   187  C   4.0   -0.07    4.11    3.82    82.03360    69.04545   171.43799
   188  H   1.0    0.12    1.11    1.44    79.39254    72.54918   174.81971
   189  H   1.0    0.05    1.05    1.44    84.09709    69.61601   174.90665
   190  H   1.0    0.04    1.00    1.43    83.73677    68.49415   170.44531
   191  H   1.0    0.06    1.00    1.43    81.01829    67.35373   172.01220
   192  H   1.0    0.05    1.00    1.43    80.81714    70.11671   170.17487
   193  N   5.0   -0.19    3.24    1.96    88.15186    63.74103   172.68972
   194  C   4.0    0.03    4.33    4.26    85.93439    63.40990   174.25215
   195  C   4.0    0.16    3.45    3.09    86.68498    63.34146   177.04189
   196  O   6.0   -0.30    1.28    1.80    88.31597    61.90842   177.85166
   197  C   4.0   -0.03    4.35    4.28    84.60884    60.92296   173.59477
   198  C   4.0   -0.02    3.57    3.15    83.56248    60.96876   170.96688
   199  C   4.0   -0.04    3.47    3.10    81.05149    61.60226   170.54828
   200  C   4.0   -0.04    3.48    3.10    85.08493    60.40522   168.91129
   201  C   4.0   -0.04    3.37    3.07    80.06467    61.63405   168.12899
   202  C   4.0   -0.04    3.38    3.07    84.11137    60.47961   166.48726
   203  C   4.0   -0.04    3.38    3.07    81.60048    61.08592   166.08487
   204  H   1.0    0.09    1.02    1.43    89.19735    62.18442   172.31016
   205  H   1.0    0.04    1.06    1.44    84.68615    65.02011   173.89799
   206  H   1.0    0.06    1.03    1.43    85.97291    59.38726   173.81094
   207  H   1.0    0.05    1.03    1.43    83.08926    60.60281   174.95357
   208  H   1.0    0.05    1.03    1.43    79.85961    62.02520   172.14997
   209  H   1.0    0.05    1.03    1.43    87.03821    59.88074   169.19303
   210  H   1.0    0.06    1.03    1.43    78.08960    62.06600   167.84655
   211  H   1.0    0.06    1.03    1.43    85.34301    60.03536   164.92326
   212  H   1.0    0.05    1.03    1.43    80.85595    61.08946   164.18711
   213  N   5.0   -0.13    3.49    2.07    85.47135    64.99152   178.51906
   214  C   4.0    0.04    4.47    4.50    86.04576    65.05747   181.18601
   215  C   4.0    0.15    3.46    3.10    85.13299    62.62326   182.42858
   216  O   6.0   -0.31    1.31    1.80    83.45330    61.31580   181.49394
   217  C   4.0   -0.03    4.34    4.28    84.84880    67.36463   182.42137
   218  C   4.0   -0.01    3.57    3.15    86.06017    69.77126   181.52955
   219  C   4.0   -0.03    3.47    3.10    88.45051    70.41682   182.40243
   220  C   4.0   -0.04    3.47    3.10    84.80637    71.41717   179.91887
   221  C   4.0   -0.03    3.38    3.07    89.53904    72.68097   181.68673
   222  C   4.0   -0.03    3.37    3.07    85.89726    73.67907   179.18768
   223  C   4.0   -0.03    3.37    3.07    88.26715    74.31539   180.08129
   224  H   1.0    0.10    1.09    1.44    83.86639    65.86853   177.91747
   225  H   1.0    0.06    1.06    1.44    88.10532    65.14211   181.40233
   226  H   1.0    0.05    1.03    1.43    82.82526    67.37233   182.01961
   227  H   1.0    0.06    1.04    1.43    85.13966    67.22299   184.45658
   228  H   1.0    0.07    1.03    1.43    89.41337    69.17138   183.70485
   229  H   1.0    0.06    1.04    1.43    82.92591    70.95562   179.28683
   230  H   1.0    0.06    1.03    1.43    91.37359    73.21460   182.41051
   231  H   1.0    0.07    1.03    1.43    84.86773    74.94096   177.95909
   232  H   1.0    0.06    1.03    1.43    89.15212    76.08298   179.58692
   233  N   5.0   -0.15    3.38    2.01    86.31475    62.00082   184.56213
   234  C   4.0    0.02    4.25    4.10    85.51563    59.86661   186.06331
   235  C   4.0    0.16    3.32    3.06    86.55996    57.33312   185.13635
   236  O   6.0   -0.28    1.23    1.80    87.45404    55.79567   186.61044
   237  H   1.0    0.11    1.12    1.45    87.55107    63.26668   185.34723
   238  H   1.0    0.06    1.03    1.43    86.13630    60.13986   188.00986
   239  H   1.0    0.07    1.03    1.43    83.44435    59.72172   186.04170
   240  N   5.0   -0.14    3.54    2.11    86.31708    56.87809   182.66353
   241  C   4.0    0.05    4.49    4.52    87.31092    54.60374   181.54553
   242  C   4.0    0.16    3.44    3.09    89.91376    54.96382   180.29698
   243  O   6.0   -0.27    1.22    1.80    91.31323    53.15966   179.93687
   244  C   4.0    0.05    4.25    4.10    85.51075    53.60519   179.49865
   245  O   6.0   -0.24    2.13    1.84    85.67713    55.29536   177.43052
   246  C   4.0   -0.06    4.08    3.76    82.81433    53.36007   180.49145
   247  H   1.0    0.11    1.10    1.44    85.41755    58.12480   181.52809
   248  H   1.0    0.07    1.06    1.44    87.52873    53.21365   183.06207
   249  H   1.0    0.05    1.03    1.43    86.20860    51.73368   178.90759
   250  H   1.0    0.12    1.01    1.43    84.96080    54.41886   175.94240
   251  H   1.0    0.05    1.00    1.43    81.61559    52.60043   179.00793
   252  H   1.0    0.05    1.00    1.43    82.74988    52.10338   182.10880
   253  H   1.0    0.06    1.00    1.43    82.09225    55.20514   181.02383
   254  N   5.0   -0.13    3.50    2.08    90.45643    57.34765   179.66105
   255  C   4.0    0.04    4.32    4.23    92.83331    58.12460   178.55940
   256  C   4.0    0.10    3.21    3.04    93.34312    56.80581   176.02207
   257  O   6.0   -0.26    1.13    1.80    95.47529    56.41075   175.22827
   258  C   4.0   -0.01    4.31    4.21    95.02828    57.70347   180.40001
   259  C   4.0    0.06    3.76    3.29    94.67549    58.97364   182.89484
   260  N   5.0   -0.15    2.52    1.90    95.87575    58.07066   184.99969
   261  C   4.0    0.01    3.61    3.17    93.26509    61.04592   183.54886
   262  C   4.0    0.09    3.64    3.19    95.21728    59.57782   186.85162
   263  N   5.0   -0.10    3.44    2.04    93.63634    61.41383   186.07967
   264  H   1.0    0.11    1.10    1.44    89.10349    58.68573   179.75575
   265  H   1.0    0.06    1.06    1.44    92.66395    60.14157   178.11796
   266  H   1.0    0.08    1.03    1.43    95.23343    55.67441   180.70553
   267  H   1.0    0.07    1.03    1.43    96.75472    58.38841   179.49215
   268  H   1.0    0.06    1.01    1.43    92.03051    62.22531   182.46006
   269  H   1.0    0.06    1.02    1.43    95.83530    59.41524   188.77177
   270  H   1.0    0.11    1.06    1.44    92.81262    62.74560   187.19620
   271  N   5.0   -0.19    3.27    1.97    71.12451    77.45826   163.29777
   272  C   4.0    0.03    4.25    4.10    69.44987    79.31533   164.40984
   273  C   4.0    0.08    3.22    3.04    70.98811    80.82294   166.32939
   274  O   6.0   -0.32    1.21    1.80    71.96425    79.72472   168.14191
   275  C   4.0   -0.03    4.33    4.25    67.22901    77.98666   165.75118
   276  C   4.0   -0.02    3.58    3.16    65.83151    76.37827   163.87598
   277  C   4.0   -0.04    3.46    3.10    63.75737    77.33162   162.58044
   278  C   4.0   -0.04    3.49    3.11    66.69325    73.96955   163.28284
   279  C   4.0   -0.03    3.37    3.07    62.57405    75.91740   160.72600
   280  C   4.0   -0.04    3.38    3.07    65.51238    72.55563   161.42591
   281  C   4.0   -0.04    3.37    3.07    63.45505    73.52567   160.13589
   282  H   1.0    0.12    1.05    1.44    71.89545    76.19141   164.51446
   283  H   1.0    0.04    1.05    1.44    68.73810    80.49523   162.87654
   284  H   1.0    0.05    1.03    1.43    67.99907    76.84212   167.28791
   285  H   1.0    0.04    1.03    1.43    66.00438    79.42510   166.58108
   286  H   1.0    0.05    1.03    1.43    63.08958    79.21257   163.02106
   287  H   1.0    0.06    1.03    1.43    68.31473    73.19936   164.26089
   288  H   1.0    0.06    1.03    1.43    60.98195    76.70395   159.72259
   289  H   1.0    0.05    1.03    1.43    66.24306    70.70418   160.96978
   290  H   1.0    0.06    1.03    1.43    62.57961    72.44357   158.64652
   291  N   5.0   -0.20    3.19    1.95    73.92040    83.62620   172.09710
   292  C   4.0    0.03    4.22    4.04    73.29123    82.60529   174.56913
   293  C   4.0    0.09    3.27    3.05    71.65508    84.43460   176.07922
   294  O   6.0   -0.28    1.12    1.80    69.73675    83.75999   177.15559
   295  C   4.0   -0.03    4.32    4.23    75.68164    82.00239   176.09575
   296  C   4.0   -0.01    3.59    3.16    75.19608    81.95725   178.90143
   297  C   4.0   -0.04    3.47    3.10    74.14624    79.85864   180.07806
   298  C   4.0   -0.03    3.48    3.11    75.82772    84.02347   180.38522
   299  C   4.0   -0.03    3.43    3.09    73.70704    79.82881   182.65122
   300  C   4.0   -0.04    3.44    3.09    75.40897    84.01714   182.95987
   301  C   4.0    0.07    3.45    3.09    74.32773    81.92243   184.11932
   302  O   6.0   -0.23    2.11    1.84    73.85620    81.87151   186.63850
   303  H   1.0    0.08    1.02    1.43    75.77150    83.53619   171.51745
   304  H   1.0    0.05    1.05    1.44    72.14915    80.89098   174.31620
   305  H   1.0    0.05    1.03    1.43    76.42316    80.17895   175.47895
   306  H   1.0    0.05    1.03    1.43    77.08635    83.45327   175.67976
   307  H   1.0    0.06    1.03    1.43    73.68014    78.22081   178.95496
   308  H   1.0    0.06    1.03    1.43    76.67645    85.68455   179.55247
   309  H   1.0    0.06    1.03    1.43    72.89487    78.19461   183.55635
   310  H   1.0    0.06    1.03    1.43    75.88142    85.68423   184.04301
   311  H   1.0    0.13    1.04    1.43    74.47426    83.41186   187.40495
   312  N   5.0   -0.21    3.23    1.96    61.05372    82.16565   182.49553
   313  C   4.0    0.03    4.32    4.23    59.12544    80.77200   183.84879
   314  C   4.0    0.15    3.43    3.09    57.37143    79.23539   182.13910
   315  O   6.0   -0.30    1.26    1.80    55.92348    77.67093   183.02111
   316  C   4.0   -0.03    4.25    4.11    57.58418    82.47354   185.62095
   317  C   4.0   -0.03    4.21    4.03    56.34558    80.85458   187.64838
   318  C   4.0    0.26    3.10    3.02    54.55245    82.27166   189.46329
   319  O   6.0   -0.25    1.17    1.80    54.29399    84.58453   189.29556
   320  O   6.0   -0.29    1.36    1.80    53.45435    80.85675   191.05200
   321  H   1.0    0.09    1.02    1.43    60.72116    83.97409   181.99453
   322  H   1.0    0.05    1.06    1.44    60.14344    79.37427   185.00059
   323  H   1.0    0.06    1.03    1.43    58.82729    83.86253   186.49985
   324  H   1.0    0.06    1.02    1.43    56.13711    83.50552   184.57425
   325  H   1.0    0.07    1.05    1.44    55.22945    79.38812   186.73147
   326  H   1.0    0.05    1.03    1.43    57.79830    79.95127   188.80395
   327  N   5.0   -0.14    3.48    2.07    57.49110    79.72742   179.64967
   328  C   4.0    0.04    4.44    4.45    56.10874    78.11856   177.91953
   329  C   4.0    0.16    3.45    3.09    57.13029    75.40456   177.93465
   330  O   6.0   -0.29    1.23    1.80    55.73236    73.61527   177.54457
   331  C   4.0   -0.05    4.26    4.12    56.19064    79.12761   175.20485
   332  C   4.0   -0.04    4.20    4.01    54.24242    77.75131   173.56594
   333  C   4.0   -0.05    4.16    3.93    54.75267    78.12770   170.74600
   334  C   4.0   -0.03    4.12    3.83    52.68217    76.99895   169.09005
   335  N   5.0   -0.12    4.02    2.92    52.47659    74.21696   169.49228
   336  H   1.0    0.08    1.07    1.44    58.96210    80.71698   178.93532
   337  H   1.0    0.07    1.06    1.44    54.15157    78.02579   178.59312
   338  H   1.0    0.05    1.02    1.43    55.82345    81.15669   175.22716
   339  H   1.0    0.04    1.03    1.43    58.09639    78.84876   174.45554
   340  H   1.0    0.06    1.04    1.43    54.34663    75.75400   174.06015
   341  H   1.0    0.05    1.03    1.43    52.37039    78.46485   174.04988
   342  H   1.0    0.04    1.03    1.43    54.87952    80.14454   170.34326
   343  H   1.0    0.04    1.03    1.43    56.58023    77.29757   170.27103
   344  H   1.0    0.05    1.02    1.43    50.87042    77.87356   169.53394
   345  H   1.0    0.05    1.02    1.43    53.13158    77.35632   167.11151
   346  H   1.0    0.06    1.02    1.43    51.22925    73.42647   168.22018
   347  H   1.0    0.06    1.02    1.43    54.23580    73.39523   169.28687
   348  H   1.0    0.06    1.02    1.43    51.85411    73.85267   171.30269
   349  N   5.0   -0.14    3.49    2.07    59.63587    75.18311   178.30474
   350  C   4.0    0.04    4.43    4.43    60.88535    72.76073   178.15175
   351  C   4.0    0.14    3.41    3.08    62.17626    71.89697   180.58697
   352  O   6.0   -0.30    1.25    1.80    62.75774    69.67102   180.87095
   353  C   4.0   -0.03    4.33    4.26    62.87828    72.73810   176.03569
   354  C   4.0   -0.01    3.56    3.14    61.68960    72.96056   173.46879
   355  C   4.0   -0.03    3.48    3.11    59.98957    71.14131   172.63054
   356  C   4.0   -0.04    3.46    3.10    62.29294    74.96719   171.88838
   357  C   4.0   -0.04    3.38    3.07    58.90553    71.32367   170.26160
   358  C   4.0   -0.05    3.37    3.07    61.23016    75.13735   169.50167
   359  C   4.0   -0.04    3.38    3.07    59.52923    73.32240   168.68566
   360  H   1.0    0.07    1.07    1.44    60.73138    76.74997   178.29246
   361  H   1.0    0.07    1.07    1.44    59.40573    71.37234   177.73343
   362  H   1.0    0.04    1.03    1.43    64.20482    74.29132   176.34666
   363  H   1.0    0.05    1.03    1.43    63.92933    70.96400   176.17582
   364  H   1.0    0.06    1.03    1.43    59.53303    69.56454   173.83957
   365  H   1.0    0.05    1.03    1.43    63.62524    76.38619   172.51152
   366  H   1.0    0.06    1.03    1.43    57.61898    69.86678   169.64477
   367  H   1.0    0.05    1.03    1.43    61.74434    76.69568   168.28596
   368  H   1.0    0.05    1.03    1.43    58.73883    73.47391   166.81150
   369  N   5.0   -0.14    3.38    2.01    62.62874    73.66671   182.33189
   370  C   4.0    0.01    4.26    4.12    64.24206    73.17946   184.48744
   371  C   4.0    0.15    3.31    3.05    62.80150    72.18671   186.78587
   372  O   6.0   -0.31    1.21    1.80    62.88673    73.26280   188.82650
   373  H   1.0    0.08    1.07    1.44    62.34558    75.51725   181.94408
   374  H   1.0    0.05    1.03    1.43    65.64645    71.75512   183.95291
   375  H   1.0    0.05    1.03    1.43    65.17589    74.94356   184.99350
   376  N   5.0   -0.13    3.50    2.08    61.46001    70.09277   186.33015
   377  C   4.0    0.03    4.44    4.44    60.07174    68.77110   188.28593
   378  C   4.0    0.14    3.55    3.14    61.43298    66.30088   188.86170
   379  O   6.0   -0.29    1.31    1.80    62.17462    64.94396   187.13179
   380  C   4.0   -0.04    4.27    4.14    57.39876    68.10520   187.37784
   381  C   4.0   -0.04    4.18    3.96    55.80659    70.46083   186.89184
   382  C   4.0   -0.05    4.16    3.92    54.92815    71.74771   189.34360
   383  C   4.0   -0.03    4.13    3.85    55.17412    74.61351   189.12091
   384  N   5.0   -0.11    4.00    2.86    53.94656    75.92603   191.26294
   385  H   1.0    0.11    1.08    1.44    61.70062    69.17413   184.66233
   386  H   1.0    0.05    1.07    1.44    60.03960    70.01562   189.92771
   387  H   1.0    0.06    1.03    1.43    57.59078    67.00917   185.64332
   388  H   1.0    0.05    1.03    1.43    56.50136    66.90290   188.79081
   389  H   1.0    0.06    1.04    1.43    56.92776    71.79002   185.78432
   390  H   1.0    0.05    1.03    1.43    54.17295    69.94140   185.75569
   391  H   1.0    0.05    1.03    1.43    52.96635    71.24448   189.71496
   392  H   1.0    0.04    1.03    1.43    56.06425    71.08957   190.93121
   393  H   1.0    0.05    1.02    1.43    57.16761    75.13389   189.07591
   394  H   1.0    0.06    1.02    1.43    54.30407    75.25273   187.36583
   395  H   1.0    0.11    1.12    1.45    53.87012    78.02238   191.05985
   396  H   1.0    0.07    1.03    1.43    52.10671    75.34372   191.42389
   397  H   1.0    0.07    1.02    1.43    54.86098    75.53644   192.92124
   398  N   5.0   -0.10    3.68    2.25    61.73436    65.64549   191.27987
   399  C   4.0    0.03    4.61    4.68    62.95469    63.24211   191.86357
   400  C   4.0    0.16    3.49    3.11    61.72629    61.14890   190.30232
   401  O   6.0   -0.28    1.25    1.80    59.48261    61.11851   189.82789
   402  C   4.0   -0.04    4.33    4.26    62.56332    62.93809   194.70846
   403  C   4.0   -0.04    4.28    4.16    62.57041    65.67285   195.62490
   404  C   4.0   -0.01    4.35    4.29    61.13092    67.07017   193.54756
   405  H   1.0    0.04    1.05    1.44    64.97394    63.37715   191.40365
   406  H   1.0    0.05    1.03    1.43    60.72810    62.07280   195.06804
   407  H   1.0    0.04    1.02    1.43    64.04382    61.80936   195.57573
   408  H   1.0    0.04    1.02    1.43    61.68632    65.90010   197.46198
   409  H   1.0    0.04    1.03    1.43    64.49913    66.38761   195.74047
   410  H   1.0    0.04    1.02    1.43    59.09501    67.00556   193.90034
   411  H   1.0    0.04    1.02    1.43    61.74340    69.03245   193.40110
   412  N   5.0   -0.15    3.46    2.06    63.31949    59.24290   189.63153
   413  C   4.0    0.04    4.45    4.46    62.57630    57.60593   187.56117
   414  C   4.0    0.14    3.44    3.09    63.11569    54.80409   187.97733
   415  O   6.0   -0.29    1.27    1.80    62.62353    53.25796   186.35306
   416  C   4.0   -0.03    4.33    4.26    63.83073    58.48143   185.09239
   417  C   4.0    0.17    3.24    3.04    62.41422    57.49724   182.79784
   418  O   6.0   -0.30    1.22    1.80    63.22623    55.83157   181.44380
   419  N   5.0   -0.18    3.20    1.96    60.20144    58.66991   182.39861
   420  H   1.0    0.07    1.07    1.44    65.19282    59.60198   189.75544
   421  H   1.0    0.07    1.08    1.44    60.51565    57.80691   187.41463
   422  H   1.0    0.06    1.03    1.43    63.81722    60.54377   185.05489
   423  H   1.0    0.05    1.03    1.43    65.78355    57.82826   185.01473
   424  H   1.0    0.10    1.03    1.43    59.09160    58.13293   180.94962
   425  H   1.0    0.10    1.03    1.43    59.62527    60.09453   183.51469
   426  N   5.0   -0.15    3.47    2.06    64.17994    54.21033   190.20660
   427  C   4.0    0.04    4.38    4.34    64.39172    51.61367   191.07975
   428  C   4.0    0.16    3.42    3.08    66.16062    49.95372   189.48265
   429  O   6.0   -0.29    1.25    1.80    66.30142    47.68606   189.90657
   430  C   4.0   -0.03    4.29    4.19    61.81505    50.23823   191.14585
   431  C   4.0   -0.05    4.16    3.91    59.97459    51.19260   193.15528
   432  C   4.0   -0.05    4.16    3.92    60.73382    50.57406   195.87860
   433  C   4.0   -0.03    4.12    3.85    60.74139    47.73768   196.39436
   434  N   5.0   -0.11    4.01    2.90    61.24094    47.24538   199.12332
   435  H   1.0    0.08    1.08    1.44    64.32470    55.63091   191.47565
   436  H   1.0    0.05    1.05    1.44    65.21076    51.67803   192.97597
   437  H   1.0    0.07    1.04    1.43    60.95281    50.46290   189.28792
   438  H   1.0    0.06    1.04    1.43    62.19780    48.23159   191.39130
   439  H   1.0    0.05    1.03    1.43    59.77832    53.23652   192.96639
   440  H   1.0    0.05    1.03    1.43    58.12842    50.36284   192.76513
   441  H   1.0    0.04    1.03    1.43    62.59640    51.36337   196.26820
   442  H   1.0    0.05    1.03    1.43    59.36973    51.49387   197.11993
   443  H   1.0    0.05    1.02    1.43    58.91268    46.93291   195.89203
   444  H   1.0    0.05    1.02    1.43    62.20452    46.80556   195.28415
   445  H   1.0    0.07    1.02    1.43    61.23181    45.33583   199.49080
   446  H   1.0    0.07    1.02    1.43    62.97797    47.96672   199.62761
   447  H   1.0    0.06    1.02    1.43    59.88818    48.11052   200.22961
   448  N   5.0   -0.12    3.51    2.08    67.46566    51.07214   187.62733
   449  C   4.0    0.03    4.43    4.43    69.15123    49.65409   186.00768
   450  C   4.0    0.15    3.44    3.09    71.85908    49.81756   186.99953
   451  O   6.0   -0.30    1.31    1.80    72.63894    51.66535   188.18058
   452  C   4.0   -0.05    4.26    4.13    69.05542    50.65677   183.29326
   453  C   4.0   -0.04    4.17    3.94    66.45280    50.35280   182.07033
   454  C   4.0   -0.00    4.21    4.01    65.82765    47.60507   181.41441
   455  N   5.0   -0.14    3.38    2.01    67.33269    46.62528   179.33763
   456  C   4.0    0.10    3.34    3.06    66.78894    46.90445   176.89921
   457  N   5.0   -0.18    3.26    1.97    64.78582    48.23009   176.13050
   458  N   5.0   -0.18    3.25    1.97    68.28529    45.88986   175.15095
   459  H   1.0    0.09    1.08    1.44    67.48804    52.96746   187.46035
   460  H   1.0    0.06    1.07    1.44    68.52405    47.68836   186.12720
   461  H   1.0    0.05    1.03    1.43    69.53805    52.66140   183.34007
   462  H   1.0    0.05    1.03    1.43    70.49684    49.68183   182.19120
   463  H   1.0    0.07    1.03    1.43    65.00881    51.08627   183.34327
   464  H   1.0    0.05    1.03    1.43    66.40105    51.51785   180.37484
   465  H   1.0    0.05    1.03    1.43    66.17438    46.40220   183.04787
   466  H   1.0    0.05    1.03    1.43    63.82285    47.44784   180.96088
   467  H   1.0    0.09    1.07    1.44    68.96048    45.74615   179.82805
   468  H   1.0    0.09    1.03    1.43    63.53683    48.94313   177.37729
   469  H   1.0    0.10    1.04    1.43    64.28699    48.11298   174.29281
   470  H   1.0    0.09    1.03    1.43    69.78503    44.82543   175.62589
   471  H   1.0    0.12    1.05    1.44    67.85782    46.07672   173.29056
   472  N   5.0   -0.14    3.44    2.04    73.29007    47.80136   186.49503
   473  C   4.0    0.04    4.41    4.40    75.84010    47.60260   187.50995
   474  C   4.0    0.16    3.47    3.10    77.35588    49.95842   186.74540
   475  O   6.0   -0.31    1.23    1.80    77.85732    50.39603   184.54609
   476  C   4.0   -0.04    4.28    4.16    77.12204    45.22943   186.47344
   477  C   4.0   -0.05    4.18    3.95    79.67523    44.71484   187.72754
   478  C   4.0   -0.05    4.17    3.93    80.89123    42.34830   186.57825
   479  C   4.0   -0.03    4.11    3.82    83.62724    41.94331   187.37855
   480  N   5.0   -0.11    4.01    2.90    83.81757    41.30353   190.12015
   481  H   1.0    0.09    1.08    1.44    72.65958    46.40107   185.32870
   482  H   1.0    0.05    1.05    1.44    75.71989    47.54490   189.57861
   483  H   1.0    0.05    1.03    1.43    75.86959    43.62632   186.80068
   484  H   1.0    0.05    1.03    1.43    77.40061    45.50741   184.45025
   485  H   1.0    0.05    1.03    1.43    80.90427    46.34700   187.43519
   486  H   1.0    0.05    1.02    1.43    79.37359    44.49756   189.75541
   487  H   1.0    0.05    1.02    1.43    79.76419    40.68985   187.05161
   488  H   1.0    0.05    1.03    1.43    80.88837    42.54755   184.52911
   489  H   1.0    0.05    1.02    1.43    84.44221    40.39086   186.29675
   490  H   1.0    0.05    1.02    1.43    84.73010    43.64678   187.01859
   491  H   1.0    0.07    1.02    1.43    85.66511    40.93856   190.60977
   492  H   1.0    0.06    1.02    1.43    83.18127    42.79071   191.20126
   493  H   1.0    0.06    1.02    1.43    82.73700    39.73048   190.51875
   494  N   5.0   -0.14    3.37    2.01    78.17942    51.40687   188.68520
   495  C   4.0    0.03    4.26    4.12    79.74332    53.58271   188.25500
   496  C   4.0    0.16    3.35    3.06    78.37525    56.07660   187.87483
   497  O   6.0   -0.32    1.31    1.80    79.59908    58.05215   187.64193
   498  H   1.0    0.10    1.06    1.44    77.47541    51.20991   190.44496
   499  H   1.0    0.06    1.03    1.43    81.06245    53.84379   189.82173
   500  H   1.0    0.06    1.04    1.43    80.84681    53.26618   186.52876
   501  N   5.0   -0.14    3.49    2.07    75.87721    56.01565   187.62657
   502  C   4.0    0.04    4.46    4.47    74.55191    58.29038   186.88507
   503  C   4.0    0.16    3.48    3.11    74.45195    60.21715   189.01331
   504  O   6.0   -0.32    1.32    1.80    74.91657    62.45332   188.63695
   505  C   4.0   -0.03    4.34    4.27    71.89694    57.60225   185.97478
   506  C   4.0   -0.01    3.56    3.14    70.54635    59.79173   184.76250
   507  C   4.0   -0.04    3.47    3.10    69.27383    61.57518   186.20895
   508  C   4.0   -0.04    3.47    3.10    70.45300    59.97524   182.14843
   509  C   4.0   -0.04    3.39    3.07    67.87770    63.45832   185.04800
   510  C   4.0   -0.04    3.38    3.07    69.07948    61.87553   180.99243
   511  C   4.0   -0.03    3.37    3.07    67.76942    63.61252   182.43804
   512  H   1.0    0.11    1.10    1.44    74.86587    54.40168   187.93145
   513  H   1.0    0.06    1.06    1.44    75.62327    59.19397   185.35359
   514  H   1.0    0.05    1.04    1.43    72.12295    56.08837   184.59312
   515  H   1.0    0.05    1.03    1.43    70.84441    56.89876   187.60649
   516  H   1.0    0.05    1.03    1.43    69.35707    61.46312   188.25008
   517  H   1.0    0.05    1.05    1.44    71.43379    58.59526   181.02421
   518  H   1.0    0.06    1.03    1.43    66.79449    64.76675   186.17182
   519  H   1.0    0.06    1.03    1.43    68.98175    61.98952   178.96105
   520  H   1.0    0.07    1.03    1.43    66.65403    65.06589   181.54404
   521  N   5.0   -0.14    3.53    2.10    73.66097    59.37174   191.26579
   522  C   4.0    0.04    4.40    4.38    73.47677    61.09978   193.36899
   523  C   4.0    0.16    3.43    3.09    76.03263    62.34061   193.95676
   524  O   6.0   -0.31    1.23    1.80    76.15553    64.51181   194.77026
   525  C   4.0    0.04    4.12    3.85    72.43385    59.74494   195.75293
   526  O   6.0   -0.24    2.09    1.84    71.66123    57.28418   195.17882
   527  H   1.0    0.11    1.08    1.44    73.53746    57.51312   191.70875
   528  H   1.0    0.05    1.05    1.44    72.21430    62.65560   192.82643
   529  H   1.0    0.05    1.01    1.43    73.89800    59.75040   197.22240
   530  H   1.0    0.04    1.01    1.43    70.83911    60.85118   196.49708
   531  H   1.0    0.16    1.07    1.44    71.63831    56.24839   196.74165
   532  N   5.0   -0.13    3.59    2.15    78.02354    60.88796   193.45070
   533  C   4.0    0.03    4.41    4.40    80.62496    61.67964   193.74397
   534  C   4.0    0.16    3.44    3.09    81.27959    63.56801   191.64010
   535  O   6.0   -0.31    1.26    1.80    82.42226    65.54309   192.05515
   536  C   4.0   -0.04    4.26    4.11    82.35717    59.37551   193.63394
   537  C   4.0   -0.03    4.17    3.93    81.83755    57.51746   195.77969
   538  C   4.0    0.25    3.12    3.03    79.34758    55.92785   195.57446
   539  O   6.0   -0.30    1.27    1.80    78.23606    55.82125   193.48603
   540  O   6.0   -0.28    1.24    1.80    78.66289    54.81821   197.53186
   541  H   1.0    0.12    1.16    1.46    77.79148    58.99565   193.05774
   542  H   1.0    0.05    1.05    1.44    80.85427    62.68307   195.55271
   543  H   1.0    0.06    1.03    1.43    82.09635    58.43961   191.81006
   544  H   1.0    0.05    1.03    1.43    84.31256    60.03358   193.73307
   545  H   1.0    0.06    1.03    1.43    83.37751    56.14533   195.87769
   546  H   1.0    0.05    1.02    1.43    81.79168    58.50532   197.59066
   547  N   5.0   -0.13    3.44    2.04    80.40091    62.92533   189.36822
   548  C   4.0    0.02    4.26    4.12    80.70020    64.58311   187.22554
   549  C   4.0    0.16    3.40    3.08    79.59810    67.20439   187.79326
   550  O   6.0   -0.31    1.26    1.80    80.85541    69.12314   187.52325
   551  H   1.0    0.12    1.11    1.45    79.78243    61.13400   189.02365
   552  H   1.0    0.06    1.03    1.43    82.70204    64.85156   186.77500
   553  H   1.0    0.05    1.03    1.43    79.73120    63.73574   185.61977
   554  N   5.0   -0.14    3.49    2.07    77.17129    67.20657   188.50698
   555  C   4.0    0.03    4.42    4.41    75.94262    69.54691   189.22938
   556  C   4.0    0.16    3.55    3.14    77.55158    70.93754   191.17138
   557  O   6.0   -0.29    1.26    1.80    77.89106    73.22161   191.09710
   558  C   4.0   -0.05    4.38    4.34    73.35517    69.14837   190.44392
   559  C   4.0   -0.02    4.17    3.93    71.28176    68.03345   188.75962
   560  C   4.0   -0.07    4.11    3.83    68.95624    67.60369   190.41784
   561  C   4.0   -0.08    4.10    3.80    70.62185    69.75127   186.54267
   562  H   1.0    0.12    1.11    1.45    76.26219    65.54226   188.79649
   563  H   1.0    0.05    1.05    1.44    75.82379    70.78996   187.57441
   564  H   1.0    0.05    1.03    1.43    73.62299    67.91749   192.08423
   565  H   1.0    0.05    1.03    1.43    72.73875    70.99048   191.14428
   566  H   1.0    0.05    1.05    1.44    71.94464    66.21530   188.02734
   567  H   1.0    0.05    1.00    1.43    67.40327    66.84107   189.31554
   568  H   1.0    0.04    1.00    1.43    69.39902    66.30557   191.95079
   569  H   1.0    0.05    1.00    1.43    68.33969    69.37629   191.25736
   570  H   1.0    0.04    1.00    1.43    69.17547    68.85850   185.38998
   571  H   1.0    0.04    1.00    1.43    69.92408    71.55817   187.23018
   572  H   1.0    0.04    1.00    1.43    72.27224    70.08970   185.36928
   573  N   5.0   -0.13    3.51    2.09    78.46910    69.48470   193.04391
   574  C   4.0    0.05    4.48    4.51    79.84749    70.74580   195.02353
   575  C   4.0    0.16    3.55    3.14    82.13259    72.15590   193.97089
   576  O   6.0   -0.29    1.32    1.80    82.85562    74.07529   195.05347
   577  C   4.0   -0.03    4.28    4.15    80.72764    68.97757   197.14844
   578  C   4.0   -0.01    3.73    3.26    82.05758    70.50373   199.12523
   579  C   4.0    0.00    3.61    3.17    80.97339    71.92897   200.98504
   580  C   4.0    0.02    3.91    3.48    84.70882    71.02269   199.23019
   581  N   5.0   -0.11    3.48    2.06    82.77632    73.21305   202.32780
   582  C   4.0    0.04    3.91    3.47    85.07240    72.74876   201.24128
   583  C   4.0   -0.04    3.42    3.08    86.77740    70.27397   197.78255
   584  C   4.0   -0.04    3.40    3.08    87.45000    73.66517   201.86692
   585  C   4.0   -0.04    3.38    3.07    89.12522    71.22244   198.37929
   586  C   4.0   -0.03    3.38    3.07    89.46114    72.88072   200.40768
   587  H   1.0    0.11    1.08    1.44    77.89416    67.68401   193.34463
   588  H   1.0    0.06    1.06    1.44    78.63888    72.22691   195.85446
   589  H   1.0    0.05    1.03    1.43    79.07320    68.01419   197.92069
   590  H   1.0    0.06    1.03    1.43    81.99862    67.57000   196.33124
   591  H   1.0    0.05    1.02    1.43    79.00762    72.09330   201.46709
   592  H   1.0    0.09    1.05    1.44    82.42497    74.76972   203.37702
   593  H   1.0    0.05    1.03    1.43    86.52658    68.99211   196.20846
   594  H   1.0    0.06    1.03    1.43    87.65291    74.95557   203.43158
   595  H   1.0    0.06    1.03    1.43    90.73152    70.67095   197.24290
   596  H   1.0    0.06    1.03    1.43    91.33318    73.57905   200.79552
   597  N   5.0   -0.13    3.47    2.06    83.29554    71.22734   191.93029
   598  C   4.0    0.04    4.39    4.36    85.74282    72.15770   191.11904
   599  C   4.0    0.15    3.39    3.08    85.70160    74.77335   189.82410
   600  O   6.0   -0.30    1.26    1.80    87.30198    75.33834   188.26100
   601  C   4.0   -0.03    4.28    4.16    87.10246    70.25473   189.42715
   602  C   4.0   -0.03    4.15    3.91    88.21906    68.01131   190.84766
   603  C   4.0    0.25    3.10    3.02    89.60323    66.09739   189.10710
   604  O   6.0   -0.33    1.26    1.80    88.87437    65.89427   186.86606
   605  O   6.0   -0.29    1.19    1.80    91.34603    64.81183   190.05117
   606  H   1.0    0.12    1.10    1.44    82.68898    69.54778   191.24471
   607  H   1.0    0.06    1.06    1.44    86.89942    72.50372   192.82807
   608  H   1.0    0.07    1.03    1.43    85.76603    69.58354   188.00702
   609  H   1.0    0.07    1.04    1.43    88.60825    71.26279   188.43518
   610  H   1.0    0.05    1.02    1.43    89.55505    68.63028   192.29628
   611  H   1.0    0.06    1.03    1.43    86.70349    66.94830   191.77225
   612  N   5.0   -0.13    3.49    2.07    83.97303    76.42348   190.65738
   613  C   4.0    0.04    4.37    4.32    83.91388    79.05551   189.88250
   614  C   4.0    0.09    3.21    3.04    82.86268    80.69258   192.06652
   615  O   6.0   -0.27    1.14    1.80    80.66519    81.43596   192.03015
   616  C   4.0   -0.01    4.34    4.27    82.25615    79.46182   187.51042
   617  C   4.0   -0.04    4.18    3.96    82.75883    77.57246   185.36286
   618  C   4.0   -0.06    4.12    3.85    82.59900    82.17730   186.58224
   619  C   4.0   -0.06    4.01    3.65    81.14661    75.19880   185.52986
   620  H   1.0    0.12    1.13    1.45    82.68831    75.87431   191.94931
   621  H   1.0    0.06    1.05    1.44    85.87114    79.61618   189.48961
   622  H   1.0    0.07    1.06    1.44    80.29726    79.21713   188.13544
   623  H   1.0    0.04    1.03    1.43    82.30420    78.50791   183.58099
   624  H   1.0    0.07    1.03    1.43    84.75145    77.05518   185.31167
   625  H   1.0    0.05    1.00    1.43    81.23931    82.56945   185.09447
   626  H   1.0    0.06    1.01    1.43    82.28304    83.49557   188.12401
   627  H   1.0    0.05    1.00    1.43    84.48990    82.47263   185.85033
   628  H   1.0    0.05    1.00    1.43    81.59248    73.91949   183.98246
   629  H   1.0    0.07    1.00    1.43    81.45537    74.16437   187.27593
   630  H   1.0    0.05    1.00    1.43    79.14921    75.68370   185.44513
   631  O   6.0   -0.32    1.95    1.82    71.85168    43.79592   182.53328
   632  H   1.0    0.13    0.97    1.43    73.41708    43.34123   181.73353
   633  H   1.0    0.13    0.97    1.43    71.12983    42.23039   183.10454
   634  N   5.0   -0.12    3.46    2.05    88.47995    65.64549   205.93674
   635  C   4.0    0.03    4.39    4.36    87.25962    63.24211   205.35304
   636  C   4.0    0.09    3.19    3.03    88.48802    61.14890   206.91429
   637  O   6.0   -0.25    1.13    1.80    90.73170    61.11851   207.38872
   638  C   4.0   -0.04    4.33    4.25    87.65099    62.93809   202.50815
   639  C   4.0   -0.04    4.28    4.16    87.64390    65.67285   201.59171
   640  C   4.0   -0.00    4.32    4.24    89.08340    67.07017   203.66906
   641  H   1.0    0.04    1.04    1.43    85.24037    63.37715   205.81296
   642  H   1.0    0.06    1.03    1.43    89.48621    62.07280   202.14858
   643  H   1.0    0.04    1.02    1.43    86.17049    61.80936   201.64088
   644  H   1.0    0.04    1.02    1.43    88.52799    65.90010   199.75463
   645  H   1.0    0.04    1.03    1.43    85.71518    66.38761   201.47614
   646  H   1.0    0.06    1.02    1.43    91.11930    67.00556   203.31627
   647  H   1.0    0.04    1.02    1.43    88.47092    69.03245   203.81551
   648  N   5.0   -0.18    3.27    1.97    76.55334    59.37174   205.95082
   649  C   4.0    0.04    4.28    4.16    76.73754    61.09978   203.84762
   650  C   4.0    0.15    3.39    3.07    74.18168    62.34061   203.25985
   651  O   6.0   -0.31    1.23    1.80    74.05878    64.51181   202.44635
   652  C   4.0    0.04    4.12    3.85    77.78046    59.74494   201.46368
   653  O   6.0   -0.23    2.09    1.84    78.55309    57.28418   202.03779
   654  H   1.0    0.12    1.05    1.44    76.67685    57.51312   205.50786
   655  H   1.0    0.05    1.05    1.44    78.00001    62.65560   204.39018
   656  H   1.0    0.05    1.01    1.43    76.31631    59.75040   199.99422
   657  H   1.0    0.04    1.01    1.43    79.37520    60.85118   200.71953
   658  H   1.0    0.16    1.07    1.44    78.57600    56.24839   200.47496
   659  N   5.0   -0.14    3.54    2.11    72.19077    60.88796   203.76591
   660  C   4.0    0.04    4.30    4.21    69.58935    61.67964   203.47265
   661  C   4.0    0.09    3.21    3.04    68.93473    63.56801   205.57651
   662  O   6.0   -0.28    1.12    1.80    67.79205    65.54309   205.16146
   663  C   4.0   -0.04    4.25    4.10    67.85715    59.37551   203.58267
   664  C   4.0   -0.03    4.17    3.93    68.37676    57.51746   201.43692
   665  C   4.0    0.25    3.12    3.03    70.86674    55.92785   201.64215
   666  O   6.0   -0.28    1.26    1.80    71.97825    55.82125   203.73058
   667  O   6.0   -0.29    1.24    1.80    71.55143    54.81821   199.68475
   668  H   1.0    0.12    1.16    1.46    72.42284    58.99565   204.15887
   669  H   1.0    0.05    1.05    1.44    69.36004    62.68307   201.66390
   670  H   1.0    0.06    1.03    1.43    68.11796    58.43961   205.40655
   671  H   1.0    0.05    1.03    1.43    65.90175    60.03358   203.48354
   672  H   1.0    0.05    1.03    1.43    66.83680    56.14533   201.33892
   673  H   1.0    0.04    1.02    1.43    68.42264    58.50532   199.62596
   674  N   5.0   -0.19    3.19    1.95    71.74521    69.48470   204.17270
   675  C   4.0    0.04    4.26    4.11    70.36682    70.74580   202.19308
   676  C   4.0    0.10    3.26    3.05    68.08172    72.15590   203.24572
   677  O   6.0   -0.27    1.15    1.80    67.35869    74.07529   202.16314
   678  C   4.0   -0.03    4.28    4.15    69.48667    68.97757   200.06817
   679  C   4.0   -0.01    3.73    3.26    68.15673    70.50373   198.09138
   680  C   4.0   -0.00    3.61    3.17    69.24092    71.92897   196.23157
   681  C   4.0    0.02    3.91    3.48    65.50550    71.02269   197.98642
   682  N   5.0   -0.12    3.48    2.06    67.43800    73.21305   194.88881
   683  C   4.0    0.04    3.91    3.47    65.14191    72.74876   195.97533
   684  C   4.0   -0.04    3.42    3.08    63.43691    70.27397   199.43406
   685  C   4.0   -0.04    3.40    3.08    62.76431    73.66517   195.34969
   686  C   4.0   -0.03    3.38    3.07    61.08909    71.22244   198.83732
   687  C   4.0   -0.03    3.38    3.07    60.75317    72.88072   196.80893
   688  H   1.0    0.12    1.04    1.43    72.32015    67.68401   203.87198
   689  H   1.0    0.06    1.05    1.44    71.57543    72.22691   201.36216
   690  H   1.0    0.05    1.03    1.43    71.14112    68.01419   199.29592
   691  H   1.0    0.06    1.03    1.43    68.21569    67.57000   200.88537
   692  H   1.0    0.05    1.02    1.43    71.20669    72.09330   195.74952
   693  H   1.0    0.09    1.05    1.44    67.78935    74.76972   193.83959
   694  H   1.0    0.06    1.02    1.43    63.68773    68.99211   201.00815
   695  H   1.0    0.07    1.03    1.43    62.56140    74.95557   193.78504
   696  H   1.0    0.06    1.03    1.43    59.48279    70.67095   199.97371
   697  H   1.0    0.06    1.03    1.43    58.88113    73.57905   196.42109
   698  H   1.0    0.10    1.08    1.44    80.63129    79.88096   170.41441
   699  H   1.0    0.05    1.05    1.44    69.22297    53.20945   159.94834
   700  H   1.0    0.11    1.09    1.44    67.24794    50.02701   163.45103
   701  H   1.0    0.05    1.05    1.44    85.41018    73.29431   172.13322
   702  H   1.0    0.09    1.08    1.44    87.69083    64.35711   171.17300
   703  H   1.0    0.07    1.05    1.44    91.89786    56.23275   174.94788
   704  H   1.0    0.10    1.09    1.44    70.27349    76.54672   162.14130
   705  H   1.0    0.05    1.04    1.43    71.20013    82.68840   166.11450
   706  H   1.0    0.11    1.08    1.44    73.04249    82.79635   170.89995
   707  H   1.0    0.06    1.05    1.44    72.14610    86.25478   176.20931
   708  H   1.0    0.10    1.07    1.44    62.46587    82.24400   183.44013
   709  H   1.0    0.07    1.04    1.43    83.97578    81.15290   193.52261
   710  H   1.0    0.09    1.17    1.46    87.32716    66.73194   206.55582
   711  H   1.0    0.06    1.05    1.44    87.43554    59.73176   207.58889
   712  H   1.0    0.10    1.07    1.44    77.80945    59.68424   207.05404
   713  H   1.0    0.07    1.05    1.44    69.44223    63.20795   207.36085
   714  H   1.0    0.10    1.07    1.44    73.17107    70.34806   204.51051
   715  H   1.0    0.07    1.04    1.43    67.20324    71.51205   204.79000

  Z AO/shell   Hii/eV     exponent
  1     Wed Apr 25 08:07:45 CEST 2018   EN: 2.200 GM2: 0.406  GM3: 0.0800  RAES: 1.40
     1s    -10.707211    1.230000
  6     Wed Apr 25 08:07:45 CEST 2018   EN: 2.550 GM2: 0.538  GM3: 0.1500  RAES: 3.00
     2s    -13.970922    2.096432
     2p    -10.063292    1.800000
  7     Wed Apr 25 08:07:45 CEST 2018   EN: 3.040 GM2: 0.461  GM3:-0.0640  RAES: 1.90
     2s    -16.686243    2.339881
     2p    -12.523956    2.014332
  8     Wed Apr 25 08:07:45 CEST 2018   EN: 3.440 GM2: 0.452  GM3:-0.0517  RAES: 1.80
     2s    -20.229985    2.439742
     2p    -15.503117    2.137023
 16     Tue Apr 24 11:44:34 CEST 2018   EN: 2.580 GM2: 0.340  GM3:-0.0502  RAES: 3.10
     3s    -20.029654    1.981333
     3p    -11.377694    2.025643
     3d     -0.420282    1.702555
 no old-style atom pair restraining (fixing) potential

molecular fragmentation (1/2 indicates fragments):
111111111111111111111111111111111111111111111111111111111111111111111111
111111111111122222222222222222222222222222222222222222222222222222222222
222222222222222222222222222222222222222222222222222222222222222222222222
222222222222222222222222222222222222222222222222222222222222222222222222
222222222222222222222222222222222222222222222222222222222222222222222222
222222222222222222222222222222222222222222222222222222222222222222222222
222222222222222222222222222222222222222222222222222222222222222222222222
222222222222222222222222222222222222222222222222222222222222222222222222
222222222222222222222222222222222222222222222222222222222222222222222222
2222222222222222222222222222222222222222222222222112222222222222222
# atoms in fragment 1/2:    87   628
 fragment masses (1/2) :      579.78     4476.13
CMA distance (Bohr)    :  17.375
constraining FC (au)   :  0.0500
           ------------------------------------------------- 
          |        Self-Consistent Charge Iterations        |
           ------------------------------------------------- 

 Ncao       : 1804
 Nao        : 1803
 Nshell     : 1077
 Nel        : 1970
 T(el)      :   500.0
 intcut     :    35.0
 scfconv/Eh :  0.100E-06
   qconv/e  :  0.100E-04
 intneglect :  0.100E-08
 broydamp   :      0.400
 iter      E             dE          RMSdq      gap      omega  full diag
   1  -1121.7297042 -0.112173E+04  0.456E+00    2.72       0.0  T
   2  -1124.0716031 -0.234190E+01  0.222E+00    1.39       1.0  T
   3  -1124.2039645 -0.132361E+00  0.122E+00    1.49       1.0  T
   4  -1124.3867837 -0.182819E+00  0.275E-01    0.95       1.0  T
   5  -1124.3994049 -0.126212E-01  0.150E-01    1.23       1.0  T
   6  -1124.4036410 -0.423613E-02  0.773E-02    1.27       1.0  T
   7  -1124.4050149 -0.137390E-02  0.387E-02    1.26       1.0  T
   8  -1124.4052669 -0.251949E-03  0.215E-02    1.27       1.0  T
   9  -1124.4053733 -0.106448E-03  0.104E-02    1.27       1.0  T
  10  -1124.4053970 -0.236762E-04  0.536E-03    1.27       1.0  T
  11  -1124.4054032 -0.616946E-05  0.251E-03    1.27       1.5  T
  12  -1124.4054046 -0.139476E-05  0.118E-03    1.27       3.2  T
  13  -1124.4054048 -0.254418E-06  0.524E-04    1.27       7.1  T
  14  -1124.4054049 -0.372547E-07  0.271E-04    1.27      13.8  T
  15  -1124.4054049 -0.178243E-07  0.118E-04    1.27      31.8  T
  16  -1124.4054049 -0.234922E-08  0.641E-05    1.27      58.4  T
  17  -1124.4054049 -0.853561E-09  0.309E-05    1.27     120.9  T
speedup  1.96
cpu  time for SCC   40.05 s
wall time for SCC   20.43 s

   *** convergence criteria satisfied after 17 iterations ***

          eigenvalues
 #    :         973        974        975        976        977        978        979        980
 occ. :        2.000      2.000      2.000      2.000      2.000      2.000      2.000      2.000
 eps  :       -10.339    -10.245    -10.203    -10.155    -10.111    -10.075    -10.018     -9.967
 #    :         981        982        983        984        985        986        987        988
 occ. :        2.000      2.000      2.000      2.000      2.000      0.000      0.000      0.000
 eps  :        -9.876     -9.869     -9.824     -9.796     -9.702     -8.432     -8.310     -8.294
 #    :         989        990        991        992        993        994        995        996
 occ. :        0.000      0.000      0.000      0.000      0.000      0.000      0.000      0.000
 eps  :        -8.153     -8.139     -7.935     -7.864     -7.702     -7.684     -7.174     -6.997


   #   Z            q   n(s)   n(p)   n(d)      C6AA      α(0)
   1   7 N     -0.399  1.323  4.076  0.000    30.346     8.181
   2   6 C      0.024  1.062  2.914  0.000    20.180     6.398
   3   6 C      0.274  1.047  2.679  0.000    22.363     7.744
   4   8 O     -0.500  1.742  4.758  0.000    23.790     6.539
   5   6 C     -0.019  1.065  2.955  0.000    20.885     6.500
   6   6 C     -0.112  1.039  3.073  0.000    22.698     6.793
   7   6 C     -0.099  1.034  3.065  0.000    22.445     6.755
   8   1 H      0.181  0.819  0.000  0.000     1.209     1.723
   9   1 H      0.055  0.945  0.000  0.000     2.264     2.353
  10   1 H      0.035  0.965  0.000  0.000     2.513     2.479
  11   1 H      0.050  0.950  0.000  0.000     2.325     2.384
  12   1 H      0.040  0.960  0.000  0.000     2.446     2.446
  13   1 H      0.035  0.965  0.000  0.000     2.516     2.480
  14   1 H      0.040  0.960  0.000  0.000     2.443     2.444
  15   1 H      0.037  0.963  0.000  0.000     2.493     2.469
  16   1 H      0.017  0.983  0.000  0.000     2.785     2.610
  17   7 N     -0.199  1.256  3.943  0.000    25.324     7.474
  18   6 C      0.028  1.058  2.914  0.000    20.103     6.383
  19   6 C      0.265  1.046  2.689  0.000    22.521     7.772
  20   8 O     -0.489  1.737  4.752  0.000    23.541     6.505
  21   6 C     -0.066  1.052  3.014  0.000    21.759     6.639
  22   6 C      0.012  1.078  2.910  0.000    27.735     8.639
  23   6 C     -0.038  1.078  2.960  0.000    28.945     8.823
  24   6 C     -0.038  1.079  2.959  0.000    28.940     8.822
  25   6 C     -0.033  1.078  2.955  0.000    28.826     8.804
  26   6 C     -0.034  1.082  2.952  0.000    28.858     8.809
  27   6 C     -0.037  1.079  2.958  0.000    28.911     8.817
  28   1 H      0.228  0.772  0.000  0.000     0.973     1.546
  29   1 H      0.066  0.934  0.000  0.000     2.135     2.285
  30   1 H      0.062  0.938  0.000  0.000     2.170     2.304
  31   1 H      0.053  0.947  0.000  0.000     2.281     2.362
  32   1 H      0.030  0.970  0.000  0.000     2.586     2.515
  33   1 H      0.039  0.961  0.000  0.000     2.458     2.452
  34   1 H      0.029  0.971  0.000  0.000     2.605     2.524
  35   1 H      0.048  0.952  0.000  0.000     2.349     2.397
  36   1 H      0.028  0.972  0.000  0.000     2.619     2.531
  37   7 N     -0.187  1.257  3.930  0.000    25.048     7.433
  38   6 C      0.024  1.058  2.918  0.000    20.180     6.396
  39   6 C      0.262  1.044  2.693  0.000    22.578     7.781
  40   8 O     -0.471  1.738  4.732  0.000    23.147     6.450
  41   6 C     -0.118  1.039  3.078  0.000    22.811     6.810
  42   1 H      0.230  0.770  0.000  0.000     0.966     1.540
  43   1 H      0.072  0.928  0.000  0.000     2.069     2.249
  44   1 H      0.065  0.935  0.000  0.000     2.146     2.291
  45   1 H      0.048  0.952  0.000  0.000     2.343     2.394
  46   1 H      0.060  0.940  0.000  0.000     2.199     2.319
  47   7 N     -0.158  1.241  3.917  0.000    24.422     7.340
  48   6 C      0.008  1.065  2.928  0.000    20.453     6.439
  49   6 C      0.274  1.041  2.685  0.000    22.368     7.745
  50   8 O     -0.485  1.757  4.727  0.000    23.450     6.493
  51   6 C     -0.079  1.056  3.023  0.000    22.008     6.678
  52   6 C     -0.087  1.053  3.034  0.000    22.157     6.702
  53   6 C     -0.108  1.055  3.053  0.000    22.560     6.762
  54   6 C     -0.051  1.058  2.993  0.000    21.593     6.633
  55   7 N     -0.152  1.233  3.919  0.000    24.277     7.318
  56   1 H      0.208  0.792  0.000  0.000     1.068     1.619
  57   1 H      0.089  0.911  0.000  0.000     1.887     2.148
  58   1 H      0.068  0.932  0.000  0.000     2.105     2.269
  59   1 H      0.059  0.941  0.000  0.000     2.206     2.323
  60   1 H      0.082  0.918  0.000  0.000     1.958     2.188
  61   1 H      0.049  0.951  0.000  0.000     2.327     2.386
  62   1 H      0.077  0.923  0.000  0.000     2.010     2.217
  63   1 H      0.093  0.907  0.000  0.000     1.851     2.127
  64   1 H      0.124  0.876  0.000  0.000     1.585     1.969
  65   1 H      0.118  0.882  0.000  0.000     1.627     1.994
  66   1 H      0.288  0.712  0.000  0.000     0.752     1.358
  67   1 H      0.266  0.734  0.000  0.000     0.824     1.422
  68   1 H      0.307  0.693  0.000  0.000     0.692     1.303
  69   7 N     -0.170  1.234  3.936  0.000    24.683     7.379
  70   6 C      0.018  1.060  2.922  0.000    20.281     6.414
  71   6 C      0.186  1.093  2.722  0.000    24.022     8.027
  72   8 O     -0.342  1.724  4.617  0.000    20.550     6.078
  73   6 C     -0.068  1.057  3.011  0.000    21.775     6.639
  74   6 C     -0.010  1.062  2.948  0.000    20.757     6.487
  75  16 S     -0.230  1.926  4.249  0.055   150.891    20.675
  76   6 C     -0.058  1.050  3.008  0.000    21.680     6.642
  77   1 H      0.229  0.771  0.000  0.000     0.970     1.543
  78   1 H      0.099  0.901  0.000  0.000     1.790     2.092
  79   1 H      0.068  0.932  0.000  0.000     2.108     2.270
  80   1 H      0.079  0.921  0.000  0.000     1.985     2.203
  81   1 H      0.071  0.929  0.000  0.000     2.071     2.250
  82   1 H      0.052  0.948  0.000  0.000     2.298     2.371
  83   1 H      0.051  0.949  0.000  0.000     2.308     2.376
  84   1 H      0.053  0.947  0.000  0.000     2.280     2.361
  85   1 H      0.067  0.933  0.000  0.000     2.114     2.274
  86   7 N     -0.391  1.325  4.066  0.000    30.133     8.153
  87   6 C     -0.024  1.047  2.976  0.000    21.082     6.553
  88   6 C      0.259  1.051  2.690  0.000    22.640     7.792
  89   8 O     -0.502  1.734  4.767  0.000    23.827     6.545
  90   1 H      0.173  0.827  0.000  0.000     1.252     1.753
  91   1 H      0.070  0.930  0.000  0.000     2.088     2.260
  92   1 H      0.065  0.935  0.000  0.000     2.143     2.290
  93   7 N     -0.166  1.235  3.930  0.000    24.580     7.363
  94   6 C      0.007  1.064  2.929  0.000    20.470     6.442
  95   6 C      0.251  1.043  2.706  0.000    22.789     7.818
  96   8 O     -0.484  1.712  4.772  0.000    23.437     6.491
  97   6 C     -0.075  1.055  3.020  0.000    21.928     6.666
  98   6 C     -0.003  1.077  2.926  0.000    28.087     8.693
  99   6 C     -0.045  1.081  2.964  0.000    29.106     8.847
 100   6 C     -0.048  1.085  2.963  0.000    29.190     8.860
 101   6 C     -0.062  1.075  2.987  0.000    29.540     8.913
 102   6 C     -0.080  1.080  3.000  0.000    30.006     8.983
 103   6 C      0.144  1.046  2.809  0.000    24.856     8.171
 104   8 O     -0.450  1.730  4.720  0.000    21.845     6.309
 105   1 H      0.213  0.787  0.000  0.000     1.040     1.597
 106   1 H      0.093  0.907  0.000  0.000     1.849     2.127
 107   1 H      0.054  0.946  0.000  0.000     2.274     2.358
 108   1 H      0.066  0.934  0.000  0.000     2.127     2.281
 109   1 H      0.035  0.965  0.000  0.000     2.517     2.481
 110   1 H      0.070  0.930  0.000  0.000     2.089     2.260
 111   1 H      0.036  0.964  0.000  0.000     2.497     2.471
 112   1 H      0.053  0.947  0.000  0.000     2.282     2.362
 113   1 H      0.349  0.651  0.000  0.000     0.591     1.207
 114   7 N     -0.057  1.225  3.832  0.000    22.336     7.019
 115   6 C     -0.002  1.073  2.928  0.000    20.583     6.454
 116   6 C      0.277  1.039  2.684  0.000    22.318     7.736
 117   8 O     -0.477  1.749  4.728  0.000    23.285     6.470
 118   6 C     -0.079  1.056  3.022  0.000    21.973     6.669
 119   6 C     -0.080  1.050  3.030  0.000    22.001     6.673
 120   6 C     -0.030  1.058  2.972  0.000    21.150     6.554
 121   1 H      0.098  0.902  0.000  0.000     1.805     2.101
 122   1 H      0.058  0.942  0.000  0.000     2.221     2.330
 123   1 H      0.084  0.916  0.000  0.000     1.936     2.176
 124   1 H      0.044  0.956  0.000  0.000     2.393     2.419
 125   1 H      0.089  0.911  0.000  0.000     1.886     2.148
 126   1 H      0.074  0.926  0.000  0.000     2.045     2.237
 127   1 H      0.091  0.909  0.000  0.000     1.865     2.136
 128   7 N     -0.179  1.244  3.935  0.000    24.878     7.408
 129   6 C      0.024  1.061  2.915  0.000    20.172     6.395
 130   6 C      0.277  1.042  2.682  0.000    22.323     7.737
 131   8 O     -0.478  1.745  4.734  0.000    23.312     6.473
 132   6 C     -0.072  1.048  3.024  0.000    21.874     6.657
 133   6 C      0.043  1.062  2.895  0.000    26.522     8.395
 134   7 N     -0.279  1.470  3.809  0.000    28.073     7.856
 135   6 C     -0.031  1.066  2.965  0.000    28.735     8.792
 136   6 C      0.073  1.066  2.861  0.000    26.108     8.359
 137   7 N     -0.079  1.235  3.844  0.000    22.773     7.088
 138   1 H      0.238  0.762  0.000  0.000     0.930     1.511
 139   1 H      0.047  0.953  0.000  0.000     2.361     2.403
 140   1 H      0.078  0.922  0.000  0.000     2.004     2.214
 141   1 H      0.032  0.968  0.000  0.000     2.554     2.499
 142   1 H      0.032  0.968  0.000  0.000     2.551     2.498
 143   1 H      0.081  0.919  0.000  0.000     1.965     2.192
 144   1 H      0.203  0.797  0.000  0.000     1.093     1.638
 145   7 N     -0.192  1.260  3.932  0.000    25.156     7.449
 146   6 C      0.031  1.057  2.912  0.000    20.065     6.379
 147   6 C      0.258  1.050  2.692  0.000    22.657     7.795
 148   8 O     -0.499  1.738  4.761  0.000    23.756     6.535
 149   6 C     -0.070  1.052  3.018  0.000    21.830     6.651
 150   6 C     -0.042  1.063  2.980  0.000    28.990     8.830
 151   6 C     -0.009  1.071  2.938  0.000    28.201     8.710
 152   6 C     -0.022  1.074  2.948  0.000    28.379     8.725
 153   7 N     -0.121  1.229  3.892  0.000    23.625     7.219
 154   6 C      0.041  1.062  2.897  0.000    26.974     8.513
 155   6 C     -0.044  1.078  2.966  0.000    29.097     8.845
 156   6 C     -0.053  1.069  2.983  0.000    29.306     8.877
 157   6 C     -0.053  1.077  2.976  0.000    29.313     8.878
 158   6 C     -0.046  1.078  2.968  0.000    29.138     8.852
 159   1 H      0.227  0.773  0.000  0.000     0.978     1.549
 160   1 H      0.067  0.933  0.000  0.000     2.119     2.276
 161   1 H      0.100  0.900  0.000  0.000     1.785     2.090
 162   1 H      0.047  0.953  0.000  0.000     2.363     2.404
 163   1 H      0.028  0.972  0.000  0.000     2.617     2.530
 164   1 H      0.164  0.836  0.000  0.000     1.312     1.794
 165   1 H      0.062  0.938  0.000  0.000     2.177     2.307
 166   1 H     -0.008  1.008  0.000  0.000     3.198     2.796
 167   1 H      0.073  0.927  0.000  0.000     2.052     2.240
 168   1 H      0.045  0.955  0.000  0.000     2.382     2.414
 169   7 N     -0.075  1.231  3.844  0.000    22.697     7.076
 170   6 C      0.027  1.064  2.908  0.000    20.093     6.378
 171   6 C      0.279  1.042  2.679  0.000    22.278     7.729
 172   8 O     -0.492  1.737  4.755  0.000    23.612     6.515
 173   6 C     -0.057  1.049  3.008  0.000    21.576     6.609
 174   6 C     -0.056  1.045  3.011  0.000    21.555     6.606
 175   6 C     -0.006  1.051  2.955  0.000    20.718     6.487
 176   1 H      0.063  0.937  0.000  0.000     2.159     2.298
 177   1 H      0.032  0.968  0.000  0.000     2.559     2.502
 178   1 H      0.059  0.941  0.000  0.000     2.213     2.326
 179   1 H      0.036  0.964  0.000  0.000     2.500     2.473
 180   1 H      0.043  0.957  0.000  0.000     2.407     2.426
 181   1 H      0.075  0.925  0.000  0.000     2.031     2.229
 182   1 H      0.071  0.929  0.000  0.000     2.074     2.252
 183   7 N     -0.175  1.252  3.923  0.000    24.793     7.395
 184   6 C      0.036  1.052  2.912  0.000    19.979     6.365
 185   6 C      0.191  1.085  2.724  0.000    23.917     8.009
 186   8 O     -0.345  1.749  4.596  0.000    20.604     6.086
 187   6 C     -0.114  1.037  3.076  0.000    22.729     6.798
 188   1 H      0.241  0.759  0.000  0.000     0.918     1.501
 189   1 H      0.079  0.921  0.000  0.000     1.987     2.205
 190   1 H      0.071  0.929  0.000  0.000     2.073     2.252
 191   1 H      0.071  0.929  0.000  0.000     2.073     2.251
 192   1 H      0.062  0.938  0.000  0.000     2.172     2.304
 193   7 N     -0.390  1.319  4.071  0.000    30.091     8.147
 194   6 C      0.039  1.057  2.904  0.000    19.936     6.359
 195   6 C      0.277  1.047  2.676  0.000    22.314     7.736
 196   8 O     -0.507  1.744  4.763  0.000    23.942     6.560
 197   6 C     -0.067  1.051  3.017  0.000    21.780     6.642
 198   6 C      0.011  1.080  2.909  0.000    27.771     8.644
 199   6 C     -0.041  1.080  2.962  0.000    29.028     8.836
 200   6 C     -0.041  1.079  2.962  0.000    29.012     8.833
 201   6 C     -0.033  1.078  2.955  0.000    28.832     8.805
 202   6 C     -0.033  1.081  2.952  0.000    28.818     8.803
 203   6 C     -0.033  1.078  2.955  0.000    28.827     8.805
 204   1 H      0.159  0.841  0.000  0.000     1.340     1.814
 205   1 H      0.042  0.958  0.000  0.000     2.417     2.431
 206   1 H      0.048  0.952  0.000  0.000     2.347     2.396
 207   1 H      0.039  0.961  0.000  0.000     2.458     2.452
 208   1 H      0.032  0.968  0.000  0.000     2.564     2.504
 209   1 H      0.025  0.975  0.000  0.000     2.656     2.548
 210   1 H      0.047  0.953  0.000  0.000     2.352     2.398
 211   1 H      0.037  0.963  0.000  0.000     2.491     2.468
 212   1 H      0.047  0.953  0.000  0.000     2.354     2.399
 213   7 N     -0.190  1.259  3.932  0.000    25.130     7.445
 214   6 C      0.049  1.050  2.901  0.000    19.756     6.327
 215   6 C      0.272  1.047  2.680  0.000    22.398     7.750
 216   8 O     -0.485  1.721  4.763  0.000    23.447     6.492
 217   6 C     -0.056  1.048  3.008  0.000    21.571     6.610
 218   6 C      0.014  1.080  2.906  0.000    27.693     8.632
 219   6 C     -0.034  1.081  2.953  0.000    28.838     8.806
 220   6 C     -0.044  1.077  2.967  0.000    29.099     8.846
 221   6 C     -0.028  1.081  2.947  0.000    28.703     8.786
 222   6 C     -0.035  1.079  2.956  0.000    28.877     8.812
 223   6 C     -0.035  1.081  2.954  0.000    28.861     8.810
 224   1 H      0.229  0.771  0.000  0.000     0.968     1.541
 225   1 H      0.047  0.953  0.000  0.000     2.352     2.399
 226   1 H      0.043  0.957  0.000  0.000     2.406     2.426
 227   1 H      0.039  0.961  0.000  0.000     2.461     2.453
 228   1 H      0.017  0.983  0.000  0.000     2.784     2.609
 229   1 H      0.033  0.967  0.000  0.000     2.549     2.497
 230   1 H      0.030  0.970  0.000  0.000     2.582     2.513
 231   1 H      0.052  0.948  0.000  0.000     2.296     2.370
 232   1 H      0.053  0.947  0.000  0.000     2.283     2.363
 233   7 N     -0.199  1.263  3.936  0.000    25.320     7.473
 234   6 C     -0.010  1.043  2.967  0.000    20.818     6.508
 235   6 C      0.278  1.039  2.684  0.000    22.303     7.733
 236   8 O     -0.492  1.745  4.746  0.000    23.597     6.513
 237   1 H      0.214  0.786  0.000  0.000     1.036     1.594
 238   1 H      0.039  0.961  0.000  0.000     2.459     2.452
 239   1 H      0.087  0.913  0.000  0.000     1.913     2.163
 240   7 N     -0.173  1.239  3.934  0.000    24.737     7.387
 241   6 C      0.014  1.063  2.924  0.000    20.349     6.423
 242   6 C      0.280  1.040  2.680  0.000    22.268     7.727
 243   8 O     -0.479  1.741  4.738  0.000    23.321     6.475
 244   6 C      0.113  1.048  2.839  0.000    18.818     6.192
 245   8 O     -0.495  1.746  4.749  0.000    22.790     6.444
 246   6 C     -0.135  1.044  3.091  0.000    23.156     6.862
 247   1 H      0.220  0.780  0.000  0.000     1.008     1.573
 248   1 H      0.087  0.913  0.000  0.000     1.909     2.161
 249   1 H      0.049  0.951  0.000  0.000     2.330     2.387
 250   1 H      0.352  0.648  0.000  0.000     0.585     1.202
 251   1 H      0.091  0.909  0.000  0.000     1.866     2.136
 252   1 H      0.061  0.939  0.000  0.000     2.190     2.314
 253   1 H      0.046  0.954  0.000  0.000     2.372     2.409
 254   7 N     -0.168  1.237  3.930  0.000    24.628     7.371
 255   6 C      0.028  1.058  2.913  0.000    20.107     6.386
 256   6 C      0.208  1.084  2.709  0.000    23.597     7.955
 257   8 O     -0.358  1.750  4.608  0.000    20.864     6.124
 258   6 C     -0.074  1.048  3.026  0.000    21.904     6.662
 259   6 C      0.059  1.065  2.876  0.000    26.266     8.367
 260   7 N     -0.305  1.484  3.821  0.000    28.752     7.950
 261   6 C     -0.024  1.057  2.967  0.000    28.549     8.763
 262   6 C      0.094  1.056  2.849  0.000    25.649     8.284
 263   7 N     -0.107  1.252  3.855  0.000    23.346     7.176
 264   1 H      0.210  0.790  0.000  0.000     1.055     1.609
 265   1 H      0.101  0.899  0.000  0.000     1.776     2.084
 266   1 H      0.085  0.915  0.000  0.000     1.933     2.174
 267   1 H      0.081  0.919  0.000  0.000     1.970     2.195
 268   1 H      0.018  0.982  0.000  0.000     2.759     2.598
 269   1 H      0.028  0.972  0.000  0.000     2.613     2.528
 270   1 H      0.184  0.816  0.000  0.000     1.193     1.711
 271   7 N     -0.394  1.324  4.070  0.000    30.207     8.163
 272   6 C      0.044  1.055  2.901  0.000    19.846     6.345
 273   6 C      0.202  1.093  2.705  0.000    23.711     7.975
 274   8 O     -0.371  1.751  4.621  0.000    21.117     6.161
[...]
 429   8 O     -0.479  1.738  4.741  0.000    23.322     6.475
 430   6 C     -0.085  1.054  3.031  0.000    22.124     6.696
 431   6 C     -0.077  1.051  3.027  0.000    21.976     6.674
 432   6 C     -0.093  1.052  3.041  0.000    22.276     6.720
 433   6 C     -0.052  1.060  2.993  0.000    21.613     6.636
 434   7 N     -0.148  1.230  3.919  0.000    24.193     7.305
 435   1 H      0.195  0.805  0.000  0.000     1.132     1.667
 436   1 H      0.073  0.927  0.000  0.000     2.049     2.239
 437   1 H      0.076  0.924  0.000  0.000     2.023     2.224
 438   1 H      0.086  0.914  0.000  0.000     1.923     2.168
 439   1 H      0.049  0.951  0.000  0.000     2.327     2.386
 440   1 H      0.073  0.927  0.000  0.000     2.056     2.242
 441   1 H      0.059  0.941  0.000  0.000     2.214     2.327
 442   1 H      0.078  0.922  0.000  0.000     2.003     2.213
 443   1 H      0.128  0.872  0.000  0.000     1.552     1.948
 444   1 H      0.119  0.881  0.000  0.000     1.624     1.993
 445   1 H      0.304  0.696  0.000  0.000     0.703     1.313
 446   1 H      0.286  0.714  0.000  0.000     0.755     1.361
 447   1 H      0.296  0.704  0.000  0.000     0.726     1.334
 448   7 N     -0.146  1.225  3.922  0.000    24.168     7.301
 449   6 C      0.003  1.065  2.933  0.000    20.535     6.452
 450   6 C      0.268  1.046  2.687  0.000    22.479     7.764
 451   8 O     -0.526  1.759  4.768  0.000    24.373     6.619
 452   6 C     -0.086  1.057  3.030  0.000    22.141     6.698
 453   6 C     -0.097  1.055  3.042  0.000    22.344     6.730
 454   6 C     -0.036  1.054  2.982  0.000    21.298     6.585
 455   7 N     -0.133  1.206  3.927  0.000    23.892     7.260
 456   6 C      0.224  1.021  2.755  0.000    23.274     7.899
 457   7 N     -0.246  1.229  4.018  0.000    26.417     7.633
 458   7 N     -0.247  1.230  4.017  0.000    26.447     7.638
 459   1 H      0.184  0.816  0.000  0.000     1.194     1.712
 460   1 H      0.108  0.892  0.000  0.000     1.713     2.047
 461   1 H      0.054  0.946  0.000  0.000     2.267     2.354
 462   1 H      0.083  0.917  0.000  0.000     1.950     2.184
 463   1 H      0.090  0.910  0.000  0.000     1.878     2.143
 464   1 H      0.090  0.910  0.000  0.000     1.878     2.143
 465   1 H      0.089  0.911  0.000  0.000     1.887     2.148
 466   1 H      0.091  0.909  0.000  0.000     1.870     2.139
 467   1 H      0.233  0.767  0.000  0.000     0.953     1.529
 468   1 H      0.245  0.755  0.000  0.000     0.904     1.490
 469   1 H      0.244  0.756  0.000  0.000     0.908     1.493
 470   1 H      0.232  0.768  0.000  0.000     0.955     1.531
 471   1 H      0.250  0.750  0.000  0.000     0.882     1.471
 472   7 N     -0.173  1.252  3.921  0.000    24.753     7.389
 473   6 C      0.016  1.063  2.922  0.000    20.317     6.418
 474   6 C      0.277  1.043  2.680  0.000    22.318     7.736
 475   8 O     -0.440  1.734  4.706  0.000    22.493     6.359
 476   6 C     -0.092  1.060  3.032  0.000    22.247     6.714
 477   6 C     -0.082  1.051  3.031  0.000    22.063     6.688
 478   6 C     -0.100  1.055  3.045  0.000    22.398     6.738
 479   6 C     -0.052  1.059  2.993  0.000    21.608     6.636
 480   7 N     -0.146  1.228  3.918  0.000    24.151     7.299
 481   1 H      0.254  0.746  0.000  0.000     0.867     1.458
 482   1 H      0.052  0.948  0.000  0.000     2.295     2.369
 483   1 H      0.096  0.904  0.000  0.000     1.825     2.113
 484   1 H      0.089  0.911  0.000  0.000     1.888     2.149
 485   1 H      0.038  0.962  0.000  0.000     2.476     2.461
 486   1 H      0.054  0.946  0.000  0.000     2.273     2.358
 487   1 H      0.097  0.903  0.000  0.000     1.811     2.104
 488   1 H      0.097  0.903  0.000  0.000     1.809     2.104
 489   1 H      0.126  0.874  0.000  0.000     1.568     1.958
 490   1 H      0.106  0.894  0.000  0.000     1.732     2.058
 491   1 H      0.295  0.705  0.000  0.000     0.729     1.338
 492   1 H      0.283  0.717  0.000  0.000     0.767     1.372
 493   1 H      0.305  0.695  0.000  0.000     0.699     1.309
 494   7 N     -0.180  1.238  3.941  0.000    24.893     7.410
 495   6 C     -0.014  1.040  2.975  0.000    20.898     6.521
 496   6 C      0.282  1.043  2.675  0.000    22.223     7.720
 497   8 O     -0.543  1.755  4.788  0.000    24.756     6.671
 498   1 H      0.198  0.802  0.000  0.000     1.117     1.656
 499   1 H      0.059  0.941  0.000  0.000     2.206     2.323
 500   1 H      0.096  0.904  0.000  0.000     1.826     2.113
 501   7 N     -0.177  1.250  3.928  0.000    24.838     7.402
 502   6 C      0.032  1.056  2.912  0.000    20.037     6.372
 503   6 C      0.279  1.044  2.677  0.000    22.274     7.729
 504   8 O     -0.493  1.739  4.754  0.000    23.630     6.518
 505   6 C     -0.082  1.057  3.025  0.000    22.056     6.684
 506   6 C      0.001  1.078  2.921  0.000    28.000     8.680
 507   6 C     -0.041  1.076  2.965  0.000    29.026     8.835
 508   6 C     -0.049  1.084  2.965  0.000    29.220     8.865
 509   6 C     -0.032  1.080  2.952  0.000    28.793     8.799
 510   6 C     -0.031  1.083  2.949  0.000    28.783     8.798
 511   6 C     -0.032  1.082  2.950  0.000    28.808     8.802
 512   1 H      0.247  0.753  0.000  0.000     0.895     1.482
 513   1 H      0.073  0.927  0.000  0.000     2.056     2.243
 514   1 H      0.092  0.908  0.000  0.000     1.859     2.132
 515   1 H      0.061  0.939  0.000  0.000     2.193     2.316
 516   1 H      0.003  0.997  0.000  0.000     2.998     2.708
 517   1 H      0.067  0.933  0.000  0.000     2.118     2.276
 518   1 H      0.037  0.963  0.000  0.000     2.491     2.468
 519   1 H      0.064  0.936  0.000  0.000     2.152     2.294
 520   1 H      0.058  0.942  0.000  0.000     2.224     2.332
 521   7 N     -0.174  1.239  3.935  0.000    24.771     7.392
 522   6 C      0.028  1.060  2.911  0.000    20.098     6.383
 523   6 C      0.275  1.044  2.681  0.000    22.347     7.741
 524   8 O     -0.521  1.751  4.770  0.000    24.250     6.602
 525   6 C      0.104  1.026  2.869  0.000    19.080     6.259
 526   8 O     -0.457  1.692  4.765  0.000    21.980     6.329
 527   1 H      0.232  0.768  0.000  0.000     0.956     1.532
 528   1 H      0.073  0.927  0.000  0.000     2.058     2.243
 529   1 H     -0.020  1.020  0.000  0.000     3.438     2.900
 530   1 H      0.034  0.966  0.000  0.000     2.531     2.488
 531   1 H      0.343  0.657  0.000  0.000     0.606     1.223
 532   7 N     -0.218  1.266  3.951  0.000    25.747     7.536
 533   6 C      0.048  1.054  2.898  0.000    19.769     6.331
 534   6 C      0.274  1.043  2.682  0.000    22.360     7.744
 535   8 O     -0.513  1.753  4.760  0.000    24.072     6.578
 536   6 C     -0.054  1.049  3.005  0.000    21.541     6.607
 537   6 C     -0.098  1.065  3.033  0.000    22.364     6.734
 538   6 C      0.370  1.026  2.604  0.000    20.734     7.451
 539   8 O     -0.593  1.752  4.842  0.000    25.953     6.830
 540   8 O     -0.595  1.767  4.828  0.000    25.999     6.836
 541   1 H      0.241  0.759  0.000  0.000     0.918     1.501
 542   1 H      0.029  0.971  0.000  0.000     2.599     2.521
 543   1 H      0.053  0.947  0.000  0.000     2.287     2.365
 544   1 H      0.028  0.972  0.000  0.000     2.616     2.529
 545   1 H      0.050  0.950  0.000  0.000     2.322     2.383
 546   1 H      0.017  0.983  0.000  0.000     2.780     2.607
 547   7 N     -0.187  1.253  3.934  0.000    25.064     7.436
 548   6 C     -0.007  1.045  2.962  0.000    20.768     6.500
 549   6 C      0.284  1.036  2.680  0.000    22.186     7.713
 550   8 O     -0.489  1.752  4.737  0.000    23.543     6.505
 551   1 H      0.238  0.762  0.000  0.000     0.930     1.511
 552   1 H      0.051  0.949  0.000  0.000     2.309     2.376
 553   1 H      0.084  0.916  0.000  0.000     1.940     2.178
 554   7 N     -0.199  1.254  3.944  0.000    25.312     7.472
 555   6 C      0.031  1.057  2.912  0.000    20.052     6.376
 556   6 C      0.287  1.041  2.672  0.000    22.141     7.707
 557   8 O     -0.489  1.747  4.742  0.000    23.542     6.505
 558   6 C     -0.067  1.056  3.011  0.000    21.774     6.641
 559   6 C     -0.013  1.055  2.958  0.000    20.774     6.483
 560   6 C     -0.106  1.039  3.067  0.000    22.573     6.773
 561   6 C     -0.118  1.040  3.078  0.000    22.813     6.810
 562   1 H      0.237  0.763  0.000  0.000     0.935     1.515
 563   1 H      0.076  0.924  0.000  0.000     2.023     2.224
 564   1 H      0.035  0.965  0.000  0.000     2.518     2.482
 565   1 H      0.053  0.947  0.000  0.000     2.283     2.363
 566   1 H      0.045  0.955  0.000  0.000     2.384     2.414
 567   1 H      0.059  0.941  0.000  0.000     2.209     2.324
 568   1 H      0.021  0.979  0.000  0.000     2.719     2.579
 569   1 H      0.046  0.954  0.000  0.000     2.373     2.409
 570   1 H      0.063  0.937  0.000  0.000     2.166     2.301
 571   1 H      0.049  0.951  0.000  0.000     2.338     2.391
 572   1 H      0.036  0.964  0.000  0.000     2.504     2.475
 573   7 N     -0.202  1.253  3.948  0.000    25.384     7.483
 574   6 C      0.049  1.055  2.896  0.000    19.748     6.325
 575   6 C      0.289  1.040  2.671  0.000    22.107     7.700
 576   8 O     -0.502  1.740  4.762  0.000    23.824     6.544
 577   6 C     -0.053  1.045  3.008  0.000    21.517     6.603
 578   6 C     -0.035  1.067  2.968  0.000    28.811     8.803
 579   6 C     -0.006  1.067  2.939  0.000    28.126     8.698
 580   6 C     -0.014  1.074  2.939  0.000    28.189     8.697
 581   7 N     -0.119  1.238  3.881  0.000    23.582     7.212
 582   6 C      0.048  1.061  2.892  0.000    26.815     8.487
 583   6 C     -0.034  1.074  2.960  0.000    28.841     8.806
 584   6 C     -0.058  1.073  2.985  0.000    29.433     8.896
 585   6 C     -0.042  1.074  2.968  0.000    29.046     8.838
 586   6 C     -0.041  1.078  2.963  0.000    29.008     8.833
 587   1 H      0.199  0.801  0.000  0.000     1.109     1.650
 588   1 H      0.052  0.948  0.000  0.000     2.295     2.369
 589   1 H      0.042  0.958  0.000  0.000     2.418     2.432
 590   1 H      0.029  0.971  0.000  0.000     2.607     2.525
 591   1 H      0.041  0.959  0.000  0.000     2.436     2.441
 592   1 H      0.215  0.785  0.000  0.000     1.031     1.591
 593   1 H     -0.012  1.012  0.000  0.000     3.279     2.832
 594   1 H      0.056  0.944  0.000  0.000     2.241     2.341
 595   1 H      0.011  0.989  0.000  0.000     2.880     2.654
 596   1 H      0.047  0.953  0.000  0.000     2.360     2.402
 597   7 N     -0.182  1.251  3.931  0.000    24.940     7.417
 598   6 C      0.042  1.058  2.900  0.000    19.875     6.349
 599   6 C      0.279  1.044  2.676  0.000    22.276     7.728
 600   8 O     -0.475  1.738  4.737  0.000    23.227     6.462
 601   6 C     -0.042  1.043  2.999  0.000    21.322     6.574
 602   6 C     -0.079  1.060  3.019  0.000    22.020     6.682
 603   6 C      0.367  1.029  2.604  0.000    20.776     7.459
 604   8 O     -0.611  1.753  4.859  0.000    26.399     6.889
 605   8 O     -0.628  1.771  4.857  0.000    26.809     6.942
 606   1 H      0.208  0.792  0.000  0.000     1.066     1.617
 607   1 H      0.048  0.952  0.000  0.000     2.342     2.393
 608   1 H      0.044  0.956  0.000  0.000     2.397     2.421
 609   1 H      0.053  0.947  0.000  0.000     2.285     2.364
 610   1 H      0.014  0.986  0.000  0.000     2.819     2.626
 611   1 H      0.018  0.982  0.000  0.000     2.767     2.601
 612   7 N     -0.166  1.238  3.927  0.000    24.591     7.365
 613   6 C      0.023  1.067  2.910  0.000    20.193     6.400
 614   6 C      0.198  1.092  2.710  0.000    23.773     7.985
 615   8 O     -0.338  1.750  4.588  0.000    20.474     6.067
 616   6 C     -0.020  1.063  2.956  0.000    20.893     6.501
 617   6 C     -0.065  1.051  3.014  0.000    21.746     6.639
 618   6 C     -0.121  1.042  3.079  0.000    22.871     6.819
 619   6 C     -0.094  1.033  3.060  0.000    22.349     6.742
 620   1 H      0.200  0.800  0.000  0.000     1.106     1.647
 621   1 H      0.083  0.917  0.000  0.000     1.951     2.184
 622   1 H      0.057  0.943  0.000  0.000     2.230     2.335
 623   1 H      0.056  0.944  0.000  0.000     2.249     2.345
 624   1 H      0.040  0.960  0.000  0.000     2.444     2.445
 625   1 H      0.062  0.938  0.000  0.000     2.181     2.309
 626   1 H      0.045  0.955  0.000  0.000     2.379     2.412
 627   1 H      0.051  0.949  0.000  0.000     2.313     2.378
 628   1 H      0.025  0.975  0.000  0.000     2.663     2.552
 629   1 H      0.014  0.986  0.000  0.000     2.819     2.626
 630   1 H      0.040  0.960  0.000  0.000     2.449     2.447
 631   8 O     -0.636  1.756  4.880  0.000    26.069     6.891
 632   1 H      0.327  0.673  0.000  0.000     0.644     1.261
 633   1 H      0.335  0.665  0.000  0.000     0.626     1.242
 634   7 N     -0.295  1.336  3.959  0.000    27.591     7.801
 635   6 C      0.036  1.061  2.903  0.000    19.956     6.358
 636   6 C      0.202  1.082  2.716  0.000    23.712     7.975
 637   8 O     -0.347  1.748  4.599  0.000    20.647     6.092
 638   6 C     -0.050  1.052  2.998  0.000    21.449     6.589
 639   6 C     -0.053  1.049  3.004  0.000    21.500     6.597
 640   6 C      0.011  1.045  2.944  0.000    20.431     6.443
 641   1 H      0.028  0.972  0.000  0.000     2.614     2.528
 642   1 H      0.050  0.950  0.000  0.000     2.315     2.379
 643   1 H      0.028  0.972  0.000  0.000     2.611     2.527
 644   1 H      0.025  0.975  0.000  0.000     2.658     2.549
 645   1 H      0.023  0.977  0.000  0.000     2.687     2.563
 646   1 H      0.040  0.960  0.000  0.000     2.443     2.444
 647   1 H      0.034  0.966  0.000  0.000     2.529     2.487
 648   7 N     -0.388  1.308  4.080  0.000    30.052     8.142
 649   6 C      0.033  1.060  2.907  0.000    20.041     6.377
 650   6 C      0.263  1.050  2.687  0.000    22.569     7.779
 651   8 O     -0.527  1.750  4.778  0.000    24.401     6.623
 652   6 C      0.119  1.024  2.857  0.000    18.854     6.222
 653   8 O     -0.472  1.708  4.764  0.000    22.302     6.375
 654   1 H      0.182  0.818  0.000  0.000     1.205     1.720
 655   1 H      0.026  0.974  0.000  0.000     2.645     2.544
 656   1 H     -0.025  1.025  0.000  0.000     3.532     2.939
 657   1 H     -0.016  1.016  0.000  0.000     3.342     2.859
 658   1 H      0.328  0.672  0.000  0.000     0.644     1.260
 659   7 N     -0.198  1.264  3.933  0.000    25.290     7.469
 660   6 C      0.038  1.057  2.904  0.000    19.941     6.360
 661   6 C      0.196  1.090  2.714  0.000    23.818     7.992
 662   8 O     -0.342  1.750  4.592  0.000    20.552     6.078
 663   6 C     -0.069  1.054  3.015  0.000    21.819     6.650
 664   6 C     -0.107  1.070  3.037  0.000    22.556     6.763
 665   6 C      0.368  1.027  2.605  0.000    20.755     7.455
 666   8 O     -0.610  1.777  4.833  0.000    26.378     6.886
 667   8 O     -0.616  1.765  4.850  0.000    26.504     6.902
 668   1 H      0.249  0.751  0.000  0.000     0.887     1.476
 669   1 H      0.061  0.939  0.000  0.000     2.189     2.314
 670   1 H      0.067  0.933  0.000  0.000     2.120     2.277
 671   1 H      0.078  0.922  0.000  0.000     2.004     2.214
 672   1 H      0.076  0.924  0.000  0.000     2.025     2.226
 673   1 H      0.033  0.967  0.000  0.000     2.548     2.496
 674   7 N     -0.388  1.305  4.084  0.000    30.052     8.142
 675   6 C      0.055  1.054  2.891  0.000    19.670     6.317
 676   6 C      0.203  1.090  2.706  0.000    23.683     7.970
 677   8 O     -0.378  1.754  4.624  0.000    21.237     6.179
 678   6 C     -0.054  1.048  3.006  0.000    21.539     6.607
 679   6 C     -0.035  1.069  2.966  0.000    28.827     8.805
 680   6 C     -0.003  1.062  2.940  0.000    28.048     8.686
 681   6 C     -0.017  1.075  2.942  0.000    28.259     8.707
 682   7 N     -0.121  1.237  3.885  0.000    23.637     7.221
 683   6 C      0.048  1.061  2.891  0.000    26.803     8.485
 684   6 C     -0.040  1.078  2.962  0.000    28.985     8.828
 685   6 C     -0.056  1.073  2.983  0.000    29.391     8.890
 686   6 C     -0.048  1.078  2.970  0.000    29.188     8.859
 687   6 C     -0.045  1.077  2.968  0.000    29.117     8.849
 688   1 H      0.158  0.842  0.000  0.000     1.349     1.819
 689   1 H      0.023  0.977  0.000  0.000     2.684     2.562
 690   1 H      0.029  0.971  0.000  0.000     2.606     2.524
 691   1 H      0.057  0.943  0.000  0.000     2.235     2.338
 692   1 H      0.006  0.994  0.000  0.000     2.948     2.685
 693   1 H      0.189  0.811  0.000  0.000     1.163     1.689
 694   1 H      0.022  0.978  0.000  0.000     2.704     2.572
 695   1 H      0.049  0.951  0.000  0.000     2.338     2.391
 696   1 H      0.045  0.955  0.000  0.000     2.383     2.414
 697   1 H      0.050  0.950  0.000  0.000     2.316     2.380
 698   1 H      0.171  0.829  0.000  0.000     1.266     1.763
 699   1 H      0.096  0.904  0.000  0.000     1.818     2.108
 700   1 H      0.179  0.821  0.000  0.000     1.220     1.730
 701   1 H      0.085  0.915  0.000  0.000     1.928     2.171
 702   1 H      0.189  0.811  0.000  0.000     1.164     1.690
 703   1 H      0.082  0.918  0.000  0.000     1.955     2.186
 704   1 H      0.188  0.812  0.000  0.000     1.170     1.694
 705   1 H      0.072  0.928  0.000  0.000     2.063     2.246
 706   1 H      0.184  0.816  0.000  0.000     1.191     1.709
 707   1 H      0.068  0.932  0.000  0.000     2.110     2.271
 708   1 H      0.178  0.822  0.000  0.000     1.224     1.733
 709   1 H      0.082  0.918  0.000  0.000     1.961     2.190
 710   1 H      0.193  0.807  0.000  0.000     1.143     1.675
 711   1 H      0.068  0.932  0.000  0.000     2.111     2.272
 712   1 H      0.192  0.808  0.000  0.000     1.145     1.676
 713   1 H      0.078  0.922  0.000  0.000     2.003     2.213
 714   1 H      0.171  0.829  0.000  0.000     1.269     1.764
 715   1 H      0.077  0.923  0.000  0.000     2.009     2.216

 Mol. C6AA /au·bohr⁶  :    5092660.920752
 Mol. C8AA /au·bohr⁸  :  116371558.664404
 Mol. α(0) /au        :       3426.737249

 
molecular dipole:
                 x           y           z       tot (Debye)
 q only:       74.596      77.606     309.827
   full:       79.134      80.531     313.832     847.750
molecular quadrupole (traceless):
                xx          xy          yy          xz          yz          zz
 q only:   -24330.451    1753.644  -20990.383   14735.645   15394.488   45320.834
  q+dip:   -24668.313    2499.785  -21655.516   16417.977   16533.944   46323.829
   full:   -24664.818    2500.825  -21657.993   16415.562   16535.441   46322.811
speedup  1.97
cpu  time for grad   47.13 s
wall time for grad   23.97 s

SCC energy    :   -1124.4383458
rep           :      14.3636393
ES            :       3.3627930
AES           :      -0.2397243
AXC           :       0.4022906
disp          :      -1.0429627
XB            :       0.0000000
fix           :       0.0000000
Gborn         :       0.0000000
Gsasa         :       0.0000000
Ghb           :       0.0000000
Gshift        :       0.0000000
Gsolv         :      -1.0955677     -687.48
Etot ala COSMO:   -1124.4383458
grad norm     :       0.6730484
total E       :   -1109.9578654
atomizationE  :     208.4854332   130826.58
(atE without considering molecular charge,
 total energy contains solvation terms)
H-L gap (eV)  :          1.2701

------------------------------------------------------------------------
 * finished run on 2019/05/07 at 20:37:52.215     
------------------------------------------------------------------------
 total:
 * wall-time:     0 d,  0 h,  0 min, 25.687 sec
 *  cpu-time:     0 d,  0 h,  0 min, 49.969 sec
 * ratio c/w:     1.945 speedup
 SCF:
 * wall-time:     0 d,  0 h,  0 min, 25.029 sec
 *  cpu-time:     0 d,  0 h,  0 min, 49.085 sec
 * ratio c/w:     1.961 speedup

