      -----------------------------------------------------------      
     |                   =====================                   |     
     |                           x T B                           |     
     |                   =====================                   |     
     |                         S. Grimme                         |     
     |          Mulliken Center for Theoretical Chemistry        |     
     |                    University of Bonn                     |     
     |                 Version 6.0.1 (SAW181210)                 |     
      -----------------------------------------------------------      

   This program is distributed in the hope that it will be useful,
   but WITHOUT ANY WARRANTY; without even the implied warranty of
   MERCHANTABILITY or FITNESS FOR A PARTICULAR PURPOSE.
   
   FOR NON-COMMERCIAL, ACADEMIA USE ONLY.
   
   Cite this work as:
   S. Grimme, C. Bannwarth, P. Shushkov, J. Comput. Theory Chem., 2017,
   13, 1989-2009.
   C. Bannwarth, S. Ehlert and S. Grimme., ChemRxiv, 2018, preprint.
   http://doi.org/10.26434/chemrxiv.7246238.v1
   
   for sTDA-xTB:
   S. Grimme and C. Bannwarth, J. Chem. Phys., 2016, 145, 054103.
   
   in the mass-spec context:
   V. Asgeirsson, C. Bauer and S. Grimme, Chem. Sci., 2017, 8, 4879.
   
   if GBSA is used:
   P. Shushkov, F. März and S. Grimme, unpublished.
   
   for ANC optimizer:
   S. Grimme, unpublished.
   Rational Function algorithm used in ANCopt:
   F. Eckert, P. Pulay, H.-J. Werner, J. Comput. Chem., 1997, 18, 1473.
   
   with help from (in alphabetical order)
   C. Bannwarth, F. Bohle, G. Brandenburg, E. Caldeweyher, M. Checinski,
   S. Dohm, S. Ehlert, S. Ehrlich, F. März, H. Neugebauer, J. Pisarek,
   P. Pracht, P. Shushkov, and S. Spicher.
   
 * started run on 2019/05/03 at 23:04:14.451     
========================================================================
 # omp threads = 2
========================================================================
number of atoms            : 325
number of electrons        : 884
charge                     : 1
spin                       : .0
first test random number   : .1590

########################################################################
# WARNING! Please study the warnings concerning your input carefully
#  - Process number higher than OMP_NUM_THREADS, I hope you know what you are doing.
########################################################################

           ------------------------------------------------- 
          |                 G F N 2 - x T B                 |
          | Geometry, Frequencies, Noncovalent interactions |
          |            JCTC 2018 parametrisation            |
           ------------------------------------------------- 
 
      method parameters     
 k(s)        :  1.8500
 k(p)        :  2.2300
 k(d)        :  2.2300
 k(f)        :  2.0000
 kEN (H0ij)  : -2.0000
 D4 a1       :  0.5200
 D4 a2       :  5.0000
 D4 s6       :  1.0000
 D4 s8       :  2.7000
 D4 s9       :  5.0000
 alphaj      :  2.0000

 Solvent             : h2o
 Using internal parameter file: .param_gbsa2_h2o
 Gsolv ref. state (COSMO-RS): gsolv [1 M gas/solution]
 temperature (mdtemp)       :    298.150000000000     
 dielectric constant        :    80.2000000000000     
 rho                        :    1.00000000000000     
 mass                       :    18.0000000000000     
 surface tension            :    15.5689454083859     
 probe radius               :   0.975313790000000     
 vdW radii scaling          :    1.00000000000000     
 Gshift (Eh)                :   1.857443126794793E-003
 c1                         :    1.55243817000000     
 soset                      :   0.130326360000000     
 HB correction              :  T

            Z     q(EN)     CN     RAES       Cart. coordinates
     1  N   5.0   -0.19    3.15    1.95    27.74843    70.12999    24.24785
     2  C   4.0    0.03    4.20    3.99    27.06012    68.36377    22.08002
     3  C   4.0    0.10    3.22    3.04    29.37531    66.75044    21.44160
     4  O   6.0   -0.27    1.16    1.80    31.38344    67.64011    21.42493
     5  C   4.0   -0.04    4.32    4.23    26.25951    69.77890    19.70661
     6  C   4.0   -0.02    3.53    3.13    25.40007    68.03333    17.61842
     7  C   4.0   -0.04    3.43    3.09    23.17499    66.67059    17.84187
     8  C   4.0   -0.04    3.44    3.09    26.87874    67.75243    15.47119
     9  C   4.0   -0.03    3.32    3.06    22.25396    65.15454    15.91420
    10  C   4.0   -0.03    3.33    3.06    26.01135    66.25503    13.40684
    11  C   4.0   -0.03    3.33    3.06    23.73910    64.97715    13.58121
    12  H   1.0    0.11    1.03    1.43    29.58420    70.52112    24.40621
    13  H   1.0    0.05    1.03    1.43    25.46043    67.21422    22.83723
    14  H   1.0    0.04    1.03    1.43    24.70587    71.04086    20.22008
    15  H   1.0    0.05    1.03    1.43    27.81238    70.97518    19.08817
    16  H   1.0    0.06    1.02    1.43    22.00724    66.80414    19.55024
    17  H   1.0    0.06    1.03    1.43    28.58270    68.81340    15.27741
    18  H   1.0    0.06    1.03    1.43    20.55321    64.13899    16.09750
    19  H   1.0    0.06    1.03    1.43    27.09966    66.19846    11.71914
    20  H   1.0    0.06    1.04    1.44    23.03452    63.91263    12.10206
    21  N   5.0   -0.19    3.23    1.96    29.47145    71.60147     5.13136
    22  C   4.0    0.04    4.27    4.15    27.99601    69.68437     3.83525
    23  C   4.0    0.15    3.37    3.07    25.55244    69.08884     5.40855
    24  O   6.0   -0.31    1.24    1.80    24.67693    67.07727     5.69520
    25  C   4.0   -0.02    4.28    4.16    29.53065    67.16822     3.52435
    26  C   4.0    0.15    3.20    3.04    31.76108    67.39113     1.72927
    27  O   6.0   -0.27    1.20    1.80    32.18017    69.17981     0.34587
    28  N   5.0   -0.18    3.20    1.95    33.21986    65.28851     1.76237
    29  H   1.0    0.10    1.02    1.43    30.17212    73.03844     4.03930
    30  H   1.0    0.06    1.06    1.44    27.50512    70.47073     2.02417
    31  H   1.0    0.06    1.02    1.43    30.25883    66.66386     5.41400
    32  H   1.0    0.05    1.03    1.43    28.23410    65.69397     2.96806
    33  H   1.0    0.10    1.04    1.43    32.85204    63.86799     2.86918
    34  H   1.0    0.11    1.02    1.43    34.66051    65.19655     0.47021
    35  N   5.0   -0.14    3.52    2.09    24.47191    71.26556     6.34058
    36  C   4.0    0.04    4.52    4.57    22.09424    71.10867     7.68575
    37  C   4.0    0.16    3.44    3.09    20.01091    71.26662     5.66415
    38  O   6.0   -0.31    1.27    1.80    19.80222    73.10424     4.37729
    39  C   4.0   -0.02    4.30    4.19    21.92289    73.23206     9.68597
    40  C   4.0   -0.05    4.17    3.93    23.50583    72.40290    12.04618
    41  C   4.0   -0.07    4.12    3.85    19.16668    73.69399    10.41158
    42  C   4.0   -0.08    4.00    3.62    24.19775    74.59643    13.76760
    43  H   1.0    0.08    1.07    1.44    25.28624    72.96649     6.13149
    44  H   1.0    0.05    1.06    1.44    21.99080    69.25162     8.60069
    45  H   1.0    0.05    1.06    1.44    22.73541    74.94454     8.90271
    46  H   1.0    0.04    1.03    1.43    22.49129    70.96741    13.08075
    47  H   1.0    0.05    1.03    1.43    25.25495    71.55329    11.33070
    48  H   1.0    0.04    1.00    1.43    19.05212    75.00977    11.99303
    49  H   1.0    0.05    1.01    1.43    18.10810    74.44427     8.83817
    50  H   1.0    0.04    1.00    1.43    18.28494    71.93035    11.00195
    51  H   1.0    0.04    1.00    1.43    25.45602    73.93154    15.24223
    52  H   1.0    0.05    1.00    1.43    25.11109    76.10725    12.73546
    53  H   1.0    0.04    1.00    1.43    22.51551    75.38190    14.66897
    54  N   5.0   -0.13    3.49    2.07    18.66053    69.20173     5.45515
    55  C   4.0    0.03    4.37    4.33    16.68326    68.67422     3.63350
    56  C   4.0    0.16    3.47    3.10    14.01702    68.95537     4.77170
    57  O   6.0   -0.33    1.38    1.80    13.66214    69.08884     6.98086
    58  C   4.0   -0.04    4.28    4.17    16.87905    65.90254     2.70084
    59  C   4.0   -0.04    4.21    4.02    18.44485    65.59510     0.37095
    60  C   4.0   -0.04    4.16    3.92    20.95906    64.25822     0.78201
    61  C   4.0   -0.03    4.11    3.82    22.20535    63.76301    -1.82668
    62  N   5.0   -0.11    4.06    3.03    22.48245    66.20830    -3.19570
    63  H   1.0    0.09    1.11    1.44    19.00382    67.80239     6.73017
    64  H   1.0    0.05    1.05    1.44    16.86752    70.02320     2.06348
    65  H   1.0    0.06    1.04    1.43    17.71426    64.81878     4.26307
    66  H   1.0    0.06    1.04    1.43    14.99087    65.12021     2.46783
    67  H   1.0    0.04    1.03    1.43    17.36173    64.50345    -1.03582
    68  H   1.0    0.04    1.03    1.43    18.73356    67.47762    -0.48261
    69  H   1.0    0.06    1.02    1.43    22.20850    65.40486     1.95382
    70  H   1.0    0.05    1.03    1.43    20.69472    62.46514     1.70137
    71  H   1.0    0.05    1.03    1.43    24.05557    62.91153    -1.62958
    72  H   1.0    0.05    1.02    1.43    21.02001    62.49674    -2.94449
    73  H   1.0    0.11    1.13    1.45    23.49347    66.15948    -4.98916
    74  H   1.0    0.06    1.02    1.43    20.71247    66.85204    -3.74853
    75  H   1.0    0.07    1.04    1.43    23.36184    67.49144    -2.16410
    76  N   5.0   -0.14    3.47    2.06    12.08886    68.88253     3.08233
    77  C   4.0    0.04    4.43    4.42     9.53200    68.67655     4.09868
    78  C   4.0    0.16    3.48    3.11     9.40957    66.26474     5.72180
    79  O   6.0   -0.29    1.22    1.80    10.58554    64.33087     5.20445
    80  C   4.0   -0.05    4.24    4.07     7.44048    68.90034     2.10170
    81  C   4.0   -0.04    4.16    3.92     6.76028    66.47753     0.64010
    82  C   4.0   -0.01    4.20    4.01     4.79582    67.21418    -1.36987
    83  N   5.0   -0.14    3.37    2.01     4.11713    65.03800    -2.92245
    84  C   4.0    0.10    3.33    3.06     1.85742    64.67717    -4.02316
    85  N   5.0   -0.17    3.25    1.97    -0.02299    66.25135    -3.91738
    86  N   5.0   -0.17    3.27    1.97     1.44693    62.46737    -5.21545
    87  H   1.0    0.07    1.06    1.44    12.39231    68.67980     1.22926
    88  H   1.0    0.06    1.06    1.44     9.32575    70.28064     5.41099
    89  H   1.0    0.04    1.03    1.43     5.76256    69.56883     3.07406
    90  H   1.0    0.04    1.03    1.43     8.04010    70.31922     0.73418
    91  H   1.0    0.05    1.02    1.43     8.43131    65.66890    -0.27046
    92  H   1.0    0.06    1.03    1.43     6.01099    65.07932     1.93319
    93  H   1.0    0.04    1.03    1.43     3.12216    67.87659    -0.37806
    94  H   1.0    0.04    1.02    1.43     5.54322    68.72983    -2.56212
    95  H   1.0    0.08    1.07    1.44     5.47266    63.73962    -3.12710
    96  H   1.0    0.08    1.01    1.43     0.15681    68.02497    -3.05907
    97  H   1.0    0.12    1.04    1.43    -1.70758    65.83396    -4.64280
    98  H   1.0    0.09    1.03    1.43     2.85181    61.27924    -5.60546
    99  H   1.0    0.12    1.07    1.44    -0.22706    62.29489    -6.18914
   100  N   5.0   -0.14    3.52    2.09     8.01151    66.62876     7.80276
   101  C   4.0    0.04    4.41    4.39     7.67431    64.72062     9.73719
   102  C   4.0    0.16    3.46    3.10    10.11491    63.92126    11.10763
   103  O   6.0   -0.28    1.26    1.80    10.26428    61.91927    12.22770
   104  C   4.0   -0.01    4.33    4.25     6.43664    62.40657     8.62238
   105  C   4.0    0.24    3.13    3.03     3.92830    63.04591     7.24626
   106  O   6.0   -0.31    1.16    1.80     2.78412    65.12237     7.43504
   107  O   6.0   -0.31    1.34    1.80     3.21350    61.17889     5.88734
   108  H   1.0    0.11    1.11    1.45     7.11180    68.27534     8.06784
   109  H   1.0    0.05    1.05    1.44     6.42794    65.52926    11.18867
   110  H   1.0    0.08    1.03    1.43     7.64247    61.38305     7.33456
   111  H   1.0    0.06    1.02    1.43     5.97660    61.02449    10.10485
   112  N   5.0   -0.12    3.51    2.09    12.05992    65.54162    10.91911
   113  C   4.0    0.04    4.41    4.40    14.13358    65.11517    12.64081
   114  C   4.0    0.16    3.37    3.07    13.07444    65.67617    15.44561
   115  O   6.0   -0.31    1.26    1.80    11.49747    67.31278    15.76750
   116  C   4.0    0.03    4.17    3.95    16.21728    67.03999    12.10815
   117  O   6.0   -0.26    2.13    1.84    17.22248    66.65633     9.73900
   118  H   1.0    0.10    1.09    1.44    11.87208    67.16983     9.98536
   119  H   1.0    0.06    1.07    1.44    14.77045    63.22364    12.52379
   120  H   1.0    0.04    1.01    1.43    15.46794    68.97556    12.28862
   121  H   1.0    0.04    1.01    1.43    17.78399    66.75362    13.47394
   122  H   1.0    0.15    1.11    1.45    15.89839    67.18455     8.57342
   123  N   5.0   -0.14    3.43    2.04    14.06366    64.25930    17.15223
   124  C   4.0    0.04    4.43    4.43    13.74559    64.60996    19.94937
   125  C   4.0    0.15    3.42    3.09    16.05733    65.88762    20.94541
   126  O   6.0   -0.30    1.24    1.80    18.07446    64.67336    21.00408
   127  C   4.0   -0.02    4.32    4.24    13.39201    62.02898    21.17517
   128  C   4.0    0.16    3.22    3.04    10.72175    61.01052    21.06162
   129  O   6.0   -0.28    1.22    1.80     8.88447    62.45096    21.33636
   130  N   5.0   -0.17    3.18    1.95    10.45625    58.54396    20.84598
   131  H   1.0    0.08    1.06    1.44    15.50524    63.01836    16.70541
   132  H   1.0    0.08    1.06    1.44    12.07837    65.83539    20.13566
   133  H   1.0    0.06    1.03    1.43    14.71158    60.68356    20.34986
   134  H   1.0    0.07    1.04    1.43    13.83113    62.27378    23.18709
   135  H   1.0    0.11    1.03    1.43     8.72994    57.75493    20.74361
   136  H   1.0    0.09    1.03    1.43    11.98840    57.42455    20.53874
   137  N   5.0   -0.13    3.47    2.06    15.79486    68.21310    21.62698
   138  C   4.0    0.03    4.26    4.12    17.74691    69.60091    23.28517
   139  C   4.0    0.09    3.21    3.04    16.98224    69.36612    26.02135
   140  O   6.0   -0.26    1.16    1.80    14.82390    68.93366    26.55565
   141  C   4.0   -0.04    4.33    4.25    17.80900    72.42328    22.56840
   142  C   4.0   -0.03    4.16    3.92    19.02773    72.98128    19.98586
   143  C   4.0   -0.07    4.12    3.84    17.57972    71.79800    17.83269
   144  C   4.0   -0.08    4.09    3.78    19.18356    75.90533    19.68070
   145  H   1.0    0.13    1.14    1.45    14.10082    69.03891    21.69306
   146  H   1.0    0.05    1.03    1.43    19.60695    68.67167    22.95841
   147  H   1.0    0.06    1.03    1.43    15.87195    73.12477    22.60075
   148  H   1.0    0.04    1.03    1.43    18.82855    73.39670    24.06235
   149  H   1.0    0.04    1.06    1.44    20.92582    72.20252    20.01087
   150  H   1.0    0.03    0.99    1.43    18.27300    72.52325    16.00965
   151  H   1.0    0.05    1.01    1.43    17.80586    69.77526    17.79491
   152  H   1.0    0.05    1.00    1.43    15.57793    72.24556    17.96305
   153  H   1.0    0.04    1.01    1.43    20.01335    76.33970    17.88324
   154  H   1.0    0.04    1.00    1.43    17.30540    76.72512    19.82849
   155  H   1.0    0.05    1.00    1.43    20.35476    76.70359    21.15923
   156  N   5.0   -0.21    3.22    1.96    -8.31838    56.25670    -2.56940
   157  C   4.0    0.04    4.27    4.14    -8.96771    58.93684    -2.55563
   158  C   4.0    0.10    3.18    3.03   -11.11802    59.51006    -0.68482
   159  O   6.0   -0.28    1.14    1.80   -11.09366    61.38138     0.47552
   160  C   4.0   -0.03    4.28    4.15    -9.58567    59.69613    -5.25656
   161  C   4.0   -0.03    4.20    4.01    -7.13203    59.91289    -6.74890
   162  C   4.0    0.24    3.12    3.03    -5.46926    62.12824    -6.04401
   163  O   6.0   -0.29    1.18    1.80    -6.01454    63.53481    -4.19089
   164  O   6.0   -0.29    1.22    1.80    -3.49375    62.43085    -7.36574
   165  H   1.0    0.09    1.04    1.43    -8.44418    55.25596    -4.09821
   166  H   1.0    0.06    1.07    1.44    -7.37588    60.06694    -1.88856
   167  H   1.0    0.05    1.03    1.43   -10.83529    58.30659    -6.10367
   168  H   1.0    0.07    1.03    1.43   -10.57085    61.51060    -5.22035
   169  H   1.0    0.05    1.03    1.43    -6.05554    58.15113    -6.63019
   170  H   1.0    0.06    1.02    1.43    -7.57741    60.10829    -8.78831
   171  N   5.0   -0.18    3.21    1.96    -8.93441    59.38160     6.23690
   172  C   4.0    0.03    4.23    4.05    -7.48470    61.76415     6.60843
   173  C   4.0    0.08    3.24    3.04    -9.33050    63.80697     6.98620
   174  O   6.0   -0.25    1.08    1.80    -9.21821    65.29894     8.98659
   175  C   4.0   -0.04    4.31    4.21    -5.64810    62.09937     4.52333
   176  C   4.0   -0.04    4.17    3.95    -4.07040    64.36007     4.48754
   177  C   4.0    0.00    4.15    3.91    -1.81309    64.27210     2.55885
   178  N   5.0   -0.13    3.44    2.04    -1.97349    62.12945     0.93710
   179  C   4.0    0.10    3.33    3.06    -0.27072    60.24672     0.45271
   180  N   5.0   -0.17    3.28    1.98     2.18315    60.51481     1.19040
   181  N   5.0   -0.17    3.25    1.97    -0.90507    58.34678    -0.75795
   182  H   1.0    0.09    1.02    1.43    -8.58968    58.45398     4.57637
   183  H   1.0    0.06    1.05    1.44    -6.38576    61.57535     8.39953
   184  H   1.0    0.05    1.03    1.43    -4.56920    60.32874     4.32944
   185  H   1.0    0.06    0.98    1.43    -6.88612    62.07901     2.68994
   186  H   1.0    0.06    1.03    1.43    -5.13788    66.08069     4.22177
   187  H   1.0    0.05    1.04    1.43    -3.23017    64.45643     6.38619
   188  H   1.0    0.05    1.02    1.43    -1.83319    65.98235     1.41304
   189  H   1.0    0.06    1.03    1.43    -0.03529    64.22487     3.60102
   190  H   1.0    0.09    1.08    1.44    -3.65786    61.93326     0.03560
   191  H   1.0    0.13    1.14    1.45     2.50161    61.23082     2.99925
   192  H   1.0    0.10    1.05    1.44     3.26578    59.02224     0.85899
   193  H   1.0    0.08    1.01    1.43    -2.66363    58.24720    -1.72920
   194  H   1.0    0.09    1.02    1.43     0.34560    57.00404    -1.47010
   195  N   5.0   -0.11    4.15    3.30     4.01410    79.36064     0.43975
   196  C   4.0   -0.00    4.29    4.18     5.24181    77.10884     1.57330
   197  C   4.0    0.14    3.42    3.08     4.51586    77.22079     4.41698
   198  O   6.0   -0.29    1.27    1.80     4.43564    79.28490     5.49754
   199  C   4.0   -0.04    4.31    4.22     8.08515    77.40893     1.16188
   200  C   4.0   -0.04    4.04    3.70     9.60953    75.50884     2.71732
   201  S   6.0   -0.03    2.44    3.10    12.85767    75.11210     1.45350
   202  C   4.0   -0.06    3.88    3.44    14.67451    75.79685     4.30143
   203  H   1.0    0.06    1.00    1.43     4.66631    79.99759    -1.32230
   204  H   1.0    0.07    1.01    1.43     2.07346    79.12691     0.25551
   205  H   1.0    0.08    1.05    1.44     4.37676    80.88960     1.58137
   206  H   1.0    0.04    1.04    1.43     4.52065    75.36521     0.71381
   207  H   1.0    0.05    1.04    1.43     8.47575    77.13839    -0.84350
   208  H   1.0    0.05    1.04    1.43     8.63379    79.31513     1.63543
   209  H   1.0    0.05    1.06    1.44     9.77833    76.07662     4.70096
   210  H   1.0    0.04    1.07    1.44     8.73681    73.64888     2.65599
   211  H   1.0    0.07    1.07    1.44    16.61838    75.37747     3.86411
   212  H   1.0    0.05    1.03    1.43    14.39852    77.73425     4.88437
   213  H   1.0    0.05    1.04    1.43    14.03343    74.49864     5.77714
   214  N   5.0   -0.14    3.41    2.03     3.91037    75.07386     5.57009
   215  C   4.0    0.03    4.41    4.40     3.33693    75.09166     8.30108
   216  C   4.0    0.15    3.44    3.09     5.32418    73.47337     9.65607
   217  O   6.0   -0.33    1.31    1.80     6.00109    71.46498     8.76654
   218  C   4.0   -0.03    4.24    4.08     0.67782    74.10557     8.91446
   219  C   4.0   -0.03    4.19    3.98     0.24055    71.26579     8.37394
   220  C   4.0    0.16    3.20    3.04    -1.88133    70.21079    10.09740
   221  O   6.0   -0.27    1.18    1.80    -2.99674    71.41010    11.73923
   222  N   5.0   -0.18    3.17    1.95    -2.42927    67.72834     9.54346
   223  H   1.0    0.08    1.06    1.44     4.08618    73.39618     4.71684
   224  H   1.0    0.06    1.07    1.44     3.47617    77.04456     8.95749
   225  H   1.0    0.07    1.03    1.43     0.37358    74.46235    10.92625
   226  H   1.0    0.06    1.03    1.43    -0.71097    75.24432     7.92437
   227  H   1.0    0.05    1.03    1.43    -0.36875    70.96481     6.44348
   228  H   1.0    0.07    1.04    1.43     1.91126    70.14018     8.76191
   229  H   1.0    0.10    1.04    1.43    -1.02355    66.75766     8.65868
   230  H   1.0    0.11    1.03    1.43    -3.73237    66.87919    10.58040
   231  N   5.0   -0.14    3.48    2.07     6.17290    74.49023    11.79781
   232  C   4.0    0.04    4.51    4.56     7.82855    72.98600    13.42445
   233  C   4.0    0.14    3.40    3.08     6.65655    72.79693    16.06454
   234  O   6.0   -0.28    1.21    1.80     5.07913    74.39582    16.85377
   235  C   4.0   -0.02    4.33    4.25    10.49357    74.16326    13.52709
   236  C   4.0   -0.04    4.20    4.00    10.41310    76.87020    14.37520
   237  C   4.0   -0.07    4.13    3.87    11.76662    73.85576    11.00172
   238  C   4.0   -0.08    3.99    3.61    12.97600    77.76543    15.57364
   239  H   1.0    0.09    1.07    1.44     5.40427    76.09721    12.43306
   240  H   1.0    0.06    1.06    1.44     7.95760    71.04035    12.67408
   241  H   1.0    0.05    1.04    1.43    11.56040    73.00683    14.95484
   242  H   1.0    0.05    1.03    1.43     9.89634    78.12485    12.87266
   243  H   1.0    0.06    1.02    1.43     8.97637    77.09265    15.89066
   244  H   1.0    0.04    1.00    1.43    13.67669    74.63561    11.05798
   245  H   1.0    0.06    1.00    1.43    11.89060    71.88835    10.41605
   246  H   1.0    0.05    1.01    1.43    10.70734    74.88822     9.57993
   247  H   1.0    0.05    1.00    1.43    12.81250    79.73257    16.14501
   248  H   1.0    0.04    1.00    1.43    13.41152    76.64025    17.20017
   249  H   1.0    0.04    1.00    1.43    14.46523    77.57328    14.19034
   250  N   5.0   -0.14    3.45    2.05     7.46044    70.77278    17.36866
   251  C   4.0    0.04    4.33    4.25     6.67744    70.49302    20.08440
   252  C   4.0    0.09    3.22    3.04     8.93391    71.10935    21.76011
   253  O   6.0   -0.30    1.21    1.80    11.07734    70.26341    21.27006
   254  C   4.0   -0.02    4.33    4.26     5.94940    67.72551    20.60916
   255  C   4.0    0.00    3.59    3.16     3.80089    67.02243    18.86956
   256  C   4.0   -0.02    3.45    3.09     4.29022    65.76122    16.61289
   257  C   4.0   -0.03    3.45    3.10     1.34345    67.85981    19.43080
   258  C   4.0   -0.03    3.35    3.06     2.35946    65.31528    14.90476
   259  C   4.0   -0.02    3.35    3.06    -0.57957    67.43051    17.76104
   260  C   4.0   -0.02    3.38    3.07    -0.05621    66.18845    15.47472
   261  H   1.0    0.11    1.10    1.44     8.81494    69.67996    16.77434
   262  H   1.0    0.06    1.06    1.44     5.11769    71.74162    20.46607
   263  H   1.0    0.08    1.03    1.43     7.57178    66.48824    20.31708
   264  H   1.0    0.06    1.04    1.43     5.37442    67.63370    22.55684
   265  H   1.0    0.07    1.02    1.43     6.20147    65.11737    16.22427
   266  H   1.0    0.06    1.03    1.43     1.01489    68.85436    21.16999
   267  H   1.0    0.06    1.03    1.43     2.72929    64.36056    13.14356
   268  H   1.0    0.07    1.03    1.43    -2.47601    68.07889    18.13035
   269  H   1.0    0.06    1.03    1.43    -1.52643    65.94545    14.09748
   270  N   5.0   -0.13    3.42    2.03    29.52574    55.63395    -9.34492
   271  C   4.0    0.03    4.35    4.29    27.84806    57.54612   -10.46516
   272  C   4.0    0.10    3.18    3.03    29.43617    59.48149   -11.96376
   273  O   6.0   -0.29    1.19    1.80    31.24849    60.36538   -11.13863
   274  C   4.0   -0.03    4.31    4.21    26.66190    58.87463    -8.06184
   275  C   4.0   -0.04    4.26    4.11    26.59559    56.70040    -6.18457
   276  C   4.0    0.00    4.29    4.18    29.06344    55.32182    -6.62954
   277  H   1.0    0.04    1.05    1.44    26.41480    56.61337   -11.56197
   278  H   1.0    0.06    1.04    1.43    27.98722    60.30118    -7.46519
   279  H   1.0    0.06    1.02    1.43    24.86643    59.71674    -8.54252
   280  H   1.0    0.05    1.02    1.43    26.45119    57.36943    -4.24002
   281  H   1.0    0.05    1.02    1.43    25.01025    55.43637    -6.59088
   282  H   1.0    0.07    1.02    1.43    30.61028    56.21862    -5.57231
   283  H   1.0    0.05    1.02    1.43    28.99592    53.30964    -6.18925
   284  N   5.0   -0.19    3.34    2.00    28.92286    65.23454   -12.96172
   285  C   4.0    0.04    4.30    4.21    29.16303    67.74144   -11.88503
   286  C   4.0    0.16    3.39    3.07    30.95744    67.73817    -9.52642
   287  O   6.0   -0.27    1.24    1.80    31.58411    69.70275    -8.55116
   288  C   4.0   -0.02    4.27    4.14    26.51532    68.65270   -11.16996
   289  C   4.0    0.25    3.18    3.03    25.26423    66.70811    -9.39339
   290  O   6.0   -0.30    1.23    1.80    24.82147    64.42327   -10.31196
   291  O   6.0   -0.32    1.38    1.80    24.73950    67.34929    -7.30718
   292  H   1.0    0.12    1.10    1.44    27.37052    64.24361   -12.43893
   293  H   1.0    0.06    1.05    1.44    30.03491    69.06104   -13.22573
   294  H   1.0    0.07    1.03    1.43    26.59965    70.42856   -10.14258
   295  H   1.0    0.06    1.03    1.43    25.35259    68.90273   -12.83720
   296  N   5.0   -0.14    3.49    2.07    31.78248    65.54585    -8.78464
   297  C   4.0    0.04    4.32    4.24    33.85669    65.17944    -7.12511
   298  C   4.0    0.11    3.16    3.03    36.42953    64.69456    -8.48121
   299  O   6.0   -0.26    1.15    1.80    38.23649    64.15044    -7.43367
   300  C   4.0   -0.02    4.27    4.13    33.31419    62.94006    -5.26379
   301  C   4.0   -0.03    4.21    4.02    30.91664    63.49768    -3.80091
   302  C   4.0    0.16    3.20    3.04    30.21085    61.20702    -2.09226
   303  O   6.0   -0.29    1.24    1.80    31.18882    59.21273    -2.06086
   304  N   5.0   -0.20    3.12    1.94    28.15466    61.54567    -0.54430
   305  H   1.0    0.11    1.09    1.44    31.26081    63.89430    -9.79047
   306  H   1.0    0.08    1.06    1.44    34.07679    66.92666    -6.04539
   307  H   1.0    0.07    1.02    1.43    33.13324    61.24633    -6.43559
   308  H   1.0    0.07    1.03    1.43    34.95425    62.63710    -4.08185
   309  H   1.0    0.06    1.04    1.43    31.17140    65.15967    -2.66000
   310  H   1.0    0.06    1.03    1.43    29.33611    63.79581    -5.08054
   311  H   1.0    0.07    0.94    1.42    27.73765    63.64363    -0.29061
   312  H   1.0    0.11    1.06    1.44    27.72245    60.46771     0.63604
   313  H   1.0    0.10    1.07    1.44    -6.69242    56.06411    -2.10927
   314  H   1.0    0.07    1.05    1.44   -12.53372    58.27759    -0.46606
   315  H   1.0    0.10    1.06    1.44    -8.56055    58.28899     7.48550
   316  H   1.0    0.08    1.04    1.43   -10.70242    64.08740     5.71724
   317  H   1.0    0.06    1.04    1.43     8.70923    72.20836    23.28089
   318  H   1.0    0.10    1.06    1.44    26.95076    71.61804    24.04290
   319  H   1.0    0.06    1.05    1.44    29.16620    64.91689    21.03488
   320  H   1.0    0.09    1.11    1.45    28.51220    72.34839     6.32069
   321  H   1.0    0.06    1.05    1.44    18.27476    69.57118    27.38458
   322  H   1.0    0.09    1.14    1.45    29.10676    54.09508    -9.93557
   323  H   1.0    0.06    1.05    1.44    28.90103    60.00051   -13.70023
   324  H   1.0    0.10    1.07    1.44    28.86161    65.34849   -14.65755
   325  H   1.0    0.08    1.06    1.44    36.55250    64.85604   -10.36000

  Z AO/shell   Hii/eV     exponent
  1     Wed Apr 25 08:07:45 CEST 2018   EN: 2.200 GM2: 0.406  GM3: 0.0800  RAES: 1.40
     1s    -10.707211    1.230000
  6     Wed Apr 25 08:07:45 CEST 2018   EN: 2.550 GM2: 0.538  GM3: 0.1500  RAES: 3.00
     2s    -13.970922    2.096432
     2p    -10.063292    1.800000
  7     Wed Apr 25 08:07:45 CEST 2018   EN: 3.040 GM2: 0.461  GM3:-0.0640  RAES: 1.90
     2s    -16.686243    2.339881
     2p    -12.523956    2.014332
  8     Wed Apr 25 08:07:45 CEST 2018   EN: 3.440 GM2: 0.452  GM3:-0.0517  RAES: 1.80
     2s    -20.229985    2.439742
     2p    -15.503117    2.137023
 16     Tue Apr 24 11:44:34 CEST 2018   EN: 2.580 GM2: 0.340  GM3:-0.0502  RAES: 3.10
     3s    -20.029654    1.981333
     3p    -11.377694    2.025643
     3d     -0.420282    1.702555
 no old-style atom pair restraining (fixing) potential

molecular fragmentation (1/2 indicates fragments):
111111111111111111112222222222222222222222222222222222222222222222222222
222222222222222222222222222222222222222222222222222222222222222222222222
222222222222222222222222222222222222222222222222222222222222222222222222
222222222222222222222222222222222222222222222222222222222222222222222222
2222222222222222222222222222211222222
# atoms in fragment 1/2:    22   303
 fragment masses (1/2) :      149.19     2099.45
CMA distance (Bohr)    :  19.040
constraining FC (au)   :  0.0500
           ------------------------------------------------- 
          |        Self-Consistent Charge Iterations        |
           ------------------------------------------------- 

 Ncao       : 802
 Nao        : 801
 Nshell     : 483
 Nel        : 884
 T(el)      :   500.0
 intcut     :    35.0
 scfconv/Eh :  0.100E-06
   qconv/e  :  0.100E-04
 intneglect :  0.100E-08
 broydamp   :      0.400
 iter      E             dE          RMSdq      gap      omega  full diag
   1   -506.0154285 -0.506015E+03  0.472E+00    2.21       0.0  T
   2   -507.2762457 -0.126082E+01  0.221E+00    0.98       1.0  T
   3   -507.3498730 -0.736273E-01  0.125E+00    1.46       1.0  T
   4   -507.4295971 -0.797241E-01  0.299E-01    0.88       1.0  T
   5   -507.4375380 -0.794094E-02  0.162E-01    1.05       1.0  T
   6   -507.4395983 -0.206027E-02  0.700E-02    1.06       1.0  T
   7   -507.4399038 -0.305482E-03  0.290E-02    1.01       1.0  T
   8   -507.4399443 -0.405718E-04  0.158E-02    1.02       1.0  T
   9   -507.4399558 -0.114835E-04  0.734E-03    1.01       1.0  T
  10   -507.4399589 -0.307630E-05  0.369E-03    1.01       1.5  T
  11   -507.4399597 -0.787858E-06  0.176E-03    1.01       3.1  T
  12   -507.4399599 -0.212290E-06  0.830E-04    1.01       6.7  T
  13   -507.4399599 -0.476228E-07  0.335E-04    1.01      16.6  T
  14   -507.4399599 -0.536664E-08  0.161E-04    1.01      34.5  T
  15   -507.4399599 -0.148901E-08  0.560E-05    1.01      99.1  T
  16   -507.4399599 -0.205205E-09  0.267E-05    1.01     207.7  T
speedup  1.65
cpu  time for SCC    8.05 s
wall time for SCC    4.87 s

   *** convergence criteria satisfied after 16 iterations ***

          eigenvalues
 #    :         430        431        432        433        434        435        436        437
 occ. :        2.000      2.000      2.000      2.000      2.000      2.000      2.000      2.000
 eps  :       -10.616    -10.608    -10.357    -10.252    -10.191    -10.121    -10.119    -10.077
 #    :         438        439        440        441        442        443        444        445
 occ. :        2.000      2.000      2.000      2.000      2.000      0.000      0.000      0.000
 eps  :       -10.045    -10.042     -9.768     -9.665     -9.517     -8.506     -8.292     -7.794
 #    :         446        447        448        449        450        451        452        453
 occ. :        0.000      0.000      0.000      0.000      0.000      0.000      0.000      0.000
 eps  :        -7.270     -7.239     -7.084     -7.027     -6.732     -6.510     -6.408     -6.354


   #   Z            q   n(s)   n(p)   n(d)      C6AA      α(0)
   1   7 N     -0.404  1.343  4.060  0.000    30.476     8.199
   2   6 C      0.025  1.074  2.901  0.000    20.173     6.399
   3   6 C      0.223  1.069  2.708  0.000    23.303     7.906
   4   8 O     -0.346  1.723  4.624  0.000    20.638     6.091
   5   6 C     -0.064  1.052  3.012  0.000    21.716     6.633
   6   6 C      0.007  1.081  2.911  0.000    27.853     8.656
   7   6 C     -0.035  1.083  2.952  0.000    28.879     8.812
   8   6 C     -0.044  1.086  2.958  0.000    29.101     8.846
   9   6 C     -0.041  1.090  2.951  0.000    29.013     8.832
  10   6 C     -0.034  1.083  2.951  0.000    28.849     8.807
  11   6 C     -0.045  1.087  2.958  0.000    29.106     8.846
  12   1 H      0.160  0.840  0.000  0.000     1.333     1.809
  13   1 H      0.055  0.945  0.000  0.000     2.259     2.350
  14   1 H      0.061  0.939  0.000  0.000     2.191     2.315
  15   1 H      0.048  0.952  0.000  0.000     2.348     2.396
  16   1 H      0.039  0.961  0.000  0.000     2.464     2.455
  17   1 H      0.033  0.967  0.000  0.000     2.544     2.494
  18   1 H      0.034  0.966  0.000  0.000     2.523     2.484
  19   1 H      0.041  0.959  0.000  0.000     2.432     2.438
  20   1 H      0.052  0.948  0.000  0.000     2.291     2.367
  21   7 N     -0.393  1.322  4.071  0.000    30.186     8.160
  22   6 C      0.026  1.061  2.913  0.000    20.168     6.398
  23   6 C      0.269  1.047  2.684  0.000    22.456     7.759
  24   8 O     -0.418  1.714  4.704  0.000    22.049     6.296
  25   6 C     -0.114  1.068  3.046  0.000    22.680     6.780
  26   6 C      0.292  1.036  2.672  0.000    22.050     7.689
  27   8 O     -0.490  1.756  4.733  0.000    23.561     6.508
  28   7 N     -0.294  1.262  4.032  0.000    27.573     7.799
  29   1 H      0.158  0.842  0.000  0.000     1.348     1.819
  30   1 H      0.048  0.952  0.000  0.000     2.341     2.393
  31   1 H      0.084  0.916  0.000  0.000     1.944     2.180
  32   1 H      0.090  0.910  0.000  0.000     1.880     2.144
  33   1 H      0.228  0.772  0.000  0.000     0.974     1.546
  34   1 H      0.212  0.788  0.000  0.000     1.045     1.601
  35   7 N     -0.204  1.249  3.955  0.000    25.438     7.491
  36   6 C      0.008  1.073  2.919  0.000    20.447     6.438
  37   6 C      0.283  1.030  2.687  0.000    22.213     7.718
  38   8 O     -0.478  1.723  4.755  0.000    23.304     6.472
  39   6 C     -0.024  1.070  2.954  0.000    20.966     6.513
  40   6 C     -0.064  1.055  3.010  0.000    21.738     6.638
  41   6 C     -0.112  1.036  3.076  0.000    22.694     6.793
  42   6 C     -0.108  1.036  3.072  0.000    22.619     6.782
  43   1 H      0.193  0.807  0.000  0.000     1.142     1.674
  44   1 H      0.065  0.935  0.000  0.000     2.142     2.289
  45   1 H      0.048  0.952  0.000  0.000     2.346     2.395
  46   1 H      0.043  0.957  0.000  0.000     2.405     2.425
  47   1 H      0.030  0.970  0.000  0.000     2.585     2.514
  48   1 H      0.050  0.950  0.000  0.000     2.322     2.383
  49   1 H      0.044  0.956  0.000  0.000     2.401     2.423
  50   1 H      0.042  0.958  0.000  0.000     2.427     2.436
  51   1 H      0.040  0.960  0.000  0.000     2.451     2.448
  52   1 H      0.039  0.961  0.000  0.000     2.456     2.451
  53   1 H      0.040  0.960  0.000  0.000     2.448     2.447
  54   7 N     -0.170  1.239  3.931  0.000    24.669     7.377
  55   6 C     -0.000  1.071  2.930  0.000    20.599     6.464
  56   6 C      0.277  1.043  2.680  0.000    22.314     7.736
  57   8 O     -0.470  1.724  4.747  0.000    23.134     6.449
  58   6 C     -0.086  1.056  3.030  0.000    22.128     6.696
  59   6 C     -0.084  1.054  3.030  0.000    22.098     6.692
  60   6 C     -0.094  1.056  3.037  0.000    22.291     6.722
  61   6 C     -0.047  1.060  2.986  0.000    21.505     6.620
  62   7 N     -0.180  1.240  3.940  0.000    24.877     7.408
  63   1 H      0.219  0.781  0.000  0.000     1.015     1.578
  64   1 H      0.094  0.906  0.000  0.000     1.841     2.122
  65   1 H      0.068  0.932  0.000  0.000     2.111     2.272
  66   1 H      0.075  0.925  0.000  0.000     2.031     2.229
  67   1 H      0.073  0.927  0.000  0.000     2.052     2.240
  68   1 H      0.057  0.943  0.000  0.000     2.237     2.339
  69   1 H      0.068  0.932  0.000  0.000     2.103     2.268
  70   1 H      0.088  0.912  0.000  0.000     1.903     2.157
  71   1 H      0.099  0.901  0.000  0.000     1.790     2.092
  72   1 H      0.111  0.889  0.000  0.000     1.690     2.033
  73   1 H      0.300  0.700  0.000  0.000     0.714     1.324
  74   1 H      0.273  0.727  0.000  0.000     0.800     1.402
  75   1 H      0.260  0.740  0.000  0.000     0.847     1.441
  76   7 N     -0.174  1.241  3.932  0.000    24.757     7.390
  77   6 C      0.007  1.069  2.924  0.000    20.462     6.440
  78   6 C      0.280  1.039  2.681  0.000    22.266     7.727
  79   8 O     -0.490  1.753  4.738  0.000    23.568     6.509
  80   6 C     -0.095  1.061  3.034  0.000    22.299     6.723
  81   6 C     -0.083  1.053  3.030  0.000    22.077     6.690
  82   6 C     -0.040  1.060  2.980  0.000    21.374     6.596
  83   7 N     -0.146  1.206  3.940  0.000    24.150     7.299
  84   6 C      0.230  1.019  2.750  0.000    23.161     7.879
  85   7 N     -0.225  1.223  4.001  0.000    25.914     7.561
  86   7 N     -0.283  1.254  4.029  0.000    27.315     7.762
  87   1 H      0.230  0.770  0.000  0.000     0.967     1.540
  88   1 H      0.077  0.923  0.000  0.000     2.009     2.216
  89   1 H      0.075  0.925  0.000  0.000     2.028     2.227
  90   1 H      0.100  0.900  0.000  0.000     1.784     2.089
  91   1 H      0.074  0.926  0.000  0.000     2.042     2.235
  92   1 H      0.056  0.944  0.000  0.000     2.245     2.343
  93   1 H      0.089  0.911  0.000  0.000     1.891     2.151
  94   1 H      0.105  0.895  0.000  0.000     1.738     2.062
  95   1 H      0.231  0.769  0.000  0.000     0.961     1.535
  96   1 H      0.252  0.748  0.000  0.000     0.876     1.467
  97   1 H      0.239  0.761  0.000  0.000     0.928     1.509
  98   1 H      0.234  0.766  0.000  0.000     0.947     1.524
  99   1 H      0.242  0.758  0.000  0.000     0.914     1.498
 100   7 N     -0.196  1.251  3.945  0.000    25.247     7.463
 101   6 C      0.038  1.052  2.910  0.000    19.949     6.360
 102   6 C      0.278  1.045  2.678  0.000    22.304     7.735
 103   8 O     -0.498  1.749  4.749  0.000    23.735     6.532
 104   6 C     -0.084  1.055  3.029  0.000    22.092     6.691
 105   6 C      0.354  1.035  2.612  0.000    20.998     7.499
 106   8 O     -0.586  1.763  4.823  0.000    25.773     6.807
 107   8 O     -0.615  1.766  4.849  0.000    26.479     6.899
 108   1 H      0.238  0.762  0.000  0.000     0.930     1.510
 109   1 H      0.050  0.950  0.000  0.000     2.316     2.380
 110   1 H      0.055  0.945  0.000  0.000     2.253     2.347
 111   1 H      0.029  0.971  0.000  0.000     2.606     2.525
 112   7 N     -0.178  1.239  3.939  0.000    24.854     7.404
 113   6 C      0.004  1.071  2.925  0.000    20.509     6.448
 114   6 C      0.270  1.043  2.687  0.000    22.432     7.754
 115   8 O     -0.480  1.726  4.754  0.000    23.352     6.479
 116   6 C      0.081  1.035  2.884  0.000    19.442     6.316
 117   8 O     -0.469  1.705  4.765  0.000    22.242     6.366
 118   1 H      0.215  0.785  0.000  0.000     1.034     1.593
 119   1 H      0.075  0.925  0.000  0.000     2.033     2.230
 120   1 H      0.039  0.961  0.000  0.000     2.464     2.455
 121   1 H      0.047  0.953  0.000  0.000     2.352     2.399
 122   1 H      0.340  0.660  0.000  0.000     0.611     1.228
 123   7 N     -0.166  1.259  3.907  0.000    24.599     7.366
 124   6 C      0.026  1.068  2.906  0.000    20.132     6.389
 125   6 C      0.271  1.030  2.699  0.000    22.425     7.755
 126   8 O     -0.515  1.753  4.762  0.000    24.113     6.584
 127   6 C     -0.098  1.058  3.039  0.000    22.350     6.729
 128   6 C      0.285  1.036  2.679  0.000    22.169     7.709
 129   8 O     -0.517  1.760  4.756  0.000    24.153     6.589
 130   7 N     -0.274  1.264  4.010  0.000    27.097     7.731
 131   1 H      0.209  0.791  0.000  0.000     1.063     1.616
 132   1 H      0.085  0.915  0.000  0.000     1.929     2.172
 133   1 H      0.083  0.917  0.000  0.000     1.948     2.183
 134   1 H      0.088  0.912  0.000  0.000     1.899     2.155
 135   1 H      0.242  0.758  0.000  0.000     0.915     1.499
 136   1 H      0.236  0.764  0.000  0.000     0.939     1.518
 137   7 N     -0.168  1.263  3.905  0.000    24.638     7.372
 138   6 C      0.018  1.080  2.902  0.000    20.303     6.420
 139   6 C      0.206  1.075  2.719  0.000    23.626     7.961
 140   8 O     -0.359  1.744  4.615  0.000    20.874     6.126
 141   6 C     -0.073  1.061  3.012  0.000    21.892     6.660
 142   6 C     -0.011  1.059  2.952  0.000    20.738     6.477
 143   6 C     -0.112  1.037  3.075  0.000    22.706     6.794
 144   6 C     -0.122  1.044  3.078  0.000    22.892     6.822
 145   1 H      0.243  0.757  0.000  0.000     0.911     1.495
 146   1 H      0.093  0.907  0.000  0.000     1.852     2.128
 147   1 H      0.064  0.936  0.000  0.000     2.148     2.292
 148   1 H      0.067  0.933  0.000  0.000     2.119     2.276
 149   1 H      0.043  0.957  0.000  0.000     2.406     2.426
 150   1 H      0.051  0.949  0.000  0.000     2.312     2.378
 151   1 H      0.031  0.969  0.000  0.000     2.577     2.510
 152   1 H      0.039  0.961  0.000  0.000     2.456     2.451
 153   1 H      0.053  0.947  0.000  0.000     2.279     2.361
 154   1 H      0.047  0.953  0.000  0.000     2.359     2.402
 155   1 H      0.044  0.956  0.000  0.000     2.401     2.423
 156   7 N     -0.403  1.300  4.104  0.000    30.458     8.197
 157   6 C      0.034  1.059  2.907  0.000    20.020     6.373
 158   6 C      0.207  1.078  2.715  0.000    23.613     7.958
 159   8 O     -0.342  1.724  4.618  0.000    20.549     6.078
 160   6 C     -0.048  1.048  3.000  0.000    21.429     6.590
 161   6 C     -0.086  1.062  3.024  0.000    22.132     6.698
 162   6 C      0.354  1.030  2.616  0.000    20.983     7.497
 163   8 O     -0.623  1.777  4.846  0.000    26.689     6.926
 164   8 O     -0.636  1.767  4.870  0.000    27.032     6.971
 165   1 H      0.170  0.830  0.000  0.000     1.272     1.766
 166   1 H      0.055  0.945  0.000  0.000     2.257     2.349
 167   1 H      0.035  0.965  0.000  0.000     2.512     2.478
 168   1 H      0.027  0.973  0.000  0.000     2.637     2.539
 169   1 H      0.040  0.960  0.000  0.000     2.448     2.447
 170   1 H      0.023  0.977  0.000  0.000     2.685     2.563
 171   7 N     -0.390  1.332  4.058  0.000    30.100     8.148
 172   6 C      0.050  1.046  2.904  0.000    19.748     6.330
 173   6 C      0.192  1.103  2.705  0.000    23.901     8.007
 174   8 O     -0.427  1.808  4.619  0.000    22.229     6.321
 175   6 C     -0.058  1.052  3.006  0.000    21.622     6.622
 176   6 C     -0.081  1.045  3.035  0.000    22.037     6.684
 177   6 C     -0.024  1.053  2.971  0.000    21.091     6.556
 178   7 N     -0.147  1.203  3.943  0.000    24.176     7.303
 179   6 C      0.236  1.016  2.748  0.000    23.063     7.862
 180   7 N     -0.302  1.303  4.000  0.000    27.789     7.829
 181   7 N     -0.209  1.239  3.970  0.000    25.563     7.509
 182   1 H      0.164  0.836  0.000  0.000     1.308     1.792
 183   1 H      0.052  0.948  0.000  0.000     2.292     2.368
 184   1 H      0.062  0.938  0.000  0.000     2.175     2.306
 185   1 H      0.040  0.960  0.000  0.000     2.451     2.449
 186   1 H      0.061  0.939  0.000  0.000     2.191     2.315
 187   1 H      0.059  0.941  0.000  0.000     2.205     2.322
 188   1 H      0.086  0.914  0.000  0.000     1.915     2.164
 189   1 H      0.098  0.902  0.000  0.000     1.799     2.098
 190   1 H      0.200  0.800  0.000  0.000     1.105     1.647
 191   1 H      0.262  0.738  0.000  0.000     0.839     1.435
 192   1 H      0.223  0.777  0.000  0.000     0.998     1.565
 193   1 H      0.212  0.788  0.000  0.000     1.047     1.603
 194   1 H      0.269  0.731  0.000  0.000     0.813     1.412
 195   7 N     -0.151  1.228  3.923  0.000    24.265     7.316
 196   6 C     -0.027  1.083  2.943  0.000    21.073     6.540
 197   6 C      0.262  1.038  2.700  0.000    22.586     7.782
 198   8 O     -0.468  1.757  4.712  0.000    23.093     6.443
 199   6 C     -0.099  1.057  3.042  0.000    22.366     6.729
 200   6 C     -0.031  1.070  2.962  0.000    21.145     6.549
 201  16 S     -0.204  1.919  4.240  0.045   149.749    20.596
 202   6 C     -0.062  1.055  3.007  0.000    21.761     6.655
 203   1 H      0.314  0.686  0.000  0.000     0.672     1.284
 204   1 H      0.306  0.694  0.000  0.000     0.695     1.306
 205   1 H      0.299  0.701  0.000  0.000     0.716     1.326
 206   1 H      0.145  0.855  0.000  0.000     1.429     1.870
 207   1 H      0.117  0.883  0.000  0.000     1.637     2.001
 208   1 H      0.096  0.904  0.000  0.000     1.822     2.111
 209   1 H      0.050  0.950  0.000  0.000     2.321     2.382
 210   1 H      0.075  0.925  0.000  0.000     2.030     2.228
 211   1 H      0.070  0.930  0.000  0.000     2.082     2.257
 212   1 H      0.048  0.952  0.000  0.000     2.343     2.394
 213   1 H      0.036  0.964  0.000  0.000     2.500     2.473
 214   7 N     -0.145  1.236  3.910  0.000    24.146     7.298
 215   6 C     -0.000  1.072  2.928  0.000    20.592     6.461
 216   6 C      0.271  1.039  2.690  0.000    22.426     7.755
 217   8 O     -0.465  1.723  4.742  0.000    23.027     6.434
 218   6 C     -0.070  1.051  3.019  0.000    21.840     6.653
 219   6 C     -0.113  1.063  3.050  0.000    22.654     6.777
 220   6 C      0.282  1.053  2.665  0.000    22.217     7.717
 221   8 O     -0.494  1.764  4.730  0.000    23.662     6.522
 222   7 N     -0.292  1.276  4.017  0.000    27.536     7.793
 223   1 H      0.225  0.775  0.000  0.000     0.989     1.558
 224   1 H      0.094  0.906  0.000  0.000     1.841     2.122
 225   1 H      0.057  0.943  0.000  0.000     2.231     2.336
 226   1 H      0.084  0.916  0.000  0.000     1.938     2.177
 227   1 H      0.098  0.902  0.000  0.000     1.803     2.100
 228   1 H      0.087  0.913  0.000  0.000     1.909     2.161
 229   1 H      0.225  0.775  0.000  0.000     0.987     1.556
 230   1 H      0.196  0.804  0.000  0.000     1.126     1.662
 231   7 N     -0.159  1.241  3.918  0.000    24.440     7.342
 232   6 C      0.015  1.070  2.915  0.000    20.317     6.417
 233   6 C      0.262  1.051  2.687  0.000    22.588     7.783
 234   8 O     -0.506  1.768  4.738  0.000    23.914     6.556
 235   6 C     -0.014  1.062  2.951  0.000    20.786     6.485
 236   6 C     -0.067  1.050  3.018  0.000    21.788     6.646
 237   6 C     -0.110  1.036  3.075  0.000    22.659     6.786
 238   6 C     -0.116  1.041  3.074  0.000    22.778     6.807
 239   1 H      0.213  0.787  0.000  0.000     1.041     1.598
 240   1 H      0.074  0.926  0.000  0.000     2.047     2.237
 241   1 H      0.037  0.963  0.000  0.000     2.493     2.469
 242   1 H      0.057  0.943  0.000  0.000     2.234     2.337
 243   1 H      0.027  0.973  0.000  0.000     2.625     2.534
 244   1 H      0.056  0.944  0.000  0.000     2.242     2.342
 245   1 H      0.045  0.955  0.000  0.000     2.380     2.412
 246   1 H      0.047  0.953  0.000  0.000     2.359     2.402
 247   1 H      0.044  0.956  0.000  0.000     2.400     2.423
 248   1 H      0.038  0.962  0.000  0.000     2.477     2.461
 249   1 H      0.051  0.949  0.000  0.000     2.312     2.378
 250   7 N     -0.176  1.254  3.922  0.000    24.807     7.397
 251   6 C      0.029  1.066  2.905  0.000    20.102     6.385
 252   6 C      0.195  1.094  2.710  0.000    23.832     7.995
 253   8 O     -0.360  1.746  4.614  0.000    20.891     6.128
 254   6 C     -0.070  1.055  3.015  0.000    21.836     6.651
 255   6 C      0.017  1.085  2.898  0.000    27.635     8.623
 256   6 C     -0.034  1.080  2.954  0.000    28.850     8.808
 257   6 C     -0.039  1.080  2.959  0.000    28.971     8.826
 258   6 C     -0.033  1.079  2.954  0.000    28.812     8.802
 259   6 C     -0.030  1.081  2.949  0.000    28.743     8.791
 260   6 C     -0.036  1.083  2.952  0.000    28.891     8.815
 261   1 H      0.233  0.767  0.000  0.000     0.952     1.528
 262   1 H      0.095  0.905  0.000  0.000     1.829     2.115
 263   1 H      0.079  0.921  0.000  0.000     1.986     2.204
 264   1 H      0.069  0.931  0.000  0.000     2.098     2.265
 265   1 H      0.025  0.975  0.000  0.000     2.656     2.549
 266   1 H      0.045  0.955  0.000  0.000     2.384     2.415
 267   1 H      0.030  0.970  0.000  0.000     2.586     2.515
 268   1 H      0.042  0.958  0.000  0.000     2.417     2.431
 269   1 H      0.036  0.964  0.000  0.000     2.508     2.476
 270   7 N     -0.309  1.339  3.970  0.000    27.953     7.852
 271   6 C      0.021  1.070  2.909  0.000    20.228     6.403
 272   6 C      0.220  1.072  2.708  0.000    23.365     7.916
 273   8 O     -0.332  1.709  4.622  0.000    20.366     6.051
 274   6 C     -0.055  1.057  2.999  0.000    21.549     6.606
 275   6 C     -0.062  1.051  3.010  0.000    21.662     6.622
 276   6 C      0.010  1.049  2.942  0.000    20.463     6.449
 277   1 H      0.028  0.972  0.000  0.000     2.613     2.528
 278   1 H      0.044  0.956  0.000  0.000     2.398     2.422
 279   1 H      0.056  0.944  0.000  0.000     2.244     2.343
 280   1 H      0.052  0.948  0.000  0.000     2.296     2.370
 281   1 H      0.042  0.958  0.000  0.000     2.419     2.432
 282   1 H      0.045  0.955  0.000  0.000     2.378     2.412
 283   1 H      0.029  0.971  0.000  0.000     2.607     2.525
 284   7 N     -0.421  1.319  4.101  0.000    30.954     8.263
 285   6 C      0.039  1.061  2.900  0.000    19.934     6.360
 286   6 C      0.272  1.042  2.686  0.000    22.408     7.751
 287   8 O     -0.515  1.741  4.773  0.000    24.113     6.584
 288   6 C     -0.095  1.060  3.035  0.000    22.301     6.722
 289   6 C      0.362  1.030  2.608  0.000    20.857     7.474
 290   8 O     -0.665  1.804  4.861  0.000    27.765     7.065
 291   8 O     -0.515  1.707  4.808  0.000    24.112     6.584
 292   1 H      0.185  0.815  0.000  0.000     1.183     1.704
 293   1 H      0.023  0.977  0.000  0.000     2.684     2.562
 294   1 H      0.028  0.972  0.000  0.000     2.608     2.525
 295   1 H      0.033  0.967  0.000  0.000     2.550     2.497
 296   7 N     -0.161  1.240  3.922  0.000    24.492     7.350
 297   6 C      0.011  1.064  2.925  0.000    20.393     6.431
 298   6 C      0.217  1.072  2.710  0.000    23.412     7.924
 299   8 O     -0.323  1.708  4.615  0.000    20.205     6.027
 300   6 C     -0.062  1.050  3.012  0.000    21.697     6.632
 301   6 C     -0.103  1.057  3.046  0.000    22.464     6.748
 302   6 C      0.291  1.043  2.666  0.000    22.069     7.692
 303   8 O     -0.439  1.729  4.709  0.000    22.463     6.355
 304   7 N     -0.311  1.283  4.028  0.000    28.016     7.861
 305   1 H      0.216  0.784  0.000  0.000     1.026     1.587
 306   1 H      0.094  0.906  0.000  0.000     1.841     2.122
 307   1 H      0.066  0.934  0.000  0.000     2.133     2.284
 308   1 H      0.069  0.931  0.000  0.000     2.097     2.265
 309   1 H      0.073  0.927  0.000  0.000     2.058     2.243
 310   1 H      0.070  0.930  0.000  0.000     2.086     2.259
 311   1 H      0.188  0.812  0.000  0.000     1.176     1.701
 312   1 H      0.240  0.760  0.000  0.000     0.923     1.505
 313   1 H      0.179  0.821  0.000  0.000     1.221     1.731
 314   1 H      0.058  0.942  0.000  0.000     2.218     2.329
 315   1 H      0.190  0.810  0.000  0.000     1.158     1.685
 316   1 H      0.094  0.906  0.000  0.000     1.843     2.123
 317   1 H      0.091  0.909  0.000  0.000     1.869     2.138
 318   1 H      0.187  0.813  0.000  0.000     1.174     1.697
 319   1 H      0.048  0.952  0.000  0.000     2.343     2.394
 320   1 H      0.178  0.822  0.000  0.000     1.227     1.735
 321   1 H      0.080  0.920  0.000  0.000     1.977     2.198
 322   1 H      0.177  0.823  0.000  0.000     1.232     1.738
 323   1 H      0.042  0.958  0.000  0.000     2.420     2.432
 324   1 H      0.170  0.830  0.000  0.000     1.270     1.765
 325   1 H      0.053  0.947  0.000  0.000     2.282     2.362

 Mol. C6AA /au·bohr⁶  :     982146.041045
 Mol. C8AA /au·bohr⁸  :   22039904.417126
 Mol. α(0) /au        :       1488.618241

 
molecular dipole:
                 x           y           z       tot (Debye)
 q only:        2.419      73.791      -0.174
   full:        2.004      73.433      -0.698     186.729
molecular quadrupole (traceless):
                xx          xy          yy          xz          yz          zz
 q only:    -3106.734     298.071    5826.006     265.440      10.113   -2719.272
  q+dip:    -3133.785     291.363    5788.715     265.382     -31.698   -2654.930
   full:    -3136.422     292.084    5789.397     266.279     -35.150   -2652.975
speedup  1.56
cpu  time for grad   10.13 s
wall time for grad    6.49 s

SCC energy    :    -507.4534126
rep           :       6.3278777
ES            :       1.5950763
AES           :      -0.0773853
AXC           :       0.1788330
disp          :      -0.4041799
XB            :       0.0000000
fix           :       0.0000000
Gborn         :       0.0000000
Gsasa         :       0.0000000
Ghb           :       0.0000000
Gshift        :       0.0000000
Gsolv         :      -0.3993611     -250.60
Etot ala COSMO:    -507.4534126
grad norm     :       0.8481508
total E       :    -501.0923680
atomizationE  :      90.2028259    56603.13
(atE without considering molecular charge,
 total energy contains solvation terms)
H-L gap (eV)  :          1.0120

------------------------------------------------------------------------
 * finished run on 2019/05/03 at 23:04:21.517     
------------------------------------------------------------------------
 total:
 * wall-time:     0 d,  0 h,  0 min,  7.064 sec
 *  cpu-time:     0 d,  0 h,  0 min, 10.677 sec
 * ratio c/w:     1.512 speedup
 SCF:
 * wall-time:     0 d,  0 h,  0 min,  6.720 sec
 *  cpu-time:     0 d,  0 h,  0 min, 10.484 sec
 * ratio c/w:     1.560 speedup

