      -----------------------------------------------------------      
     |                   =====================                   |     
     |                           x T B                           |     
     |                   =====================                   |     
     |                         S. Grimme                         |     
     |          Mulliken Center for Theoretical Chemistry        |     
     |                    University of Bonn                     |     
     |                 Version 6.0.1 (SAW181210)                 |     
      -----------------------------------------------------------      

   This program is distributed in the hope that it will be useful,
   but WITHOUT ANY WARRANTY; without even the implied warranty of
   MERCHANTABILITY or FITNESS FOR A PARTICULAR PURPOSE.
   
   FOR NON-COMMERCIAL, ACADEMIA USE ONLY.
   
   Cite this work as:
   S. Grimme, C. Bannwarth, P. Shushkov, J. Comput. Theory Chem., 2017,
   13, 1989-2009.
   C. Bannwarth, S. Ehlert and S. Grimme., ChemRxiv, 2018, preprint.
   http://doi.org/10.26434/chemrxiv.7246238.v1
   
   for sTDA-xTB:
   S. Grimme and C. Bannwarth, J. Chem. Phys., 2016, 145, 054103.
   
   in the mass-spec context:
   V. Asgeirsson, C. Bauer and S. Grimme, Chem. Sci., 2017, 8, 4879.
   
   if GBSA is used:
   P. Shushkov, F. März and S. Grimme, unpublished.
   
   for ANC optimizer:
   S. Grimme, unpublished.
   Rational Function algorithm used in ANCopt:
   F. Eckert, P. Pulay, H.-J. Werner, J. Comput. Chem., 1997, 18, 1473.
   
   with help from (in alphabetical order)
   C. Bannwarth, F. Bohle, G. Brandenburg, E. Caldeweyher, M. Checinski,
   S. Dohm, S. Ehlert, S. Ehrlich, F. März, H. Neugebauer, J. Pisarek,
   P. Pracht, P. Shushkov, and S. Spicher.
   
 * started run on 2019/05/05 at 17:07:51.850     
========================================================================
 # omp threads = 2
========================================================================
number of atoms            : 161
number of electrons        : 418
charge                     : 1
spin                       : .0
first test random number   : .3855

########################################################################
# WARNING! Please study the warnings concerning your input carefully
#  - Process number higher than OMP_NUM_THREADS, I hope you know what you are doing.
########################################################################

           ------------------------------------------------- 
          |                 G F N 2 - x T B                 |
          | Geometry, Frequencies, Noncovalent interactions |
          |            JCTC 2018 parametrisation            |
           ------------------------------------------------- 
 
      method parameters     
 k(s)        :  1.8500
 k(p)        :  2.2300
 k(d)        :  2.2300
 k(f)        :  2.0000
 kEN (H0ij)  : -2.0000
 D4 a1       :  0.5200
 D4 a2       :  5.0000
 D4 s6       :  1.0000
 D4 s8       :  2.7000
 D4 s9       :  5.0000
 alphaj      :  2.0000

 Solvent             : h2o
 Using internal parameter file: .param_gbsa2_h2o
 Gsolv ref. state (COSMO-RS): gsolv [1 M gas/solution]
 temperature (mdtemp)       :    298.150000000000     
 dielectric constant        :    80.2000000000000     
 rho                        :    1.00000000000000     
 mass                       :    18.0000000000000     
 surface tension            :    15.5689454083859     
 probe radius               :   0.975313790000000     
 vdW radii scaling          :    1.00000000000000     
 Gshift (Eh)                :   1.857443126794793E-003
 c1                         :    1.55243817000000     
 soset                      :   0.130326360000000     
 HB correction              :  T

            Z     q(EN)     CN     RAES       Cart. coordinates
     1  N   5.0   -0.21    3.25    1.97    37.06221   102.01263    13.51280
     2  C   4.0    0.03    4.34    4.28    34.39672   102.56822    13.89089
     3  C   4.0    0.14    3.40    3.08    33.15542   100.76277    15.71894
     4  O   6.0   -0.33    1.31    1.80    31.10211   101.35005    16.61697
     5  C   4.0   -0.04    4.26    4.11    32.97484   102.59438    11.30149
     6  C   4.0   -0.02    3.69    3.23    34.13147   104.65321     9.74000
     7  C   4.0   -0.00    3.60    3.17    35.81194   104.55148     7.79405
     8  C   4.0    0.01    3.87    3.42    33.46198   107.28408    10.01241
     9  N   5.0   -0.12    3.45    2.05    36.28098   106.88619     6.78306
    10  C   4.0    0.04    3.90    3.46    34.91160   108.59774     8.17680
    11  C   4.0   -0.04    3.39    3.07    31.98882   108.65823    11.72796
    12  C   4.0   -0.03    3.40    3.08    34.76975   111.20668     7.92750
    13  C   4.0   -0.03    3.37    3.07    31.92593   111.26498    11.49847
    14  C   4.0   -0.03    3.36    3.07    33.26428   112.52877     9.59539
    15  H   1.0    0.09    1.02    1.43    37.45424   100.43674    12.49598
    16  H   1.0    0.05    1.06    1.44    34.29148   104.46344    14.71476
    17  H   1.0    0.04    1.03    1.43    33.21291   100.75207    10.41316
    18  H   1.0    0.05    1.03    1.43    30.98963   102.97586    11.66684
    19  H   1.0    0.06    1.02    1.43    36.73459   102.91016     7.03573
    20  H   1.0    0.09    1.04    1.43    37.60112   107.35516     5.47158
    21  H   1.0    0.06    1.02    1.43    30.92215   107.70986    13.18398
    22  H   1.0    0.07    1.03    1.43    35.82934   112.15449     6.46679
    23  H   1.0    0.06    1.03    1.43    30.78266   112.35090    12.79383
    24  H   1.0    0.07    1.03    1.43    33.12775   114.55694     9.45813
    25  N   5.0   -0.15    3.49    2.07    34.25529    98.56186    16.19650
    26  C   4.0    0.03    4.44    4.45    33.22911    96.81123    18.07851
    27  C   4.0    0.08    3.25    3.04    34.40586    97.30639    20.66302
    28  O   6.0   -0.32    1.21    1.80    33.08689    96.91405    22.57128
    29  C   4.0   -0.02    4.29    4.17    33.76878    94.10848    17.26784
    30  C   4.0   -0.07    4.12    3.85    33.06790    92.23150    19.33826
    31  C   4.0   -0.07    4.12    3.85    32.42445    93.64065    14.76332
    32  H   1.0    0.08    1.07    1.44    35.96695    98.14229    15.46697
    33  H   1.0    0.06    1.06    1.44    31.20068    97.15397    18.24014
    34  H   1.0    0.05    1.06    1.44    35.82110    93.98147    16.98355
    35  H   1.0    0.04    1.00    1.43    33.33330    90.31509    18.64623
    36  H   1.0    0.06    1.00    1.43    34.24348    92.49809    21.00033
    37  H   1.0    0.05    1.00    1.43    31.10648    92.47246    19.90366
    38  H   1.0    0.05    1.00    1.43    32.60138    91.67100    14.20997
    39  H   1.0    0.05    1.00    1.43    30.42342    94.05738    14.96334
    40  H   1.0    0.05    1.00    1.43    33.21172    94.85513    13.30832
    41  O   6.0   -0.33    2.02    1.83    28.20606    95.81286    23.29615
    42  H   1.0    0.16    1.04    1.43    29.96368    96.21422    22.94771
    43  H   1.0    0.16    1.03    1.43    27.28019    97.38287    23.43725
    44  O   6.0   -0.32    1.98    1.82    26.32772    99.34329    17.24668
    45  H   1.0    0.16    1.02    1.43    27.93848   100.17864    16.96739
    46  H   1.0    0.14    0.97    1.43    26.07800    99.26155    19.04391
    47  N   5.0   -0.20    3.19    1.95    24.34872   101.74824     4.84625
    48  C   4.0    0.03    4.22    4.04    24.06683    98.98963     4.68360
    49  C   4.0    0.09    3.18    3.03    21.75353    98.09349     3.21735
    50  O   6.0   -0.26    1.12    1.80    21.21366    95.82261     3.14368
    51  C   4.0   -0.04    4.27    4.15    24.07493    97.94475     7.39881
    52  C   4.0   -0.05    4.20    4.00    26.82172    97.98396     8.36912
    53  C   4.0   -0.01    4.19    3.98    26.97412    97.22801    11.16927
    54  N   5.0   -0.14    3.40    2.02    26.37173    94.54164    11.35363
    55  C   4.0    0.09    3.33    3.06    25.10538    93.48675    13.27283
    56  N   5.0   -0.19    3.26    1.97    24.35827    94.82663    15.28122
    57  N   5.0   -0.18    3.24    1.96    24.51857    91.04850    13.12364
    58  H   1.0    0.09    1.03    1.43    23.75900   102.57964     6.46399
    59  H   1.0    0.05    1.06    1.44    25.69470    98.25423     3.63234
    60  H   1.0    0.05    1.03    1.43    22.87340    99.12156     8.57904
    61  H   1.0    0.07    1.03    1.43    23.34738    96.02329     7.37428
    62  H   1.0    0.05    1.03    1.43    27.96460    96.70449     7.23491
    63  H   1.0    0.04    1.03    1.43    27.55782    99.89468     8.16716
    64  H   1.0    0.04    1.02    1.43    28.87593    97.59393    11.89510
    65  H   1.0    0.05    1.03    1.43    25.62338    98.34307    12.24587
    66  H   1.0    0.08    1.06    1.44    27.16966    93.38434    10.03479
    67  H   1.0    0.11    1.07    1.44    24.95843    96.60734    15.65084
    68  H   1.0    0.08    1.04    1.43    23.27703    93.91000    16.56211
    69  H   1.0    0.09    1.02    1.43    25.06237    89.96212    11.63448
    70  H   1.0    0.09    1.03    1.43    23.47317    90.27224    14.51868
    71  N   5.0   -0.19    3.19    1.95    20.01612    90.41872    21.63347
    72  C   4.0    0.03    4.23    4.06    22.01128    91.92726    22.75061
    73  C   4.0    0.15    3.39    3.07    23.36994    90.54796    24.90997
    74  O   6.0   -0.27    1.22    1.80    22.48582    88.73098    26.06519
    75  C   4.0   -0.06    4.10    3.79    20.88472    94.40352    23.89209
    76  H   1.0    0.11    1.02    1.43    18.74554    89.64049    22.84611
    77  H   1.0    0.04    1.05    1.44    23.35616    92.36013    21.24940
    78  H   1.0    0.06    1.00    1.43    22.41267    95.57047    24.60134
    79  H   1.0    0.04    1.00    1.43    19.88550    95.41382    22.41103
    80  H   1.0    0.06    1.00    1.43    19.58839    93.89904    25.39762
    81  N   5.0   -0.15    3.44    2.04    25.61657    91.60448    25.44095
    82  C   4.0    0.04    4.50    4.53    27.29043    90.42248    27.36916
    83  C   4.0    0.15    3.43    3.09    28.10516    92.25371    29.40659
    84  O   6.0   -0.26    1.22    1.80    27.99706    91.64449    31.65187
    85  C   4.0   -0.02    4.31    4.21    29.61724    89.12417    26.20301
    86  C   4.0   -0.04    4.17    3.93    28.69379    86.92184    24.52344
    87  C   4.0   -0.06    4.13    3.86    31.40075    88.27240    28.33145
    88  C   4.0   -0.07    4.00    3.62    30.82813    85.81782    22.87370
    89  H   1.0    0.10    1.09    1.44    26.38501    92.95358    24.31312
    90  H   1.0    0.08    1.08    1.44    26.13004    88.97309    28.28330
    91  H   1.0    0.05    1.05    1.44    30.61319    90.49182    25.00912
    92  H   1.0    0.06    1.02    1.43    27.91171    85.42855    25.70897
    93  H   1.0    0.05    1.03    1.43    27.20989    87.59660    23.26536
    94  H   1.0    0.05    1.00    1.43    32.83998    87.01488    27.58781
    95  H   1.0    0.06    1.00    1.43    32.35577    89.90282    29.14500
    96  H   1.0    0.07    1.00    1.43    30.35551    87.33893    29.82971
    97  H   1.0    0.05    1.00    1.43    30.07290    84.30060    21.71460
    98  H   1.0    0.04    1.00    1.43    31.58420    87.27680    21.64343
    99  H   1.0    0.05    1.00    1.43    32.36026    85.07125    24.01165
   100  N   5.0   -0.13    3.48    2.07    28.99030    94.50454    28.65713
   101  C   4.0    0.05    4.30    4.19    30.16826    96.37070    30.26574
   102  C   4.0    0.11    3.23    3.04    28.28658    98.44931    30.97694
   103  O   6.0   -0.28    1.18    1.80    26.95264    99.45794    29.35512
   104  C   4.0   -0.02    4.35    4.29    32.27259    97.58870    28.69446
   105  C   4.0    0.26    3.11    3.03    34.24282    99.06854    30.15143
   106  O   6.0   -0.26    1.19    1.80    33.48373   100.19177    32.08225
   107  O   6.0   -0.26    1.18    1.80    36.40935    98.88348    29.29334
   108  H   1.0    0.10    1.10    1.44    28.80019    94.97865    26.79652
   109  H   1.0    0.07    1.05    1.44    30.93427    95.45416    31.94877
   110  H   1.0    0.07    1.03    1.43    33.25269    96.12587    27.61229
   111  H   1.0    0.06    1.03    1.43    31.41454    98.86838    27.31452
   112  N   5.0   -0.19    3.24    1.96    28.67130   104.04689    27.07091
   113  C   4.0    0.03    4.21    4.02    27.99993   103.83092    24.42252
   114  C   4.0    0.09    3.24    3.04    25.50423   102.30966    24.40493
   115  O   6.0   -0.31    1.22    1.80    25.45361   100.14448    23.58988
   116  C   4.0   -0.03    4.28    4.15    29.97021   102.38582    22.90289
   117  C   4.0   -0.04    4.16    3.91    32.52091   103.77935    22.65538
   118  C   4.0   -0.01    4.20    4.00    32.41803   106.08011    20.92844
   119  N   5.0   -0.14    3.38    2.01    34.84765   107.34620    20.62065
   120  C   4.0    0.10    3.35    3.06    35.72398   109.08770    22.21797
   121  N   5.0   -0.17    3.26    1.97    34.37573   109.96371    24.13203
   122  N   5.0   -0.17    3.24    1.97    37.88132   110.26916    21.63388
   123  H   1.0    0.13    1.07    1.44    28.32255   102.50780    28.15808
   124  H   1.0    0.04    1.05    1.44    27.69527   105.72959    23.66643
   125  H   1.0    0.06    1.03    1.43    30.32387   100.57112    23.80641
   126  H   1.0    0.06    1.03    1.43    29.21636   102.03760    21.01615
   127  H   1.0    0.05    1.02    1.43    33.20448   104.30419    24.53379
   128  H   1.0    0.06    1.03    1.43    33.91134   102.44719    21.90362
   129  H   1.0    0.05    1.03    1.43    31.80363   105.45050    19.05991
   130  H   1.0    0.05    1.03    1.43    31.05451   107.45919    21.63356
   131  H   1.0    0.08    1.06    1.44    36.09981   106.55072    19.41030
   132  H   1.0    0.09    1.03    1.43    32.73401   109.17128    24.72892
   133  H   1.0    0.10    1.04    1.43    35.10526   111.33696    25.22616
   134  H   1.0    0.09    1.02    1.43    39.18333   109.39634    20.48321
   135  H   1.0    0.10    1.04    1.43    38.66382   111.39629    22.95405
   136  N   5.0   -0.20    3.22    1.96    19.83528   103.30862    21.93552
   137  C   4.0    0.03    4.33    4.25    18.34707   103.44461    19.65397
   138  C   4.0    0.08    3.21    3.04    16.14108   105.31518    19.62554
   139  O   6.0   -0.26    1.12    1.80    15.52949   106.28520    17.60276
   140  C   4.0   -0.02    4.27    4.14    17.43751   100.70594    19.05340
   141  C   4.0   -0.06    4.13    3.87    15.35592   100.54733    17.18254
   142  C   4.0   -0.07    4.14    3.88    19.84174    99.31436    18.19889
   143  H   1.0    0.09    1.03    1.43    21.71310   103.58846    21.60360
   144  H   1.0    0.05    1.07    1.44    19.60095   104.06550    18.13560
   145  H   1.0    0.05    1.06    1.44    16.77576    99.88366    20.83143
   146  H   1.0    0.05    1.00    1.43    15.00685    98.58295    16.68057
   147  H   1.0    0.06    1.00    1.43    13.60850   101.32411    17.93504
   148  H   1.0    0.06    1.00    1.43    15.81169   101.56881    15.45368
   149  H   1.0    0.04    1.00    1.43    19.43877    97.33120    17.83282
   150  H   1.0    0.05    1.00    1.43    20.55513   100.14149    16.45804
   151  H   1.0    0.06    1.00    1.43    21.32144    99.45466    19.60917
   152  H   1.0    0.10    1.08    1.44    37.79955   103.30343    12.68655
   153  H   1.0    0.06    1.04    1.43    36.18630    97.92741    20.78725
   154  H   1.0    0.09    1.08    1.44    19.10731    91.38079    20.56528
   155  H   1.0    0.08    1.04    1.43    28.12790    99.00493    32.77616
   156  H   1.0    0.10    1.08    1.44    30.33845   104.35281    27.21085
   157  H   1.0    0.06    1.04    1.43    23.91535   103.09328    25.06254
   158  H   1.0    0.10    1.08    1.44    19.31103   104.50264    23.02732
   159  H   1.0    0.07    1.04    1.43    15.22982   105.72593    21.22927
   160  H   1.0    0.10    1.07    1.44    25.99097   102.16138     4.68851
   161  H   1.0    0.07    1.04    1.43    20.66644    99.34521     2.31044

  Z AO/shell   Hii/eV     exponent
  1     Wed Apr 25 08:07:45 CEST 2018   EN: 2.200 GM2: 0.406  GM3: 0.0800  RAES: 1.40
     1s    -10.707211    1.230000
  6     Wed Apr 25 08:07:45 CEST 2018   EN: 2.550 GM2: 0.538  GM3: 0.1500  RAES: 3.00
     2s    -13.970922    2.096432
     2p    -10.063292    1.800000
  7     Wed Apr 25 08:07:45 CEST 2018   EN: 3.040 GM2: 0.461  GM3:-0.0640  RAES: 1.90
     2s    -16.686243    2.339881
     2p    -12.523956    2.014332
  8     Wed Apr 25 08:07:45 CEST 2018   EN: 3.440 GM2: 0.452  GM3:-0.0517  RAES: 1.80
     2s    -20.229985    2.439742
     2p    -15.503117    2.137023
 no old-style atom pair restraining (fixing) potential

molecular fragmentation (1/2 indicates fragments):
111111111111111111111111111111111111111122222222222222222222222222222222
222222222222222222222222222222222222222222222222222222222222222222222222
22222221122222222
# atoms in fragment 1/2:    42   119
 fragment masses (1/2) :      287.36      755.93
CMA distance (Bohr)    :  11.274
constraining FC (au)   :  0.0500
           ------------------------------------------------- 
          |        Self-Consistent Charge Iterations        |
           ------------------------------------------------- 

 Ncao       : 380
 Nao        : 380
 Nshell     : 234
 Nel        : 418
 T(el)      :   500.0
 intcut     :    35.0
 scfconv/Eh :  0.100E-06
   qconv/e  :  0.100E-04
 intneglect :  0.100E-08
 broydamp   :      0.400
 iter      E             dE          RMSdq      gap      omega  full diag
   1   -238.0755055 -0.238076E+03  0.451E+00    2.61       0.0  T
   2   -238.6073269 -0.531821E+00  0.214E+00    1.40       1.0  T
   3   -238.6420413 -0.347143E-01  0.124E+00    1.80       1.0  T
   4   -238.6856193 -0.435780E-01  0.257E-01    1.28       1.0  T
   5   -238.6877011 -0.208173E-02  0.131E-01    1.43       1.0  T
   6   -238.6884361 -0.735008E-03  0.582E-02    1.46       1.0  T
   7   -238.6885788 -0.142707E-03  0.279E-02    1.45       1.0  T
   8   -238.6886094 -0.306189E-04  0.122E-02    1.45       1.0  T
   9   -238.6886155 -0.612123E-05  0.537E-03    1.45       1.5  T
  10   -238.6886164 -0.859946E-06  0.261E-03    1.45       3.0  T
  11   -238.6886166 -0.241836E-06  0.117E-03    1.45       6.7  T
  12   -238.6886167 -0.509659E-07  0.490E-04    1.45      16.1  T
  13   -238.6886167 -0.919684E-08  0.231E-04    1.45      34.1  T
  14   -238.6886167 -0.125524E-08  0.106E-04    1.45      74.4  T
  15   -238.6886167 -0.434142E-09  0.383E-05    1.45     205.6  T
  16   -238.6886167 -0.426326E-10  0.155E-05    1.45     509.4  T
speedup  1.72
cpu  time for SCC    1.71 s
wall time for SCC    1.00 s

   *** convergence criteria satisfied after 16 iterations ***

          eigenvalues
 #    :         197        198        199        200        201        202        203        204
 occ. :        2.000      2.000      2.000      2.000      2.000      2.000      2.000      2.000
 eps  :       -11.025    -10.872    -10.679    -10.529    -10.450    -10.338    -10.275    -10.246
 #    :         205        206        207        208        209        210        211        212
 occ. :        2.000      2.000      2.000      2.000      2.000      0.000      0.000      0.000
 eps  :        -9.991     -9.865     -9.850     -9.847     -9.814     -8.366     -8.112     -7.992
 #    :         213        214        215        216        217        218        219        220
 occ. :        0.000      0.000      0.000      0.000      0.000      0.000      0.000      0.000
 eps  :        -7.692     -7.586     -6.426     -6.292     -6.126     -6.018     -5.829     -5.695


   #   Z            q   n(s)   n(p)   n(d)      C6AA      α(0)
   1   7 N     -0.394  1.319  4.076  0.000    30.221     8.165
   2   6 C      0.021  1.065  2.914  0.000    20.234     6.406
   3   6 C      0.264  1.044  2.692  0.000    22.555     7.777
   4   8 O     -0.490  1.732  4.758  0.000    23.562     6.508
   5   6 C     -0.072  1.056  3.016  0.000    21.881     6.660
   6   6 C     -0.034  1.066  2.969  0.000    28.804     8.802
   7   6 C     -0.005  1.064  2.941  0.000    28.094     8.692
   8   6 C     -0.023  1.078  2.945  0.000    28.456     8.742
   9   7 N     -0.123  1.233  3.890  0.000    23.675     7.227
  10   6 C      0.043  1.064  2.893  0.000    26.906     8.499
  11   6 C     -0.045  1.080  2.965  0.000    29.127     8.850
  12   6 C     -0.056  1.072  2.985  0.000    29.399     8.891
  13   6 C     -0.047  1.079  2.968  0.000    29.164     8.856
  14   6 C     -0.040  1.078  2.963  0.000    29.006     8.832
  15   1 H      0.155  0.845  0.000  0.000     1.366     1.831
  16   1 H      0.070  0.930  0.000  0.000     2.087     2.259
  17   1 H      0.049  0.951  0.000  0.000     2.327     2.386
  18   1 H      0.067  0.933  0.000  0.000     2.118     2.276
  19   1 H      0.038  0.962  0.000  0.000     2.476     2.461
  20   1 H      0.186  0.814  0.000  0.000     1.182     1.703
  21   1 H      0.045  0.955  0.000  0.000     2.381     2.413
  22   1 H      0.015  0.985  0.000  0.000     2.806     2.620
  23   1 H      0.026  0.974  0.000  0.000     2.642     2.542
  24   1 H      0.016  0.984  0.000  0.000     2.791     2.612
  25   7 N     -0.159  1.236  3.923  0.000    24.448     7.344
  26   6 C      0.011  1.068  2.921  0.000    20.384     6.428
  27   6 C      0.198  1.092  2.710  0.000    23.773     7.985
  28   8 O     -0.373  1.767  4.606  0.000    21.147     6.165
  29   6 C     -0.016  1.060  2.956  0.000    20.824     6.490
  30   6 C     -0.121  1.037  3.083  0.000    22.868     6.819
  31   6 C     -0.137  1.044  3.093  0.000    23.186     6.865
  32   1 H      0.211  0.789  0.000  0.000     1.049     1.605
  33   1 H      0.127  0.873  0.000  0.000     1.555     1.950
  34   1 H      0.049  0.951  0.000  0.000     2.334     2.389
  35   1 H      0.057  0.943  0.000  0.000     2.238     2.339
  36   1 H      0.025  0.975  0.000  0.000     2.658     2.550
  37   1 H      0.065  0.935  0.000  0.000     2.136     2.285
  38   1 H      0.068  0.932  0.000  0.000     2.110     2.272
  39   1 H      0.070  0.930  0.000  0.000     2.088     2.259
  40   1 H      0.061  0.939  0.000  0.000     2.184     2.311
  41   8 O     -0.648  1.749  4.899  0.000    26.371     6.931
  42   1 H      0.325  0.675  0.000  0.000     0.649     1.266
  43   1 H      0.319  0.681  0.000  0.000     0.665     1.281
  44   8 O     -0.617  1.737  4.880  0.000    25.597     6.828
  45   1 H      0.328  0.672  0.000  0.000     0.641     1.258
  46   1 H      0.296  0.704  0.000  0.000     0.733     1.345
  47   7 N     -0.404  1.326  4.078  0.000    30.479     8.199
  48   6 C      0.032  1.060  2.908  0.000    20.054     6.379
  49   6 C      0.197  1.092  2.711  0.000    23.793     7.988
  50   8 O     -0.393  1.765  4.628  0.000    21.540     6.222
  51   6 C     -0.079  1.061  3.018  0.000    21.999     6.677
  52   6 C     -0.082  1.058  3.025  0.000    22.068     6.688
  53   6 C     -0.031  1.057  2.974  0.000    21.206     6.571
  54   7 N     -0.143  1.215  3.928  0.000    24.099     7.291
  55   6 C      0.225  1.022  2.753  0.000    23.271     7.898
  56   7 N     -0.244  1.233  4.011  0.000    26.377     7.628
  57   7 N     -0.260  1.237  4.023  0.000    26.748     7.681
  58   1 H      0.170  0.830  0.000  0.000     1.271     1.766
  59   1 H      0.080  0.920  0.000  0.000     1.979     2.200
  60   1 H      0.062  0.938  0.000  0.000     2.178     2.308
  61   1 H      0.066  0.934  0.000  0.000     2.134     2.285
  62   1 H      0.065  0.935  0.000  0.000     2.141     2.288
  63   1 H      0.067  0.933  0.000  0.000     2.120     2.277
  64   1 H      0.083  0.917  0.000  0.000     1.952     2.185
  65   1 H      0.100  0.900  0.000  0.000     1.785     2.089
  66   1 H      0.227  0.773  0.000  0.000     0.979     1.550
  67   1 H      0.265  0.735  0.000  0.000     0.828     1.425
  68   1 H      0.219  0.781  0.000  0.000     1.012     1.576
  69   1 H      0.247  0.753  0.000  0.000     0.894     1.481
  70   1 H      0.245  0.755  0.000  0.000     0.902     1.488
  71   7 N     -0.383  1.313  4.070  0.000    29.908     8.122
  72   6 C      0.022  1.066  2.913  0.000    20.225     6.406
  73   6 C      0.276  1.046  2.678  0.000    22.323     7.737
  74   8 O     -0.514  1.765  4.749  0.000    24.103     6.582
  75   6 C     -0.131  1.049  3.081  0.000    23.072     6.849
  76   1 H      0.144  0.856  0.000  0.000     1.443     1.882
  77   1 H      0.069  0.931  0.000  0.000     2.095     2.263
  78   1 H      0.053  0.947  0.000  0.000     2.277     2.360
  79   1 H      0.074  0.926  0.000  0.000     2.037     2.232
  80   1 H      0.029  0.971  0.000  0.000     2.599     2.521
  81   7 N     -0.212  1.272  3.940  0.000    25.621     7.518
  82   6 C      0.014  1.069  2.917  0.000    20.336     6.421
  83   6 C      0.276  1.045  2.680  0.000    22.338     7.739
  84   8 O     -0.528  1.763  4.764  0.000    24.405     6.623
  85   6 C     -0.023  1.071  2.952  0.000    20.946     6.510
  86   6 C     -0.062  1.053  3.008  0.000    21.685     6.630
  87   6 C     -0.107  1.037  3.070  0.000    22.602     6.779
  88   6 C     -0.117  1.041  3.076  0.000    22.810     6.811
  89   1 H      0.237  0.763  0.000  0.000     0.937     1.516
  90   1 H      0.075  0.925  0.000  0.000     2.034     2.230
  91   1 H      0.056  0.944  0.000  0.000     2.252     2.347
  92   1 H      0.032  0.968  0.000  0.000     2.562     2.503
  93   1 H      0.049  0.951  0.000  0.000     2.334     2.389
  94   1 H      0.059  0.941  0.000  0.000     2.208     2.324
  95   1 H      0.021  0.979  0.000  0.000     2.722     2.580
  96   1 H      0.034  0.966  0.000  0.000     2.525     2.485
  97   1 H      0.050  0.950  0.000  0.000     2.318     2.381
  98   1 H      0.056  0.944  0.000  0.000     2.250     2.346
  99   1 H      0.035  0.965  0.000  0.000     2.512     2.479
 100   7 N     -0.189  1.252  3.937  0.000    25.090     7.439
 101   6 C      0.051  1.050  2.899  0.000    19.734     6.327
 102   6 C      0.209  1.088  2.704  0.000    23.573     7.952
 103   8 O     -0.366  1.738  4.629  0.000    21.015     6.146
 104   6 C     -0.089  1.077  3.013  0.000    22.190     6.704
 105   6 C      0.376  1.010  2.613  0.000    20.625     7.432
 106   8 O     -0.657  1.780  4.877  0.000    27.553     7.038
 107   8 O     -0.629  1.765  4.864  0.000    26.845     6.947
 108   1 H      0.240  0.760  0.000  0.000     0.925     1.507
 109   1 H      0.043  0.957  0.000  0.000     2.414     2.430
 110   1 H      0.057  0.943  0.000  0.000     2.240     2.340
 111   1 H      0.056  0.944  0.000  0.000     2.250     2.346
 112   7 N     -0.381  1.315  4.066  0.000    29.859     8.116
 113   6 C      0.029  1.059  2.911  0.000    20.099     6.386
 114   6 C      0.200  1.098  2.702  0.000    23.733     7.979
 115   8 O     -0.352  1.736  4.616  0.000    20.749     6.107
 116   6 C     -0.083  1.054  3.029  0.000    22.072     6.688
 117   6 C     -0.070  1.049  3.021  0.000    21.848     6.655
 118   6 C     -0.031  1.054  2.978  0.000    21.211     6.572
 119   7 N     -0.139  1.218  3.921  0.000    24.004     7.277
 120   6 C      0.235  1.020  2.745  0.000    23.083     7.866
 121   7 N     -0.237  1.224  4.012  0.000    26.191     7.601
 122   7 N     -0.264  1.265  3.999  0.000    26.838     7.694
 123   1 H      0.148  0.852  0.000  0.000     1.411     1.861
 124   1 H      0.081  0.919  0.000  0.000     1.970     2.195
 125   1 H      0.049  0.951  0.000  0.000     2.333     2.389
 126   1 H      0.083  0.917  0.000  0.000     1.951     2.185
 127   1 H      0.034  0.966  0.000  0.000     2.528     2.486
 128   1 H      0.049  0.951  0.000  0.000     2.338     2.391
 129   1 H      0.106  0.894  0.000  0.000     1.734     2.059
 130   1 H      0.086  0.914  0.000  0.000     1.921     2.167
 131   1 H      0.232  0.768  0.000  0.000     0.956     1.532
 132   1 H      0.241  0.759  0.000  0.000     0.919     1.501
 133   1 H      0.251  0.749  0.000  0.000     0.881     1.470
 134   1 H      0.250  0.750  0.000  0.000     0.883     1.472
 135   1 H      0.246  0.754  0.000  0.000     0.900     1.486
 136   7 N     -0.377  1.322  4.055  0.000    29.746     8.100
 137   6 C      0.028  1.061  2.910  0.000    20.110     6.387
 138   6 C      0.196  1.087  2.717  0.000    23.811     7.991
 139   8 O     -0.391  1.766  4.625  0.000    21.499     6.217
 140   6 C     -0.013  1.063  2.950  0.000    20.769     6.482
 141   6 C     -0.110  1.033  3.077  0.000    22.661     6.787
 142   6 C     -0.136  1.048  3.087  0.000    23.160     6.861
 143   1 H      0.163  0.837  0.000  0.000     1.316     1.797
 144   1 H      0.064  0.936  0.000  0.000     2.155     2.296
 145   1 H      0.049  0.951  0.000  0.000     2.330     2.387
 146   1 H      0.055  0.945  0.000  0.000     2.261     2.351
 147   1 H      0.018  0.982  0.000  0.000     2.766     2.601
 148   1 H      0.046  0.954  0.000  0.000     2.364     2.405
 149   1 H      0.055  0.945  0.000  0.000     2.263     2.352
 150   1 H      0.061  0.939  0.000  0.000     2.184     2.311
 151   1 H      0.070  0.930  0.000  0.000     2.084     2.257
 152   1 H      0.180  0.820  0.000  0.000     1.212     1.725
 153   1 H      0.083  0.917  0.000  0.000     1.950     2.183
 154   1 H      0.194  0.806  0.000  0.000     1.135     1.669
 155   1 H      0.058  0.942  0.000  0.000     2.227     2.333
 156   1 H      0.179  0.821  0.000  0.000     1.217     1.728
 157   1 H      0.084  0.916  0.000  0.000     1.939     2.177
 158   1 H      0.168  0.832  0.000  0.000     1.285     1.775
 159   1 H      0.055  0.945  0.000  0.000     2.262     2.352
 160   1 H      0.184  0.816  0.000  0.000     1.191     1.709
 161   1 H      0.068  0.932  0.000  0.000     2.102     2.267

 Mol. C6AA /au·bohr⁶  :     224189.176458
 Mol. C8AA /au·bohr⁸  :    4922795.287707
 Mol. α(0) /au        :        712.923057

 
molecular dipole:
                 x           y           z       tot (Debye)
 q only:       33.335     105.977       1.361
   full:       34.447     106.766       2.050     285.201
molecular quadrupole (traceless):
                xx          xy          yy          xz          yz          zz
 q only:    -4306.309    5354.311   10935.510     110.307     542.116   -6629.201
  q+dip:    -4325.337    5550.379   11030.988     146.658     661.465   -6705.651
   full:    -4324.542    5551.618   11030.150     149.993     661.141   -6705.608
speedup  1.71
cpu  time for grad    2.17 s
wall time for grad    1.27 s

SCC energy    :    -238.7008766
rep           :       3.0827960
ES            :       0.7756838
AES           :      -0.0349034
AXC           :       0.1032171
disp          :      -0.1683613
XB            :       0.0000000
fix           :       0.0000000
Gborn         :       0.0000000
Gsasa         :       0.0000000
Ghb           :       0.0000000
Gshift        :       0.0000000
Gsolv         :      -0.2748935     -172.50
Etot ala COSMO:    -238.7008766
grad norm     :       0.5228756
total E       :    -235.6085273
atomizationE  :      43.1799288    27095.81
(atE without considering molecular charge,
 total energy contains solvation terms)
H-L gap (eV)  :          1.4477

------------------------------------------------------------------------
 * finished run on 2019/05/05 at 17:07:53.623     
------------------------------------------------------------------------
 total:
 * wall-time:     0 d,  0 h,  0 min,  1.770 sec
 *  cpu-time:     0 d,  0 h,  0 min,  2.502 sec
 * ratio c/w:     1.413 speedup
 SCF:
 * wall-time:     0 d,  0 h,  0 min,  1.431 sec
 *  cpu-time:     0 d,  0 h,  0 min,  2.351 sec
 * ratio c/w:     1.643 speedup

