 
        ______________________________________
       |                                      |
       |           ==================         |
       |                 x T B                |
       |           ==================         |
       |               S. Grimme              |
       |        Universitaet Bonn, MCTC       |
       |         2015-18, Version 5.8.2       |
       |      Thu Jul 12 08:31:35 CEST 2018   |
       |______________________________________|
 
        This code comes without any warranty
        for non-commercial, academia use only.
        Preliminary GFN2 test version.
        Cite GFN-xTB work as:
        S. Grimme, C. Bannwarth, P. Shushkov
        JCTC, 13 (2017) 1989-2009
        for GFN2:
        C. Bannwarth, S. Ehlert, S. Grimme
        to be published.
        sTDA-xTB:
        S. Grimme  &  C. Bannwarth, JCP 145 (2016) 054103
        in the mass-spec context additionally:
        V. Asgeirsson, C.Bauer, S. Grimme, Chem. Sci. 8 (2017) 4879
 
        with help from
        P. Shushkov, G. Brandenburg, S. Dohm, J. Pisarek,
        F. März, M. Checinski, S. Ehrlich, S. Spicher, 
        P. Pracht, E. Caldeweyher, S. Ehlert, and C. Bannwarth.
 
        usage        :
        xtb <coord_file> [options]
        where <coord_file> is a valid file of TM)
        (*coord, Bohr) or xmol (*xyz, Angstroem)
        format.

        options:
        -chrg <int>   : molecular charge
        -uhf  <int>   : # of unpaired electrons(=2*S)
        -nox          : skip second, extended part in sTDA-xTB
        -pop          : do population analysis
                      : (default for -nox)
        -mowr <real>  : cut MO write above (def.3 Eh)
        -molden       : write formatted molden file
        -parx <file>  : read parameters for sTDA-xTB
                        calc (def:~/.param_stda2.xtb)
        -parv <file>  : read parameters for vTB part in
                        sTDA-xTB (def: ~/.param_stda1.xtb)
        -xtemp <real> : el. temp for xTB (def. 0 K)
        -etemp <real> : el. temp for GFN (def. 300 K)
        -fod          : calculate the FOD and write
                        molden.input file with
                        appropriate occupations
                        for plotting. Def. T=12500 K
 
        -gfn1         : use GFN-xTB
        -gfn2         : use GFN2-xTB
        -gfn2d3       : GFN2-xTB with D3 instead of D4
        -grad         : GFNn-xTB gradient
        -acc <real>   : GFNn-xTB accuracy (def. 1.0)
        -opt [level]  : optimize at GFNn-xTB
                      : level=crude,vloose,loose,
                      :       tight,vtight
        -hess         : compute Hessian at GFNn-xTB
        -ohess        : optimize and compute Hessian
        -omd          : optimize and do MD
        -siman        : conformational search
        -screen       : opt. loop over ensemble
        -gmd          : annealed MD for GMD procedure
        -modef        : vib mode following
        -gbsa [string1] [string2]
                        use GBSA implicit solvent
                        for solvent [string1] and
                        solvation state [string2]=
                        reference, bar1M (default=1M)
        additional GFN/opt/MD/siman options read from
        $XTBHOME/.xtbrc or $set in coordinate file
 
       spin and charge state information can be on:
       <.CHRG> (charge) and <.UHF> (=nalpha-nbeta)
       -uhf and -chrg override the file info.
       useful machine settings:
       setenv MKL_NUM_THREADS <NCORE_ON_YOUR_MACHINE>
       setenv OMP_STACKSIZE 500m
       limit stacksize unlimited
 
       total energies in Eh, gaps/HL energies in eV
       please read REVISION and HOWTO files carefully
          88  days left until this code expires
 =============================
  # OMP threads =           2
 =============================
 
 xtbhome directory:/home/kruse/Progs/XTB/
 
 argument            1 :-chrg
 argument            2 :-4
 argument            3 :-grad
 argument            4 :-gfn2
 argument            5 :-gbsa
 argument            6 :h2o
 argument            7 :-acc
 argument            8 :1
 argument            9 :-etemp
 argument           10 :500
 
 name of molecule           :
 comment line               :
 number of atoms            :   266
 number of electrons        :   784
 charge                     : -4
 spin                       : 0.0
 first test random number   :  0.3627
 
 
 -----------------------------------------
  G F N (Geometry, Frequency, Non-covalent)
        parametrization, gfnver=           3
     D4 dispersion model
 /home/kruse/Progs/XTB/.param_gfn2.xtb
 -----------------------------------------
      method parameters     
 k(s)        :  1.8500
 k(p)        :  2.2300
 k(d)        :  2.2300
 k(f)        :  2.0000
 kEN (H0ij)  : -2.0000
 D3 a1       :  0.5200
 D3 a2       :  5.0000
 D3 s8       :  2.7000
 D3atm       :  5.0000
 alphaj      :  2.0000
 
 Solvent             : h2o
 GBSA parameter file : /home/kruse/Progs/XTB/.param_gbsa_h2o
 Gsolv ref. state (COSMO-RS): gsolv [1 M gas/solution]
 temperature (mdtemp)       :    298.150000000000     
 dielectric constant        :    78.5000000000000     
 rho                        :   0.998000000000000     
 mass                       :    18.0000000000000     
 surface tension            :    15.5689470637553     
 probe radius               :   0.976041290000000     
 vdW radii scaling          :    1.00000000000000     
 Gshift (Eh)                :   2.075470419022681E-003
 c1                         :    1.58079374000000     
 soset                      :   7.194512000000000E-002
 HB correction              :  T
 
 doing EN charges ...
 sum q : -0.4000000D+01
 point charge moment (au)
     X       Y       Z   
-499.9656-667.2271-860.2310  total (Debye): 3045.025
 
            Z     q(EN)     CN     RAES       Cart. coordinates
     1  N   5.0   -0.42    3.30    1.98   123.95802   166.72362   201.22698
     2  C   4.0    0.01    4.41    4.40   125.41408   166.11006   203.06246
     3  C   4.0    0.15    3.35    3.06   123.95457   166.37213   205.57950
     4  O   6.0   -0.16    1.17    1.80   122.25951   168.02107   205.81061
     5  C   4.0   -0.07    4.31    4.22   127.82719   167.50192   203.20362
     6  C   4.0   -0.17    4.29    4.17   127.34702   170.07834   203.51870
     7  C   4.0   -0.17    4.20    4.00   129.61645   166.55119   205.09097
     8  H   1.0    0.11    1.06    1.44   122.78544   168.17090   201.50360
     9  H   1.0    0.04    1.05    1.44   125.94127   164.11936   202.95388
    10  H   1.0    0.04    1.06    1.44   128.80847   167.29264   201.41921
    11  H   1.0    0.04    1.00    1.43   129.01783   171.27918   203.53652
    12  H   1.0    0.05    1.01    1.43   126.16256   170.87828   202.09795
    13  H   1.0    0.05    1.01    1.43   126.43143   170.47390   205.28294
    14  H   1.0    0.04    1.00    1.43   131.38592   167.54423   205.13397
    15  H   1.0    0.05    1.01    1.43   128.86305   166.67950   206.94173
    16  H   1.0    0.04    1.00    1.43   130.10749   164.60317   204.81267
    17  N   5.0   -0.31    3.32    1.99   124.62445   164.77496   207.58842
    18  C   4.0   -0.02    4.31    4.22   123.29273   164.47234   209.85895
    19  C   4.0    0.23    3.34    3.06   124.97663   164.92299   212.05777
    20  O   6.0   -0.23    1.19    1.80   126.97449   164.02930   212.15853
    21  C   4.0   -0.12    4.28    4.15   121.99183   161.98567   210.12175
    22  C   4.0   -0.11    4.24    4.08   120.76349   161.24236   212.49782
    23  C   4.0    0.21    3.17    3.03   119.82481   158.72812   212.75813
    24  O   6.0   -0.20    1.19    1.80   120.95115   156.90208   212.06891
    25  N   5.0   -0.35    3.19    1.95   117.43700   158.51211   213.61938
    26  H   1.0    0.17    1.07    1.44   126.03170   163.74518   207.43640
    27  H   1.0    0.04    1.04    1.43   121.79477   165.92275   209.84481
    28  H   1.0    0.05    1.04    1.43   120.62766   161.74627   208.62433
    29  H   1.0    0.05    1.03    1.43   123.36600   160.55672   209.67465
    30  H   1.0    0.04    1.03    1.43   122.10683   161.63993   214.02001
    31  H   1.0    0.04    1.02    1.43   119.31457   162.66274   212.90564
    32  H   1.0    0.13    1.03    1.43   116.45367   159.91782   214.18797
    33  H   1.0    0.11    1.02    1.43   116.62395   156.83182   213.68080
    34  N   5.0   -0.29    3.34    2.00   124.01231   166.46486   213.97678
    35  C   4.0   -0.02    4.36    4.31   125.47337   167.18978   216.08695
    36  C   4.0    0.23    3.35    3.06   126.30322   164.96487   217.62554
    37  O   6.0   -0.21    1.20    1.80   124.94891   163.28285   218.13343
    38  C   4.0   -0.13    4.20    3.99   124.20911   169.14369   217.67633
    39  S   6.0   -0.12    2.30    3.10   126.05146   170.74329   220.22174
    40  H   1.0    0.15    1.06    1.44   122.31489   167.02917   213.97635
    41  H   1.0    0.05    1.05    1.44   127.15104   168.09492   215.31662
    42  H   1.0    0.04    1.05    1.44   123.39947   170.59728   216.49932
    43  H   1.0    0.04    1.05    1.44   122.56827   168.28462   218.50970
    44  N   5.0   -0.28    3.42    2.03   128.62780   165.01453   218.59539
    45  C   4.0   -0.02    4.34    4.26   129.49302   163.39113   220.50199
    46  C   4.0    0.19    3.27    3.05   128.93919   164.32605   223.21052
    47  O   6.0   -0.17    1.16    1.80   128.34641   162.87992   224.93879
    48  C   4.0   -0.11    4.26    4.12   132.14015   162.63123   220.03225
    49  C   4.0    0.24    3.10    3.02   132.74693   161.56939   217.50583
    50  O   6.0   -0.14    1.13    1.80   131.06927   160.18624   216.45868
    51  O   6.0   -0.18    1.14    1.80   134.74276   162.06366   216.49958
    52  H   1.0    0.12    1.09    1.44   129.89732   166.25916   218.06552
    53  H   1.0    0.05    1.06    1.44   128.32510   161.72563   220.35486
    54  H   1.0    0.05    1.03    1.43   133.33423   164.21497   220.42824
    55  H   1.0    0.04    1.01    1.43   132.73595   161.28881   221.49875
    56  N   5.0   -0.33    3.31    1.98   129.13356   166.79711   223.61648
    57  C   4.0   -0.20    4.23    4.06   129.09955   168.01294   226.13420
    58  C   4.0    0.20    3.26    3.04   126.84528   167.44809   227.73838
    59  O   6.0   -0.17    1.19    1.80   126.85641   168.35122   229.87277
    60  H   1.0    0.18    1.10    1.44   129.16327   167.91708   222.30510
    61  H   1.0    0.15    1.06    1.44   130.65064   167.76976   226.69695
    62  H   1.0    0.06    1.04    1.43   129.16524   169.91072   225.72617
    63  N   5.0   -0.29    3.30    1.98   124.89900   166.19788   226.89939
    64  C   4.0   -0.06    4.27    4.14   122.80874   165.54838   228.26421
    65  C   4.0    0.18    3.21    3.04   120.30300   165.48019   227.09935
    66  O   6.0   -0.17    1.15    1.80   119.03307   163.55116   226.98337
    67  H   1.0    0.11    1.06    1.44   124.83977   165.58794   225.12912
    68  H   1.0    0.04    1.03    1.43   123.11700   163.69845   229.10831
    69  H   1.0    0.05    1.04    1.43   122.76112   166.74902   229.90525
    70  N   5.0   -0.26    3.36    2.01   119.41944   167.71364   226.06336
    71  C   4.0   -0.02    4.36    4.30   116.98771   168.25092   225.08006
    72  C   4.0    0.21    3.37    3.07   116.09828   166.47818   223.01076
    73  O   6.0   -0.19    1.16    1.80   113.91105   166.31803   222.47089
    74  C   4.0   -0.11    4.18    3.95   116.70422   170.84119   224.28668
    75  S   6.0   -0.13    2.17    3.10   117.72906   171.91287   221.21218
    76  H   1.0    0.12    1.08    1.44   120.58570   169.14430   225.89952
    77  H   1.0    0.04    1.04    1.43   115.72411   167.80439   226.65993
    78  H   1.0    0.04    1.04    1.44   114.71176   171.42563   224.47635
    79  H   1.0    0.04    1.05    1.44   117.56934   172.08882   225.69826
    80  N   5.0   -0.36    3.41    2.02   117.94134   165.25870   221.79113
    81  C   4.0   -0.05    4.33    4.26   117.75280   163.33018   220.03758
    82  C   4.0    0.12    3.27    3.05   115.82823   164.15799   217.81007
    83  O   6.0   -0.10    1.07    1.80   114.12691   162.50160   216.70850
    84  C   4.0   -0.27    4.25    4.10   116.71804   160.89308   221.27719
    85  C   4.0    0.22    3.14    3.03   118.98401   159.42351   222.24054
    86  O   6.0   -0.17    1.14    1.80   121.03227   160.49770   222.47101
    87  O   6.0   -0.13    1.10    1.80   118.66331   157.05674   222.69608
    88  H   1.0    0.20    1.09    1.44   119.59543   165.54829   222.04851
    89  H   1.0    0.08    1.06    1.44   119.34756   162.97692   219.11985
    90  H   1.0    0.13    1.06    1.44   115.62582   161.25977   222.53778
    91  H   1.0    0.12    1.07    1.44   116.09742   159.86156   220.01151
    92  N   5.0   -0.48    3.33    1.99   116.18845   166.53430   217.04344
    93  C   4.0   -0.06    4.37    4.33   114.55399   167.57569   215.09214
    94  C   4.0    0.19    3.29    3.05   116.14455   167.82335   212.69589
    95  O   6.0   -0.18    1.16    1.80   118.45015   167.87026   212.73136
    96  C   4.0   -0.22    4.24    4.09   113.42428   170.08019   215.93470
    97  C   4.0   -0.17    4.20    4.00   110.97017   169.54181   217.34567
    98  C   4.0    0.19    3.08    3.02   109.08983   171.71247   217.28977
    99  O   6.0   -0.15    1.10    1.80   106.82207   171.24911   216.82434
   100  O   6.0   -0.13    1.10    1.80   110.02864   173.95951   217.71554
   101  H   1.0    0.33    1.09    1.44   117.09279   167.56628   217.78533
   102  H   1.0    0.08    1.07    1.44   113.16834   166.36364   214.67831
   103  H   1.0    0.11    1.06    1.44   114.55661   170.99977   216.93893
   104  H   1.0    0.08    1.05    1.44   113.09230   171.13482   214.46588
   105  H   1.0    0.06    1.04    1.43   110.04627   167.98424   216.65858
   106  H   1.0    0.08    1.05    1.44   111.38578   169.19172   219.12917
   107  N   5.0   -0.37    3.38    2.01   114.83236   167.84862   210.51889
   108  C   4.0   -0.06    4.42    4.42   115.93298   167.65085   208.03556
   109  C   4.0    0.19    3.35    3.06   116.06705   170.33038   207.01825
   110  O   6.0   -0.16    1.15    1.80   114.19299   171.67956   206.62312
   111  C   4.0   -0.22    4.30    4.20   114.49992   166.03511   206.33402
   112  C   4.0   -0.02    3.56    3.14   114.94077   163.29995   206.97362
   113  C   4.0   -0.08    3.50    3.11   113.57399   161.82982   208.44345
   114  C   4.0   -0.02    3.76    3.29   117.06777   161.74414   206.04350
   115  N   5.0   -0.39    3.43    2.04   114.52342   159.39104   208.46842
   116  C   4.0    0.02    3.72    3.26   116.71910   159.29592   206.93260
   117  C   4.0   -0.10    3.35    3.06   119.00577   162.13968   204.30695
   118  C   4.0   -0.07    3.47    3.10   118.25507   157.58756   206.35740
   119  C   4.0   -0.25    3.36    3.07   120.61225   160.11605   203.65907
   120  C   4.0   -0.18    3.36    3.07   120.13772   157.69069   204.77177
   121  H   1.0    0.22    1.08    1.44   113.21034   168.20820   210.42918
   122  H   1.0    0.08    1.09    1.44   117.72350   167.17843   208.28312
   123  H   1.0    0.09    1.06    1.44   112.70208   166.34265   206.51422
   124  H   1.0    0.10    1.06    1.44   114.84236   166.32763   204.61032
   125  H   1.0    0.12    1.05    1.44   112.22016   162.33773   209.37661
   126  H   1.0    0.24    1.05    1.44   113.83062   158.19030   209.35303
   127  H   1.0    0.08    1.04    1.43   119.24759   163.77119   203.49679
   128  H   1.0    0.05    1.05    1.44   117.92888   155.77882   207.15590
   129  H   1.0    0.23    1.07    1.44   121.79683   160.27543   202.68222
   130  H   1.0    0.16    1.08    1.44   121.28269   156.65108   204.24924
   131  N   5.0   -0.75    3.32    1.99   118.31712   170.87805   206.17788
   132  C   4.0   -0.06    4.26    4.12   118.60146   173.46236   204.59867
   133  C   4.0    0.03    3.16    3.03   119.26264   172.89986   201.92094
   134  O   6.0   -0.15    1.11    1.80   120.58019   170.97092   201.46100
   135  C   4.0   -0.22    4.32    4.24   120.70153   174.90730   205.81638
   136  C   4.0   -0.02    3.43    3.09   120.17178   175.29168   208.54420
   137  C   4.0   -0.25    3.35    3.07   121.48074   173.60343   210.13763
   138  C   4.0   -0.12    3.38    3.07   118.46291   176.93896   209.65382
   139  C   4.0   -0.19    3.25    3.04   121.13745   173.81204   212.84111
   140  C   4.0   -0.33    3.23    3.04   118.00014   177.31165   212.19736
   141  C   4.0   -0.17    3.29    3.05   119.40521   175.61735   213.83499
   142  H   1.0    0.61    1.11    1.45   119.60870   170.31195   206.18089
   143  H   1.0    0.05    1.04    1.43   116.88748   174.48980   204.67653
   144  H   1.0    0.13    1.06    1.44   122.24223   174.21800   205.50956
   145  H   1.0    0.06    1.06    1.44   120.47043   176.70341   205.12429
   146  H   1.0    0.22    1.07    1.44   122.45854   172.52437   209.61614
   147  H   1.0    0.10    1.07    1.44   117.67569   177.99922   208.48274
   148  H   1.0    0.16    1.06    1.44   121.96116   172.89154   213.90329
   149  H   1.0    0.30    1.08    1.44   117.10125   178.34204   212.72592
   150  H   1.0    0.14    1.06    1.44   119.08690   175.84493   215.45001
   151  N   5.0   -0.41    3.20    1.96   142.41326   163.74500   212.79290
   152  C   4.0   -0.02    4.30    4.20   140.11531   164.16348   214.04321
   153  C   4.0    0.27    3.29    3.05   138.93681   166.75993   213.48357
   154  O   6.0   -0.23    1.21    1.80   140.04857   168.38947   212.54512
   155  C   4.0   -0.11    4.30    4.19   140.29491   163.59034   216.76500
   156  C   4.0    0.23    3.10    3.02   140.88823   160.96952   217.51122
   157  O   6.0   -0.15    1.15    1.80   140.33922   159.34537   215.86858
   158  O   6.0   -0.16    1.12    1.80   141.88618   160.56065   219.58792
   159  H   1.0    0.13    1.04    1.43   143.82810   163.59029   213.90941
   160  H   1.0    0.04    1.04    1.43   138.81911   162.75120   213.26682
   161  H   1.0    0.05    1.03    1.43   141.64138   164.86270   217.59195
   162  H   1.0    0.04    1.02    1.43   138.55094   164.15550   217.72821
   163  N   5.0   -0.29    3.35    2.00   136.64601   167.02452   214.24800
   164  C   4.0   -0.03    4.33    4.25   135.18123   169.32343   213.82183
   165  C   4.0    0.17    3.32    3.06   133.65942   170.03480   216.16647
   166  O   6.0   -0.12    1.18    1.80   131.53230   168.71599   216.62248
   167  C   4.0   -0.28    4.27    4.13   133.83656   169.82184   211.28783
   168  C   4.0   -0.02    3.45    3.10   132.04218   171.87657   211.33856
   169  C   4.0   -0.28    3.39    3.08   133.33270   174.26217   210.50239
   170  C   4.0   -0.21    3.37    3.07   129.66270   172.08542   212.19243
   171  C   4.0   -0.14    3.30    3.05   132.01462   176.55759   210.55280
   172  C   4.0   -0.12    3.33    3.06   128.33463   174.34945   212.24594
   173  C   4.0    0.04    3.40    3.08   129.53603   176.45550   211.44687
   174  O   6.0   -0.30    2.11    1.84   128.39267   178.82686   211.40460
   175  H   1.0    0.13    1.06    1.44   135.51859   165.71141   214.85621
   176  H   1.0    0.04    1.05    1.44   136.71505   170.71719   213.62232
   177  H   1.0    0.21    1.06    1.44   134.63187   169.39821   209.97929
   178  H   1.0    0.04    1.05    1.44   132.62156   168.15294   211.29421
   179  H   1.0    0.26    1.08    1.44   134.76032   173.94867   210.12163
   180  H   1.0    0.19    1.09    1.44   129.02257   170.74791   212.76043
   181  H   1.0    0.12    1.06    1.44   132.80708   177.96480   210.00625
   182  H   1.0    0.09    1.05    1.44   126.64881   174.32746   212.81587
   183  H   1.0    0.19    1.07    1.44   126.86792   178.58758   211.98334
   184  N   5.0   -0.39    3.40    2.02   134.16533   171.93061   217.51183
   185  C   4.0   -0.49    4.39    4.36   132.59158   172.86363   219.59748
   186  C   4.0    0.22    3.45    3.09   131.34038   175.15063   218.66154
   187  O   6.0   -0.14    1.23    1.80   132.66452   176.90389   217.57280
   188  C   4.0   -0.08    4.22    4.04   134.60186   173.65989   221.76459
   189  C   4.0   -0.27    4.12    3.84   136.09833   171.11104   222.51674
   190  C   4.0   -0.30    4.15    3.90   132.91623   174.43847   224.01912
   191  C   4.0   -0.31    4.06    3.74   138.66000   171.06743   220.96974
   192  H   1.0    0.21    1.09    1.44   135.58138   172.76863   217.15688
   193  H   1.0    0.50    1.13    1.45   131.77106   171.89502   220.12282
   194  H   1.0    0.06    1.03    1.43   135.82597   175.12420   221.27414
   195  H   1.0    0.08    1.05    1.44   136.65019   171.46700   224.24566
   196  H   1.0    0.16    1.05    1.44   135.19998   169.75489   222.26629
   197  H   1.0    0.07    1.03    1.43   134.04020   174.78883   225.47035
   198  H   1.0    0.10    1.03    1.43   132.06899   175.96874   223.66738
   199  H   1.0    0.09    1.03    1.43   131.75940   173.15354   224.52378
   200  H   1.0    0.06    1.03    1.43   139.48838   169.48171   221.63914
   201  H   1.0    0.13    1.03    1.43   138.37823   170.87139   219.30106
   202  H   1.0    0.08    1.02    1.43   139.68649   172.53984   221.40113
   203  N   5.0   -0.40    3.47    2.06   129.12982   175.60303   218.88893
   204  C   4.0   -0.34    4.26    4.12   127.90112   177.88789   217.71295
   205  C   4.0    0.02    3.21    3.04   128.16382   179.99824   219.46361
   206  O   6.0   -0.14    1.09    1.80   129.65744   179.85348   221.38067
   207  C   4.0   -0.22    4.09    3.79   124.95749   177.20059   217.41055
   208  S   6.0   -0.17    2.25    3.10   122.95836   176.68834   220.40085
   209  H   1.0    0.19    1.17    1.46   128.09717   174.46917   219.64864
   210  H   1.0    0.34    1.12    1.45   128.28644   177.95918   216.30618
   211  H   1.0    0.11    1.08    1.44   124.17832   178.54942   216.57281
   212  H   1.0    0.08    1.06    1.44   124.74990   175.74377   216.29476
   213  N   5.0   -0.39    3.24    1.97   125.12647   178.64836   226.44652
   214  C   4.0   -0.02    4.31    4.22   126.47035   176.76099   227.63389
   215  C   4.0    0.07    3.18    3.03   129.15908   177.35196   228.24301
   216  O   6.0   -0.18    1.09    1.80   130.47156   175.92995   229.44620
   217  C   4.0   -0.12    4.20    4.00   126.26217   174.32600   226.25350
   218  S   6.0   -0.20    2.49    3.10   123.25907   173.26492   225.66331
   219  H   1.0    0.09    1.05    1.44   124.98900   178.38010   224.55749
   220  H   1.0    0.05    1.06    1.44   125.53194   176.51836   229.43056
   221  H   1.0    0.04    1.07    1.44   127.27331   174.51275   224.49910
   222  H   1.0    0.04    1.06    1.44   127.33410   172.87388   227.22264
   223  ZN  2.0    0.57    3.84    5.00   122.16310   172.69507   221.70366
   224  N   5.0   -0.37    4.24    3.56   136.92174   159.55268   207.71918
   225  C   4.0    0.01    4.29    4.18   134.78316   159.04278   208.88378
   226  C   4.0    0.23    3.38    3.07   132.98084   157.60229   207.31636
   227  O   6.0   -0.20    1.20    1.80   133.51169   156.91112   205.24664
   228  C   4.0   -0.17    4.24    4.08   133.67733   161.25599   210.03142
   229  H   1.0    0.08    1.01    1.43   138.13803   160.87018   208.55961
   230  H   1.0    0.08    1.01    1.43   138.12983   158.06052   207.28276
   231  H   1.0    0.08    1.02    1.43   136.62685   160.37142   205.92781
   232  H   1.0    0.04    1.05    1.44   135.35704   157.80375   210.47347
   233  H   1.0    0.05    1.01    1.43   132.00306   160.85289   211.09839
   234  H   1.0    0.05    1.01    1.43   134.89593   162.24200   211.30653
   235  H   1.0    0.05    1.01    1.43   133.13731   162.57793   208.62950
   236  N   5.0   -0.36    3.33    1.99   130.81206   157.22504   208.43057
   237  C   4.0   -0.03    4.19    3.99   128.75694   156.00634   206.77567
   238  C   4.0    0.01    3.10    3.02   127.84082   157.83347   204.68619
   239  O   6.0   -0.13    1.06    1.80   127.07381   160.08658   205.38916
   240  C   4.0   -0.16    4.26    4.12   126.61524   155.00076   208.49565
   241  C   4.0   -0.26    4.26    4.12   127.32284   153.18226   210.37155
   242  C   4.0   -0.15    4.27    4.15   125.56854   152.88322   212.44619
   243  N   5.0   -0.50    3.29    1.98   125.75694   154.88289   214.37945
   244  C   4.0    0.17    3.33    3.06   124.32964   155.27542   216.34806
   245  N   5.0   -0.77    3.14    1.94   122.09208   153.62336   216.61181
   246  N   5.0   -0.84    3.16    1.95   124.74727   157.12532   218.01955
   247  H   1.0    0.21    1.06    1.44   130.24177   157.57277   209.97673
   248  H   1.0    0.03    1.00    1.43   129.65777   154.39636   205.68915
   249  H   1.0    0.05    1.04    1.43   125.89989   156.54807   209.55387
   250  H   1.0    0.08    1.06    1.44   125.30943   154.29419   207.39273
   251  H   1.0    0.11    1.09    1.44   127.45931   151.60301   209.60731
   252  H   1.0    0.12    1.08    1.44   128.91403   153.45050   211.00061
   253  H   1.0    0.06    1.05    1.44   123.76712   153.01680   211.72018
   254  H   1.0    0.10    1.05    1.44   125.59419   151.26859   213.25138
   255  H   1.0    0.34    1.11    1.45   126.94162   155.87181   214.21542
   256  H   1.0    0.30    1.04    1.43   121.94771   152.44261   215.56346
   257  H   1.0    0.40    1.05    1.44   121.33706   153.97985   217.86711
   258  H   1.0    0.50    1.09    1.44   125.92990   157.92814   217.75838
   259  H   1.0    0.24    1.06    1.44   123.67166   157.19430   219.26306
   260  H   1.0    0.20    1.09    1.44   124.89771   167.15393   199.87628
   261  H   1.0    0.06    1.02    1.43   118.66283   174.04159   200.53973
   262  H   1.0    0.19    1.05    1.44   142.31652   162.30422   211.89437
   263  H   1.0    0.06    1.02    1.43   127.17728   181.58570   219.18470
   264  H   1.0    0.19    1.06    1.44   123.54921   178.70699   227.08006
   265  H   1.0    0.06    1.03    1.43   129.92837   178.97245   227.64864
   266  H   1.0    0.06    1.02    1.43   127.84783   157.28166   202.87884
 
  Z AO/shell   Hii/eV     exponent
  1     Wed Apr 25 08:07:45 CEST 2018   EN: 2.200 GM2: 0.406  GM3: 0.0800  RAES: 1.40
     1s    -10.707211    1.230000
  6     Wed Apr 25 08:07:45 CEST 2018   EN: 2.550 GM2: 0.538  GM3: 0.1500  RAES: 3.00
     2s    -13.970922    2.096432
     2p    -10.063292    1.800000
  7     Wed Apr 25 08:07:45 CEST 2018   EN: 3.040 GM2: 0.461  GM3:-0.0640  RAES: 1.90
     2s    -16.686243    2.339881
     2p    -12.523956    2.014332
  8     Wed Apr 25 08:07:45 CEST 2018   EN: 3.440 GM2: 0.452  GM3:-0.0517  RAES: 1.80
     2s    -20.229985    2.439742
     2p    -15.503117    2.137023
 16     Tue Apr 24 11:44:34 CEST 2018   EN: 2.580 GM2: 0.340  GM3:-0.0502  RAES: 3.10
     3s    -20.029654    1.981333
     3p    -11.377694    2.025643
     3d     -0.420282    1.702555
 30     Wed Apr 25 13:34:15 CEST 2018   EN: 1.650 GM2: 0.564  GM3: 0.2313  RAES: 5.00
     4s     -7.177294    1.664847
     4p     -0.991895    1.176434
 no old-style atom pair restraing (fixing) potential
 
 molecular fragmentation (1/2 indicates fragments):
11111111111111111111111111111111111111111111111111111111111111111111111111111111
11111111111111111111111111111111111111111111111111111111111111111111111111111111
11111111111111111111111111111111111111111111111111111111111111122222222222222222
22222222222222222221111112
# atoms in fragment 1/2:   229    37
 fragment masses (1/2) :     1901.39      231.30
CMA distance (Bohr)    :  13.888
constraining FC (au)   :  0.0500
 
             =======================================
             |                                     |
             |        S C C  calculation           |
             |                                     |
             =======================================
 #proc     :            2
 Ncao      :          719
 Nao       :          715
 Nel       :          784
 T(el)     :   500.0
 intcut    :    25.0
 scfconv   :  0.100E-05
   qconv   :  0.100E-03
 intneglect:  0.100E-07
 broydamp  :      0.400
 Nshell    :          413
 iter      E             dE          RMSdq      gap      omega  full diag
   1   -448.6758099 -0.448676E+03  0.568E+00    0.77       0.0  T
   2   -450.9460706 -0.227026E+01  0.284E+00    0.20       1.0  T
   3   -451.3431663 -0.397096E+00  0.194E+00    0.23       1.0  T
   4   -451.6338097 -0.290643E+00  0.105E+00    1.07       1.0  T
   5   -451.6404416 -0.663196E-02  0.612E-01    0.73       1.0  T
   6   -451.6745012 -0.340596E-01  0.269E-01    0.33       1.0  T
   7   -451.6743551  0.146117E-03  0.144E-01    0.22       1.0  T
   8   -451.6752255 -0.870367E-03  0.112E-01    0.54       1.0  T
   9   -451.6767751 -0.154959E-02  0.539E-02    0.39       1.0  T
  10   -451.6765078  0.267322E-03  0.561E-02    0.27       1.0  T
  11   -451.6769725 -0.464706E-03  0.254E-02    0.39       1.0  T
  12   -451.6770431 -0.706801E-04  0.115E-02    0.36       1.0  T
  13   -451.6770595 -0.163281E-04  0.331E-03    0.35       1.9  T
  14   -451.6770603 -0.825067E-06  0.171E-03    0.34       3.6  T
  15   -451.6770605 -0.172319E-06  0.784E-04    0.34       7.8  T
  16   -451.6770605 -0.215448E-07  0.517E-04    0.34      11.9  T
speedup  1.93
cpu  time for SCC    5.36 s
wall time for SCC    2.78 s

          eigenvalues
 #    :         380        381        382        383        384        385        386        387
 occ. :        2.000      2.000      2.000      2.000      2.000      2.000      2.000      2.000
 eps  :        -9.951     -9.885     -9.727     -9.664     -9.503     -9.379     -9.358     -9.327
 #    :         388        389        390        391        392        393        394        395
 occ. :        2.000      2.000      2.000      1.999      1.964      0.037      0.000      0.000
 eps  :        -9.240     -9.172     -9.039     -8.996     -8.838     -8.494     -8.229     -8.001
 #    :         396        397        398        399        400        401        402        403
 occ. :        0.000      0.000      0.000      0.000      0.000      0.000      0.000      0.000
 eps  :        -7.444     -7.433     -6.910     -6.814     -6.677     -6.578     -6.451     -6.384
 

   #   Z            q   n(s)   n(p)   n(d)      C6AA      α(0)    relVol
   1   7 N     -0.375  1.268  4.107  0.000    30.097     8.151     1.081
   2   6 C      0.071  1.017  2.912  0.000    19.361     6.256     0.506
   3   6 C      0.255  1.083  2.662  0.000    22.669     7.802     0.631
   4   8 O     -0.499  1.762  4.737  0.000    23.799     6.547     1.260
   5   6 C     -0.016  1.029  2.987  0.000    20.827     6.488     0.525
   6   6 C     -0.092  1.009  3.083  0.000    22.251     6.712     0.543
   7   6 C     -0.113  1.020  3.093  0.000    22.693     6.785     0.549
   8   1 H      0.184  0.816  0.000  0.000     1.143     1.674     0.331
   9   1 H      0.035  0.965  0.000  0.000     2.512     2.477     0.490
  10   1 H      0.053  0.947  0.000  0.000     2.271     2.356     0.466
  11   1 H      0.032  0.968  0.000  0.000     2.552     2.498     0.494
  12   1 H      0.048  0.952  0.000  0.000     2.334     2.389     0.473
  13   1 H      0.005  0.995  0.000  0.000     2.976     2.697     0.534
  14   1 H      0.050  0.950  0.000  0.000     2.311     2.377     0.470
  15   1 H      0.011  0.989  0.000  0.000     2.878     2.652     0.525
  16   1 H      0.042  0.958  0.000  0.000     2.419     2.432     0.481
  17   7 N     -0.192  1.223  3.969  0.000    25.472     7.499     0.995
  18   6 C      0.043  1.029  2.928  0.000    19.841     6.338     0.513
  19   6 C      0.291  1.036  2.673  0.000    22.001     7.685     0.622
  20   8 O     -0.431  1.709  4.722  0.000    22.366     6.347     1.221
  21   6 C     -0.053  1.024  3.028  0.000    21.507     6.596     0.534
  22   6 C     -0.063  1.024  3.038  0.000    21.704     6.629     0.537
  23   6 C      0.295  1.022  2.683  0.000    21.895     7.653     0.619
  24   8 O     -0.459  1.699  4.760  0.000    22.936     6.428     1.237
  25   7 N     -0.292  1.247  4.045  0.000    27.901     7.848     1.041
  26   1 H      0.222  0.778  0.000  0.000     0.948     1.524     0.302
  27   1 H      0.043  0.957  0.000  0.000     2.401     2.423     0.479
  28   1 H      0.060  0.940  0.000  0.000     2.186     2.311     0.457
  29   1 H      0.065  0.935  0.000  0.000     2.132     2.283     0.452
  30   1 H      0.030  0.970  0.000  0.000     2.582     2.512     0.497
  31   1 H      0.010  0.990  0.000  0.000     2.881     2.654     0.525
  32   1 H      0.187  0.813  0.000  0.000     1.129     1.664     0.329
  33   1 H      0.240  0.760  0.000  0.000     0.870     1.461     0.289
  34   7 N     -0.230  1.239  3.991  0.000    26.370     7.630     1.012
  35   6 C      0.054  1.033  2.913  0.000    19.649     6.304     0.510
  36   6 C      0.297  1.029  2.673  0.000    21.890     7.666     0.620
  37   8 O     -0.515  1.724  4.792  0.000    24.120     6.592     1.268
  38   6 C      0.057  1.040  2.903  0.000    19.625     6.305     0.510
  39  16 S     -0.586  1.916  4.654  0.016   168.820    21.864     1.115
  40   1 H      0.187  0.813  0.000  0.000     1.129     1.663     0.329
  41   1 H      0.045  0.955  0.000  0.000     2.374     2.409     0.477
  42   1 H      0.012  0.988  0.000  0.000     2.854     2.641     0.523
  43   1 H     -0.039  1.039  0.000  0.000     3.811     3.051     0.604
  44   7 N     -0.201  1.238  3.963  0.000    25.684     7.530     0.999
  45   6 C      0.055  1.033  2.912  0.000    19.641     6.305     0.510
  46   6 C      0.261  1.056  2.683  0.000    22.532     7.770     0.629
  47   8 O     -0.524  1.756  4.768  0.000    24.353     6.623     1.274
  48   6 C     -0.073  1.049  3.023  0.000    21.886     6.656     0.539
  49   6 C      0.371  1.013  2.615  0.000    20.565     7.407     0.599
  50   8 O     -0.667  1.768  4.898  0.000    27.731     7.067     1.360
  51   8 O     -0.588  1.742  4.847  0.000    25.820     6.819     1.312
  52   1 H      0.222  0.778  0.000  0.000     0.948     1.524     0.301
  53   1 H      0.049  0.951  0.000  0.000     2.320     2.381     0.471
  54   1 H      0.022  0.978  0.000  0.000     2.693     2.566     0.508
  55   1 H      0.027  0.973  0.000  0.000     2.623     2.532     0.501
  56   7 N     -0.190  1.223  3.967  0.000    25.439     7.494     0.994
  57   6 C     -0.027  1.003  3.024  0.000    21.123     6.552     0.530
  58   6 C      0.291  1.024  2.685  0.000    21.994     7.677     0.621
  59   8 O     -0.500  1.735  4.765  0.000    23.801     6.548     1.260
  60   1 H      0.214  0.786  0.000  0.000     0.987     1.555     0.308
  61   1 H      0.132  0.868  0.000  0.000     1.489     1.907     0.377
  62   1 H      0.105  0.895  0.000  0.000     1.711     2.045     0.405
  63   7 N     -0.122  1.192  3.929  0.000    23.911     7.266     0.964
  64   6 C     -0.005  1.010  2.995  0.000    20.702     6.481     0.525
  65   6 C      0.280  1.039  2.681  0.000    22.175     7.704     0.624
  66   8 O     -0.490  1.757  4.733  0.000    23.611     6.521     1.255
  67   1 H      0.166  0.834  0.000  0.000     1.252     1.751     0.347
  68   1 H      0.075  0.925  0.000  0.000     2.012     2.218     0.439
  69   1 H      0.110  0.890  0.000  0.000     1.670     2.020     0.400
  70   7 N     -0.205  1.242  3.963  0.000    25.772     7.543     1.001
  71   6 C      0.052  1.039  2.910  0.000    19.685     6.310     0.511
  72   6 C      0.296  1.032  2.672  0.000    21.913     7.671     0.621
  73   8 O     -0.484  1.731  4.753  0.000    23.483     6.504     1.252
  74   6 C      0.049  1.033  2.918  0.000    19.759     6.327     0.512
  75  16 S     -0.613  1.936  4.661  0.016   170.206    21.954     1.119
  76   1 H      0.202  0.798  0.000  0.000     1.047     1.601     0.317
  77   1 H      0.052  0.948  0.000  0.000     2.283     2.362     0.467
  78   1 H      0.017  0.983  0.000  0.000     2.772     2.603     0.515
  79   1 H      0.027  0.973  0.000  0.000     2.623     2.532     0.501
  80   7 N     -0.175  1.195  3.980  0.000    25.088     7.442     0.987
  81   6 C      0.061  1.030  2.909  0.000    19.532     6.287     0.509
  82   6 C      0.218  1.108  2.674  0.000    23.347     7.911     0.640
  83   8 O     -0.555  1.808  4.748  0.000    25.096     6.723     1.294
  84   6 C     -0.115  0.992  3.122  0.000    22.699     6.780     0.549
  85   6 C      0.358  1.029  2.613  0.000    20.789     7.449     0.603
  86   8 O     -0.634  1.773  4.862  0.000    26.924     6.964     1.340
  87   8 O     -0.664  1.773  4.890  0.000    27.677     7.060     1.359
  88   1 H      0.186  0.814  0.000  0.000     1.133     1.665     0.329
  89   1 H      0.060  0.940  0.000  0.000     2.188     2.312     0.457
  90   1 H      0.057  0.943  0.000  0.000     2.220     2.329     0.461
  91   1 H      0.089  0.911  0.000  0.000     1.872     2.139     0.423
  92   7 N     -0.131  1.198  3.933  0.000    24.114     7.296     0.968
  93   6 C      0.026  1.044  2.930  0.000    20.106     6.377     0.516
  94   6 C      0.271  1.045  2.683  0.000    22.353     7.742     0.627
  95   8 O     -0.499  1.741  4.759  0.000    23.807     6.548     1.260
  96   6 C     -0.053  0.994  3.058  0.000    21.522     6.602     0.534
  97   6 C     -0.090  1.024  3.066  0.000    22.233     6.713     0.543
  98   6 C      0.351  1.037  2.612  0.000    20.908     7.467     0.604
  99   8 O     -0.618  1.764  4.854  0.000    26.565     6.917     1.331
 100   8 O     -0.688  1.803  4.885  0.000    28.309     7.140     1.374
 101   1 H      0.205  0.795  0.000  0.000     1.031     1.589     0.314
 102   1 H      0.091  0.909  0.000  0.000     1.849     2.126     0.421
 103   1 H      0.061  0.939  0.000  0.000     2.176     2.306     0.456
 104   1 H      0.054  0.946  0.000  0.000     2.253     2.346     0.464
 105   1 H      0.037  0.963  0.000  0.000     2.484     2.464     0.488
 106   1 H      0.032  0.968  0.000  0.000     2.554     2.498     0.494
 107   7 N     -0.193  1.217  3.976  0.000    25.501     7.503     0.995
 108   6 C      0.040  1.027  2.934  0.000    19.872     6.338     0.513
 109   6 C      0.267  1.042  2.691  0.000    22.450     7.764     0.628
 110   8 O     -0.528  1.754  4.774  0.000    24.434     6.634     1.277
 111   6 C     -0.084  0.988  3.096  0.000    22.086     6.684     0.541
 112   6 C     -0.051  1.072  2.979  0.000    28.673     8.737     0.707
 113   6 C     -0.013  1.035  2.977  0.000    28.246     8.722     0.706
 114   6 C     -0.034  1.087  2.947  0.000    26.134     8.083     0.654
 115   7 N     -0.169  1.209  3.960  0.000    24.954     7.422     0.985
 116   6 C      0.052  1.043  2.906  0.000    25.838     8.239     0.667
 117   6 C     -0.059  1.065  2.994  0.000    29.462     8.912     0.721
 118   6 C     -0.039  1.033  3.006  0.000    28.819     8.805     0.713
 119   6 C     -0.085  1.048  3.037  0.000    30.102     9.008     0.729
 120   6 C     -0.071  1.034  3.037  0.000    29.757     8.956     0.725
 121   1 H      0.218  0.782  0.000  0.000     0.965     1.537     0.304
 122   1 H      0.072  0.928  0.000  0.000     2.049     2.237     0.443
 123   1 H      0.077  0.923  0.000  0.000     1.989     2.205     0.436
 124   1 H      0.089  0.911  0.000  0.000     1.871     2.138     0.423
 125   1 H      0.058  0.942  0.000  0.000     2.213     2.325     0.460
 126   1 H      0.199  0.801  0.000  0.000     1.062     1.613     0.319
 127   1 H      0.035  0.965  0.000  0.000     2.515     2.479     0.491
 128   1 H      0.036  0.964  0.000  0.000     2.498     2.471     0.489
 129   1 H      0.085  0.915  0.000  0.000     1.912     2.161     0.428
 130   1 H      0.097  0.903  0.000  0.000     1.789     2.091     0.414
 131   7 N     -0.191  1.215  3.976  0.000    25.451     7.496     0.994
 132   6 C      0.027  1.068  2.905  0.000    20.124     6.386     0.517
 133   6 C      0.195  1.086  2.719  0.000    23.774     7.978     0.646
 134   8 O     -0.359  1.763  4.595  0.000    20.986     6.148     1.183
 135   6 C     -0.081  1.006  3.075  0.000    22.023     6.673     0.540
 136   6 C      0.002  1.080  2.918  0.000    27.894     8.668     0.702
 137   6 C     -0.068  1.048  3.020  0.000    29.696     8.947     0.724
 138   6 C     -0.061  1.053  3.008  0.000    29.490     8.916     0.722
 139   6 C     -0.054  1.054  3.001  0.000    29.361     8.892     0.720
 140   6 C     -0.071  1.043  3.027  0.000    29.780     8.953     0.725
 141   6 C     -0.054  1.063  2.990  0.000    29.343     8.892     0.720
 142   1 H      0.250  0.750  0.000  0.000     0.828     1.423     0.282
 143   1 H      0.095  0.905  0.000  0.000     1.814     2.106     0.417
 144   1 H      0.103  0.897  0.000  0.000     1.734     2.058     0.407
 145   1 H      0.100  0.900  0.000  0.000     1.759     2.073     0.410
 146   1 H      0.073  0.927  0.000  0.000     2.039     2.232     0.442
 147   1 H      0.071  0.929  0.000  0.000     2.053     2.240     0.443
 148   1 H      0.035  0.965  0.000  0.000     2.502     2.473     0.489
 149   1 H      0.087  0.913  0.000  0.000     1.884     2.145     0.425
 150   1 H      0.039  0.961  0.000  0.000     2.448     2.446     0.484
 151   7 N     -0.379  1.280  4.099  0.000    30.213     8.167     1.083
 152   6 C      0.041  1.039  2.919  0.000    19.877     6.345     0.514
 153   6 C      0.288  1.026  2.686  0.000    22.051     7.689     0.622
 154   8 O     -0.457  1.698  4.759  0.000    22.876     6.420     1.235
 155   6 C     -0.075  1.050  3.025  0.000    21.926     6.661     0.539
 156   6 C      0.372  1.015  2.613  0.000    20.557     7.405     0.599
 157   8 O     -0.650  1.760  4.890  0.000    27.313     7.014     1.350
 158   8 O     -0.664  1.772  4.893  0.000    27.682     7.061     1.359
 159   1 H      0.154  0.846  0.000  0.000     1.334     1.808     0.358
 160   1 H      0.034  0.966  0.000  0.000     2.519     2.481     0.491
 161   1 H      0.009  0.991  0.000  0.000     2.896     2.660     0.526
 162   1 H      0.010  0.990  0.000  0.000     2.891     2.659     0.526
 163   7 N     -0.188  1.233  3.955  0.000    25.390     7.487     0.993
 164   6 C      0.035  1.050  2.915  0.000    19.974     6.358     0.515
 165   6 C      0.246  1.059  2.695  0.000    22.828     7.826     0.633
 166   8 O     -0.603  1.805  4.798  0.000    26.153     6.864     1.321
 167   6 C     -0.083  0.995  3.088  0.000    22.076     6.684     0.541
 168   6 C     -0.013  1.078  2.935  0.000    28.236     8.719     0.706
 169   6 C     -0.090  1.064  3.026  0.000    30.213     9.024     0.730
 170   6 C     -0.052  1.026  3.025  0.000    29.266     8.882     0.719
 171   6 C     -0.070  1.054  3.017  0.000    29.769     8.956     0.725
 172   6 C     -0.082  1.043  3.039  0.000    30.057     9.001     0.728
 173   6 C      0.135  1.054  2.811  0.000    25.049     8.215     0.665
 174   8 O     -0.446  1.696  4.750  0.000    22.278     6.387     1.229
 175   1 H      0.187  0.813  0.000  0.000     1.129     1.664     0.329
 176   1 H      0.064  0.936  0.000  0.000     2.145     2.289     0.453
 177   1 H      0.122  0.878  0.000  0.000     1.572     1.960     0.388
 178   1 H      0.041  0.959  0.000  0.000     2.424     2.434     0.482
 179   1 H      0.107  0.893  0.000  0.000     1.692     2.033     0.402
 180   1 H      0.048  0.952  0.000  0.000     2.336     2.389     0.473
 181   1 H      0.093  0.907  0.000  0.000     1.830     2.114     0.418
 182   1 H      0.051  0.949  0.000  0.000     2.302     2.372     0.469
 183   1 H      0.328  0.672  0.000  0.000     0.577     1.191     0.236
 184   7 N     -0.114  1.208  3.907  0.000    23.755     7.242     0.961
 185   6 C      0.012  1.004  2.984  0.000    20.346     6.414     0.519
 186   6 C      0.273  1.025  2.703  0.000    22.348     7.753     0.628
 187   8 O     -0.612  1.770  4.842  0.000    26.304     6.884     1.325
 188   6 C     -0.027  1.085  2.942  0.000    21.042     6.525     0.528
 189   6 C     -0.098  1.013  3.085  0.000    22.438     6.751     0.546
 190   6 C     -0.129  0.968  3.161  0.000    23.064     6.849     0.554
 191   6 C     -0.149  0.978  3.170  0.000    23.545     6.935     0.561
 192   1 H      0.230  0.770  0.000  0.000     0.909     1.491     0.295
 193   1 H      0.110  0.890  0.000  0.000     1.669     2.019     0.399
 194   1 H      0.065  0.935  0.000  0.000     2.124     2.279     0.451
 195   1 H      0.073  0.927  0.000  0.000     2.042     2.234     0.442
 196   1 H      0.058  0.942  0.000  0.000     2.212     2.325     0.460
 197   1 H      0.066  0.934  0.000  0.000     2.115     2.273     0.450
 198   1 H      0.045  0.955  0.000  0.000     2.375     2.410     0.477
 199   1 H      0.042  0.958  0.000  0.000     2.414     2.429     0.481
 200   1 H      0.047  0.953  0.000  0.000     2.354     2.399     0.475
 201   1 H      0.055  0.945  0.000  0.000     2.248     2.344     0.464
 202   1 H      0.069  0.931  0.000  0.000     2.083     2.257     0.447
 203   7 N     -0.110  1.203  3.907  0.000    23.661     7.227     0.959
 204   6 C      0.024  1.016  2.960  0.000    20.167     6.391     0.517
 205   6 C      0.209  1.078  2.713  0.000    23.523     7.939     0.643
 206   8 O     -0.418  1.787  4.631  0.000    22.149     6.316     1.215
 207   6 C     -0.012  1.034  2.978  0.000    20.848     6.507     0.527
 208  16 S     -0.541  1.900  4.604  0.037   166.546    21.716     1.107
 209   1 H      0.203  0.797  0.000  0.000     1.035     1.590     0.315
 210   1 H      0.152  0.848  0.000  0.000     1.339     1.809     0.358
 211   1 H      0.097  0.903  0.000  0.000     1.784     2.088     0.413
 212   1 H      0.062  0.938  0.000  0.000     2.156     2.295     0.454
 213   7 N     -0.361  1.284  4.078  0.000    29.731     8.102     1.075
 214   6 C      0.056  1.028  2.916  0.000    19.621     6.301     0.510
 215   6 C      0.203  1.081  2.716  0.000    23.632     7.956     0.644
 216   8 O     -0.383  1.739  4.644  0.000    21.460     6.217     1.196
 217   6 C      0.082  1.022  2.897  0.000    19.215     6.238     0.505
 218  16 S     -0.582  1.876  4.674  0.033   168.628    21.852     1.114
 219   1 H      0.144  0.856  0.000  0.000     1.404     1.855     0.367
 220   1 H      0.060  0.940  0.000  0.000     2.186     2.311     0.457
 221   1 H     -0.008  1.008  0.000  0.000     3.202     2.797     0.553
 222   1 H      0.001  0.999  0.000  0.000     3.038     2.725     0.539
 223  30 ZN     0.341  1.151  0.508  0.000   122.021    21.562     0.480
 224   7 N     -0.110  1.196  3.914  0.000    23.660     7.227     0.959
 225   6 C      0.018  1.003  2.978  0.000    20.269     6.408     0.519
 226   6 C      0.289  1.009  2.703  0.000    22.053     7.698     0.623
 227   8 O     -0.459  1.715  4.743  0.000    22.931     6.427     1.237
 228   6 C     -0.131  1.009  3.121  0.000    23.031     6.833     0.553
 229   1 H      0.290  0.710  0.000  0.000     0.685     1.296     0.257
 230   1 H      0.307  0.693  0.000  0.000     0.633     1.246     0.247
 231   1 H      0.303  0.697  0.000  0.000     0.646     1.259     0.249
 232   1 H      0.105  0.895  0.000  0.000     1.714     2.047     0.405
 233   1 H      0.067  0.933  0.000  0.000     2.108     2.270     0.449
 234   1 H      0.059  0.941  0.000  0.000     2.194     2.316     0.458
 235   1 H      0.070  0.930  0.000  0.000     2.068     2.248     0.445
 236   7 N     -0.177  1.222  3.955  0.000    25.131     7.449     0.988
 237   6 C      0.021  1.082  2.897  0.000    20.249     6.408     0.519
 238   6 C      0.181  1.108  2.711  0.000    24.049     8.019     0.649
 239   8 O     -0.406  1.808  4.598  0.000    21.924     6.283     1.209
 240   6 C     -0.079  1.016  3.063  0.000    22.003     6.674     0.540
 241   6 C     -0.109  0.965  3.144  0.000    22.593     6.765     0.548
 242   6 C     -0.038  1.013  3.026  0.000    21.309     6.577     0.532
 243   7 N     -0.118  1.173  3.944  0.000    23.830     7.253     0.962
 244   6 C      0.212  1.043  2.745  0.000    23.470     7.931     0.642
 245   7 N     -0.313  1.182  4.131  0.000    28.453     7.926     1.051
 246   7 N     -0.251  1.159  4.092  0.000    26.890     7.705     1.022
 247   1 H      0.215  0.785  0.000  0.000     0.983     1.552     0.307
 248   1 H      0.104  0.896  0.000  0.000     1.729     2.056     0.407
 249   1 H      0.058  0.942  0.000  0.000     2.213     2.326     0.460
 250   1 H      0.100  0.900  0.000  0.000     1.765     2.077     0.411
 251   1 H      0.124  0.876  0.000  0.000     1.547     1.944     0.385
 252   1 H      0.098  0.902  0.000  0.000     1.780     2.085     0.413
 253   1 H      0.115  0.885  0.000  0.000     1.623     1.992     0.394
 254   1 H      0.122  0.878  0.000  0.000     1.569     1.958     0.387
 255   1 H      0.235  0.765  0.000  0.000     0.886     1.472     0.291
 256   1 H      0.268  0.732  0.000  0.000     0.758     1.363     0.270
 257   1 H      0.221  0.779  0.000  0.000     0.951     1.527     0.302
 258   1 H      0.235  0.765  0.000  0.000     0.890     1.476     0.292
 259   1 H      0.220  0.780  0.000  0.000     0.957     1.531     0.303
 260   1 H      0.201  0.799  0.000  0.000     1.048     1.602     0.317
 261   1 H      0.108  0.892  0.000  0.000     1.685     2.029     0.402
 262   1 H      0.197  0.803  0.000  0.000     1.074     1.622     0.321
 263   1 H      0.103  0.897  0.000  0.000     1.733     2.058     0.407
 264   1 H      0.185  0.815  0.000  0.000     1.137     1.669     0.330
 265   1 H      0.068  0.932  0.000  0.000     2.095     2.263     0.448
 266   1 H      0.117  0.883  0.000  0.000     1.609     1.983     0.392

 Mol. C6AA /au*bohr^6 :     808599.434795
 Mol. C8AA /au*bohr^6 :   19722065.703929
 Mol. a(0) /au        :       1369.678548

 
molecular dipole:
                 x           y           z       tot (Debye)
 q only:     -486.643    -678.631    -896.106
   full:     1223.648    -678.762    -893.430    3110.267
molecular quadrupole (traceless):
                xx          xy          yy          xz          yz          zz
 q only:    98148.415 -123734.923   15007.740 -163744.659 -227800.698 -113156.155
  q+dip:    97227.802 -124183.603   14559.398 -163768.722 -227203.934 -111787.200
   full:    97228.374 -124180.432   14554.940 -163767.431 -227202.633 -111783.314
 SCC converged in           16  cycles
speedup  1.98
cpu  time for grad    1.02 s
wall time for grad    0.51 s
 
SCC energy    :    -451.6296403
rep           :       8.8367915
ES            :       2.4611013
AES           :      -0.1439259
AXC           :       0.0737599
disp          :      -0.4116035
XB            :       0.0000000
fix           :       0.0000000
Gborn         :      -0.9805773
Gsasa         :       0.0453447
Ghb           :      -0.0463147
Gshift        :       0.0020755
Gsolv         :      -0.9794718     -614.63
Etot ala COSMO:    -442.7480003
grad norm     :       3.1110590
total E       :    -442.7468948
atomizationE  :      76.4042963    47944.42
(atE without considerung molecular charge,
 total energy contains solvation terms)
H-L gap (eV)  :          0.3435
 
speedup  1.92
cpu  time for all    6.73 s
wall time for all    3.51 s
