      -----------------------------------------------------------      
     |                   =====================                   |     
     |                           x T B                           |     
     |                   =====================                   |     
     |                         S. Grimme                         |     
     |          Mulliken Center for Theoretical Chemistry        |     
     |                    University of Bonn                     |     
     |                 Version 6.0.1 (SAW181210)                 |     
      -----------------------------------------------------------      

   This program is distributed in the hope that it will be useful,
   but WITHOUT ANY WARRANTY; without even the implied warranty of
   MERCHANTABILITY or FITNESS FOR A PARTICULAR PURPOSE.
   
   FOR NON-COMMERCIAL, ACADEMIA USE ONLY.
   
   Cite this work as:
   S. Grimme, C. Bannwarth, P. Shushkov, J. Comput. Theory Chem., 2017,
   13, 1989-2009.
   C. Bannwarth, S. Ehlert and S. Grimme., ChemRxiv, 2018, preprint.
   http://doi.org/10.26434/chemrxiv.7246238.v1
   
   for sTDA-xTB:
   S. Grimme and C. Bannwarth, J. Chem. Phys., 2016, 145, 054103.
   
   in the mass-spec context:
   V. Asgeirsson, C. Bauer and S. Grimme, Chem. Sci., 2017, 8, 4879.
   
   if GBSA is used:
   P. Shushkov, F. März and S. Grimme, unpublished.
   
   for ANC optimizer:
   S. Grimme, unpublished.
   Rational Function algorithm used in ANCopt:
   F. Eckert, P. Pulay, H.-J. Werner, J. Comput. Chem., 1997, 18, 1473.
   
   with help from (in alphabetical order)
   C. Bannwarth, F. Bohle, G. Brandenburg, E. Caldeweyher, M. Checinski,
   S. Dohm, S. Ehlert, S. Ehrlich, F. März, H. Neugebauer, J. Pisarek,
   P. Pracht, P. Shushkov, and S. Spicher.
   
 * started run on 2019/05/03 at 23:04:18.869     
========================================================================
 # omp threads = 2
========================================================================
number of atoms            : 338
number of electrons        : 832
charge                     : 1
spin                       : .0
first test random number   : .1417

########################################################################
# WARNING! Please study the warnings concerning your input carefully
#  - Process number higher than OMP_NUM_THREADS, I hope you know what you are doing.
########################################################################

           ------------------------------------------------- 
          |                 G F N 2 - x T B                 |
          | Geometry, Frequencies, Noncovalent interactions |
          |            JCTC 2018 parametrisation            |
           ------------------------------------------------- 
 
      method parameters     
 k(s)        :  1.8500
 k(p)        :  2.2300
 k(d)        :  2.2300
 k(f)        :  2.0000
 kEN (H0ij)  : -2.0000
 D4 a1       :  0.5200
 D4 a2       :  5.0000
 D4 s6       :  1.0000
 D4 s8       :  2.7000
 D4 s9       :  5.0000
 alphaj      :  2.0000

 Solvent             : h2o
 Using internal parameter file: .param_gbsa2_h2o
 Gsolv ref. state (COSMO-RS): gsolv [1 M gas/solution]
 temperature (mdtemp)       :    298.150000000000     
 dielectric constant        :    80.2000000000000     
 rho                        :    1.00000000000000     
 mass                       :    18.0000000000000     
 surface tension            :    15.5689454083859     
 probe radius               :   0.975313790000000     
 vdW radii scaling          :    1.00000000000000     
 Gshift (Eh)                :   1.857443126794793E-003
 c1                         :    1.55243817000000     
 soset                      :   0.130326360000000     
 HB correction              :  T

            Z     q(EN)     CN     RAES       Cart. coordinates
     1  N   5.0   -0.19    3.27    1.97    29.43367    70.01235    44.75849
     2  C   4.0    0.04    4.28    4.15    30.35324    70.41474    42.34865
     3  C   4.0    0.04    3.21    3.04    31.73642    68.14957    41.77338
     4  O   6.0   -0.32    1.00    1.80    31.04792    66.95151    39.01911
     5  C   4.0   -0.03    4.34    4.27    32.35341    72.67710    42.18763
     6  C   4.0   -0.05    4.17    3.93    30.90469    75.18336    42.57952
     7  C   4.0   -0.07    4.13    3.86    33.73786    72.55391    39.65918
     8  C   4.0   -0.07    4.03    3.67    32.62549    77.44120    42.50501
     9  H   1.0    0.08    0.97    1.43    30.07328    71.33534    46.23307
    10  H   1.0    0.05    1.04    1.43    28.80760    70.84782    40.98633
    11  H   1.0    0.04    1.07    1.44    33.62930    72.38286    43.72509
    12  H   1.0    0.04    1.01    1.43    29.47189    75.36719    41.04506
    13  H   1.0    0.04    1.04    1.43    29.87169    75.08828    44.32126
    14  H   1.0    0.04    1.00    1.43    35.03012    74.15144    39.51626
    15  H   1.0    0.05    1.01    1.43    34.83251    70.83623    39.53270
    16  H   1.0    0.04    1.00    1.43    32.42901    72.62635    38.08593
    17  H   1.0    0.05    1.00    1.43    31.55067    79.09748    43.11398
    18  H   1.0    0.05    1.00    1.43    34.18093    77.20282    43.84645
    19  H   1.0    0.05    1.00    1.43    33.40258    77.80872    40.66065
    20  N   5.0   -0.20    3.25    1.97    29.60002    63.84216    35.58226
    21  C   4.0    0.03    4.34    4.27    31.47158    63.07435    33.70530
    22  C   4.0    0.09    3.26    3.04    31.37125    60.21506    33.31119
    23  O   6.0   -0.27    1.13    1.80    31.11590    59.32218    31.25763
    24  C   4.0   -0.02    4.35    4.29    34.04386    63.99898    34.51624
    25  C   4.0   -0.05    4.19    3.99    34.30259    66.78651    33.72135
    26  C   4.0   -0.07    4.16    3.91    36.12171    62.36614    33.33354
    27  C   4.0   -0.07    4.01    3.63    36.70117    68.03224    34.73813
    28  H   1.0    0.13    1.14    1.45    30.22668    64.72355    37.18200
    29  H   1.0    0.05    1.06    1.44    30.92021    63.89269    31.87602
    30  H   1.0    0.06    1.06    1.44    34.18278    63.86553    36.55672
    31  H   1.0    0.04    1.03    1.43    34.29644    66.91723    31.66280
    32  H   1.0    0.05    1.03    1.43    32.65637    67.80636    34.41264
    33  H   1.0    0.05    1.00    1.43    37.95617    63.21937    33.61218
    34  H   1.0    0.06    1.01    1.43    36.07611    60.47025    34.05963
    35  H   1.0    0.05    0.99    1.43    35.85652    62.24277    31.27106
    36  H   1.0    0.04    1.00    1.43    36.64618    70.05196    34.32566
    37  H   1.0    0.05    0.99    1.43    36.78800    67.82298    36.80093
    38  H   1.0    0.04    1.00    1.43    38.39667    67.23882    33.95341
    39  N   5.0   -0.21    3.21    1.96    25.90175    89.77145    14.67090
    40  C   4.0    0.03    4.29    4.18    25.31338    88.87568    17.18578
    41  C   4.0    0.08    3.24    3.04    24.35895    91.07986    18.78249
    42  O   6.0   -0.32    1.16    1.80    22.48765    90.82738    20.12731
    43  C   4.0   -0.02    4.32    4.24    27.70925    87.64215    18.41338
    44  C   4.0   -0.04    4.18    3.96    28.54083    85.22095    17.03301
    45  C   4.0   -0.07    4.15    3.91    27.32961    87.18215    21.13719
    46  C   4.0   -0.08    4.01    3.64    26.56961    83.12174    17.00317
    47  H   1.0    0.09    1.02    1.43    27.69462    89.62873    14.00054
    48  H   1.0    0.04    1.05    1.44    23.76113    87.51507    17.07685
    49  H   1.0    0.06    1.06    1.44    29.24140    89.00763    18.09131
    50  H   1.0    0.05    1.01    1.43    28.99439    85.71925    15.02768
    51  H   1.0    0.05    1.04    1.43    30.26647    84.62817    17.86844
    52  H   1.0    0.05    1.00    1.43    28.97483    86.25087    21.95949
    53  H   1.0    0.05    1.00    1.43    27.00636    88.97956    22.15470
    54  H   1.0    0.04    1.00    1.43    25.65145    86.03808    21.48859
    55  H   1.0    0.04    1.00    1.43    27.35901    81.47717    16.03793
    56  H   1.0    0.03    1.00    1.43    26.08454    82.55548    18.91197
    57  H   1.0    0.04    1.00    1.43    24.84299    83.67305    16.03367
    58  N   5.0   -0.19    3.25    1.97    17.55501    91.87511    17.25900
    59  C   4.0    0.03    4.39    4.36    16.04163    89.91332    18.34690
    60  C   4.0    0.15    3.44    3.09    15.59363    90.54038    21.22040
    61  O   6.0   -0.31    1.28    1.80    13.43384    90.30795    22.14285
    62  C   4.0   -0.02    4.26    4.12    17.32140    87.34200    18.01255
    63  C   4.0   -0.08    4.12    3.83    15.88704    85.28588    19.57061
    64  C   4.0   -0.07    4.14    3.88    17.26513    86.63333    15.27926
    65  H   1.0    0.09    1.02    1.43    19.22659    91.41610    16.40647
    66  H   1.0    0.05    1.06    1.44    14.16695    89.91675    17.48965
    67  H   1.0    0.05    1.05    1.44    19.24385    87.48943    18.74630
    68  H   1.0    0.03    1.00    1.43    16.84203    83.49021    19.35920
    69  H   1.0    0.05    1.00    1.43    15.80439    85.80367    21.55292
    70  H   1.0    0.05    1.00    1.43    13.97608    85.11460    18.87076
    71  H   1.0    0.04    1.00    1.43    18.09892    84.76621    14.98917
    72  H   1.0    0.05    1.00    1.43    15.36786    86.59611    14.51545
    73  H   1.0    0.04    0.99    1.43    18.35462    87.96532    14.10727
    74  N   5.0   -0.15    3.45    2.05    17.52735    91.28333    22.54933
    75  C   4.0    0.04    4.36    4.31    17.20022    91.86051    25.22951
    76  C   4.0    0.10    3.25    3.04    15.23721    93.98330    25.55883
    77  O   6.0   -0.30    1.16    1.80    13.74480    93.94877    27.22651
    78  C   4.0   -0.04    4.27    4.15    19.67875    92.59974    26.46152
    79  C   4.0   -0.05    4.20    4.00    21.47419    90.38481    26.64848
    80  C   4.0   -0.05    4.16    3.92    24.02136    91.15899    27.74038
    81  C   4.0   -0.03    4.12    3.85    25.74554    88.83220    28.02417
    82  N   5.0   -0.11    4.00    2.86    28.26513    89.51414    29.14437
    83  H   1.0    0.11    1.09    1.44    19.27097    91.49609    21.75536
    84  H   1.0    0.06    1.06    1.44    16.41889    90.22572    26.21917
    85  H   1.0    0.05    1.02    1.43    20.53989    94.16504    25.36336
    86  H   1.0    0.05    1.04    1.43    19.28226    93.32256    28.33296
    87  H   1.0    0.05    1.03    1.43    20.61013    88.93376    27.80788
    88  H   1.0    0.05    1.02    1.43    21.76352    89.59609    24.73559
    89  H   1.0    0.05    1.03    1.43    24.94025    92.53175    26.51865
    90  H   1.0    0.05    1.03    1.43    23.76062    92.04979    29.57917
    91  H   1.0    0.05    1.02    1.43    24.82594    87.46622    29.26814
    92  H   1.0    0.04    1.02    1.43    26.07668    88.00306    26.17854
    93  H   1.0    0.09    1.07    1.44    29.33494    87.89214    29.18365
    94  H   1.0    0.06    1.01    1.43    29.03525    91.01123    28.10361
    95  H   1.0    0.08    1.02    1.43    27.92369    90.15719    30.96513
    96  N   5.0   -0.19    3.21    1.96     8.96502    91.43911    25.10475
    97  C   4.0    0.04    4.32    4.23     8.29277    90.11644    27.52572
    98  C   4.0    0.09    3.26    3.05     7.62417    92.06347    29.46203
    99  O   6.0   -0.27    1.12    1.80     5.90863    91.68127    31.02715
   100  C   4.0   -0.02    4.35    4.29    10.43795    88.44750    28.33604
   101  C   4.0   -0.04    4.20    4.01    10.72281    86.23109    26.53880
   102  C   4.0   -0.06    4.15    3.89    10.04988    87.49249    31.05100
   103  C   4.0   -0.08    4.00    3.62    13.06939    84.59707    26.93712
   104  H   1.0    0.12    1.05    1.44    10.74632    91.30068    24.44500
   105  H   1.0    0.05    1.06    1.44     6.57404    89.01485    27.16729
   106  H   1.0    0.06    1.05    1.44    12.21096    89.54254    28.27624
   107  H   1.0    0.04    1.02    1.43     9.02094    85.05993    26.63556
   108  H   1.0    0.05    1.02    1.43    10.83076    87.00914    24.59503
   109  H   1.0    0.04    1.00    1.43    11.66436    86.37137    31.64998
   110  H   1.0    0.06    1.00    1.43     9.84424    89.07402    32.35527
   111  H   1.0    0.05    1.00    1.43     8.35792    86.35597    31.17263
   112  H   1.0    0.03    1.00    1.43    13.35124    83.34361    25.33168
   113  H   1.0    0.05    1.00    1.43    14.72364    85.76732    27.20133
   114  H   1.0    0.04    1.00    1.43    12.85056    83.44093    28.63327
   115  N   5.0   -0.20    3.25    1.97    22.86696    90.11409    38.12942
   116  C   4.0    0.03    4.33    4.25    22.31621    87.87836    36.64382
   117  C   4.0    0.14    3.45    3.10    24.69750    86.65802    35.75690
   118  O   6.0   -0.30    1.24    1.80    26.43602    87.93010    34.72527
   119  C   4.0   -0.04    4.34    4.27    20.82392    88.63728    34.27574
   120  C   4.0   -0.04    4.21    4.02    18.10326    89.43708    34.93488
   121  C   4.0    0.14    3.23    3.04    16.74357    89.93697    32.47859
   122  O   6.0   -0.32    1.19    1.80    16.97209    88.38803    30.62926
   123  N   5.0   -0.18    3.16    1.95    15.38873    92.07250    32.30238
   124  H   1.0    0.10    1.04    1.43    23.36623    91.66950    37.33089
   125  H   1.0    0.04    1.04    1.43    21.23207    86.55953    37.85458
   126  H   1.0    0.05    1.03    1.43    21.83284    90.23791    33.46556
   127  H   1.0    0.05    1.04    1.43    20.81113    87.09512    32.94552
   128  H   1.0    0.04    1.03    1.43    17.14922    87.94246    35.95948
   129  H   1.0    0.04    1.03    1.43    18.04601    91.13120    36.11065
   130  H   1.0    0.09    1.03    1.43    14.81459    92.98730    33.88112
   131  H   1.0    0.12    1.05    1.44    14.39076    92.45484    30.71004
   132  N   5.0   -0.15    3.49    2.07    24.84223    84.14781    35.95750
   133  C   4.0    0.03    4.40    4.38    27.02737    82.75000    34.91066
   134  C   4.0    0.14    3.40    3.08    25.76275    80.77596    33.28038
   135  O   6.0   -0.32    1.22    1.80    24.41981    79.06013    34.10205
   136  C   4.0   -0.04    4.17    3.93    28.78281    81.76101    37.05498
   137  C   4.0   -0.04    4.19    3.99    29.64801    84.06126    38.69955
   138  C   4.0   -0.00    4.16    3.92    32.21978    83.77008    40.04112
   139  N   5.0   -0.14    3.43    2.03    31.87137    83.91230    42.64157
   140  C   4.0    0.09    3.32    3.06    33.77821    83.64917    44.55192
   141  N   5.0   -0.18    3.25    1.97    36.07243    83.59676    43.84703
   142  N   5.0   -0.18    3.24    1.97    32.96443    83.34593    46.79957
   143  H   1.0    0.08    1.06    1.44    23.70604    83.22992    37.17008
   144  H   1.0    0.06    1.07    1.44    28.02993    84.13813    33.76089
   145  H   1.0    0.05    1.03    1.43    27.80753    80.41600    38.22235
   146  H   1.0    0.06    1.02    1.43    30.40956    80.86165    36.16504
   147  H   1.0    0.06    1.03    1.43    29.75376    85.68243    37.40560
   148  H   1.0    0.05    1.04    1.43    28.19520    84.50353    40.05467
   149  H   1.0    0.05    1.02    1.43    33.11488    81.98301    39.42374
   150  H   1.0    0.05    1.03    1.43    33.47140    85.27912    39.40087
   151  H   1.0    0.08    1.07    1.44    30.10634    83.94467    43.39734
   152  H   1.0    0.09    1.03    1.43    36.67084    83.71308    42.01658
   153  H   1.0    0.09    1.01    1.43    37.56026    83.36767    45.12565
   154  H   1.0    0.09    1.04    1.43    31.13009    83.64372    47.24699
   155  H   1.0    0.09    1.02    1.43    34.28196    83.38167    48.28239
   156  N   5.0   -0.14    3.45    2.05    25.95190    81.25360    30.74181
   157  C   4.0    0.03    4.43    4.43    24.66308    79.50210    28.89150
   158  C   4.0    0.15    3.44    3.09    26.56761    77.39558    28.35578
   159  O   6.0   -0.32    1.30    1.80    28.81510    77.84433    28.27121
   160  C   4.0   -0.05    4.35    4.30    23.96000    80.87084    26.56276
   161  C   4.0   -0.03    4.15    3.91    21.22965    81.79860    26.50964
   162  C   4.0   -0.08    4.09    3.78    20.79991    83.21889    23.94537
   163  C   4.0   -0.08    4.09    3.77    19.29617    79.58535    26.63267
   164  H   1.0    0.10    1.09    1.44    27.26529    82.43251    30.08305
   165  H   1.0    0.05    1.07    1.44    23.08370    78.68112    29.95060
   166  H   1.0    0.04    1.03    1.43    25.22655    82.45185    26.19151
   167  H   1.0    0.04    1.04    1.43    24.20706    79.54719    24.98342
   168  H   1.0    0.04    1.05    1.44    20.86207    83.13839    28.02900
   169  H   1.0    0.04    1.00    1.43    18.85990    83.92287    23.91712
   170  H   1.0    0.04    1.00    1.43    22.08226    84.81163    23.83591
   171  H   1.0    0.03    1.01    1.43    21.05521    81.95985    22.40689
   172  H   1.0    0.03    1.00    1.43    17.41469    80.33787    26.43609
   173  H   1.0    0.03    1.00    1.43    19.60324    78.25103    25.12729
   174  H   1.0    0.03    1.00    1.43    19.42435    78.59340    28.42650
   175  N   5.0   -0.14    3.48    2.06    25.60328    75.15040    28.07339
   176  C   4.0    0.04    4.39    4.36    27.13700    72.81528    27.85008
   177  C   4.0    0.07    3.24    3.04    26.07092    71.14668    25.76767
   178  O   6.0   -0.30    1.12    1.80    23.72609    70.86781    25.51717
   179  C   4.0   -0.01    4.35    4.29    27.01408    71.38560    30.36843
   180  C   4.0   -0.04    4.21    4.02    28.38529    72.89309    32.36531
   181  C   4.0   -0.07    4.12    3.84    28.14118    68.69872    30.16378
   182  C   4.0   -0.07    4.01    3.63    27.74012    71.99913    35.06929
   183  H   1.0    0.08    1.07    1.44    23.73367    74.87195    28.39848
   184  H   1.0    0.06    1.06    1.44    29.07900    73.35035    27.38348
   185  H   1.0    0.05    1.06    1.44    25.01815    71.21193    30.89499
   186  H   1.0    0.04    1.03    1.43    30.42575    72.72661    32.06720
   187  H   1.0    0.06    1.04    1.43    27.86405    74.88727    32.23704
   188  H   1.0    0.04    1.01    1.43    28.13315    67.76334    31.93768
   189  H   1.0    0.05    0.99    1.43    27.04228    67.55938    28.80699
   190  H   1.0    0.05    1.00    1.43    30.03795    68.83929    29.38772
   191  H   1.0    0.04    0.99    1.43    28.48416    73.36476    36.43391
   192  H   1.0    0.05    1.01    1.43    25.72881    71.84492    35.28224
   193  H   1.0    0.05    1.00    1.43    28.60351    70.18223    35.46608
   194  N   5.0   -0.20    3.25    1.97    35.56711    67.42876    25.28643
   195  C   4.0    0.03    4.29    4.18    36.93581    69.77206    25.53635
   196  C   4.0    0.14    3.46    3.10    35.12096    71.74760    26.58505
   197  O   6.0   -0.31    1.24    1.80    32.82640    71.61931    26.02808
   198  C   4.0   -0.04    4.35    4.29    37.63868    70.89220    22.88434
   199  C   4.0   -0.04    4.03    3.67    39.36778    69.14096    21.36473
   200  S   6.0   -0.02    2.46    3.10    39.55644    70.27550    18.08790
   201  C   4.0   -0.06    3.87    3.42    36.62255    68.91334    16.84751
   202  H   1.0    0.10    1.03    1.43    34.00417    67.37804    24.27372
   203  H   1.0    0.04    1.05    1.44    38.59206    69.53696    26.69913
   204  H   1.0    0.05    1.04    1.43    35.84382    71.15668    21.86254
   205  H   1.0    0.06    1.03    1.43    38.45069    72.76245    23.10730
   206  H   1.0    0.05    1.07    1.44    41.28540    69.16693    22.07843
   207  H   1.0    0.04    1.07    1.44    38.63418    67.21576    21.25053
   208  H   1.0    0.05    1.05    1.44    36.70432    68.98214    14.84790
   209  H   1.0    0.05    1.03    1.43    36.51888    66.95036    17.48475
   210  H   1.0    0.04    1.02    1.43    35.00454    69.98867    17.59126
   211  N   5.0   -0.14    3.45    2.05    36.13300    73.61787    27.99173
   212  C   4.0    0.03    4.44    4.44    34.84989    76.02390    28.38007
   213  C   4.0    0.15    3.47    3.10    35.30104    77.59404    26.07359
   214  O   6.0   -0.29    1.24    1.80    37.39880    77.71907    25.10190
   215  C   4.0   -0.03    4.31    4.22    35.93780    77.48887    30.62413
   216  C   4.0   -0.04    4.20    4.01    35.42964    76.13376    33.13082
   217  C   4.0    0.14    3.22    3.04    36.31403    77.92114    35.26114
   218  O   6.0   -0.31    1.18    1.80    35.16977    79.93047    35.66838
   219  N   5.0   -0.19    3.16    1.95    38.35839    77.11315    36.54132
   220  H   1.0    0.08    1.07    1.44    38.04729    73.68851    27.98666
   221  H   1.0    0.06    1.06    1.44    32.82791    75.62816    28.61449
   222  H   1.0    0.06    1.03    1.43    37.94651    77.74338    30.32362
   223  H   1.0    0.06    1.04    1.43    35.08428    79.34356    30.63414
   224  H   1.0    0.04    1.03    1.43    33.40524    75.82108    33.35082
   225  H   1.0    0.04    1.02    1.43    36.37298    74.31318    33.26617
   226  H   1.0    0.08    1.04    1.43    39.26424    75.56512    36.02569
   227  H   1.0    0.10    1.02    1.43    39.15916    78.31733    37.81413
   228  N   5.0   -0.14    3.47    2.06    33.20177    78.81408    25.22761
   229  C   4.0    0.03    4.40    4.38    33.37013    80.07010    22.64504
   230  C   4.0    0.15    3.39    3.08    33.99337    82.88660    23.03437
   231  O   6.0   -0.31    1.28    1.80    33.25889    84.09900    24.90022
   232  C   4.0   -0.05    4.34    4.28    30.83855    79.78321    21.38422
   233  C   4.0   -0.02    4.19    3.98    29.89256    77.03092    21.35718
   234  C   4.0   -0.08    4.10    3.81    27.06879    76.96727    20.82562
   235  C   4.0   -0.07    4.08    3.77    31.29528    75.40922    19.36213
   236  H   1.0    0.11    1.10    1.44    31.66265    78.83907    26.16601
   237  H   1.0    0.05    1.07    1.44    34.90608    79.20623    21.65894
   238  H   1.0    0.04    1.03    1.43    29.43079    80.94154    22.37184
   239  H   1.0    0.04    1.03    1.43    30.98169    80.49942    19.45625
   240  H   1.0    0.06    1.06    1.44    30.19133    76.19908    23.22513
   241  H   1.0    0.04    1.00    1.43    26.30957    75.05919    21.02428
   242  H   1.0    0.04    1.01    1.43    26.05077    78.19872    22.09035
   243  H   1.0    0.03    0.99    1.43    26.64828    77.61009    18.89583
   244  H   1.0    0.05    1.00    1.43    30.80690    73.45094    19.60053
   245  H   1.0    0.04    1.01    1.43    30.80215    76.00577    17.49139
   246  H   1.0    0.05    0.99    1.43    33.33790    75.63047    19.63660
   247  N   5.0   -0.14    3.45    2.05    35.32824    83.92172    21.19586
   248  C   4.0    0.04    4.31    4.22    36.39264    86.46957    21.41470
   249  C   4.0    0.08    3.21    3.04    34.75212    88.41209    20.01944
   250  O   6.0   -0.29    1.14    1.80    33.80394    87.96714    17.98309
   251  C   4.0   -0.03    4.30    4.20    38.99869    86.55814    20.23825
   252  C   4.0   -0.02    4.16    3.92    40.94293    84.86235    21.54997
   253  C   4.0    0.26    3.10    3.02    43.37975    84.85615    19.84449
   254  O   6.0   -0.26    1.16    1.80    43.18967    84.00856    17.67976
   255  O   6.0   -0.25    1.15    1.80    45.31851    85.84133    20.85805
   256  H   1.0    0.08    1.06    1.44    35.87110    82.89168    19.67832
   257  H   1.0    0.06    1.06    1.44    36.46113    86.93502    23.42938
   258  H   1.0    0.07    1.03    1.43    38.86890    85.97433    18.25584
   259  H   1.0    0.06    1.03    1.43    39.69104    88.51122    20.22985
   260  H   1.0    0.06    1.02    1.43    41.42052    85.58793    23.40807
   261  H   1.0    0.06    1.02    1.43    40.26498    82.93069    21.72195
   262  N   5.0   -0.18    3.18    1.95    15.79486    68.21310    21.62698
   263  C   4.0    0.03    4.17    3.95    17.74691    69.60091    23.28517
   264  C   4.0    0.09    3.21    3.04    16.98224    69.36612    26.02135
   265  O   6.0   -0.29    1.17    1.80    14.82390    68.93366    26.55565
   266  C   4.0   -0.05    4.33    4.25    17.80900    72.42328    22.56840
   267  C   4.0   -0.02    4.16    3.92    19.02773    72.98128    19.98586
   268  C   4.0   -0.07    4.14    3.88    17.57972    71.79800    17.83269
   269  C   4.0   -0.08    4.09    3.78    19.18356    75.90533    19.68070
   270  H   1.0    0.10    1.03    1.43    14.10082    69.03891    21.69306
   271  H   1.0    0.05    1.02    1.43    19.60695    68.67167    22.95841
   272  H   1.0    0.04    1.03    1.43    15.87195    73.12477    22.60075
   273  H   1.0    0.04    1.03    1.43    18.82855    73.39670    24.06235
   274  H   1.0    0.05    1.06    1.44    20.92582    72.20252    20.01087
   275  H   1.0    0.04    0.99    1.43    18.27300    72.52325    16.00965
   276  H   1.0    0.04    1.02    1.43    17.80586    69.77526    17.79491
   277  H   1.0    0.04    1.00    1.43    15.57793    72.24556    17.96305
   278  H   1.0    0.04    1.01    1.43    20.01335    76.33970    17.88324
   279  H   1.0    0.03    1.00    1.43    17.30540    76.72512    19.82849
   280  H   1.0    0.03    1.00    1.43    20.35476    76.70359    21.15923
   281  N   5.0   -0.19    3.22    1.96    17.96197    73.80817    33.12763
   282  C   4.0    0.03    4.18    3.96    18.57579    76.29028    34.10776
   283  C   4.0    0.08    3.22    3.04    18.82747    76.05002    37.06401
   284  O   6.0   -0.27    1.10    1.80    17.15935    74.88818    38.33331
   285  C   4.0   -0.05    4.35    4.28    16.41489    78.11523    33.54946
   286  C   4.0   -0.02    4.19    3.98    16.62992    80.68943    34.98058
   287  C   4.0   -0.07    4.11    3.83    18.49708    82.40667    33.64491
   288  C   4.0   -0.07    4.11    3.83    14.08223    81.93498    35.14352
   289  H   1.0    0.10    1.02    1.43    16.55396    72.78095    33.94871
   290  H   1.0    0.05    1.06    1.44    20.35942    76.88965    33.34014
   291  H   1.0    0.03    1.04    1.43    16.29230    78.41843    31.55825
   292  H   1.0    0.05    1.02    1.43    14.62859    77.20868    34.13935
   293  H   1.0    0.05    1.06    1.44    17.25662    80.26530    36.91523
   294  H   1.0    0.04    1.01    1.43    18.86964    84.01300    34.85737
   295  H   1.0    0.05    1.00    1.43    20.28823    81.44044    33.29575
   296  H   1.0    0.04    1.00    1.43    17.76781    83.07950    31.86385
   297  H   1.0    0.04    1.00    1.43    14.25770    83.83772    35.94270
   298  H   1.0    0.04    1.00    1.43    13.25136    82.11655    33.26763
   299  H   1.0    0.05    1.00    1.43    12.75607    80.86689    36.29377
   300  O   6.0   -0.33    2.04    1.83    30.00096    84.52043    28.91831
   301  H   1.0    0.14    0.97    1.43    31.16196    84.14335    30.25951
   302  H   1.0    0.16    1.02    1.43    30.87089    84.27932    27.35781
   303  N   5.0   -0.19    3.23    1.96     8.31329    72.41798    23.81419
   304  C   4.0    0.04    4.31    4.21    10.13525    72.96456    25.85975
   305  C   4.0    0.09    3.27    3.05     9.06764    72.01226    28.30037
   306  O   6.0   -0.27    1.14    1.80     7.03285    72.75544    29.07375
   307  C   4.0   -0.02    4.27    4.14    10.60307    75.80635    26.10628
   308  C   4.0   -0.08    4.11    3.82    12.75212    76.29095    27.99540
   309  C   4.0   -0.08    4.10    3.81    11.30469    76.97147    23.48719
   310  H   1.0    0.10    1.02    1.43     6.49250    72.87675    24.12916
   311  H   1.0    0.06    1.05    1.44    11.90112    71.95805    25.37665
   312  H   1.0    0.06    1.06    1.44     8.89187    76.71422    26.76287
   313  H   1.0    0.03    1.00    1.43    13.01195    78.30404    28.22650
   314  H   1.0    0.05    1.00    1.43    12.30128    75.40218    29.78770
   315  H   1.0    0.04    1.00    1.43    14.49960    75.46292    27.30816
   316  H   1.0    0.04    1.00    1.43    11.67945    78.97785    23.73091
   317  H   1.0    0.03    1.00    1.43    12.96750    76.06722    22.73422
   318  H   1.0    0.04    1.00    1.43     9.76966    76.73369    22.16314
   319  H   1.0    0.09    1.08    1.44     8.76129    73.27018    22.41219
   320  H   1.0    0.07    1.05    1.44    10.02898    70.74617    29.32209
   321  H   1.0    0.10    1.09    1.44    27.73645    70.12107    44.74401
   322  H   1.0    0.06    1.03    1.43    32.98020    67.46020    43.01791
   323  H   1.0    0.10    1.07    1.44    28.50462    64.93568    34.87736
   324  H   1.0    0.06    1.05    1.44    31.52093    59.05127    34.79249
   325  H   1.0    0.09    1.07    1.44    24.96685    88.92161    13.53235
   326  H   1.0    0.06    1.04    1.44    25.26000    92.74028    18.73573
   327  H   1.0    0.10    1.08    1.44    16.66730    92.67006    16.04550
   328  H   1.0    0.07    1.05    1.44    15.20282    95.43446    24.34887
   329  H   1.0    0.10    1.06    1.44     7.99383    90.84170    23.84283
   330  H   1.0    0.07    1.05    1.44     8.56017    93.70427    29.51444
   331  H   1.0    0.09    1.08    1.44    21.48953    90.55438    39.02462
   332  H   1.0    0.06    1.04    1.43    27.23945    70.25669    24.57875
   333  H   1.0    0.09    1.08    1.44    36.56929    66.26026    24.56337
   334  H   1.0    0.06    1.05    1.44    34.43644    90.10892    20.78895
   335  H   1.0    0.09    1.08    1.44    16.32256    68.21098    20.01017
   336  H   1.0    0.06    1.05    1.44    18.27476    69.57118    27.38458
   337  H   1.0    0.09    1.08    1.44    17.48452    73.94233    31.50079
   338  H   1.0    0.06    1.04    1.43    20.30949    76.81622    37.95149

  Z AO/shell   Hii/eV     exponent
  1     Wed Apr 25 08:07:45 CEST 2018   EN: 2.200 GM2: 0.406  GM3: 0.0800  RAES: 1.40
     1s    -10.707211    1.230000
  6     Wed Apr 25 08:07:45 CEST 2018   EN: 2.550 GM2: 0.538  GM3: 0.1500  RAES: 3.00
     2s    -13.970922    2.096432
     2p    -10.063292    1.800000
  7     Wed Apr 25 08:07:45 CEST 2018   EN: 3.040 GM2: 0.461  GM3:-0.0640  RAES: 1.90
     2s    -16.686243    2.339881
     2p    -12.523956    2.014332
  8     Wed Apr 25 08:07:45 CEST 2018   EN: 3.440 GM2: 0.452  GM3:-0.0517  RAES: 1.80
     2s    -20.229985    2.439742
     2p    -15.503117    2.137023
 16     Tue Apr 24 11:44:34 CEST 2018   EN: 2.580 GM2: 0.340  GM3:-0.0502  RAES: 3.10
     3s    -20.029654    1.981333
     3p    -11.377694    2.025643
     3d     -0.420282    1.702555
 no old-style atom pair restraining (fixing) potential

molecular fragmentation (1/2 indicates fragments):
111111111111111111122222222222222222222222222222222222222222222222222222
222222222222222222222222222222222222222222222222222222222222222222222222
222222222222222222222222222222222222222222222222222222222222222222222222
222222222222222222222222222222222222222222222222222222222222222222222222
22222222222222222222222222222222112222222222222222
# atoms in fragment 1/2:    21   317
 fragment masses (1/2) :      115.17     1941.63
CMA distance (Bohr)    :  17.811
constraining FC (au)   :  0.0500
           ------------------------------------------------- 
          |        Self-Consistent Charge Iterations        |
           ------------------------------------------------- 

 Ncao       : 770
 Nao        : 769
 Nshell     : 481
 Nel        : 832
 T(el)      :   500.0
 intcut     :    35.0
 scfconv/Eh :  0.100E-06
   qconv/e  :  0.100E-04
 intneglect :  0.100E-08
 broydamp   :      0.400
 iter      E             dE          RMSdq      gap      omega  full diag
   1   -469.4764076 -0.469476E+03  0.431E+00    1.73       0.0  T
   2   -470.1776928 -0.701285E+00  0.218E+00    0.15       1.0  T
   3   -470.2695463 -0.918535E-01  0.171E+00    1.13       1.0  T
   4   -470.7775393 -0.507993E+00  0.704E-01    1.12       1.0  T
   5   -470.7985265 -0.209872E-01  0.426E-01    1.49       1.0  T
   6   -470.8290958 -0.305693E-01  0.203E-01    0.65       1.0  T
   7   -470.8347910 -0.569517E-02  0.913E-02    0.44       1.0  T
   8   -470.8356324 -0.841388E-03  0.483E-02    0.50       1.0  T
   9   -470.8360592 -0.426844E-03  0.262E-02    0.43       1.0  T
  10   -470.8362184 -0.159215E-03  0.110E-02    0.50       1.0  T
  11   -470.8362296 -0.111498E-04  0.632E-03    0.45       1.0  T
  12   -470.8362381 -0.846682E-05  0.227E-03    0.48       2.4  T
  13   -470.8362393 -0.125281E-05  0.808E-04    0.47       6.7  T
  14   -470.8362393  0.368236E-07  0.622E-04    0.47       8.7  T
  15   -470.8362394 -0.894553E-07  0.247E-04    0.47      22.1  T
  16   -470.8362394 -0.161225E-07  0.689E-05    0.47      79.0  T
  17   -470.8362394  0.107320E-09  0.495E-05    0.47     109.8  T
speedup  1.56
cpu  time for SCC   14.69 s
wall time for SCC    9.42 s

   *** convergence criteria satisfied after 17 iterations ***

          eigenvalues
 #    :         404        405        406        407        408        409        410        411
 occ. :        2.000      2.000      2.000      2.000      2.000      2.000      2.000      2.000
 eps  :       -10.269    -10.266    -10.260    -10.026     -9.975     -9.947     -9.857     -9.826
 #    :         412        413        414        415        416        417        418        419
 occ. :        2.000      2.000      2.000      2.000      1.992      0.009      0.000      0.000
 eps  :        -9.790     -9.752     -9.681     -9.661     -9.536     -9.065     -8.122     -7.951
 #    :         420        421        422        423        424        425        426        427
 occ. :        0.000      0.000      0.000      0.000      0.000      0.000      0.000      0.000
 eps  :        -7.927     -7.679     -7.644     -7.634     -7.337     -7.315     -7.242     -6.512


   #   Z            q   n(s)   n(p)   n(d)      C6AA      α(0)
   1   7 N     -0.355  1.321  4.034  0.000    29.149     8.019
   2   6 C      0.069  1.038  2.892  0.000    19.447     6.283
   3   6 C      0.123  1.179  2.698  0.000    25.272     8.231
   4   8 O     -0.540  1.910  4.630  0.000    24.752     6.668
   5   6 C     -0.030  1.085  2.945  0.000    21.071     6.529
   6   6 C     -0.063  1.050  3.013  0.000    21.706     6.633
   7   6 C     -0.122  1.038  3.084  0.000    22.893     6.823
   8   6 C     -0.126  1.038  3.088  0.000    22.980     6.836
   9   1 H      0.177  0.823  0.000  0.000     1.233     1.741
  10   1 H      0.065  0.935  0.000  0.000     2.145     2.290
  11   1 H      0.061  0.939  0.000  0.000     2.190     2.314
  12   1 H      0.038  0.962  0.000  0.000     2.480     2.463
  13   1 H      0.048  0.952  0.000  0.000     2.339     2.392
  14   1 H      0.068  0.932  0.000  0.000     2.107     2.270
  15   1 H      0.038  0.962  0.000  0.000     2.469     2.457
  16   1 H      0.053  0.947  0.000  0.000     2.278     2.360
  17   1 H      0.064  0.936  0.000  0.000     2.155     2.296
  18   1 H      0.050  0.950  0.000  0.000     2.316     2.380
  19   1 H      0.057  0.943  0.000  0.000     2.239     2.340
  20   7 N     -0.416  1.335  4.080  0.000    30.809     8.244
  21   6 C      0.039  1.058  2.902  0.000    19.920     6.356
  22   6 C      0.213  1.083  2.704  0.000    23.483     7.936
  23   8 O     -0.379  1.743  4.636  0.000    21.261     6.182
  24   6 C     -0.018  1.064  2.954  0.000    20.858     6.495
  25   6 C     -0.057  1.051  3.006  0.000    21.599     6.616
  26   6 C     -0.115  1.039  3.076  0.000    22.756     6.802
  27   6 C     -0.107  1.038  3.069  0.000    22.610     6.781
  28   1 H      0.218  0.782  0.000  0.000     1.018     1.581
  29   1 H      0.037  0.963  0.000  0.000     2.491     2.468
  30   1 H      0.055  0.945  0.000  0.000     2.257     2.350
  31   1 H      0.032  0.968  0.000  0.000     2.564     2.504
  32   1 H      0.050  0.950  0.000  0.000     2.325     2.384
  33   1 H      0.055  0.945  0.000  0.000     2.255     2.348
  34   1 H      0.028  0.972  0.000  0.000     2.612     2.527
  35   1 H      0.027  0.973  0.000  0.000     2.624     2.533
  36   1 H      0.043  0.957  0.000  0.000     2.403     2.424
  37   1 H      0.039  0.961  0.000  0.000     2.469     2.457
  38   1 H      0.038  0.962  0.000  0.000     2.476     2.461
  39   7 N     -0.388  1.306  4.082  0.000    30.052     8.142
  40   6 C      0.032  1.063  2.905  0.000    20.047     6.378
  41   6 C      0.195  1.095  2.711  0.000    23.844     7.997
  42   8 O     -0.356  1.736  4.620  0.000    20.824     6.118
  43   6 C     -0.022  1.066  2.956  0.000    20.933     6.508
  44   6 C     -0.056  1.048  3.007  0.000    21.572     6.613
  45   6 C     -0.123  1.039  3.084  0.000    22.908     6.824
  46   6 C     -0.111  1.036  3.075  0.000    22.693     6.794
  47   1 H      0.155  0.845  0.000  0.000     1.364     1.830
  48   1 H      0.056  0.944  0.000  0.000     2.252     2.347
  49   1 H      0.043  0.957  0.000  0.000     2.409     2.427
  50   1 H      0.014  0.986  0.000  0.000     2.820     2.626
  51   1 H      0.042  0.958  0.000  0.000     2.418     2.432
  52   1 H      0.053  0.947  0.000  0.000     2.279     2.361
  53   1 H      0.049  0.951  0.000  0.000     2.330     2.387
  54   1 H      0.063  0.937  0.000  0.000     2.170     2.304
  55   1 H      0.027  0.973  0.000  0.000     2.634     2.538
  56   1 H      0.060  0.940  0.000  0.000     2.202     2.321
  57   1 H      0.038  0.962  0.000  0.000     2.476     2.461
  58   7 N     -0.385  1.305  4.080  0.000    29.970     8.131
  59   6 C      0.034  1.062  2.904  0.000    20.014     6.372
  60   6 C      0.260  1.056  2.683  0.000    22.613     7.787
  61   8 O     -0.538  1.762  4.776  0.000    24.641     6.655
  62   6 C     -0.021  1.063  2.958  0.000    20.917     6.505
  63   6 C     -0.117  1.043  3.074  0.000    22.788     6.807
  64   6 C     -0.103  1.036  3.067  0.000    22.514     6.764
  65   1 H      0.155  0.845  0.000  0.000     1.369     1.833
  66   1 H      0.022  0.978  0.000  0.000     2.710     2.574
  67   1 H      0.059  0.941  0.000  0.000     2.215     2.328
  68   1 H      0.055  0.945  0.000  0.000     2.262     2.352
  69   1 H      0.042  0.958  0.000  0.000     2.423     2.434
  70   1 H      0.031  0.969  0.000  0.000     2.570     2.507
  71   1 H      0.044  0.956  0.000  0.000     2.400     2.423
  72   1 H      0.032  0.968  0.000  0.000     2.562     2.503
  73   1 H      0.028  0.972  0.000  0.000     2.615     2.529
  74   7 N     -0.155  1.244  3.911  0.000    24.348     7.328
  75   6 C      0.020  1.061  2.919  0.000    20.240     6.405
  76   6 C      0.215  1.078  2.708  0.000    23.463     7.933
  77   8 O     -0.349  1.728  4.621  0.000    20.694     6.099
  78   6 C     -0.073  1.052  3.021  0.000    21.882     6.659
  79   6 C     -0.080  1.051  3.030  0.000    22.031     6.682
  80   6 C     -0.091  1.055  3.036  0.000    22.235     6.713
  81   6 C     -0.054  1.063  2.991  0.000    21.649     6.642
  82   7 N     -0.159  1.241  3.918  0.000    24.437     7.342
  83   1 H      0.248  0.752  0.000  0.000     0.891     1.479
  84   1 H      0.097  0.903  0.000  0.000     1.813     2.106
  85   1 H      0.062  0.938  0.000  0.000     2.179     2.309
  86   1 H      0.065  0.935  0.000  0.000     2.136     2.286
  87   1 H      0.078  0.922  0.000  0.000     1.999     2.211
  88   1 H      0.065  0.935  0.000  0.000     2.143     2.289
  89   1 H      0.071  0.929  0.000  0.000     2.074     2.252
  90   1 H      0.071  0.929  0.000  0.000     2.073     2.252
  91   1 H      0.115  0.885  0.000  0.000     1.658     2.014
  92   1 H      0.110  0.890  0.000  0.000     1.698     2.038
  93   1 H      0.302  0.698  0.000  0.000     0.708     1.319
  94   1 H      0.287  0.713  0.000  0.000     0.755     1.361
  95   1 H      0.292  0.708  0.000  0.000     0.737     1.345
  96   7 N     -0.411  1.327  4.085  0.000    30.696     8.228
  97   6 C      0.042  1.058  2.900  0.000    19.879     6.350
  98   6 C      0.205  1.091  2.705  0.000    23.650     7.965
  99   8 O     -0.405  1.769  4.636  0.000    21.787     6.258
 100   6 C     -0.009  1.061  2.949  0.000    20.704     6.471
 101   6 C     -0.054  1.049  3.005  0.000    21.539     6.607
 102   6 C     -0.111  1.038  3.072  0.000    22.669     6.789
 103   6 C     -0.102  1.036  3.066  0.000    22.508     6.766
 104   1 H      0.182  0.818  0.000  0.000     1.205     1.720
 105   1 H      0.043  0.957  0.000  0.000     2.404     2.425
 106   1 H      0.056  0.944  0.000  0.000     2.241     2.341
 107   1 H      0.020  0.980  0.000  0.000     2.736     2.586
 108   1 H      0.036  0.964  0.000  0.000     2.499     2.472
 109   1 H      0.058  0.942  0.000  0.000     2.228     2.334
 110   1 H      0.025  0.975  0.000  0.000     2.660     2.550
 111   1 H      0.035  0.965  0.000  0.000     2.512     2.479
 112   1 H      0.035  0.965  0.000  0.000     2.517     2.481
 113   1 H      0.061  0.939  0.000  0.000     2.193     2.316
 114   1 H      0.033  0.967  0.000  0.000     2.550     2.497
 115   7 N     -0.392  1.292  4.100  0.000    30.141     8.154
 116   6 C      0.034  1.056  2.910  0.000    20.012     6.371
 117   6 C      0.256  1.052  2.692  0.000    22.694     7.802
 118   8 O     -0.487  1.744  4.743  0.000    23.500     6.499
 119   6 C     -0.071  1.057  3.014  0.000    21.842     6.651
 120   6 C     -0.088  1.054  3.034  0.000    22.182     6.705
 121   6 C      0.271  1.053  2.676  0.000    22.429     7.755
 122   8 O     -0.507  1.772  4.736  0.000    23.950     6.561
 123   7 N     -0.273  1.270  4.002  0.000    27.054     7.725
 124   1 H      0.178  0.822  0.000  0.000     1.228     1.736
 125   1 H      0.032  0.968  0.000  0.000     2.555     2.500
 126   1 H      0.068  0.932  0.000  0.000     2.105     2.269
 127   1 H      0.071  0.929  0.000  0.000     2.078     2.254
 128   1 H      0.063  0.937  0.000  0.000     2.159     2.298
 129   1 H      0.054  0.946  0.000  0.000     2.273     2.358
 130   1 H      0.214  0.786  0.000  0.000     1.038     1.596
 131   1 H      0.215  0.785  0.000  0.000     1.034     1.593
 132   7 N     -0.163  1.250  3.913  0.000    24.522     7.355
 133   6 C     -0.002  1.080  2.923  0.000    20.630     6.468
 134   6 C      0.267  1.048  2.685  0.000    22.494     7.767
 135   8 O     -0.488  1.755  4.733  0.000    23.528     6.503
 136   6 C     -0.082  1.060  3.022  0.000    22.063     6.689
 137   6 C     -0.087  1.061  3.026  0.000    22.161     6.702
 138   6 C     -0.017  1.041  2.975  0.000    20.962     6.535
 139   7 N     -0.180  1.222  3.958  0.000    24.889     7.410
 140   6 C      0.230  1.015  2.755  0.000    23.167     7.880
 141   7 N     -0.215  1.219  3.997  0.000    25.701     7.529
 142   7 N     -0.233  1.240  3.994  0.000    26.117     7.590
 143   1 H      0.199  0.801  0.000  0.000     1.112     1.651
 144   1 H      0.105  0.895  0.000  0.000     1.740     2.063
 145   1 H      0.065  0.935  0.000  0.000     2.141     2.288
 146   1 H      0.079  0.921  0.000  0.000     1.992     2.207
 147   1 H      0.076  0.924  0.000  0.000     2.022     2.224
 148   1 H      0.062  0.938  0.000  0.000     2.175     2.306
 149   1 H      0.079  0.921  0.000  0.000     1.991     2.207
 150   1 H      0.070  0.930  0.000  0.000     2.085     2.258
 151   1 H      0.206  0.794  0.000  0.000     1.074     1.623
 152   1 H      0.255  0.745  0.000  0.000     0.863     1.456
 153   1 H      0.256  0.744  0.000  0.000     0.860     1.453
 154   1 H      0.256  0.744  0.000  0.000     0.860     1.453
 155   1 H      0.258  0.742  0.000  0.000     0.853     1.447
 156   7 N     -0.201  1.276  3.925  0.000    25.365     7.480
 157   6 C      0.012  1.070  2.919  0.000    20.386     6.430
 158   6 C      0.275  1.036  2.689  0.000    22.346     7.741
 159   8 O     -0.481  1.724  4.757  0.000    23.370     6.482
 160   6 C     -0.079  1.051  3.028  0.000    21.991     6.675
 161   6 C     -0.026  1.069  2.957  0.000    21.002     6.519
 162   6 C     -0.129  1.046  3.083  0.000    23.041     6.845
 163   6 C     -0.118  1.039  3.079  0.000    22.825     6.813
 164   1 H      0.238  0.762  0.000  0.000     0.930     1.511
 165   1 H      0.074  0.926  0.000  0.000     2.040     2.234
 166   1 H      0.085  0.915  0.000  0.000     1.931     2.173
 167   1 H      0.046  0.954  0.000  0.000     2.367     2.406
 168   1 H      0.057  0.943  0.000  0.000     2.231     2.336
 169   1 H      0.044  0.956  0.000  0.000     2.391     2.418
 170   1 H      0.053  0.947  0.000  0.000     2.277     2.360
 171   1 H      0.045  0.955  0.000  0.000     2.384     2.415
 172   1 H      0.045  0.955  0.000  0.000     2.384     2.414
 173   1 H      0.037  0.963  0.000  0.000     2.494     2.470
 174   1 H      0.030  0.970  0.000  0.000     2.592     2.518
 175   7 N     -0.158  1.242  3.916  0.000    24.421     7.340
 176   6 C      0.020  1.067  2.913  0.000    20.239     6.406
 177   6 C      0.198  1.091  2.711  0.000    23.780     7.986
 178   8 O     -0.376  1.766  4.609  0.000    21.203     6.174
 179   6 C     -0.013  1.065  2.948  0.000    20.774     6.482
 180   6 C     -0.061  1.049  3.011  0.000    21.662     6.626
 181   6 C     -0.111  1.037  3.074  0.000    22.683     6.792
 182   6 C     -0.109  1.039  3.071  0.000    22.652     6.788
 183   1 H      0.203  0.797  0.000  0.000     1.093     1.637
 184   1 H      0.104  0.896  0.000  0.000     1.751     2.070
 185   1 H      0.052  0.948  0.000  0.000     2.293     2.368
 186   1 H      0.044  0.956  0.000  0.000     2.393     2.419
 187   1 H      0.047  0.953  0.000  0.000     2.357     2.401
 188   1 H      0.056  0.944  0.000  0.000     2.248     2.345
 189   1 H      0.021  0.979  0.000  0.000     2.721     2.580
 190   1 H      0.053  0.947  0.000  0.000     2.288     2.365
 191   1 H      0.048  0.952  0.000  0.000     2.340     2.392
 192   1 H      0.041  0.959  0.000  0.000     2.430     2.438
 193   1 H      0.039  0.961  0.000  0.000     2.461     2.453
 194   7 N     -0.376  1.296  4.080  0.000    29.715     8.096
 195   6 C      0.031  1.059  2.910  0.000    20.069     6.381
 196   6 C      0.263  1.054  2.682  0.000    22.564     7.780
 197   8 O     -0.487  1.751  4.736  0.000    23.500     6.499
 198   6 C     -0.058  1.058  3.000  0.000    21.575     6.607
 199   6 C     -0.007  1.068  2.939  0.000    20.704     6.480
 200  16 S     -0.251  1.931  4.269  0.051   151.823    20.738
 201   6 C     -0.057  1.056  3.001  0.000    21.674     6.642
 202   1 H      0.169  0.831  0.000  0.000     1.279     1.771
 203   1 H      0.049  0.951  0.000  0.000     2.328     2.386
 204   1 H      0.040  0.960  0.000  0.000     2.446     2.446
 205   1 H      0.034  0.966  0.000  0.000     2.534     2.489
 206   1 H      0.055  0.945  0.000  0.000     2.259     2.351
 207   1 H      0.055  0.945  0.000  0.000     2.261     2.351
 208   1 H      0.071  0.929  0.000  0.000     2.073     2.251
 209   1 H      0.061  0.939  0.000  0.000     2.192     2.315
 210   1 H      0.055  0.945  0.000  0.000     2.257     2.350
 211   7 N     -0.175  1.260  3.915  0.000    24.788     7.394
 212   6 C      0.017  1.061  2.923  0.000    20.299     6.415
 213   6 C      0.276  1.040  2.684  0.000    22.336     7.740
 214   8 O     -0.514  1.761  4.752  0.000    24.088     6.580
 215   6 C     -0.064  1.049  3.014  0.000    21.706     6.631
 216   6 C     -0.101  1.061  3.040  0.000    22.418     6.741
 217   6 C      0.276  1.047  2.678  0.000    22.336     7.738
 218   8 O     -0.477  1.746  4.731  0.000    23.273     6.468
 219   7 N     -0.279  1.264  4.015  0.000    27.210     7.747
 220   1 H      0.198  0.802  0.000  0.000     1.118     1.656
 221   1 H      0.097  0.903  0.000  0.000     1.813     2.105
 222   1 H      0.052  0.948  0.000  0.000     2.290     2.366
 223   1 H      0.080  0.920  0.000  0.000     1.983     2.202
 224   1 H      0.082  0.918  0.000  0.000     1.961     2.190
 225   1 H      0.055  0.945  0.000  0.000     2.264     2.353
 226   1 H      0.222  0.778  0.000  0.000     1.002     1.568
 227   1 H      0.238  0.762  0.000  0.000     0.930     1.511
 228   7 N     -0.197  1.256  3.941  0.000    25.284     7.468
 229   6 C      0.022  1.067  2.912  0.000    20.219     6.403
 230   6 C      0.264  1.048  2.688  0.000    22.554     7.777
 231   8 O     -0.466  1.722  4.745  0.000    23.052     6.437
 232   6 C     -0.078  1.057  3.021  0.000    21.974     6.672
 233   6 C     -0.015  1.060  2.956  0.000    20.815     6.489
 234   6 C     -0.114  1.042  3.073  0.000    22.738     6.799
 235   6 C     -0.108  1.037  3.071  0.000    22.621     6.782
 236   1 H      0.248  0.752  0.000  0.000     0.890     1.478
 237   1 H      0.055  0.945  0.000  0.000     2.253     2.347
 238   1 H      0.078  0.922  0.000  0.000     2.003     2.213
 239   1 H      0.060  0.940  0.000  0.000     2.201     2.320
 240   1 H      0.043  0.957  0.000  0.000     2.404     2.424
 241   1 H      0.033  0.967  0.000  0.000     2.545     2.495
 242   1 H      0.051  0.949  0.000  0.000     2.311     2.377
 243   1 H      0.046  0.954  0.000  0.000     2.366     2.406
 244   1 H      0.034  0.966  0.000  0.000     2.535     2.490
 245   1 H      0.045  0.955  0.000  0.000     2.383     2.414
 246   1 H      0.018  0.982  0.000  0.000     2.769     2.602
 247   7 N     -0.149  1.237  3.912  0.000    24.215     7.308
 248   6 C      0.022  1.063  2.915  0.000    20.214     6.403
 249   6 C      0.196  1.084  2.720  0.000    23.820     7.993
 250   8 O     -0.349  1.747  4.602  0.000    20.690     6.099
 251   6 C     -0.044  1.049  2.995  0.000    21.348     6.576
 252   6 C     -0.094  1.069  3.026  0.000    22.304     6.725
 253   6 C      0.370  1.027  2.602  0.000    20.723     7.450
 254   8 O     -0.632  1.771  4.861  0.000    26.914     6.955
 255   8 O     -0.667  1.788  4.879  0.000    27.829     7.073
 256   1 H      0.193  0.807  0.000  0.000     1.144     1.675
 257   1 H      0.105  0.895  0.000  0.000     1.741     2.064
 258   1 H      0.043  0.957  0.000  0.000     2.410     2.428
 259   1 H      0.040  0.960  0.000  0.000     2.443     2.444
 260   1 H      0.034  0.966  0.000  0.000     2.524     2.484
 261   1 H      0.025  0.975  0.000  0.000     2.655     2.548
 262   7 N     -0.408  1.351  4.057  0.000    30.594     8.215
 263   6 C      0.025  1.075  2.899  0.000    20.178     6.401
 264   6 C      0.208  1.075  2.717  0.000    23.596     7.955
 265   8 O     -0.364  1.742  4.622  0.000    20.984     6.142
 266   6 C     -0.061  1.059  3.002  0.000    21.663     6.625
 267   6 C     -0.010  1.058  2.953  0.000    20.729     6.476
 268   6 C     -0.109  1.037  3.072  0.000    22.641     6.785
 269   6 C     -0.119  1.044  3.076  0.000    22.845     6.815
 270   1 H      0.157  0.843  0.000  0.000     1.354     1.823
 271   1 H      0.061  0.939  0.000  0.000     2.183     2.311
 272   1 H      0.042  0.958  0.000  0.000     2.423     2.434
 273   1 H      0.048  0.952  0.000  0.000     2.350     2.397
 274   1 H      0.036  0.964  0.000  0.000     2.506     2.476
 275   1 H      0.037  0.963  0.000  0.000     2.485     2.465
 276   1 H      0.036  0.964  0.000  0.000     2.508     2.477
 277   1 H      0.039  0.961  0.000  0.000     2.456     2.451
 278   1 H      0.048  0.952  0.000  0.000     2.341     2.393
 279   1 H      0.046  0.954  0.000  0.000     2.376     2.411
 280   1 H      0.047  0.953  0.000  0.000     2.361     2.403
 281   7 N     -0.378  1.307  4.071  0.000    29.756     8.102
 282   6 C      0.042  1.059  2.899  0.000    19.894     6.354
 283   6 C      0.194  1.106  2.699  0.000    23.848     7.997
 284   8 O     -0.401  1.787  4.614  0.000    21.697     6.245
 285   6 C     -0.073  1.062  3.011  0.000    21.890     6.660
 286   6 C     -0.008  1.057  2.951  0.000    20.694     6.471
 287   6 C     -0.124  1.040  3.084  0.000    22.931     6.827
 288   6 C     -0.103  1.038  3.065  0.000    22.519     6.765
 289   1 H      0.150  0.850  0.000  0.000     1.402     1.855
 290   1 H      0.077  0.923  0.000  0.000     2.007     2.215
 291   1 H      0.058  0.942  0.000  0.000     2.225     2.333
 292   1 H      0.028  0.972  0.000  0.000     2.614     2.528
 293   1 H      0.020  0.980  0.000  0.000     2.737     2.587
 294   1 H      0.049  0.951  0.000  0.000     2.329     2.386
 295   1 H      0.049  0.951  0.000  0.000     2.338     2.391
 296   1 H      0.061  0.939  0.000  0.000     2.185     2.312
 297   1 H      0.038  0.962  0.000  0.000     2.469     2.457
 298   1 H      0.035  0.965  0.000  0.000     2.514     2.480
 299   1 H      0.023  0.977  0.000  0.000     2.685     2.562
 300   8 O     -0.600  1.721  4.880  0.000    25.194     6.775
 301   1 H      0.320  0.680  0.000  0.000     0.663     1.279
 302   1 H      0.328  0.672  0.000  0.000     0.642     1.258
 303   7 N     -0.394  1.328  4.066  0.000    30.203     8.162
 304   6 C      0.035  1.059  2.906  0.000    20.000     6.370
 305   6 C      0.215  1.079  2.707  0.000    23.464     7.934
 306   8 O     -0.383  1.753  4.630  0.000    21.354     6.196
 307   6 C     -0.018  1.065  2.952  0.000    20.852     6.495
 308   6 C     -0.113  1.039  3.074  0.000    22.722     6.797
 309   6 C     -0.114  1.041  3.073  0.000    22.742     6.801
 310   1 H      0.154  0.846  0.000  0.000     1.377     1.838
 311   1 H      0.059  0.941  0.000  0.000     2.212     2.326
 312   1 H      0.039  0.961  0.000  0.000     2.466     2.456
 313   1 H      0.061  0.939  0.000  0.000     2.188     2.313
 314   1 H      0.027  0.973  0.000  0.000     2.629     2.536
 315   1 H      0.047  0.953  0.000  0.000     2.357     2.401
 316   1 H      0.055  0.945  0.000  0.000     2.260     2.351
 317   1 H      0.046  0.954  0.000  0.000     2.366     2.405
 318   1 H      0.037  0.963  0.000  0.000     2.491     2.468
 319   1 H      0.188  0.812  0.000  0.000     1.171     1.695
 320   1 H      0.059  0.941  0.000  0.000     2.206     2.323
 321   1 H      0.197  0.803  0.000  0.000     1.122     1.659
 322   1 H      0.117  0.883  0.000  0.000     1.638     2.002
 323   1 H      0.167  0.833  0.000  0.000     1.290     1.779
 324   1 H      0.055  0.945  0.000  0.000     2.253     2.347
 325   1 H      0.173  0.827  0.000  0.000     1.254     1.754
 326   1 H      0.075  0.925  0.000  0.000     2.030     2.228
 327   1 H      0.172  0.828  0.000  0.000     1.258     1.757
 328   1 H      0.058  0.942  0.000  0.000     2.219     2.329
 329   1 H      0.168  0.832  0.000  0.000     1.287     1.777
 330   1 H      0.078  0.922  0.000  0.000     2.003     2.213
 331   1 H      0.173  0.827  0.000  0.000     1.252     1.753
 332   1 H      0.074  0.926  0.000  0.000     2.037     2.232
 333   1 H      0.174  0.826  0.000  0.000     1.247     1.749
 334   1 H      0.095  0.905  0.000  0.000     1.831     2.116
 335   1 H      0.182  0.818  0.000  0.000     1.200     1.716
 336   1 H      0.061  0.939  0.000  0.000     2.183     2.310
 337   1 H      0.171  0.829  0.000  0.000     1.266     1.762
 338   1 H      0.086  0.914  0.000  0.000     1.921     2.167

 Mol. C6AA /au·bohr⁶  :     925377.883506
 Mol. C8AA /au·bohr⁸  :   20188887.476193
 Mol. α(0) /au        :       1435.337225

 
molecular dipole:
                 x           y           z       tot (Debye)
 q only:       28.161      92.308      53.606
   full:       28.368      91.870      52.010     277.859
molecular quadrupole (traceless):
                xx          xy          yy          xz          yz          zz
 q only:    -5029.250    3792.692    6891.243    2714.295    7100.148   -1861.993
  q+dip:    -4923.264    3778.193    6823.223    2655.719    6889.302   -1899.960
   full:    -4923.656    3779.125    6822.917    2657.898    6888.182   -1899.261
speedup  1.53
cpu  time for grad   19.16 s
wall time for grad   12.50 s

SCC energy    :    -470.8545649
rep           :       6.0587653
ES            :       1.2837733
AES           :      -0.0194281
AXC           :       0.2118492
disp          :      -0.3819478
XB            :       0.0000000
fix           :       0.0000000
Gborn         :       0.0000000
Gsasa         :       0.0000000
Ghb           :       0.0000000
Gshift        :       0.0000000
Gsolv         :      -0.3814831     -239.38
Etot ala COSMO:    -470.8545649
grad norm     :       0.8561073
total E       :    -464.7606916
atomizationE  :      87.6439992    54997.44
(atE without considering molecular charge,
 total energy contains solvation terms)
H-L gap (eV)  :          0.4711

------------------------------------------------------------------------
 * finished run on 2019/05/03 at 23:04:32.260     
------------------------------------------------------------------------
 total:
 * wall-time:     0 d,  0 h,  0 min, 13.389 sec
 *  cpu-time:     0 d,  0 h,  0 min, 20.208 sec
 * ratio c/w:     1.509 speedup
 SCF:
 * wall-time:     0 d,  0 h,  0 min, 13.013 sec
 *  cpu-time:     0 d,  0 h,  0 min, 19.898 sec
 * ratio c/w:     1.529 speedup

