      -----------------------------------------------------------      
     |                   =====================                   |     
     |                           x T B                           |     
     |                   =====================                   |     
     |                         S. Grimme                         |     
     |          Mulliken Center for Theoretical Chemistry        |     
     |                    University of Bonn                     |     
     |                 Version 6.0.1 (SAW181210)                 |     
      -----------------------------------------------------------      

   This program is distributed in the hope that it will be useful,
   but WITHOUT ANY WARRANTY; without even the implied warranty of
   MERCHANTABILITY or FITNESS FOR A PARTICULAR PURPOSE.
   
   FOR NON-COMMERCIAL, ACADEMIA USE ONLY.
   
   Cite this work as:
   S. Grimme, C. Bannwarth, P. Shushkov, J. Comput. Theory Chem., 2017,
   13, 1989-2009.
   C. Bannwarth, S. Ehlert and S. Grimme., ChemRxiv, 2018, preprint.
   http://doi.org/10.26434/chemrxiv.7246238.v1
   
   for sTDA-xTB:
   S. Grimme and C. Bannwarth, J. Chem. Phys., 2016, 145, 054103.
   
   in the mass-spec context:
   V. Asgeirsson, C. Bauer and S. Grimme, Chem. Sci., 2017, 8, 4879.
   
   if GBSA is used:
   P. Shushkov, F. März and S. Grimme, unpublished.
   
   for ANC optimizer:
   S. Grimme, unpublished.
   Rational Function algorithm used in ANCopt:
   F. Eckert, P. Pulay, H.-J. Werner, J. Comput. Chem., 1997, 18, 1473.
   
   with help from (in alphabetical order)
   C. Bannwarth, F. Bohle, G. Brandenburg, E. Caldeweyher, M. Checinski,
   S. Dohm, S. Ehlert, S. Ehrlich, F. März, H. Neugebauer, J. Pisarek,
   P. Pracht, P. Shushkov, and S. Spicher.
   
 * started run on 2019/05/10 at 11:23:15.466     
========================================================================
 # omp threads = 2
========================================================================
number of atoms            : 155
number of electrons        : 412
charge                     : 1
spin                       : .0
first test random number   : .1873

########################################################################
# WARNING! Please study the warnings concerning your input carefully
#  - Process number higher than OMP_NUM_THREADS, I hope you know what you are doing.
########################################################################

           ------------------------------------------------- 
          |                 G F N 2 - x T B                 |
          | Geometry, Frequencies, Noncovalent interactions |
          |            JCTC 2018 parametrisation            |
           ------------------------------------------------- 
 
      method parameters     
 k(s)        :  1.8500
 k(p)        :  2.2300
 k(d)        :  2.2300
 k(f)        :  2.0000
 kEN (H0ij)  : -2.0000
 D4 a1       :  0.5200
 D4 a2       :  5.0000
 D4 s6       :  1.0000
 D4 s8       :  2.7000
 D4 s9       :  5.0000
 alphaj      :  2.0000

 Solvent             : h2o
 Using internal parameter file: .param_gbsa2_h2o
 Gsolv ref. state (COSMO-RS): gsolv [1 M gas/solution]
 temperature (mdtemp)       :    298.150000000000     
 dielectric constant        :    80.2000000000000     
 rho                        :    1.00000000000000     
 mass                       :    18.0000000000000     
 surface tension            :    15.5689454083859     
 probe radius               :   0.975313790000000     
 vdW radii scaling          :    1.00000000000000     
 Gshift (Eh)                :   1.857443126794793E-003
 c1                         :    1.55243817000000     
 soset                      :   0.130326360000000     
 HB correction              :  T

            Z     q(EN)     CN     RAES       Cart. coordinates
     1  N   5.0   -0.14    3.43    2.04   102.50160    93.23548   391.80069
     2  C   4.0    0.04    4.54    4.59   104.34055    92.30091   390.02564
     3  C   4.0    0.15    3.49    3.11   106.34724    90.69978   391.26996
     4  O   6.0   -0.28    1.23    1.80   106.96158    90.87706   393.48850
     5  C   4.0   -0.04    4.38    4.35   105.84877    94.57262   389.05084
     6  C   4.0   -0.04    4.25    4.11   104.91271    96.79075   390.58221
     7  C   4.0    0.01    4.27    4.14   103.23617    95.69253   392.66475
     8  H   1.0    0.06    1.05    1.44   103.41340    91.24029   388.51750
     9  H   1.0    0.05    1.04    1.43   107.86901    94.27415   389.29594
    10  H   1.0    0.05    1.02    1.43   105.49928    94.81862   387.03781
    11  H   1.0    0.04    1.02    1.43   106.44455    97.88634   391.40901
    12  H   1.0    0.05    1.03    1.43   103.81368    98.08100   389.41670
    13  H   1.0    0.06    1.02    1.43   104.28876    95.52349   394.43970
    14  H   1.0    0.05    1.02    1.43   101.61646    96.91471   393.03040
    15  N   5.0   -0.14    3.47    2.06   107.53466    89.17822   389.61182
    16  C   4.0    0.04    4.37    4.33   109.64386    87.61391   390.38000
    17  C   4.0    0.16    3.52    3.12   112.16252    89.05016   390.29455
    18  O   6.0   -0.31    1.30    1.80   112.51807    91.00644   389.14354
    19  C   4.0    0.03    4.14    3.89   109.89529    85.24183   388.72692
    20  O   6.0   -0.26    2.10    1.84   112.01576    85.39728   387.03858
    21  H   1.0    0.10    1.08    1.44   107.02660    89.24461   387.76534
    22  H   1.0    0.06    1.06    1.44   109.24893    87.11784   392.35301
    23  H   1.0    0.05    1.01    1.43   110.13283    83.55417   389.90227
    24  H   1.0    0.06    1.02    1.43   108.15088    85.03093   387.63968
    25  H   1.0    0.12    1.03    1.43   111.62758    84.28282   385.65219
    26  N   5.0   -0.15    3.51    2.08   113.94878    87.95057   391.78285
    27  C   4.0    0.04    4.45    4.47   116.30174    89.35115   391.92741
    28  C   4.0    0.16    3.45    3.09   117.49762    89.35159   389.30955
    29  O   6.0   -0.30    1.27    1.80   118.15791    91.38234   388.43153
    30  C   4.0   -0.05    4.19    3.98   118.10616    88.63383   394.06676
    31  C   4.0   -0.04    4.11    3.82   117.24056    89.25114   396.80072
    32  C   4.0   -0.04    4.11    3.82   116.05577    86.98694   398.25673
    33  C   4.0   -0.03    4.10    3.80   113.28810    86.45680   397.45498
    34  N   5.0   -0.12    4.00    2.86   112.61312    83.73959   397.74678
    35  H   1.0    0.07    1.06    1.44   113.98741    86.04114   391.87676
    36  H   1.0    0.06    1.08    1.44   115.74937    91.32717   392.22915
    37  H   1.0    0.05    1.02    1.43   118.60697    86.63716   393.93237
    38  H   1.0    0.05    1.03    1.43   119.82939    89.70134   393.69022
    39  H   1.0    0.05    1.03    1.43   118.91093    89.84948   397.83731
    40  H   1.0    0.05    1.02    1.43   115.92445    90.83140   396.76874
    41  H   1.0    0.05    1.03    1.43   117.23437    85.33841   397.89892
    42  H   1.0    0.05    1.02    1.43   116.14705    87.40142   400.26578
    43  H   1.0    0.05    1.02    1.43   112.01899    87.62329   398.58080
    44  H   1.0    0.05    1.06    1.44   113.04800    87.00438   395.49128
    45  H   1.0    0.07    1.02    1.43   110.76957    83.40998   397.21892
    46  H   1.0    0.06    1.02    1.43   113.79878    82.62867   396.67284
    47  H   1.0    0.07    1.02    1.43   112.84369    83.18280   399.60585
    48  N   5.0   -0.14    3.41    2.03   117.58751    87.14521   388.04643
    49  C   4.0    0.03    4.26    4.12   118.33189    86.86134   385.33982
    50  C   4.0    0.16    3.34    3.06   117.25550    89.05708   383.63574
    51  O   6.0   -0.31    1.24    1.80   118.61135    90.29027   382.19961
    52  C   4.0   -0.05    4.17    3.93   117.55002    84.13392   384.49981
    53  C   4.0   -0.04    4.10    3.80   117.42826    83.38411   381.65946
    54  C   4.0   -0.04    4.12    3.84   119.89970    83.09522   380.15916
    55  C   4.0   -0.03    4.10    3.79   121.63615    80.90260   380.88890
    56  N   5.0   -0.11    4.01    2.88   120.79690    78.44665   379.80434
    57  H   1.0    0.08    1.07    1.44   116.93158    85.54813   388.85920
    58  H   1.0    0.06    1.04    1.44   120.38745    87.07844   385.21614
    59  H   1.0    0.04    1.03    1.43   118.82799    82.84966   385.48050
    60  H   1.0    0.05    1.04    1.43   115.64550    83.83704   385.22104
    61  H   1.0    0.05    1.03    1.43   116.37140    81.61566   381.59606
    62  H   1.0    0.05    1.03    1.43   116.28595    84.79484   380.67864
    63  H   1.0    0.05    1.03    1.43   119.39362    82.93419   378.16739
    64  H   1.0    0.05    1.03    1.43   120.96509    84.84979   380.34985
    65  H   1.0    0.05    1.02    1.43   123.52719    81.30357   380.17715
    66  H   1.0    0.05    1.02    1.43   121.73310    80.71851   382.93729
    67  H   1.0    0.07    1.02    1.43   121.99826    77.01286   380.34884
    68  H   1.0    0.06    1.02    1.43   118.98705    78.00438   380.37671
    69  H   1.0    0.07    1.02    1.43   120.80999    78.54387   377.85869
    70  N   5.0   -0.14    3.48    2.06   114.74960    89.41467   383.88436
    71  C   4.0    0.03    4.39    4.36   113.29905    91.22984   382.45119
    72  C   4.0    0.15    3.39    3.08   114.03883    94.01385   382.90621
    73  O   6.0   -0.32    1.25    1.80   114.06152    95.51840   381.12858
    74  C   4.0   -0.03    4.32    4.23   110.51736    90.83150   383.10819
    75  C   4.0   -0.03    4.18    3.95   109.52082    88.30406   382.18872
    76  C   4.0    0.25    3.09    3.02   106.70765    87.89403   383.04345
    77  O   6.0   -0.29    1.21    1.80   105.63744    89.72831   384.07025
    78  O   6.0   -0.26    1.15    1.80   105.77974    85.74655   382.69910
    79  H   1.0    0.10    1.09    1.44   113.78181    88.37222   385.16959
    80  H   1.0    0.05    1.05    1.44   113.60515    90.89936   380.42397
    81  H   1.0    0.06    1.03    1.43   110.29323    90.97868   385.15520
    82  H   1.0    0.06    1.03    1.43   109.35977    92.32403   382.27984
    83  H   1.0    0.06    1.02    1.43   109.51173    88.23545   380.12451
    84  H   1.0    0.05    1.03    1.43   110.63350    86.71450   382.85708
    85  N   5.0   -0.14    3.52    2.09   114.47263    94.63247   385.32433
    86  C   4.0    0.03    4.52    4.57   115.28735    97.12144   386.17271
    87  C   4.0    0.16    3.51    3.12   117.81384    97.64526   384.95844
    88  O   6.0   -0.29    1.24    1.80   118.21894    99.65189   383.88252
    89  C   4.0   -0.02    4.35    4.29   115.39411    97.29754   389.06512
    90  C   4.0   -0.04    4.22    4.04   112.68081    97.09957   390.03818
    91  C   4.0   -0.06    4.14    3.88   116.63604    99.74850   389.88647
    92  C   4.0   -0.07    4.03    3.67   112.54304    96.88937   392.88171
    93  H   1.0    0.11    1.09    1.44   114.31831    93.27245   386.67019
    94  H   1.0    0.05    1.06    1.44   113.97172    98.54978   385.44268
    95  H   1.0    0.06    1.05    1.44   116.51466    95.69694   389.74571
    96  H   1.0    0.04    1.03    1.43   111.62995    98.76172   389.41339
    97  H   1.0    0.06    1.04    1.43   111.79550    95.44228   389.19905
    98  H   1.0    0.05    1.00    1.43   116.73350    99.85438   391.93349
    99  H   1.0    0.06    1.00    1.43   118.54895    99.90231   389.14591
   100  H   1.0    0.05    1.00    1.43   115.56835   101.36649   389.20428
   101  H   1.0    0.05    1.00    1.43   110.58159    96.76687   393.47821
   102  H   1.0    0.05    1.00    1.43   113.52455    95.19551   393.50650
   103  H   1.0    0.05    1.00    1.43   113.39663    98.50515   393.80969
   104  N   5.0   -0.13    3.43    2.03   119.50315    95.78734   385.10789
   105  C   4.0    0.03    4.26    4.12   121.99429    96.02022   383.99135
   106  C   4.0    0.17    3.36    3.07   121.86000    96.39316   381.14396
   107  O   6.0   -0.25    1.22    1.80   123.22873    97.94514   380.08250
   108  H   1.0    0.11    1.09    1.44   119.10021    94.20895   386.12270
   109  H   1.0    0.07    1.02    1.43   123.00647    97.64295   384.78608
   110  H   1.0    0.06    1.03    1.43   123.05575    94.30471   384.40631
   111  N   5.0   -0.13    3.48    2.06   120.17392    94.91352   379.97716
   112  C   4.0    0.04    4.33    4.25   119.69434    95.11032   377.26219
   113  C   4.0    0.17    3.41    3.08   119.09354    97.86557   376.53549
   114  O   6.0   -0.24    1.19    1.80   120.29299    98.98052   374.88932
   115  C   4.0   -0.06    4.10    3.81   117.54793    93.34579   376.48526
   116  H   1.0    0.12    1.10    1.44   119.29640    93.47849   380.91114
   117  H   1.0    0.07    1.05    1.44   121.43370    94.62075   376.24096
   118  H   1.0    0.06    1.00    1.43   117.20708    93.50987   374.46670
   119  H   1.0    0.06    1.00    1.43   118.06576    91.41261   376.93803
   120  H   1.0    0.07    1.01    1.43   115.82596    93.84139   377.48591
   121  N   5.0   -0.13    3.44    2.04   117.15181    98.84056   377.88413
   122  C   4.0    0.04    4.29    4.18   116.22681   101.44034   377.66249
   123  C   4.0    0.11    3.25    3.04   118.47577   103.26140   378.09165
   124  O   6.0   -0.23    1.10    1.80   119.21165   104.73684   376.43581
   125  C   4.0   -0.04    4.33    4.25   114.03758   101.98023   379.43164
   126  C   4.0   -0.03    4.12    3.83   113.25999   104.72575   379.15580
   127  S   6.0   -0.02    2.48    3.10   111.25257   105.74580   381.74992
   128  C   4.0   -0.05    3.90    3.47   113.76694   106.01821   384.05638
   129  H   1.0    0.11    1.10    1.44   116.23789    97.72017   379.14439
   130  H   1.0    0.07    1.05    1.44   115.60500   101.74474   375.70053
   131  H   1.0    0.05    1.03    1.43   112.44470   100.75247   378.97810
   132  H   1.0    0.06    1.04    1.43   114.61624   101.57836   381.36901
   133  H   1.0    0.06    1.08    1.44   114.89336   105.97448   379.12392
   134  H   1.0    0.06    1.07    1.44   112.15825   105.01511   377.44080
   135  H   1.0    0.06    1.04    1.44   112.92617   106.75069   385.78082
   136  H   1.0    0.05    1.03    1.43   114.61009   104.18577   384.43444
   137  H   1.0    0.06    1.04    1.43   115.17694   107.33655   383.36263
   138  N   5.0   -0.19    3.17    1.95   102.42534    99.63148   378.93028
   139  C   4.0    0.04    4.22    4.05   104.07710    99.69801   381.13008
   140  C   4.0    0.08    3.22    3.04   104.05645   102.43174   382.22956
   141  O   6.0   -0.27    1.10    1.80   103.60484   102.94586   384.46518
   142  C   4.0    0.05    4.19    3.99   106.86844    98.94318   380.61311
   143  O   6.0   -0.24    2.08    1.84   107.19386    96.42260   379.70455
   144  C   4.0   -0.07    4.13    3.86   108.27949    99.16932   383.10683
   145  H   1.0    0.10    1.02    1.43   103.20414    99.02088   377.28604
   146  H   1.0    0.06    1.05    1.44   103.33438    98.41902   382.58674
   147  H   1.0    0.05    1.03    1.43   107.63911   100.27844   379.21288
   148  H   1.0    0.13    1.03    1.43   108.97977    96.06769   379.71885
   149  H   1.0    0.05    1.00    1.43   110.23776    98.59005   382.83798
   150  H   1.0    0.05    1.01    1.43   108.25897   101.09514   383.81613
   151  H   1.0    0.05    1.00    1.43   107.42128    97.91949   384.49321
   152  H   1.0    0.10    1.10    1.44   100.95685    92.67040   391.36824
   153  H   1.0    0.08    1.04    1.43   119.38263   103.26864   379.74955
   154  H   1.0    0.11    1.07    1.44   101.11562    98.59018   379.23505
   155  H   1.0    0.07    1.04    1.44   104.42426   103.90524   381.10502

  Z AO/shell   Hii/eV     exponent
  1     Wed Apr 25 08:07:45 CEST 2018   EN: 2.200 GM2: 0.406  GM3: 0.0800  RAES: 1.40
     1s    -10.707211    1.230000
  6     Wed Apr 25 08:07:45 CEST 2018   EN: 2.550 GM2: 0.538  GM3: 0.1500  RAES: 3.00
     2s    -13.970922    2.096432
     2p    -10.063292    1.800000
  7     Wed Apr 25 08:07:45 CEST 2018   EN: 3.040 GM2: 0.461  GM3:-0.0640  RAES: 1.90
     2s    -16.686243    2.339881
     2p    -12.523956    2.014332
  8     Wed Apr 25 08:07:45 CEST 2018   EN: 3.440 GM2: 0.452  GM3:-0.0517  RAES: 1.80
     2s    -20.229985    2.439742
     2p    -15.503117    2.137023
 16     Tue Apr 24 11:44:34 CEST 2018   EN: 2.580 GM2: 0.340  GM3:-0.0502  RAES: 3.10
     3s    -20.029654    1.981333
     3p    -11.377694    2.025643
     3d     -0.420282    1.702555
 no old-style atom pair restraining (fixing) potential

molecular fragmentation (1/2 indicates fragments):
111111111111111111111111111111111111111111111111111111111111111111111111
111111111111111111111111111111111111111111111111111111111111111112222222
22222221122
# atoms in fragment 1/2:   139    16
 fragment masses (1/2) :      945.16      103.12
CMA distance (Bohr)    :  12.144
constraining FC (au)   :  0.0500
           ------------------------------------------------- 
          |        Self-Consistent Charge Iterations        |
           ------------------------------------------------- 

 Ncao       : 377
 Nao        : 376
 Nshell     : 228
 Nel        : 412
 T(el)      :   500.0
 intcut     :    35.0
 scfconv/Eh :  0.100E-06
   qconv/e  :  0.100E-04
 intneglect :  0.100E-08
 broydamp   :      0.400
 iter      E             dE          RMSdq      gap      omega  full diag
   1   -235.8040187 -0.235804E+03  0.460E+00    2.76       0.0  T
   2   -236.3272501 -0.523231E+00  0.219E+00    1.18       1.0  T
   3   -236.3578359 -0.305857E-01  0.121E+00    1.47       1.0  T
   4   -236.3986166 -0.407808E-01  0.272E-01    1.06       1.0  T
   5   -236.4008874 -0.227078E-02  0.131E-01    1.25       1.0  T
   6   -236.4012661 -0.378667E-03  0.528E-02    1.21       1.0  T
   7   -236.4013571 -0.909812E-04  0.233E-02    1.21       1.0  T
   8   -236.4013681 -0.110629E-04  0.935E-03    1.21       1.0  T
   9   -236.4013706 -0.243845E-05  0.392E-03    1.21       2.0  T
  10   -236.4013709 -0.313218E-06  0.151E-03    1.21       5.3  T
  11   -236.4013709 -0.700682E-07  0.682E-04    1.21      11.8  T
  12   -236.4013710 -0.123905E-07  0.270E-04    1.21      29.8  T
  13   -236.4013710 -0.113914E-08  0.114E-04    1.21      70.3  T
  14   -236.4013710 -0.265061E-09  0.443E-05    1.21     181.4  T
  15   -236.4013710 -0.410694E-10  0.191E-05    1.21     419.5  T
speedup  2.00
cpu  time for SCC    2.47 s
wall time for SCC    1.23 s

   *** convergence criteria satisfied after 15 iterations ***

          eigenvalues
 #    :         194        195        196        197        198        199        200        201
 occ. :        2.000      2.000      2.000      2.000      2.000      2.000      2.000      2.000
 eps  :       -11.166    -11.093    -11.074    -10.995    -10.941    -10.909    -10.905    -10.849
 #    :         202        203        204        205        206        207        208        209
 occ. :        2.000      2.000      2.000      2.000      2.000      0.000      0.000      0.000
 eps  :       -10.447    -10.254     -9.964     -9.908     -9.280     -8.073     -7.948     -7.028
 #    :         210        211        212        213        214        215        216        217
 occ. :        0.000      0.000      0.000      0.000      0.000      0.000      0.000      0.000
 eps  :        -6.727     -6.575     -6.451     -6.252     -6.141     -6.011     -5.806     -5.701


   #   Z            q   n(s)   n(p)   n(d)      C6AA      α(0)
   1   7 N     -0.272  1.221  4.051  0.000    27.032     7.722
   2   6 C      0.031  1.054  2.915  0.000    20.032     6.367
   3   6 C      0.272  1.049  2.679  0.000    22.406     7.753
   4   8 O     -0.468  1.732  4.737  0.000    23.093     6.443
   5   6 C     -0.046  1.048  2.999  0.000    21.372     6.577
   6   6 C     -0.061  1.048  3.013  0.000    21.656     6.622
   7   6 C      0.016  1.044  2.940  0.000    20.333     6.425
   8   1 H      0.017  0.983  0.000  0.000     2.775     2.605
   9   1 H      0.035  0.965  0.000  0.000     2.514     2.479
  10   1 H      0.023  0.977  0.000  0.000     2.685     2.562
  11   1 H      0.042  0.958  0.000  0.000     2.426     2.436
  12   1 H      0.032  0.968  0.000  0.000     2.564     2.504
  13   1 H      0.044  0.956  0.000  0.000     2.392     2.419
  14   1 H      0.029  0.971  0.000  0.000     2.599     2.521
  15   7 N     -0.196  1.245  3.951  0.000    25.260     7.465
  16   6 C      0.008  1.062  2.929  0.000    20.442     6.438
  17   6 C      0.286  1.043  2.671  0.000    22.153     7.709
  18   8 O     -0.460  1.750  4.710  0.000    22.910     6.417
  19   6 C      0.055  1.046  2.899  0.000    19.871     6.387
  20   8 O     -0.471  1.712  4.759  0.000    22.277     6.371
  21   1 H      0.186  0.814  0.000  0.000     1.183     1.704
  22   1 H      0.106  0.894  0.000  0.000     1.733     2.059
  23   1 H      0.087  0.913  0.000  0.000     1.904     2.158
  24   1 H      0.043  0.957  0.000  0.000     2.411     2.428
  25   1 H      0.333  0.667  0.000  0.000     0.628     1.245
  26   7 N     -0.200  1.273  3.927  0.000    25.352     7.478
  27   6 C      0.012  1.064  2.924  0.000    20.360     6.423
  28   6 C      0.272  1.045  2.684  0.000    22.405     7.751
  29   8 O     -0.499  1.750  4.749  0.000    23.762     6.536
  30   6 C     -0.088  1.059  3.029  0.000    22.173     6.705
  31   6 C     -0.079  1.056  3.023  0.000    22.013     6.681
  32   6 C     -0.098  1.062  3.036  0.000    22.376     6.736
  33   6 C     -0.061  1.058  3.003  0.000    21.782     6.663
  34   7 N     -0.143  1.229  3.914  0.000    24.094     7.290
  35   1 H      0.237  0.763  0.000  0.000     0.936     1.515
  36   1 H      0.084  0.916  0.000  0.000     1.941     2.179
  37   1 H      0.087  0.913  0.000  0.000     1.907     2.160
  38   1 H      0.065  0.935  0.000  0.000     2.142     2.289
  39   1 H      0.067  0.933  0.000  0.000     2.115     2.274
  40   1 H      0.056  0.944  0.000  0.000     2.252     2.347
  41   1 H      0.092  0.908  0.000  0.000     1.864     2.135
  42   1 H      0.080  0.920  0.000  0.000     1.978     2.199
  43   1 H      0.115  0.885  0.000  0.000     1.652     2.010
  44   1 H      0.109  0.891  0.000  0.000     1.709     2.044
  45   1 H      0.293  0.707  0.000  0.000     0.733     1.342
  46   1 H      0.299  0.701  0.000  0.000     0.715     1.325
  47   1 H      0.301  0.699  0.000  0.000     0.710     1.320
  48   7 N     -0.187  1.255  3.932  0.000    25.059     7.435
  49   6 C     -0.001  1.085  2.916  0.000    20.627     6.472
  50   6 C      0.272  1.050  2.678  0.000    22.394     7.748
  51   8 O     -0.484  1.751  4.733  0.000    23.429     6.490
  52   6 C     -0.100  1.067  3.033  0.000    22.411     6.741
  53   6 C     -0.079  1.053  3.025  0.000    22.005     6.680
  54   6 C     -0.092  1.050  3.042  0.000    22.253     6.717
  55   6 C     -0.052  1.057  2.995  0.000    21.606     6.636
  56   7 N     -0.144  1.228  3.916  0.000    24.103     7.292
  57   1 H      0.232  0.768  0.000  0.000     0.958     1.533
  58   1 H      0.094  0.906  0.000  0.000     1.843     2.123
  59   1 H      0.100  0.900  0.000  0.000     1.789     2.092
  60   1 H      0.076  0.924  0.000  0.000     2.019     2.222
  61   1 H      0.076  0.924  0.000  0.000     2.016     2.220
  62   1 H      0.038  0.962  0.000  0.000     2.477     2.461
  63   1 H      0.076  0.924  0.000  0.000     2.016     2.220
  64   1 H      0.075  0.925  0.000  0.000     2.032     2.229
  65   1 H      0.118  0.882  0.000  0.000     1.631     1.997
  66   1 H      0.127  0.873  0.000  0.000     1.555     1.950
  67   1 H      0.304  0.696  0.000  0.000     0.701     1.312
  68   1 H      0.296  0.704  0.000  0.000     0.726     1.335
  69   1 H      0.292  0.708  0.000  0.000     0.738     1.345
  70   7 N     -0.178  1.246  3.932  0.000    24.863     7.406
  71   6 C      0.022  1.063  2.915  0.000    20.208     6.402
  72   6 C      0.267  1.048  2.684  0.000    22.485     7.765
  73   8 O     -0.511  1.748  4.763  0.000    24.038     6.573
  74   6 C     -0.049  1.047  3.002  0.000    21.447     6.592
  75   6 C     -0.100  1.066  3.034  0.000    22.403     6.740
  76   6 C      0.369  1.026  2.605  0.000    20.745     7.454
  77   8 O     -0.640  1.778  4.863  0.000    27.135     6.984
  78   8 O     -0.648  1.776  4.872  0.000    27.330     7.009
  79   1 H      0.222  0.778  0.000  0.000     1.000     1.566
  80   1 H      0.065  0.935  0.000  0.000     2.141     2.288
  81   1 H      0.053  0.947  0.000  0.000     2.286     2.364
  82   1 H      0.036  0.964  0.000  0.000     2.499     2.472
  83   1 H      0.023  0.977  0.000  0.000     2.681     2.561
  84   1 H      0.050  0.950  0.000  0.000     2.318     2.381
  85   7 N     -0.184  1.253  3.930  0.000    24.977     7.423
  86   6 C      0.025  1.063  2.912  0.000    20.156     6.392
  87   6 C      0.280  1.036  2.684  0.000    22.265     7.727
  88   8 O     -0.506  1.753  4.753  0.000    23.916     6.557
  89   6 C     -0.023  1.065  2.958  0.000    20.952     6.510
  90   6 C     -0.060  1.047  3.013  0.000    21.638     6.621
  91   6 C     -0.113  1.036  3.077  0.000    22.725     6.797
  92   6 C     -0.107  1.035  3.073  0.000    22.607     6.780
  93   1 H      0.234  0.766  0.000  0.000     0.949     1.526
  94   1 H      0.056  0.944  0.000  0.000     2.247     2.344
  95   1 H      0.064  0.936  0.000  0.000     2.151     2.293
  96   1 H      0.030  0.970  0.000  0.000     2.586     2.515
  97   1 H      0.042  0.958  0.000  0.000     2.418     2.432
  98   1 H      0.068  0.932  0.000  0.000     2.112     2.273
  99   1 H      0.033  0.967  0.000  0.000     2.540     2.492
 100   1 H      0.039  0.961  0.000  0.000     2.457     2.451
 101   1 H      0.041  0.959  0.000  0.000     2.438     2.442
 102   1 H      0.046  0.954  0.000  0.000     2.371     2.408
 103   1 H      0.047  0.953  0.000  0.000     2.353     2.399
 104   7 N     -0.180  1.242  3.937  0.000    24.892     7.410
 105   6 C     -0.029  1.053  2.976  0.000    21.149     6.559
 106   6 C      0.284  1.036  2.681  0.000    22.194     7.714
 107   8 O     -0.516  1.765  4.751  0.000    24.145     6.588
 108   1 H      0.233  0.767  0.000  0.000     0.951     1.528
 109   1 H      0.081  0.919  0.000  0.000     1.973     2.197
 110   1 H      0.100  0.900  0.000  0.000     1.786     2.090
 111   7 N     -0.193  1.255  3.937  0.000    25.185     7.453
 112   6 C      0.026  1.063  2.911  0.000    20.144     6.391
 113   6 C      0.282  1.045  2.674  0.000    22.231     7.720
 114   8 O     -0.497  1.761  4.736  0.000    23.722     6.530
 115   6 C     -0.135  1.044  3.091  0.000    23.149     6.860
 116   1 H      0.238  0.762  0.000  0.000     0.933     1.513
 117   1 H      0.068  0.932  0.000  0.000     2.109     2.271
 118   1 H      0.065  0.935  0.000  0.000     2.140     2.287
 119   1 H      0.087  0.913  0.000  0.000     1.911     2.162
 120   1 H      0.066  0.934  0.000  0.000     2.127     2.280
 121   7 N     -0.187  1.252  3.934  0.000    25.048     7.433
 122   6 C      0.036  1.061  2.904  0.000    19.988     6.367
 123   6 C      0.212  1.089  2.699  0.000    23.513     7.941
 124   8 O     -0.368  1.763  4.605  0.000    21.054     6.152
 125   6 C     -0.065  1.049  3.015  0.000    21.710     6.629
 126   6 C     -0.009  1.063  2.946  0.000    20.736     6.483
 127  16 S     -0.212  1.915  4.251  0.046   150.110    20.621
 128   6 C     -0.058  1.054  3.005  0.000    21.695     6.644
 129   1 H      0.228  0.772  0.000  0.000     0.975     1.547
 130   1 H      0.073  0.927  0.000  0.000     2.058     2.244
 131   1 H      0.068  0.932  0.000  0.000     2.109     2.271
 132   1 H      0.071  0.929  0.000  0.000     2.074     2.252
 133   1 H      0.043  0.957  0.000  0.000     2.409     2.427
 134   1 H      0.062  0.938  0.000  0.000     2.174     2.306
 135   1 H      0.073  0.927  0.000  0.000     2.058     2.243
 136   1 H      0.056  0.944  0.000  0.000     2.243     2.342
 137   1 H      0.055  0.945  0.000  0.000     2.259     2.351
 138   7 N     -0.382  1.313  4.070  0.000    29.884     8.119
 139   6 C      0.034  1.065  2.901  0.000    20.021     6.374
 140   6 C      0.196  1.102  2.702  0.000    23.812     7.991
 141   8 O     -0.365  1.761  4.604  0.000    20.991     6.143
 142   6 C      0.118  1.047  2.835  0.000    18.755     6.185
 143   8 O     -0.480  1.725  4.755  0.000    22.464     6.398
 144   6 C     -0.121  1.043  3.078  0.000    22.870     6.819
 145   1 H      0.174  0.826  0.000  0.000     1.246     1.749
 146   1 H      0.051  0.949  0.000  0.000     2.307     2.376
 147   1 H      0.027  0.973  0.000  0.000     2.637     2.540
 148   1 H      0.318  0.682  0.000  0.000     0.671     1.286
 149   1 H      0.047  0.953  0.000  0.000     2.352     2.398
 150   1 H      0.053  0.947  0.000  0.000     2.288     2.365
 151   1 H      0.052  0.948  0.000  0.000     2.300     2.371
 152   1 H      0.167  0.833  0.000  0.000     1.289     1.778
 153   1 H      0.075  0.925  0.000  0.000     2.033     2.229
 154   1 H      0.189  0.811  0.000  0.000     1.162     1.689
 155   1 H      0.086  0.914  0.000  0.000     1.920     2.166

 Mol. C6AA /au·bohr⁶  :     212369.069129
 Mol. C8AA /au·bohr⁸  :    4770581.344418
 Mol. α(0) /au        :        686.188057

 
molecular dipole:
                 x           y           z       tot (Debye)
 q only:      124.424      63.702     399.817
   full:      124.101      62.639     399.181    1074.403
molecular quadrupole (traceless):
                xx          xy          yy          xz          yz          zz
 q only:   -66311.751   12107.738  -84093.423   74389.782   38816.221  150405.175
  q+dip:   -66036.947   11894.193  -84006.524   74103.431   38120.266  150043.471
   full:   -66035.178   11894.221  -84007.806   74103.188   38123.291  150042.984
speedup  2.00
cpu  time for grad    3.49 s
wall time for grad    1.75 s

SCC energy    :    -236.4066897
rep           :       2.6655553
ES            :       0.9404895
AES           :      -0.0490603
AXC           :       0.0793441
disp          :      -0.1900046
XB            :       0.0000000
fix           :       0.0000000
Gborn         :       0.0000000
Gsasa         :       0.0000000
Ghb           :       0.0000000
Gshift        :       0.0000000
Gsolv         :      -0.3619117     -227.10
Etot ala COSMO:    -236.4066897
grad norm     :       0.3294574
total E       :    -233.7261877
atomizationE  :      41.8036834    26232.21
(atE without considering molecular charge,
 total energy contains solvation terms)
H-L gap (eV)  :          1.2072

------------------------------------------------------------------------
 * finished run on 2019/05/10 at 11:23:17.549     
------------------------------------------------------------------------
 total:
 * wall-time:     0 d,  0 h,  0 min,  2.081 sec
 *  cpu-time:     0 d,  0 h,  0 min,  3.985 sec
 * ratio c/w:     1.915 speedup
 SCF:
 * wall-time:     0 d,  0 h,  0 min,  1.906 sec
 *  cpu-time:     0 d,  0 h,  0 min,  3.808 sec
 * ratio c/w:     1.998 speedup

