      -----------------------------------------------------------      
     |                   =====================                   |     
     |                           x T B                           |     
     |                   =====================                   |     
     |                         S. Grimme                         |     
     |          Mulliken Center for Theoretical Chemistry        |     
     |                    University of Bonn                     |     
     |                 Version 6.0.1 (SAW181210)                 |     
      -----------------------------------------------------------      

   This program is distributed in the hope that it will be useful,
   but WITHOUT ANY WARRANTY; without even the implied warranty of
   MERCHANTABILITY or FITNESS FOR A PARTICULAR PURPOSE.
   
   FOR NON-COMMERCIAL, ACADEMIA USE ONLY.
   
   Cite this work as:
   S. Grimme, C. Bannwarth, P. Shushkov, J. Comput. Theory Chem., 2017,
   13, 1989-2009.
   C. Bannwarth, S. Ehlert and S. Grimme., ChemRxiv, 2018, preprint.
   http://doi.org/10.26434/chemrxiv.7246238.v1
   
   for sTDA-xTB:
   S. Grimme and C. Bannwarth, J. Chem. Phys., 2016, 145, 054103.
   
   in the mass-spec context:
   V. Asgeirsson, C. Bauer and S. Grimme, Chem. Sci., 2017, 8, 4879.
   
   if GBSA is used:
   P. Shushkov, F. März and S. Grimme, unpublished.
   
   for ANC optimizer:
   S. Grimme, unpublished.
   Rational Function algorithm used in ANCopt:
   F. Eckert, P. Pulay, H.-J. Werner, J. Comput. Chem., 1997, 18, 1473.
   
   with help from (in alphabetical order)
   C. Bannwarth, F. Bohle, G. Brandenburg, E. Caldeweyher, M. Checinski,
   S. Dohm, S. Ehlert, S. Ehrlich, F. März, H. Neugebauer, J. Pisarek,
   P. Pracht, P. Shushkov, and S. Spicher.
   
 * started run on 2019/05/09 at 21:08:14.389     
========================================================================
 # omp threads = 2
========================================================================
number of atoms            : 199
number of electrons        : 532
charge                     : -1
spin                       : .0
first test random number   : .3192

########################################################################
# WARNING! Please study the warnings concerning your input carefully
#  - Process number higher than OMP_NUM_THREADS, I hope you know what you are doing.
########################################################################

           ------------------------------------------------- 
          |                 G F N 2 - x T B                 |
          | Geometry, Frequencies, Noncovalent interactions |
          |            JCTC 2018 parametrisation            |
           ------------------------------------------------- 
 
      method parameters     
 k(s)        :  1.8500
 k(p)        :  2.2300
 k(d)        :  2.2300
 k(f)        :  2.0000
 kEN (H0ij)  : -2.0000
 D4 a1       :  0.5200
 D4 a2       :  5.0000
 D4 s6       :  1.0000
 D4 s8       :  2.7000
 D4 s9       :  5.0000
 alphaj      :  2.0000

 Solvent             : h2o
 Using internal parameter file: .param_gbsa2_h2o
 Gsolv ref. state (COSMO-RS): gsolv [1 M gas/solution]
 temperature (mdtemp)       :    298.150000000000     
 dielectric constant        :    80.2000000000000     
 rho                        :    1.00000000000000     
 mass                       :    18.0000000000000     
 surface tension            :    15.5689454083859     
 probe radius               :   0.975313790000000     
 vdW radii scaling          :    1.00000000000000     
 Gshift (Eh)                :   1.857443126794793E-003
 c1                         :    1.55243817000000     
 soset                      :   0.130326360000000     
 HB correction              :  T

            Z     q(EN)     CN     RAES       Cart. coordinates
     1  N   5.0   -0.15    3.43    2.04   102.41621    93.21247   391.76979
     2  C   4.0    0.03    4.42    4.41   104.28935    92.28810   390.00321
     3  C   4.0    0.08    3.29    3.05   106.33205    90.73260   391.26098
     4  O   6.0   -0.31    1.15    1.80   106.93617    90.97579   393.37976
     5  C   4.0   -0.04    4.38    4.34   105.76226    94.55562   389.05668
     6  C   4.0   -0.05    4.26    4.11   104.81428    96.79639   390.62964
     7  C   4.0   -0.00    4.28    4.16   103.12167    95.70081   392.61966
     8  H   1.0    0.05    1.04    1.43   103.35579    91.21125   388.48580
     9  H   1.0    0.04    1.03    1.43   107.80556    94.25900   389.29395
    10  H   1.0    0.04    1.02    1.43   105.43035    94.81650   387.02955
    11  H   1.0    0.03    1.03    1.43   106.37107    97.83011   391.46538
    12  H   1.0    0.04    1.03    1.43   103.76513    98.06656   389.43347
    13  H   1.0    0.05    1.01    1.43   104.13325    95.49897   394.44989
    14  H   1.0    0.03    1.03    1.43   101.48143    96.85575   392.95915
    15  N   5.0   -0.22    3.23    1.96   114.81668    89.42884   383.88843
    16  C   4.0    0.02    4.31    4.22   113.34952    91.21964   382.45457
    17  C   4.0    0.14    3.40    3.08   114.05986    94.00335   382.90343
    18  O   6.0   -0.32    1.24    1.80   114.05128    95.52053   381.10562
    19  C   4.0   -0.04    4.30    4.20   110.54887    90.83791   383.09735
    20  C   4.0   -0.04    4.17    3.94   109.55154    88.25850   382.28257
    21  C   4.0    0.25    3.08    3.02   106.70996    87.90011   383.09795
    22  O   6.0   -0.30    1.19    1.80   105.65118    89.77001   384.09069
    23  O   6.0   -0.30    1.17    1.80   105.80289    85.82135   382.76869
    24  H   1.0    0.07    1.03    1.43   113.80881    88.41452   385.19386
    25  H   1.0    0.05    1.05    1.44   113.64685    90.86195   380.42602
    26  H   1.0    0.05    1.03    1.43   110.27971    91.08131   385.12236
    27  H   1.0    0.06    1.02    1.43   109.40234    92.30546   382.17785
    28  H   1.0    0.05    1.02    1.43   109.60827    88.11274   380.20367
    29  H   1.0    0.04    1.03    1.43   110.63685    86.73164   383.04986
    30  N   5.0   -0.15    3.49    2.07   114.51752    94.61081   385.26750
    31  C   4.0    0.03    4.41    4.39   115.28342    97.09863   386.13646
    32  C   4.0    0.08    3.30    3.05   117.80878    97.62338   384.97882
    33  O   6.0   -0.30    1.12    1.80   118.19500    99.66275   383.88883
    34  C   4.0   -0.03    4.32    4.23   115.36135    97.25113   389.06494
    35  C   4.0   -0.05    4.20    4.00   112.63042    97.07065   390.03299
    36  C   4.0   -0.08    4.12    3.84   116.60963    99.75199   389.89380
    37  C   4.0   -0.08    4.02    3.66   112.46323    96.77184   392.87189
    38  H   1.0    0.07    1.08    1.44   114.36354    93.26616   386.61380
    39  H   1.0    0.05    1.05    1.44   113.94621    98.54494   385.46126
    40  H   1.0    0.03    1.05    1.44   116.48223    95.67734   389.75672
    41  H   1.0    0.03    1.03    1.43   111.58347    98.72003   389.41256
    42  H   1.0    0.04    1.03    1.43   111.77042    95.40917   389.14112
    43  H   1.0    0.03    1.00    1.43   116.67793    99.85200   391.94635
    44  H   1.0    0.04    1.01    1.43   118.50658    99.88700   389.16752
    45  H   1.0    0.04    1.00    1.43   115.52410   101.34508   389.20424
    46  H   1.0    0.04    1.00    1.43   110.50171    96.68586   393.43107
    47  H   1.0    0.04    1.01    1.43   113.41750    95.06997   393.45553
    48  H   1.0    0.03    1.00    1.43   113.33915    98.37927   393.82430
    49  N   5.0   -0.19    3.19    1.95   117.25500    98.87120   377.90803
    50  C   4.0    0.03    4.21    4.02   116.34270   101.43633   377.62796
    51  C   4.0    0.08    3.21    3.04   118.55763   103.28340   378.12383
    52  O   6.0   -0.30    1.12    1.80   119.25047   104.72710   376.48732
    53  C   4.0   -0.04    4.31    4.21   114.08648   101.97478   379.42327
    54  C   4.0   -0.04    4.09    3.79   113.29656   104.76291   379.15240
    55  S   6.0   -0.06    2.52    3.10   111.24663   105.74540   381.68048
    56  C   4.0   -0.07    3.89    3.45   113.71345   106.06620   384.08230
    57  H   1.0    0.12    1.05    1.44   116.31045    97.74805   379.17333
    58  H   1.0    0.04    1.06    1.44   115.69781   101.74377   375.70852
    59  H   1.0    0.05    1.03    1.43   112.50148   100.76779   378.96021
    60  H   1.0    0.06    1.04    1.43   114.66243   101.58285   381.35343
    61  H   1.0    0.05    1.08    1.44   114.95817   105.98594   379.19844
    62  H   1.0    0.04    1.08    1.44   112.26719   105.05835   377.42234
    63  H   1.0    0.03    1.04    1.43   112.82070   106.72010   385.79653
    64  H   1.0    0.04    1.02    1.43   114.59496   104.21615   384.44339
    65  H   1.0    0.04    1.04    1.43   115.10503   107.41020   383.42810
    66  N   5.0   -0.21    3.15    1.95   104.06020    96.04501   367.77878
    67  C   4.0    0.01    4.17    3.95   104.45052    95.07314   370.23602
    68  C   4.0    0.14    3.37    3.07   105.41168    97.04674   372.01922
    69  O   6.0   -0.30    1.26    1.80   104.30476    97.49433   374.19137
    70  H   1.0    0.08    1.00    1.43   105.40295    95.71709   366.35876
    71  H   1.0    0.04    1.02    1.43   102.62252    94.36428   370.96026
    72  H   1.0    0.04    1.03    1.43   105.81015    93.51985   370.18837
    73  N   5.0   -0.14    3.52    2.09   107.42317    98.27211   371.29129
    74  C   4.0    0.03    4.30    4.20   108.56507   100.40354   372.64573
    75  C   4.0    0.07    3.24    3.04   106.49619   102.23213   373.24759
    76  O   6.0   -0.30    1.14    1.80   106.03437   102.83182   375.76507
    77  C   4.0   -0.05    4.23    4.06   110.75838   101.38196   371.08682
    78  C   4.0   -0.03    4.20    4.00   112.76828    99.33005   370.75570
    79  C   4.0    0.25    3.09    3.02   112.69492    97.68509   368.30639
    80  O   6.0   -0.31    1.17    1.80   111.57051    98.42154   366.41823
    81  O   6.0   -0.30    1.20    1.80   113.82222    95.68488   368.55105
    82  H   1.0    0.09    1.11    1.45   108.16568    97.93010   369.63147
    83  H   1.0    0.06    1.03    1.43   109.30155    99.71504   374.52523
    84  H   1.0    0.05    1.03    1.43   110.06477   101.89333   369.21096
    85  H   1.0    0.04    1.02    1.43   111.55290   103.05490   371.99163
    86  H   1.0    0.05    1.02    1.43   114.70444   100.08569   370.86941
    87  H   1.0    0.05    1.03    1.43   112.65004    97.94282   372.30267
    88  N   5.0   -0.18    3.20    1.96   100.58320   101.16302   374.16706
    89  C   4.0    0.03    4.28    4.15    98.89471   100.08549   376.09024
    90  C   4.0    0.16    3.33    3.06    99.91912   100.27871   378.83388
    91  O   6.0   -0.32    1.24    1.80    98.69330   100.91405   380.49079
    92  C   4.0   -0.05    4.19    3.98    98.23752    97.29300   375.32833
    93  C   4.0   -0.06    4.12    3.84    96.24761    97.09675   373.15494
    94  C   4.0   -0.06    4.12    3.84    96.32249    94.55840   371.72131
    95  C   4.0   -0.05    4.12    3.83    93.65470    93.46631   371.39628
    96  N   5.0   -0.13    3.99    2.85    93.59006    91.13172   369.82796
    97  H   1.0    0.09    1.01    1.43   101.05982    99.99017   372.64018
    98  H   1.0    0.04    1.05    1.44    97.12682   101.17049   376.08464
    99  H   1.0    0.06    1.03    1.43    99.98957    96.39665   374.76092
   100  H   1.0    0.04    1.02    1.43    97.53215    96.33545   377.00701
   101  H   1.0    0.03    1.01    1.43    94.37226    97.39946   374.03723
   102  H   1.0    0.03    1.03    1.43    96.57197    98.66658   371.89089
   103  H   1.0    0.03    1.02    1.43    97.22232    94.91381   369.90072
   104  H   1.0    0.04    1.03    1.43    97.47427    93.25220   372.78964
   105  H   1.0    0.03    1.02    1.43    92.87284    93.03487   373.26209
   106  H   1.0    0.03    1.03    1.43    92.40883    94.84353   370.54495
   107  H   1.0    0.04    1.02    1.43    91.69930    90.69523   369.48948
   108  H   1.0    0.04    1.02    1.43    94.47011    91.39753   368.11582
   109  H   1.0    0.04    1.02    1.43    94.42823    89.63061   370.75364
   110  N   5.0   -0.13    3.47    2.06   102.39943    99.63003   378.92416
   111  C   4.0    0.04    4.40    4.38   104.01691    99.68593   381.14792
   112  C   4.0    0.17    3.44    3.09   103.99745   102.39462   382.37105
   113  O   6.0   -0.34    1.34    1.80   103.63274   102.89623   384.31922
   114  C   4.0    0.05    4.20    4.00   106.79771    98.88734   380.65834
   115  O   6.0   -0.24    2.08    1.84   107.08615    96.38081   379.74011
   116  C   4.0   -0.07    4.12    3.84   108.25145    99.14390   383.13106
   117  H   1.0    0.12    1.11    1.45   103.20823    99.07042   377.28918
   118  H   1.0    0.05    1.05    1.44   103.25217    98.44148   382.61417
   119  H   1.0    0.06    1.03    1.43   107.60221   100.22977   379.25603
   120  H   1.0    0.12    1.02    1.43   108.90837    96.04829   379.72578
   121  H   1.0    0.05    1.00    1.43   110.22602    98.65631   382.84043
   122  H   1.0    0.05    1.01    1.43   108.11264   100.99952   383.93733
   123  H   1.0    0.04    0.99    1.43   107.45894    97.75168   384.46987
   124  N   5.0   -0.15    3.57    2.13   104.59613   104.19831   380.51294
   125  C   4.0    0.04    4.48    4.51   104.80256   106.78893   381.32767
   126  C   4.0    0.15    3.60    3.16   102.30823   107.71686   382.34956
   127  O   6.0   -0.28    1.25    1.80   102.24986   109.42308   384.03363
   128  C   4.0   -0.04    4.34    4.27   105.39414   108.55557   379.10019
   129  C   4.0   -0.01    3.74    3.27   104.89799   111.28000   379.69076
   130  C   4.0   -0.01    3.63    3.19   103.49381   112.90831   378.29389
   131  C   4.0    0.02    3.89    3.45   106.17304   112.80042   381.52815
   132  N   5.0   -0.13    3.49    2.07   103.92473   115.34702   379.00184
   133  C   4.0    0.03    3.89    3.45   105.47312   115.35262   381.04832
   134  C   4.0   -0.04    3.37    3.07   107.90916   112.27100   383.49357
   135  C   4.0   -0.05    3.39    3.07   106.31087   117.35385   382.55598
   136  C   4.0   -0.05    3.37    3.07   108.73851   114.30789   384.94157
   137  C   4.0   -0.05    3.37    3.07   107.90287   116.77432   384.53327
   138  H   1.0    0.12    1.12    1.45   104.89894   103.71658   378.72784
   139  H   1.0    0.05    1.07    1.44   106.23346   106.94805   382.80005
   140  H   1.0    0.04    1.04    1.43   107.35073   108.33383   378.58403
   141  H   1.0    0.05    1.04    1.43   104.19351   108.03187   377.51861
   142  H   1.0    0.04    1.02    1.43   102.24561   112.49044   376.76336
   143  H   1.0    0.07    1.05    1.44   102.94297   116.87311   378.39029
   144  H   1.0    0.05    1.03    1.43   108.55046   110.37633   383.82130
   145  H   1.0    0.04    1.03    1.43   105.73595   119.24423   382.10526
   146  H   1.0    0.04    1.03    1.43   110.07913   113.94169   386.41407
   147  H   1.0    0.04    1.03    1.43   108.60052   118.23628   385.74491
   148  N   5.0   -0.13    3.44    2.04   100.29229   106.76315   381.35627
   149  C   4.0    0.02    4.26    4.11    97.79320   107.52993   382.08054
   150  C   4.0    0.16    3.34    3.06    97.28065   106.92407   384.85410
   151  O   6.0   -0.28    1.20    1.80    96.54349   108.60290   386.34774
   152  H   1.0    0.08    1.06    1.44   100.50697   105.66291   379.72899
   153  H   1.0    0.06    1.02    1.43    97.55240   109.59065   381.82578
   154  H   1.0    0.04    1.02    1.43    96.37924   106.54981   380.91719
   155  N   5.0   -0.14    3.44    2.04    97.68355   104.51492   385.52544
   156  C   4.0    0.04    4.43    4.43    97.88593   103.63295   388.13461
   157  C   4.0    0.17    3.51    3.12    99.66179   105.28763   389.72565
   158  O   6.0   -0.29    1.31    1.80    98.96876   106.17772   391.64500
   159  C   4.0   -0.05    4.43    4.44    98.94397   100.94805   388.23479
   160  C   4.0   -0.02    4.22    4.04    97.06141    98.98584   387.36663
   161  C   4.0   -0.08    4.18    3.97    98.30132    96.44276   387.84960
   162  C   4.0   -0.08    4.17    3.94    94.63987    98.96934   388.78845
   163  H   1.0    0.10    1.07    1.44    98.25910   103.29998   384.15039
   164  H   1.0    0.05    1.06    1.44    96.03895   103.70257   389.03380
   165  H   1.0    0.06    1.03    1.43   100.64239   100.88555   387.02875
   166  H   1.0    0.04    1.05    1.44    99.46072   100.57986   390.15308
   167  H   1.0    0.05    1.04    1.43    96.66313    99.27558   385.32051
   168  H   1.0    0.04    0.99    1.43    97.05874    94.93157   387.13428
   169  H   1.0    0.04    0.99    1.43   100.05002    96.27813   386.71767
   170  H   1.0    0.04    1.03    1.43    98.66660    96.18293   389.74907
   171  H   1.0    0.03    1.01    1.43    93.38413    97.55660   388.01676
   172  H   1.0    0.04    1.00    1.43    95.00150    98.48526   390.76647
   173  H   1.0    0.04    1.00    1.43    93.64121   100.76115   388.76443
   174  N   5.0   -0.14    3.51    2.09   101.94798   105.53858   388.88920
   175  C   4.0    0.04    4.48    4.51   103.77884   106.80486   390.41151
   176  C   4.0    0.08    3.35    3.07   102.90127   109.42658   390.95778
   177  O   6.0   -0.28    1.07    1.80   103.08612   110.32357   393.34110
   178  C   4.0   -0.02    4.27    4.15   106.44969   106.94037   389.25321
   179  C   4.0   -0.07    4.14    3.89   108.12346   108.64292   390.83863
   180  C   4.0   -0.08    4.13    3.86   107.44469   104.20488   389.19081
   181  H   1.0    0.11    1.06    1.44   102.55850   104.77260   387.10712
   182  H   1.0    0.05    1.06    1.44   103.93102   105.77493   392.22961
   183  H   1.0    0.05    1.05    1.44   106.29296   107.70348   387.34081
   184  H   1.0    0.03    1.01    1.43   110.06956   108.45244   390.30563
   185  H   1.0    0.05    1.00    1.43   107.56206   110.61288   390.65064
   186  H   1.0    0.05    1.00    1.43   107.91860   108.13687   392.84516
   187  H   1.0    0.04    1.01    1.43   109.28518   104.17513   388.38660
   188  H   1.0    0.03    1.01    1.43   107.48461   103.50525   391.11031
   189  H   1.0    0.05    1.01    1.43   106.17330   103.04338   388.08407
   190  H   1.0    0.08    1.10    1.44   100.88403    92.61406   391.33748
   191  H   1.0    0.05    1.06    1.44   107.25192    89.40770   390.27632
   192  H   1.0    0.09    1.07    1.44   115.52526    88.30008   382.83184
   193  H   1.0    0.05    1.05    1.44   119.18339    96.33092   385.08409
   194  H   1.0    0.10    1.07    1.44   117.15683    98.06726   376.41250
   195  H   1.0    0.06    1.04    1.43   119.42518   103.28934   379.80264
   196  H   1.0    0.08    1.08    1.44   102.62041    95.40593   367.13758
   197  H   1.0    0.05    1.03    1.43   105.47638   102.99759   371.85292
   198  H   1.0    0.08    1.07    1.44    99.85721   102.53967   373.48125
   199  H   1.0    0.07    1.04    1.43   102.18872   110.49291   389.56988

  Z AO/shell   Hii/eV     exponent
  1     Wed Apr 25 08:07:45 CEST 2018   EN: 2.200 GM2: 0.406  GM3: 0.0800  RAES: 1.40
     1s    -10.707211    1.230000
  6     Wed Apr 25 08:07:45 CEST 2018   EN: 2.550 GM2: 0.538  GM3: 0.1500  RAES: 3.00
     2s    -13.970922    2.096432
     2p    -10.063292    1.800000
  7     Wed Apr 25 08:07:45 CEST 2018   EN: 3.040 GM2: 0.461  GM3:-0.0640  RAES: 1.90
     2s    -16.686243    2.339881
     2p    -12.523956    2.014332
  8     Wed Apr 25 08:07:45 CEST 2018   EN: 3.440 GM2: 0.452  GM3:-0.0517  RAES: 1.80
     2s    -20.229985    2.439742
     2p    -15.503117    2.137023
 16     Tue Apr 24 11:44:34 CEST 2018   EN: 2.580 GM2: 0.340  GM3:-0.0502  RAES: 3.10
     3s    -20.029654    1.981333
     3p    -11.377694    2.025643
     3d     -0.420282    1.702555
 no old-style atom pair restraining (fixing) potential

molecular fragmentation (1/2 indicates fragments):
111111111111112222222222222222222222222222222222222222222222222222222222
222222222222222222222222222222222222222222222222222222222222222222222222
2222222222222222222222222222222222222222222221122222222
# atoms in fragment 1/2:    16   183
 fragment masses (1/2) :       99.13     1251.52
CMA distance (Bohr)    :  13.011
constraining FC (au)   :  0.0500
           ------------------------------------------------- 
          |        Self-Consistent Charge Iterations        |
           ------------------------------------------------- 

 Ncao       : 487
 Nao        : 486
 Nshell     : 294
 Nel        : 532
 T(el)      :   500.0
 intcut     :    35.0
 scfconv/Eh :  0.100E-06
   qconv/e  :  0.100E-04
 intneglect :  0.100E-08
 broydamp   :      0.400
 iter      E             dE          RMSdq      gap      omega  full diag
   1   -302.6824502 -0.302682E+03  0.464E+00    1.94       0.0  T
   2   -303.2012050 -0.518755E+00  0.234E+00    0.00       1.0  T
   3   -303.3498462 -0.148641E+00  0.172E+00    1.62       1.0  T
   4   -303.5633417 -0.213495E+00  0.692E-01    1.32       1.0  T
   5   -303.5815614 -0.182197E-01  0.406E-01    1.45       1.0  T
   6   -303.5936201 -0.120587E-01  0.176E-01    0.47       1.0  T
   7   -303.5904440  0.317615E-02  0.138E-01    0.20       1.0  T
   8   -303.5927974 -0.235342E-02  0.122E-01    0.75       1.0  T
   9   -303.5948991 -0.210172E-02  0.363E-02    0.37       1.0  T
  10   -303.5950672 -0.168094E-03  0.158E-02    0.30       1.0  T
  11   -303.5951002 -0.329769E-04  0.765E-03    0.33       1.0  T
  12   -303.5951037 -0.353771E-05  0.528E-03    0.31       1.3  T
  13   -303.5951057 -0.192870E-05  0.414E-03    0.33       1.7  T
  14   -303.5951095 -0.378526E-05  0.685E-04    0.32      10.4  T
  15   -303.5951091  0.317059E-06  0.128E-03    0.32       5.6  T
  16   -303.5951095 -0.347359E-06  0.204E-04    0.32      34.7  T
  17   -303.5951095 -0.475660E-08  0.934E-05    0.32      75.9  T
  18   -303.5951095 -0.158309E-09  0.649E-05    0.32     109.2  T
speedup  2.00
cpu  time for SCC    4.54 s
wall time for SCC    2.27 s

   *** convergence criteria satisfied after 18 iterations ***

          eigenvalues
 #    :         254        255        256        257        258        259        260        261
 occ. :        2.000      2.000      2.000      2.000      2.000      2.000      2.000      2.000
 eps  :       -10.494    -10.416    -10.381    -10.365    -10.188    -10.072    -10.037     -9.928
 #    :         262        263        264        265        266        267        268        269
 occ. :        2.000      2.000      2.000      2.000      1.952      0.048      0.000      0.000
 eps  :        -9.744     -9.733     -9.661     -9.584     -9.312     -8.993     -8.116     -8.049
 #    :         270        271        272        273        274        275        276        277
 occ. :        0.000      0.000      0.000      0.000      0.000      0.000      0.000      0.000
 eps  :        -7.737     -6.935     -6.637     -6.342     -6.191     -6.019     -5.889     -5.566


   #   Z            q   n(s)   n(p)   n(d)      C6AA      α(0)
   1   7 N     -0.255  1.227  4.028  0.000    26.630     7.664
   2   6 C      0.031  1.054  2.915  0.000    20.028     6.368
   3   6 C      0.218  1.070  2.712  0.000    23.402     7.924
   4   8 O     -0.349  1.717  4.632  0.000    20.688     6.098
   5   6 C     -0.042  1.051  2.991  0.000    21.299     6.565
   6   6 C     -0.067  1.047  3.020  0.000    21.763     6.638
   7   6 C      0.014  1.043  2.944  0.000    20.376     6.432
   8   1 H      0.034  0.966  0.000  0.000     2.533     2.489
   9   1 H      0.030  0.970  0.000  0.000     2.591     2.517
  10   1 H      0.035  0.965  0.000  0.000     2.512     2.479
  11   1 H      0.056  0.944  0.000  0.000     2.248     2.344
  12   1 H      0.052  0.948  0.000  0.000     2.300     2.372
  13   1 H      0.047  0.953  0.000  0.000     2.363     2.404
  14   1 H      0.044  0.956  0.000  0.000     2.392     2.418
  15   7 N     -0.389  1.312  4.076  0.000    30.055     8.142
  16   6 C      0.034  1.058  2.908  0.000    20.021     6.373
  17   6 C      0.264  1.051  2.685  0.000    22.549     7.776
  18   8 O     -0.526  1.756  4.770  0.000    24.363     6.618
  19   6 C     -0.042  1.052  2.990  0.000    21.315     6.572
  20   6 C     -0.092  1.066  3.026  0.000    22.252     6.717
  21   6 C      0.374  1.021  2.605  0.000    20.661     7.438
  22   8 O     -0.649  1.771  4.878  0.000    27.353     7.012
  23   8 O     -0.629  1.756  4.872  0.000    26.836     6.945
  24   1 H      0.160  0.840  0.000  0.000     1.333     1.808
  25   1 H      0.025  0.975  0.000  0.000     2.654     2.548
  26   1 H      0.029  0.971  0.000  0.000     2.598     2.521
  27   1 H      0.026  0.974  0.000  0.000     2.640     2.541
  28   1 H      0.003  0.997  0.000  0.000     3.005     2.711
  29   1 H      0.021  0.979  0.000  0.000     2.724     2.581
  30   7 N     -0.156  1.238  3.918  0.000    24.369     7.332
  31   6 C      0.026  1.062  2.912  0.000    20.139     6.390
  32   6 C      0.204  1.082  2.715  0.000    23.671     7.968
  33   8 O     -0.363  1.760  4.604  0.000    20.965     6.139
  34   6 C     -0.028  1.074  2.954  0.000    21.030     6.523
  35   6 C     -0.061  1.050  3.011  0.000    21.665     6.626
  36   6 C     -0.121  1.039  3.082  0.000    22.879     6.821
  37   6 C     -0.114  1.034  3.080  0.000    22.745     6.801
  38   1 H      0.219  0.781  0.000  0.000     1.013     1.577
  39   1 H      0.081  0.919  0.000  0.000     1.968     2.194
  40   1 H      0.062  0.938  0.000  0.000     2.173     2.305
  41   1 H      0.053  0.947  0.000  0.000     2.289     2.366
  42   1 H      0.023  0.977  0.000  0.000     2.683     2.562
  43   1 H      0.072  0.928  0.000  0.000     2.062     2.245
  44   1 H      0.044  0.956  0.000  0.000     2.396     2.421
  45   1 H      0.055  0.945  0.000  0.000     2.260     2.351
  46   1 H      0.047  0.953  0.000  0.000     2.357     2.401
  47   1 H      0.045  0.955  0.000  0.000     2.379     2.412
  48   1 H      0.055  0.945  0.000  0.000     2.253     2.347
  49   7 N     -0.386  1.313  4.072  0.000    29.975     8.131
  50   6 C      0.044  1.057  2.899  0.000    19.856     6.348
  51   6 C      0.207  1.092  2.701  0.000    23.608     7.957
  52   8 O     -0.371  1.749  4.623  0.000    21.115     6.161
  53   6 C     -0.061  1.056  3.005  0.000    21.652     6.620
  54   6 C     -0.004  1.061  2.943  0.000    20.660     6.472
  55  16 S     -0.211  1.914  4.249  0.049   150.061    20.618
  56   6 C     -0.062  1.058  3.004  0.000    21.764     6.656
  57   1 H      0.175  0.825  0.000  0.000     1.242     1.746
  58   1 H      0.029  0.971  0.000  0.000     2.606     2.525
  59   1 H      0.040  0.960  0.000  0.000     2.448     2.447
  60   1 H      0.063  0.937  0.000  0.000     2.159     2.298
  61   1 H      0.039  0.961  0.000  0.000     2.468     2.457
  62   1 H      0.042  0.958  0.000  0.000     2.426     2.436
  63   1 H      0.073  0.927  0.000  0.000     2.048     2.238
  64   1 H      0.056  0.944  0.000  0.000     2.246     2.344
  65   1 H      0.061  0.939  0.000  0.000     2.184     2.311
  66   7 N     -0.379  1.304  4.075  0.000    29.802     8.108
  67   6 C      0.006  1.035  2.959  0.000    20.550     6.468
  68   6 C      0.252  1.056  2.693  0.000    22.773     7.814
  69   8 O     -0.516  1.782  4.734  0.000    24.150     6.589
  70   1 H      0.148  0.852  0.000  0.000     1.416     1.864
  71   1 H      0.079  0.921  0.000  0.000     1.993     2.208
  72   1 H      0.034  0.966  0.000  0.000     2.535     2.490
  73   7 N     -0.141  1.235  3.906  0.000    24.046     7.283
  74   6 C      0.052  1.056  2.892  0.000    19.720     6.325
  75   6 C      0.168  1.114  2.718  0.000    24.372     8.085
  76   8 O     -0.415  1.815  4.600  0.000    21.982     6.286
  77   6 C     -0.061  1.052  3.009  0.000    21.659     6.625
  78   6 C     -0.095  1.071  3.024  0.000    22.321     6.727
  79   6 C      0.382  1.013  2.605  0.000    20.540     7.417
  80   8 O     -0.630  1.757  4.873  0.000    26.878     6.951
  81   8 O     -0.648  1.766  4.881  0.000    27.324     7.008
  82   1 H      0.210  0.790  0.000  0.000     1.055     1.609
  83   1 H      0.068  0.932  0.000  0.000     2.108     2.271
  84   1 H      0.069  0.931  0.000  0.000     2.099     2.266
  85   1 H      0.055  0.945  0.000  0.000     2.261     2.351
  86   1 H      0.022  0.978  0.000  0.000     2.701     2.570
  87   1 H      0.018  0.982  0.000  0.000     2.771     2.603
  88   7 N     -0.388  1.332  4.055  0.000    30.038     8.140
  89   6 C      0.013  1.076  2.911  0.000    20.372     6.430
  90   6 C      0.283  1.035  2.682  0.000    22.197     7.714
  91   8 O     -0.445  1.697  4.748  0.000    22.591     6.373
  92   6 C     -0.076  1.064  3.012  0.000    21.961     6.673
  93   6 C     -0.073  1.058  3.015  0.000    21.895     6.663
  94   6 C     -0.086  1.052  3.034  0.000    22.145     6.700
  95   6 C     -0.051  1.058  2.992  0.000    21.577     6.631
  96   7 N     -0.147  1.231  3.916  0.000    24.168     7.302
  97   1 H      0.150  0.850  0.000  0.000     1.399     1.853
  98   1 H      0.035  0.965  0.000  0.000     2.510     2.478
  99   1 H      0.053  0.947  0.000  0.000     2.280     2.362
 100   1 H      0.032  0.968  0.000  0.000     2.561     2.503
 101   1 H      0.056  0.944  0.000  0.000     2.247     2.344
 102   1 H      0.055  0.945  0.000  0.000     2.259     2.350
 103   1 H      0.071  0.929  0.000  0.000     2.071     2.250
 104   1 H      0.066  0.934  0.000  0.000     2.126     2.280
 105   1 H      0.116  0.884  0.000  0.000     1.644     2.005
 106   1 H      0.123  0.877  0.000  0.000     1.589     1.972
 107   1 H      0.310  0.690  0.000  0.000     0.685     1.296
 108   1 H      0.299  0.701  0.000  0.000     0.717     1.327
 109   1 H      0.296  0.704  0.000  0.000     0.726     1.334
 110   7 N     -0.209  1.253  3.956  0.000    25.542     7.506
 111   6 C      0.008  1.070  2.923  0.000    20.463     6.443
 112   6 C      0.301  1.032  2.667  0.000    21.882     7.660
 113   8 O     -0.356  1.654  4.701  0.000    20.810     6.116
 114   6 C      0.125  1.045  2.831  0.000    18.659     6.170
 115   8 O     -0.474  1.733  4.741  0.000    22.336     6.380
 116   6 C     -0.124  1.043  3.081  0.000    22.938     6.829
 117   1 H      0.231  0.769  0.000  0.000     0.960     1.535
 118   1 H      0.048  0.952  0.000  0.000     2.350     2.397
 119   1 H      0.028  0.972  0.000  0.000     2.615     2.529
 120   1 H      0.303  0.697  0.000  0.000     0.713     1.327
 121   1 H      0.047  0.953  0.000  0.000     2.361     2.403
 122   1 H      0.062  0.938  0.000  0.000     2.172     2.304
 123   1 H      0.047  0.953  0.000  0.000     2.361     2.403
 124   7 N     -0.263  1.268  3.995  0.000    26.814     7.691
 125   6 C      0.032  1.054  2.913  0.000    20.032     6.372
 126   6 C      0.272  1.040  2.688  0.000    22.403     7.752
 127   8 O     -0.530  1.774  4.755  0.000    24.450     6.629
 128   6 C     -0.069  1.050  3.019  0.000    21.811     6.646
 129   6 C     -0.032  1.066  2.965  0.000    28.741     8.793
 130   6 C     -0.013  1.062  2.951  0.000    28.278     8.720
 131   6 C     -0.016  1.080  2.936  0.000    28.204     8.695
 132   7 N     -0.115  1.230  3.885  0.000    23.500     7.200
 133   6 C      0.042  1.063  2.895  0.000    26.949     8.509
 134   6 C     -0.040  1.085  2.955  0.000    28.994     8.829
 135   6 C     -0.061  1.071  2.989  0.000    29.506     8.907
 136   6 C     -0.048  1.076  2.972  0.000    29.193     8.860
 137   6 C     -0.042  1.075  2.967  0.000    29.040     8.837
 138   1 H      0.229  0.771  0.000  0.000     0.969     1.542
 139   1 H      0.070  0.930  0.000  0.000     2.087     2.259
 140   1 H      0.066  0.934  0.000  0.000     2.124     2.279
 141   1 H      0.052  0.948  0.000  0.000     2.294     2.369
 142   1 H      0.041  0.959  0.000  0.000     2.439     2.442
 143   1 H      0.197  0.803  0.000  0.000     1.122     1.660
 144   1 H      0.028  0.972  0.000  0.000     2.617     2.530
 145   1 H      0.033  0.967  0.000  0.000     2.538     2.491
 146   1 H      0.025  0.975  0.000  0.000     2.656     2.548
 147   1 H      0.030  0.970  0.000  0.000     2.584     2.514
 148   7 N     -0.147  1.233  3.915  0.000    24.192     7.305
 149   6 C     -0.027  1.052  2.975  0.000    21.122     6.554
 150   6 C      0.277  1.042  2.681  0.000    22.316     7.735
 151   8 O     -0.508  1.770  4.739  0.000    23.973     6.565
 152   1 H      0.203  0.797  0.000  0.000     1.091     1.636
 153   1 H      0.090  0.910  0.000  0.000     1.881     2.145
 154   1 H      0.094  0.906  0.000  0.000     1.837     2.119
 155   7 N     -0.175  1.250  3.925  0.000    24.792     7.395
 156   6 C      0.012  1.066  2.922  0.000    20.386     6.429
 157   6 C      0.297  1.021  2.682  0.000    21.967     7.677
 158   8 O     -0.480  1.728  4.752  0.000    23.346     6.478
 159   6 C     -0.078  1.057  3.021  0.000    21.975     6.670
 160   6 C     -0.007  1.049  2.959  0.000    20.674     6.467
 161   6 C     -0.113  1.039  3.075  0.000    22.691     6.787
 162   6 C     -0.118  1.036  3.082  0.000    22.789     6.803
 163   1 H      0.215  0.785  0.000  0.000     1.032     1.591
 164   1 H      0.078  0.922  0.000  0.000     1.998     2.210
 165   1 H      0.051  0.949  0.000  0.000     2.303     2.373
 166   1 H      0.061  0.939  0.000  0.000     2.191     2.314
 167   1 H      0.036  0.964  0.000  0.000     2.500     2.473
 168   1 H      0.038  0.962  0.000  0.000     2.474     2.460
 169   1 H      0.023  0.977  0.000  0.000     2.692     2.566
 170   1 H      0.061  0.939  0.000  0.000     2.183     2.310
 171   1 H      0.054  0.946  0.000  0.000     2.274     2.358
 172   1 H      0.044  0.956  0.000  0.000     2.393     2.419
 173   1 H      0.036  0.964  0.000  0.000     2.499     2.472
 174   7 N     -0.179  1.248  3.931  0.000    24.879     7.408
 175   6 C      0.044  1.052  2.904  0.000    19.818     6.335
 176   6 C      0.197  1.105  2.698  0.000    23.806     7.991
 177   8 O     -0.432  1.811  4.621  0.000    22.342     6.337
 178   6 C     -0.012  1.064  2.948  0.000    20.750     6.479
 179   6 C     -0.115  1.038  3.077  0.000    22.758     6.802
 180   6 C     -0.131  1.041  3.090  0.000    23.067     6.847
 181   1 H      0.222  0.778  0.000  0.000     1.002     1.569
 182   1 H      0.085  0.915  0.000  0.000     1.932     2.174
 183   1 H      0.049  0.951  0.000  0.000     2.336     2.390
 184   1 H      0.068  0.932  0.000  0.000     2.108     2.270
 185   1 H      0.036  0.964  0.000  0.000     2.498     2.472
 186   1 H      0.054  0.946  0.000  0.000     2.269     2.355
 187   1 H      0.065  0.935  0.000  0.000     2.141     2.288
 188   1 H      0.064  0.936  0.000  0.000     2.152     2.294
 189   1 H      0.053  0.947  0.000  0.000     2.278     2.360
 190   1 H      0.175  0.825  0.000  0.000     1.245     1.748
 191   1 H      0.024  0.976  0.000  0.000     2.674     2.557
 192   1 H      0.185  0.815  0.000  0.000     1.186     1.706
 193   1 H      0.078  0.922  0.000  0.000     2.001     2.212
 194   1 H      0.169  0.831  0.000  0.000     1.276     1.769
 195   1 H      0.081  0.919  0.000  0.000     1.972     2.196
 196   1 H      0.209  0.791  0.000  0.000     1.062     1.614
 197   1 H      0.108  0.892  0.000  0.000     1.710     2.045
 198   1 H      0.178  0.822  0.000  0.000     1.225     1.733
 199   1 H      0.077  0.923  0.000  0.000     2.012     2.218

 Mol. C6AA /au·bohr⁶  :     369585.202714
 Mol. C8AA /au·bohr⁸  :    8323816.890083
 Mol. α(0) /au        :        913.014836

 
molecular dipole:
                 x           y           z       tot (Debye)
 q only:     -121.405    -100.968    -388.061
   full:     -120.848    -103.005    -390.830    1072.273
molecular quadrupole (traceless):
                xx          xy          yy          xz          yz          zz
 q only:    66033.151  -18153.382   72198.537  -70059.272  -58730.169 -138231.688
  q+dip:    67408.122  -18405.447   72802.313  -70172.023  -60313.856 -140210.435
   full:    67410.179  -18403.427   72802.936  -70175.188  -60312.859 -140213.115
speedup  2.00
cpu  time for grad    6.11 s
wall time for grad    3.06 s

SCC energy    :    -303.6024531
rep           :       3.8271242
ES            :       1.0456667
AES           :      -0.0139435
AXC           :       0.1092711
disp          :      -0.2436427
XB            :       0.0000000
fix           :       0.0000000
Gborn         :       0.0000000
Gsasa         :       0.0000000
Ghb           :       0.0000000
Gshift        :       0.0000000
Gsolv         :      -0.3258122     -204.45
Etot ala COSMO:    -303.6024531
grad norm     :       0.8325060
total E       :    -299.7567927
atomizationE  :      55.2299854    34657.34
(atE without considering molecular charge,
 total energy contains solvation terms)
H-L gap (eV)  :          0.3193

------------------------------------------------------------------------
 * finished run on 2019/05/09 at 21:08:17.697     
------------------------------------------------------------------------
 total:
 * wall-time:     0 d,  0 h,  0 min,  3.306 sec
 *  cpu-time:     0 d,  0 h,  0 min,  6.512 sec
 * ratio c/w:     1.970 speedup
 SCF:
 * wall-time:     0 d,  0 h,  0 min,  3.180 sec
 *  cpu-time:     0 d,  0 h,  0 min,  6.354 sec
 * ratio c/w:     1.998 speedup

