      -----------------------------------------------------------      
     |                   =====================                   |     
     |                           x T B                           |     
     |                   =====================                   |     
     |                         S. Grimme                         |     
     |          Mulliken Center for Theoretical Chemistry        |     
     |                    University of Bonn                     |     
     |                 Version 6.0.1 (SAW181210)                 |     
      -----------------------------------------------------------      

   This program is distributed in the hope that it will be useful,
   but WITHOUT ANY WARRANTY; without even the implied warranty of
   MERCHANTABILITY or FITNESS FOR A PARTICULAR PURPOSE.
   
   FOR NON-COMMERCIAL, ACADEMIA USE ONLY.
   
   Cite this work as:
   S. Grimme, C. Bannwarth, P. Shushkov, J. Comput. Theory Chem., 2017,
   13, 1989-2009.
   C. Bannwarth, S. Ehlert and S. Grimme., ChemRxiv, 2018, preprint.
   http://doi.org/10.26434/chemrxiv.7246238.v1
   
   for sTDA-xTB:
   S. Grimme and C. Bannwarth, J. Chem. Phys., 2016, 145, 054103.
   
   in the mass-spec context:
   V. Asgeirsson, C. Bauer and S. Grimme, Chem. Sci., 2017, 8, 4879.
   
   if GBSA is used:
   P. Shushkov, F. März and S. Grimme, unpublished.
   
   for ANC optimizer:
   S. Grimme, unpublished.
   Rational Function algorithm used in ANCopt:
   F. Eckert, P. Pulay, H.-J. Werner, J. Comput. Chem., 1997, 18, 1473.
   
   with help from (in alphabetical order)
   C. Bannwarth, F. Bohle, G. Brandenburg, E. Caldeweyher, M. Checinski,
   S. Dohm, S. Ehlert, S. Ehrlich, F. März, H. Neugebauer, J. Pisarek,
   P. Pracht, P. Shushkov, and S. Spicher.
   
 * started run on 2019/05/11 at 21:00:21.129     
========================================================================
 # omp threads = 2
========================================================================
number of atoms            : 588
number of electrons        : 1632
charge                     : -4
spin                       : .0
first test random number   : .4795

########################################################################
# WARNING! Please study the warnings concerning your input carefully
#  - Process number higher than OMP_NUM_THREADS, I hope you know what you are doing.
########################################################################

           ------------------------------------------------- 
          |                 G F N 2 - x T B                 |
          | Geometry, Frequencies, Noncovalent interactions |
          |            JCTC 2018 parametrisation            |
           ------------------------------------------------- 
 
      method parameters     
 k(s)        :  1.8500
 k(p)        :  2.2300
 k(d)        :  2.2300
 k(f)        :  2.0000
 kEN (H0ij)  : -2.0000
 D4 a1       :  0.5200
 D4 a2       :  5.0000
 D4 s6       :  1.0000
 D4 s8       :  2.7000
 D4 s9       :  5.0000
 alphaj      :  2.0000

 Solvent             : h2o
 Using internal parameter file: .param_gbsa2_h2o
 Gsolv ref. state (COSMO-RS): gsolv [1 M gas/solution]
 temperature (mdtemp)       :    298.150000000000     
 dielectric constant        :    80.2000000000000     
 rho                        :    1.00000000000000     
 mass                       :    18.0000000000000     
 surface tension            :    15.5689454083859     
 probe radius               :   0.975313790000000     
 vdW radii scaling          :    1.00000000000000     
 Gshift (Eh)                :   1.857443126794793E-003
 c1                         :    1.55243817000000     
 soset                      :   0.130326360000000     
 HB correction              :  T

            Z     q(EN)     CN     RAES       Cart. coordinates
     1  N   5.0   -0.24    3.24    1.97     6.77833   175.44714    -1.53529
     2  C   4.0    0.02    4.20    3.99     8.38903   173.45615    -0.57163
     3  C   4.0    0.06    3.16    3.03     9.31646   174.29406     2.10207
     4  O   6.0   -0.32    1.11    1.80     9.52074   172.77169     3.82108
     5  C   4.0   -0.05    4.30    4.19    10.32766   172.87507    -2.62449
     6  C   4.0   -0.03    4.15    3.90     9.51630   170.92539    -4.64638
     7  C   4.0   -0.09    4.10    3.80     6.92134   171.31404    -5.81759
     8  C   4.0   -0.09    4.10    3.81    11.46918   170.90848    -6.78461
     9  H   1.0    0.06    1.03    1.43     7.18275   176.20437    -3.22323
    10  H   1.0    0.04    1.06    1.44     7.27614   171.77334    -0.16793
    11  H   1.0    0.03    1.02    1.43    10.82824   174.67190    -3.57254
    12  H   1.0    0.04    1.03    1.43    12.04140   172.18883    -1.73322
    13  H   1.0    0.03    1.06    1.44     9.54219   169.08052    -3.73896
    14  H   1.0    0.03    1.01    1.43     6.54467   169.80648    -7.14183
    15  H   1.0    0.03    1.00    1.43     5.43317   171.33494    -4.40159
    16  H   1.0    0.02    0.99    1.43     6.85970   173.10339    -6.88099
    17  H   1.0    0.03    1.00    1.43    11.10791   169.40251    -8.13538
    18  H   1.0    0.02    0.99    1.43    11.46312   172.69724    -7.83864
    19  H   1.0    0.03    0.99    1.43    13.38962   170.64204    -6.05723
    20  N   5.0   -0.23    3.20    1.96    -1.56633   151.75701    -7.89657
    21  C   4.0    0.03    4.45    4.46     0.91837   151.97732    -7.03538
    22  C   4.0    0.14    3.48    3.11     2.70566   149.74413    -7.47377
    23  O   6.0   -0.34    1.40    1.80     4.63813   150.01039    -8.62635
    24  C   4.0   -0.06    4.42    4.42     1.01844   152.59280    -4.20270
    25  C   4.0   -0.03    4.22    4.05     3.48197   154.13093    -3.85758
    26  C   4.0   -0.09    4.13    3.87     3.23556   156.61480    -5.34104
    27  C   4.0   -0.08    4.10    3.80     3.96792   154.56881    -1.06711
    28  H   1.0    0.06    1.00    1.43    -3.12947   152.06261    -6.71254
    29  H   1.0    0.04    1.10    1.44     1.76159   153.54886    -8.08811
    30  H   1.0    0.03    1.04    1.43    -0.54470   153.73650    -3.63068
    31  H   1.0    0.03    1.03    1.43     1.04673   150.87084    -3.07657
    32  H   1.0    0.04    1.04    1.43     5.05616   152.97830    -4.65081
    33  H   1.0    0.03    1.02    1.43     4.32657   158.01953    -4.49274
    34  H   1.0    0.03    0.99    1.43     3.86133   156.38669    -7.30990
    35  H   1.0    0.03    1.00    1.43     1.22598   157.17483    -5.37291
    36  H   1.0    0.04    1.00    1.43     5.85175   155.27854    -0.76267
    37  H   1.0    0.04    1.01    1.43     2.59329   155.83208    -0.31740
    38  H   1.0    0.03    0.99    1.43     3.80038   152.73482    -0.06628
    39  N   5.0   -0.15    3.67    2.23     2.08720   147.79787    -6.20662
    40  C   4.0    0.03    4.51    4.54     3.46879   145.52575    -5.69236
    41  C   4.0    0.15    3.55    3.14     4.40011   144.34103    -8.10861
    42  O   6.0   -0.29    1.34    1.80     6.29450   143.11169    -8.52622
    43  C   4.0   -0.05    4.31    4.22     1.61827   143.86425    -4.16567
    44  C   4.0   -0.03    4.23    4.07     2.58631   141.17862    -4.13329
    45  C   4.0    0.26    3.16    3.03     5.31762   141.22090    -2.99872
    46  O   6.0   -0.27    1.23    1.80     7.06964   140.42858    -4.30572
    47  O   6.0   -0.32    1.19    1.80     5.43513   141.95919    -0.79588
    48  H   1.0    0.06    1.09    1.44     0.27094   147.74233    -5.42792
    49  H   1.0    0.05    1.07    1.44     5.06794   145.84643    -4.46770
    50  H   1.0    0.04    1.02    1.43     1.55928   144.54986    -2.19690
    51  H   1.0    0.03    1.01    1.43    -0.32341   143.97401    -4.98705
    52  H   1.0    0.04    1.03    1.43     1.43186   140.01411    -2.93075
    53  H   1.0    0.06    1.03    1.43     2.59158   140.41332    -6.04900
    54  N   5.0   -0.14    3.72    2.29     2.97611   145.01857   -10.00435
    55  C   4.0    0.03    4.56    4.62     3.67860   144.03853   -12.46722
    56  C   4.0    0.16    3.56    3.14     5.59657   145.89478   -13.57508
    57  O   6.0   -0.32    1.40    1.80     7.46217   145.17510   -14.71839
    58  C   4.0   -0.03    4.23    4.07     1.41997   143.36603   -14.10422
    59  C   4.0   -0.09    4.11    3.83    -0.60047   141.94106   -12.55987
    60  C   4.0   -0.08    4.11    3.81     0.24702   145.63764   -15.47664
    61  H   1.0    0.07    1.09    1.44     1.20630   145.67037    -9.72933
    62  H   1.0    0.07    1.08    1.44     4.72819   142.25566   -12.16069
    63  H   1.0    0.04    1.06    1.44     2.12657   142.05783   -15.54524
    64  H   1.0    0.03    1.00    1.43    -1.94517   141.01004   -13.79680
    65  H   1.0    0.04    1.00    1.43     0.27981   140.51921   -11.35876
    66  H   1.0    0.03    1.00    1.43    -1.64588   143.22413   -11.34660
    67  H   1.0    0.03    1.00    1.43    -1.40454   145.01391   -16.52669
    68  H   1.0    0.03    1.00    1.43    -0.30307   147.06220   -14.12323
    69  H   1.0    0.04    1.01    1.43     1.61391   146.41293   -16.77056
    70  N   5.0   -0.14    3.61    2.17     5.13835   148.34155   -13.27214
    71  C   4.0    0.04    4.74    4.79     7.08847   149.92141   -14.33189
    72  C   4.0    0.17    3.63    3.19     9.54603   149.32093   -13.05477
    73  O   6.0   -0.31    1.34    1.80    11.49242   149.22699   -14.21764
    74  C   4.0   -0.03    4.30    4.19     6.58346   152.74477   -14.26743
    75  C   4.0   -0.07    4.14    3.87     8.52479   153.96949   -15.93577
    76  C   4.0   -0.08    4.18    3.96     3.93293   153.07736   -15.19961
    77  H   1.0    0.09    1.07    1.44     3.66669   148.99651   -12.18125
    78  H   1.0    0.05    1.09    1.44     7.29551   149.35526   -16.29092
    79  H   1.0    0.04    1.05    1.44     6.78137   153.45605   -12.33288
    80  H   1.0    0.03    0.99    1.43     8.18723   156.03481   -16.07879
    81  H   1.0    0.05    0.98    1.43    10.49592   153.76088   -15.22425
    82  H   1.0    0.04    0.99    1.43     8.53465   153.21796   -17.88323
    83  H   1.0    0.03    1.01    1.43     3.45004   154.99186   -15.52513
    84  H   1.0    0.04    1.00    1.43     3.70681   152.00256   -16.97718
    85  H   1.0    0.04    1.00    1.43     2.56184   152.26205   -13.86032
    86  N   5.0   -0.14    3.55    2.12     9.34468   149.16313   -10.52151
    87  C   4.0    0.03    4.49    4.53    11.43449   148.13384    -9.02421
    88  C   4.0    0.17    3.63    3.19    12.51667   145.91370   -10.61772
    89  O   6.0   -0.32    1.49    1.80    14.50205   146.20873   -11.65403
    90  C   4.0   -0.02    4.25    4.10    10.58982   147.53417    -6.34554
    91  C   4.0   -0.06    4.12    3.85    12.51970   145.86992    -5.05017
    92  C   4.0   -0.07    4.10    3.81    10.03085   149.94301    -4.90480
    93  H   1.0    0.12    1.14    1.45     7.63009   149.21497    -9.68742
    94  H   1.0    0.05    1.06    1.44    12.97552   149.52697    -8.98572
    95  H   1.0    0.06    1.07    1.44     8.85618   146.41929    -6.46910
    96  H   1.0    0.05    0.99    1.43    12.20240   145.82848    -2.98357
    97  H   1.0    0.06    1.00    1.43    12.32268   143.91058    -5.73002
    98  H   1.0    0.05    0.99    1.43    14.47572   146.47438    -5.29118
    99  H   1.0    0.04    0.99    1.43     9.27202   149.49774    -3.01179
   100  H   1.0    0.04    1.00    1.43    11.71564   151.08876    -4.58748
   101  H   1.0    0.05    1.00    1.43     8.62190   151.09530    -5.87629
   102  N   5.0   -0.13    3.52    2.09    11.26117   143.84140   -10.97784
   103  C   4.0    0.06    4.69    4.76    12.58868   141.95556   -12.26322
   104  C   4.0    0.16    3.62    3.18    13.62995   142.59261   -14.79648
   105  O   6.0   -0.31    1.38    1.80    15.63154   141.60948   -15.44972
   106  C   4.0   -0.03    4.37    4.33    11.03508   139.53864   -12.48911
   107  C   4.0    0.16    3.29    3.05    11.90431   138.02142   -10.17484
   108  O   6.0   -0.29    1.26    1.80    11.84069   138.95590    -8.09207
   109  N   5.0   -0.19    3.17    1.95    13.03129   135.81232   -10.72534
   110  H   1.0    0.11    1.06    1.44     9.61919   143.34677    -9.91584
   111  H   1.0    0.05    1.11    1.45    14.27079   141.44046   -11.13768
   112  H   1.0    0.07    1.04    1.43     9.05277   139.98896   -12.45332
   113  H   1.0    0.05    1.01    1.43    11.43562   138.47687   -14.27255
   114  H   1.0    0.09    1.03    1.43    13.74416   134.70892    -9.37834
   115  H   1.0    0.09    1.02    1.43    13.13833   135.18963   -12.56488
   116  N   5.0   -0.13    3.60    2.16    12.35006   144.00360   -16.25289
   117  C   4.0    0.04    4.47    4.49    13.38291   144.99846   -18.62050
   118  C   4.0    0.17    3.52    3.12    16.11223   145.73855   -18.21787
   119  O   6.0   -0.30    1.27    1.80    17.80971   144.96991   -19.59612
   120  C   4.0   -0.04    4.31    4.21    11.57590   147.06366   -19.49844
   121  C   4.0   -0.02    4.21    4.01     9.08762   145.89125   -20.35877
   122  C   4.0    0.25    3.14    3.03     8.60813   146.88444   -23.05387
   123  O   6.0   -0.33    1.32    1.80     6.91935   148.50896   -23.04965
   124  O   6.0   -0.30    1.17    1.80     9.85340   146.20627   -24.85051
   125  H   1.0    0.12    1.14    1.45    10.65442   144.69877   -15.72491
   126  H   1.0    0.06    1.04    1.43    13.46544   143.49363   -20.09585
   127  H   1.0    0.07    1.05    1.44    11.32761   148.37791   -17.95159
   128  H   1.0    0.06    1.04    1.43    12.46399   148.04437   -21.08672
   129  H   1.0    0.05    1.00    1.43     9.27261   143.76233   -20.38862
   130  H   1.0    0.06    1.02    1.43     7.50933   146.29543   -19.09999
   131  N   5.0   -0.13    3.57    2.13    16.56322   147.28939   -16.29881
   132  C   4.0    0.04    4.42    4.41    19.10844   148.15832   -15.86483
   133  C   4.0    0.15    3.46    3.10    20.70996   145.98378   -14.72046
   134  O   6.0   -0.31    1.32    1.80    22.89738   145.50332   -15.44264
   135  C   4.0   -0.04    4.21    4.02    19.05698   150.65483   -14.35038
   136  C   4.0   -0.04    4.12    3.83    17.91052   152.82812   -15.74275
   137  C   4.0   -0.00    4.12    3.84    19.74434   154.64036   -17.25087
   138  N   5.0   -0.14    3.37    2.01    22.12429   155.22481   -15.98346
   139  C   4.0    0.10    3.33    3.06    23.00986   157.54920   -15.36225
   140  N   5.0   -0.16    3.29    1.98    21.48028   159.51937   -15.36263
   141  N   5.0   -0.18    3.23    1.96    25.41052   157.84115   -14.82694
   142  H   1.0    0.12    1.10    1.44    15.18559   147.81501   -15.09483
   143  H   1.0    0.07    1.07    1.44    20.00335   148.47637   -17.68014
   144  H   1.0    0.05    1.03    1.43    18.00337   150.27955   -12.62524
   145  H   1.0    0.05    1.01    1.43    21.04592   151.07423   -13.79258
   146  H   1.0    0.05    1.01    1.43    16.57989   152.09994   -17.22694
   147  H   1.0    0.04    1.04    1.43    16.83431   153.96896   -14.45882
   148  H   1.0    0.07    1.02    1.43    20.20885   153.81333   -19.06929
   149  H   1.0    0.05    1.01    1.43    18.71875   156.45709   -17.62228
   150  H   1.0    0.10    1.07    1.44    23.40279   153.82399   -16.09280
   151  H   1.0    0.10    1.03    1.43    19.55263   159.22515   -15.32552
   152  H   1.0    0.13    1.08    1.44    21.96307   161.10387   -14.48967
   153  H   1.0    0.10    1.01    1.43    26.70453   156.36372   -14.93579
   154  H   1.0    0.08    1.03    1.43    26.12446   159.59839   -14.51830
   155  N   5.0   -0.14    3.53    2.10    19.52186   144.56712   -12.94046
   156  C   4.0    0.03    4.39    4.36    20.73091   142.37180   -11.75843
   157  C   4.0    0.17    3.51    3.12    21.81038   140.70315   -13.84230
   158  O   6.0   -0.31    1.29    1.80    23.50673   139.22984   -13.45436
   159  C   4.0   -0.04    4.22    4.04    18.92429   140.84653   -10.04112
   160  C   4.0   -0.05    4.12    3.84    17.73970   142.24186    -7.79433
   161  C   4.0    0.00    4.15    3.91    16.38207   140.46755    -5.88566
   162  N   5.0   -0.13    3.40    2.02    17.79241   140.20164    -3.52159
   163  C   4.0    0.10    3.32    3.06    18.65590   138.24217    -2.31453
   164  N   5.0   -0.18    3.26    1.97    17.80398   135.94308    -2.58847
   165  N   5.0   -0.19    3.28    1.98    20.45512   138.59508    -0.59933
   166  H   1.0    0.11    1.11    1.45    17.75598   145.06084   -12.47360
   167  H   1.0    0.05    1.06    1.44    22.32541   143.06338   -10.66448
   168  H   1.0    0.06    1.03    1.43    17.46463   140.07946   -11.29392
   169  H   1.0    0.05    1.04    1.43    20.07177   139.30174    -9.38059
   170  H   1.0    0.05    1.03    1.43    19.22494   143.23656    -6.75016
   171  H   1.0    0.05    1.03    1.43    16.46253   143.72192    -8.45227
   172  H   1.0    0.06    1.01    1.43    14.46104   141.28388    -5.42014
   173  H   1.0    0.06    1.04    1.43    16.02963   138.66425    -6.71046
   174  H   1.0    0.10    1.08    1.44    18.29343   141.99179    -2.85482
   175  H   1.0    0.09    1.03    1.43    16.41694   135.52182    -3.85592
   176  H   1.0    0.07    1.02    1.43    18.84814   134.39182    -1.97566
   177  H   1.0    0.08    1.02    1.43    21.24135   140.34451    -0.30781
   178  H   1.0    0.07    1.02    1.43    21.22584   137.14702     0.42813
   179  N   5.0   -0.12    3.63    2.19    20.79879   141.05755   -16.09960
   180  C   4.0    0.05    4.59    4.65    21.51171   139.48987   -18.15982
   181  C   4.0    0.15    3.54    3.13    23.53730   140.65901   -19.75115
   182  O   6.0   -0.30    1.47    1.80    25.75163   139.81142   -19.68562
   183  C   4.0   -0.04    4.29    4.18    19.25550   138.56780   -19.71016
   184  C   4.0   -0.04    4.17    3.95    20.08204   136.06982   -20.95458
   185  C   4.0    0.24    3.23    3.04    21.56258   134.57034   -18.81447
   186  O   6.0   -0.29    1.17    1.80    23.79528   134.06932   -19.30692
   187  O   6.0   -0.29    1.18    1.80    20.38999   134.10819   -16.82362
   188  H   1.0    0.12    1.12    1.45    19.11959   142.02089   -16.29326
   189  H   1.0    0.09    1.16    1.46    22.46457   137.84899   -17.27174
   190  H   1.0    0.07    1.03    1.43    17.72268   138.15804   -18.38572
   191  H   1.0    0.05    1.02    1.43    18.64213   139.99052   -21.04266
   192  H   1.0    0.04    1.02    1.43    18.44005   135.02999   -21.62283
   193  H   1.0    0.05    1.02    1.43    21.38699   136.44577   -22.50393
   194  N   5.0   -0.15    3.50    2.08    22.88630   142.59380   -21.23762
   195  C   4.0    0.03    4.45    4.47    24.87782   144.18920   -22.33419
   196  C   4.0    0.17    3.56    3.15    27.35465   143.84917   -20.87663
   197  O   6.0   -0.31    1.25    1.80    29.27622   143.20933   -21.98730
   198  C   4.0   -0.04    4.33    4.26    23.96000   146.88969   -22.21128
   199  C   4.0   -0.03    4.21    4.02    21.62409   147.27672   -23.83139
   200  C   4.0    0.25    3.10    3.02    20.45070   149.92581   -23.27883
   201  O   6.0   -0.29    1.17    1.80    18.15726   149.98536   -22.91181
   202  O   6.0   -0.30    1.19    1.80    21.93196   151.70213   -23.28403
   203  H   1.0    0.10    1.11    1.44    21.23165   143.40649   -20.96087
   204  H   1.0    0.04    1.04    1.43    25.24327   143.59136   -24.30026
   205  H   1.0    0.07    1.03    1.43    23.56509   147.34812   -20.23828
   206  H   1.0    0.06    1.03    1.43    25.48740   148.15011   -22.80937
   207  H   1.0    0.04    1.02    1.43    22.16188   147.16309   -25.83140
   208  H   1.0    0.06    1.03    1.43    20.18943   145.83722   -23.45049
   209  N   5.0   -0.12    3.52    2.09    27.20668   144.51104   -18.43859
   210  C   4.0    0.05    4.34    4.28    29.29210   144.19658   -16.70183
   211  C   4.0    0.16    3.48    3.11    30.20952   141.42558   -16.60612
   212  O   6.0   -0.31    1.32    1.80    32.30238   140.99538   -17.44500
   213  C   4.0   -0.04    4.18    3.97    28.66264   145.24080   -14.03033
   214  C   4.0   -0.04    4.11    3.82    29.67016   147.92034   -13.39210
   215  C   4.0    0.26    3.05    3.02    28.34228   150.29057   -14.60930
   216  O   6.0   -0.32    1.19    1.80    28.37094   152.18932   -13.35883
   217  O   6.0   -0.29    1.18    1.80    27.42042   150.05858   -16.72793
   218  H   1.0    0.12    1.12    1.45    25.58123   145.09747   -17.70329
   219  H   1.0    0.06    1.05    1.44    30.93213   145.23126   -17.47657
   220  H   1.0    0.07    1.05    1.44    26.63786   145.19076   -13.80516
   221  H   1.0    0.04    1.03    1.43    29.49162   143.88948   -12.67944
   222  H   1.0    0.04    1.03    1.43    29.61490   148.11802   -11.34816
   223  H   1.0    0.04    1.01    1.43    31.68501   148.00534   -13.97208
   224  N   5.0   -0.14    3.43    2.04    28.89508   139.57770   -15.47591
   225  C   4.0    0.04    4.42    4.41    30.19559   137.17410   -15.27747
   226  C   4.0    0.17    3.37    3.07    30.75501   135.78599   -17.79495
   227  O   6.0   -0.30    1.22    1.80    32.05163   133.88978   -17.73515
   228  C   4.0    0.04    4.10    3.80    29.08501   135.35035   -13.24869
   229  O   6.0   -0.23    2.03    1.83    26.71841   134.29418   -13.72595
   230  H   1.0    0.11    1.06    1.44    27.01401   139.65793   -15.00772
   231  H   1.0    0.05    1.07    1.44    32.10924   137.65102   -14.57621
   232  H   1.0    0.05    1.01    1.43    30.40778   133.74000   -13.13190
   233  H   1.0    0.04    1.01    1.43    29.08001   136.35735   -11.42958
   234  H   1.0    0.15    1.04    1.43    25.47256   135.62369   -13.84927
   235  N   5.0   -0.12    3.53    2.10    29.95184   136.97957   -19.82541
   236  C   4.0    0.04    4.30    4.19    30.12376   136.21001   -22.44888
   237  C   4.0    0.15    3.45    3.10    32.74598   136.88377   -23.50825
   238  O   6.0   -0.31    1.24    1.80    34.22593   135.26172   -24.23332
   239  C   4.0   -0.07    4.12    3.84    28.11918   137.47483   -24.10855
   240  H   1.0    0.13    1.18    1.46    28.63945   138.34048   -19.55868
   241  H   1.0    0.06    1.05    1.44    29.94044   134.14164   -22.59064
   242  H   1.0    0.03    0.99    1.43    28.45987   136.98274   -26.10906
   243  H   1.0    0.06    1.01    1.43    26.26347   136.86734   -23.57436
   244  H   1.0    0.07    1.00    1.43    28.24991   139.53598   -23.92905
   245  N   5.0   -0.15    3.49    2.07    33.30341   139.34395   -23.56137
   246  C   4.0    0.04    4.36    4.31    35.83207   140.07307   -24.24854
   247  C   4.0    0.15    3.35    3.06    37.75316   139.95861   -22.06854
   248  O   6.0   -0.31    1.22    1.80    39.94248   140.65668   -22.41135
   249  C   4.0   -0.08    4.06    3.73    35.81607   142.47821   -25.88253
   250  H   1.0    0.11    1.07    1.44    32.06755   140.67355   -22.85187
   251  H   1.0    0.06    1.10    1.44    36.50499   138.53193   -25.42689
   252  H   1.0    0.04    1.01    1.43    37.70565   143.06100   -26.26357
   253  H   1.0    0.03    0.99    1.43    34.83695   142.06016   -27.68504
   254  H   1.0    0.05    1.00    1.43    34.78517   143.97947   -24.93863
   255  N   5.0   -0.13    3.41    2.03    37.03831   138.68627   -19.98776
   256  C   4.0    0.04    4.21    4.01    38.85576   137.60787   -18.15753
   257  C   4.0    0.08    3.22    3.04    40.41029   135.46685   -19.33743
   258  O   6.0   -0.32    1.12    1.80    42.70055   135.56047   -19.32465
   259  C   4.0   -0.08    4.09    3.79    37.59000   136.49063   -15.81452
   260  H   1.0    0.11    1.08    1.44    35.19489   138.47556   -19.59275
   261  H   1.0    0.05    1.04    1.43    40.20787   139.09930   -17.60712
   262  H   1.0    0.03    1.00    1.43    39.01563   135.50199   -14.70554
   263  H   1.0    0.04    1.00    1.43    36.72721   137.95542   -14.68455
   264  H   1.0    0.06    1.00    1.43    36.13108   135.12731   -16.36993
   265  N   5.0   -0.24    3.21    1.96     4.12965   159.53050   -19.50382
   266  C   4.0    0.03    4.25    4.09     6.30333   158.89560   -20.96794
   267  C   4.0    0.06    3.26    3.05     7.71380   161.24928   -21.83635
   268  O   6.0   -0.33    1.16    1.80     9.94696   161.17557   -22.22508
   269  C   4.0   -0.05    4.36    4.31     5.54819   157.51032   -23.39399
   270  C   4.0   -0.05    4.17    3.94     5.45485   154.67285   -23.16859
   271  C   4.0   -0.01    4.31    4.22     3.69445   153.84565   -25.27346
   272  N   5.0   -0.14    3.40    2.02     3.42251   151.14455   -25.65869
   273  C   4.0    0.09    3.38    3.07     2.85715   150.17768   -27.82418
   274  N   5.0   -0.20    3.29    1.98     1.97903   151.60575   -29.69152
   275  N   5.0   -0.19    3.26    1.97     3.18699   147.73668   -28.32098
   276  H   1.0    0.07    1.03    1.43     2.46110   158.76077   -20.01016
   277  H   1.0    0.04    1.06    1.44     7.63147   157.74053   -19.91016
   278  H   1.0    0.03    1.04    1.43     3.71963   158.28637   -23.98251
   279  H   1.0    0.04    1.03    1.43     6.88497   158.06102   -24.90458
   280  H   1.0    0.05    1.03    1.43     7.30971   153.83275   -23.44987
   281  H   1.0    0.04    1.02    1.43     4.81371   154.12226   -21.29100
   282  H   1.0    0.03    1.02    1.43     1.81053   154.66649   -24.94067
   283  H   1.0    0.03    1.05    1.44     4.45907   154.66135   -26.99797
   284  H   1.0    0.12    1.14    1.45     4.63703   150.04234   -24.50164
   285  H   1.0    0.06    1.03    1.43     2.22919   153.51130   -29.71380
   286  H   1.0    0.06    1.02    1.43     1.57835   150.80828   -31.42005
   287  H   1.0    0.09    1.04    1.43     3.62318   146.58832   -26.87219
   288  H   1.0    0.06    1.03    1.43     2.09307   146.89796   -29.68077
   289  N   5.0   -0.22    3.25    1.97    10.29319   165.00259   -16.27528
   290  C   4.0    0.02    4.30    4.20    11.83430   162.96169   -15.41164
   291  C   4.0    0.14    3.49    3.11    14.55822   163.09037   -16.33124
   292  O   6.0   -0.31    1.25    1.80    16.32841   162.38341   -15.06704
   293  C   4.0   -0.07    4.21    4.01    10.91546   160.49774   -16.49587
   294  H   1.0    0.07    1.03    1.43     8.71576   164.46438   -17.23756
   295  H   1.0    0.04    1.07    1.44    11.87460   162.91874   -13.37764
   296  H   1.0    0.04    1.00    1.43    12.13006   158.96196   -15.82126
   297  H   1.0    0.03    1.00    1.43     8.99264   160.12170   -15.90805
   298  H   1.0    0.07    1.02    1.43    11.03372   160.50843   -18.58206
   299  N   5.0   -0.14    3.51    2.08    14.71281   163.66585   -18.79506
   300  C   4.0    0.03    4.32    4.23    17.12036   164.04151   -20.07041
   301  C   4.0    0.09    3.28    3.05    18.96343   165.45686   -18.36192
   302  O   6.0   -0.30    1.13    1.80    21.17307   165.14310   -18.42013
   303  C   4.0   -0.06    4.28    4.17    16.68283   165.67746   -22.42701
   304  C   4.0   -0.05    4.19    3.97    15.32617   164.21385   -24.52152
   305  C   4.0   -0.01    4.20    4.01    17.12766   162.32061   -25.77485
   306  N   5.0   -0.14    3.41    2.03    15.67670   160.26333   -26.86193
   307  C   4.0    0.09    3.34    3.06    15.20307   159.85332   -29.28220
   308  N   5.0   -0.20    3.25    1.97    16.60168   160.83907   -31.09632
   309  N   5.0   -0.20    3.25    1.97    13.26200   158.36025   -29.86820
   310  H   1.0    0.08    1.08    1.44    13.16339   164.47207   -19.62158
   311  H   1.0    0.05    1.05    1.44    17.92370   162.19803   -20.55896
   312  H   1.0    0.03    1.02    1.43    15.53980   167.32175   -21.89073
   313  H   1.0    0.03    1.03    1.43    18.49730   166.36469   -23.11598
   314  H   1.0    0.06    1.03    1.43    13.71111   163.23734   -23.70654
   315  H   1.0    0.03    1.02    1.43    14.60039   165.54245   -25.91873
   316  H   1.0    0.03    1.03    1.43    18.25680   163.28246   -27.20372
   317  H   1.0    0.04    1.03    1.43    18.41712   161.53668   -24.35444
   318  H   1.0    0.08    1.08    1.44    14.45669   159.50421   -25.58658
   319  H   1.0    0.07    1.03    1.43    18.15852   161.88075   -30.70025
   320  H   1.0    0.06    1.03    1.43    16.30270   160.36717   -32.93064
   321  H   1.0    0.08    1.03    1.43    12.19044   157.57164   -28.50147
   322  H   1.0    0.07    1.03    1.43    12.96079   157.77198   -31.65287
   323  N   5.0   -0.20    3.20    1.96    19.22782   166.98033   -11.20557
   324  C   4.0    0.03    4.32    4.24    20.87580   166.23792    -9.18787
   325  C   4.0    0.15    3.40    3.08    22.18428   163.68044    -9.53830
   326  O   6.0   -0.31    1.31    1.80    21.81482   162.02330   -11.06459
   327  C   4.0    0.02    4.16    3.91    19.75999   166.75933    -6.59866
   328  O   6.0   -0.28    2.10    1.84    21.75444   167.26650    -4.89249
   329  H   1.0    0.08    1.02    1.43    17.33056   166.92397   -11.07419
   330  H   1.0    0.04    1.08    1.44    22.49105   167.56987    -9.34975
   331  H   1.0    0.03    1.00    1.43    18.59260   168.51335    -6.75368
   332  H   1.0    0.04    1.03    1.43    18.59455   165.26010    -5.91660
   333  H   1.0    0.14    1.10    1.44    21.69972   165.93999    -3.63190
   334  N   5.0   -0.14    3.64    2.20    24.22842   163.63184    -7.99920
   335  C   4.0    0.04    4.51    4.55    25.97521   161.55471    -8.07266
   336  C   4.0    0.16    3.72    3.26    24.56993   159.20713    -7.30099
   337  O   6.0   -0.30    1.71    1.81    23.19136   159.38091    -5.39748
   338  C   4.0    0.05    4.33    4.26    27.87551   161.99868    -5.91810
   339  O   6.0   -0.26    2.26    1.87    26.49992   162.10196    -3.60732
   340  C   4.0   -0.09    4.13    3.85    29.26959   164.44421    -6.38503
   341  H   1.0    0.09    1.11    1.45    24.23575   164.75457    -6.47792
   342  H   1.0    0.04    1.04    1.43    26.89417   161.40621    -9.91446
   343  H   1.0    0.03    1.04    1.43    29.18179   160.40859    -5.83276
   344  H   1.0    0.10    1.04    1.43    27.16709   163.51116    -2.65807
   345  H   1.0    0.03    1.00    1.43    30.66844   164.74093    -4.92495
   346  H   1.0    0.03    1.00    1.43    30.21195   164.37364    -8.20330
   347  H   1.0    0.04    1.00    1.43    27.97417   166.05814    -6.39855
   348  N   5.0   -0.15    3.43    2.04    24.98394   156.95424    -8.30065
   349  C   4.0    0.04    4.53    4.58    23.70043   154.98682    -6.96641
   350  C   4.0    0.18    3.84    3.39    23.76491   155.55339    -4.13352
   351  O   6.0   -0.32    1.45    1.80    21.88269   155.29515    -2.80800
   352  C   4.0   -0.05    4.33    4.26    24.83719   152.32303    -7.20407
   353  C   4.0   -0.02    4.19    3.98    23.28753   150.37564    -5.58722
   354  C   4.0   -0.07    4.10    3.81    22.24700   148.34000    -7.31971
   355  C   4.0   -0.08    4.06    3.72    24.75662   149.18531    -3.38933
   356  H   1.0    0.08    1.04    1.43    26.01903   156.59456    -9.90569
   357  H   1.0    0.05    1.06    1.44    21.71885   154.93998    -7.52681
   358  H   1.0    0.05    1.03    1.43    24.79337   151.73898    -9.17025
   359  H   1.0    0.04    1.03    1.43    26.79038   152.30983    -6.59574
   360  H   1.0    0.05    1.08    1.44    21.66761   151.32110    -4.75835
   361  H   1.0    0.05    1.01    1.43    21.11572   147.01984    -6.27147
   362  H   1.0    0.04    0.99    1.43    21.06805   149.18033    -8.80252
   363  H   1.0    0.04    0.99    1.43    23.78392   147.30254    -8.27731
   364  H   1.0    0.05    0.99    1.43    23.55378   147.76842    -2.46094
   365  H   1.0    0.03    1.00    1.43    26.48570   148.26225    -4.00058
   366  H   1.0    0.04    0.99    1.43    25.22433   150.59692    -1.92621
   367  N   5.0   -0.15    3.59    2.15    26.10919   155.82784    -3.12019
   368  C   4.0    0.03    4.43    4.44    26.51447   155.59358    -0.41863
   369  C   4.0    0.19    3.63    3.19    24.12396   156.50024     0.93070
   370  O   6.0   -0.29    1.24    1.80    22.95999   155.29610     2.48241
   371  C   4.0   -0.05    4.24    4.09    28.90488   157.10739     0.20045
   372  C   4.0   -0.04    4.18    3.96    28.79201   159.10679     2.26352
   373  C   4.0    0.25    3.08    3.02    27.80608   158.39047     4.97396
   374  O   6.0   -0.28    1.19    1.80    27.09467   156.19620     5.38780
   375  O   6.0   -0.29    1.17    1.80    27.89563   160.18165     6.48625
   376  H   1.0    0.07    1.07    1.44    27.63615   155.55973    -4.23482
   377  H   1.0    0.04    1.04    1.43    26.79122   153.58532     0.12276
   378  H   1.0    0.03    1.03    1.43    30.39982   155.78988     0.71029
   379  H   1.0    0.04    1.04    1.43    29.49655   158.08128    -1.53160
   380  H   1.0    0.03    1.02    1.43    30.72703   159.83990     2.58969
   381  H   1.0    0.04    1.03    1.43    27.64995   160.74332     1.73502
   382  N   5.0   -0.12    3.71    2.29    23.57264   158.82486     0.15709
   383  C   4.0    0.04    4.50    4.53    21.80727   160.45065     1.40456
   384  C   4.0    0.17    3.55    3.14    19.26872   159.13174     1.27080
   385  O   6.0   -0.29    1.34    1.80    17.89995   158.56706     3.07237
   386  C   4.0    0.05    4.26    4.13    21.64095   163.04684     0.09747
   387  O   6.0   -0.27    2.24    1.87    21.46832   162.89442    -2.54302
   388  C   4.0   -0.08    4.06    3.73    23.77082   164.77805     0.99744
   389  H   1.0    0.10    1.11    1.45    24.83209   159.63306    -1.08390
   390  H   1.0    0.07    1.06    1.44    22.28827   160.73317     3.39783
   391  H   1.0    0.05    1.05    1.44    19.84735   163.90827     0.71183
   392  H   1.0    0.16    1.09    1.44    22.89697   161.91249    -3.27362
   393  H   1.0    0.04    0.99    1.43    23.78299   166.55059    -0.06098
   394  H   1.0    0.05    1.00    1.43    23.49378   165.20440     2.98177
   395  H   1.0    0.04    1.00    1.43    25.60079   163.84625     0.83758
   396  N   5.0   -0.13    3.71    2.29    18.59439   158.76934    -1.11154
   397  C   4.0    0.03    4.49    4.52    16.23295   157.64743    -1.81479
   398  C   4.0    0.16    3.53    3.13    15.57011   155.48349    -0.05616
   399  O   6.0   -0.32    1.32    1.80    13.62824   155.45342     1.22505
   400  C   4.0   -0.05    4.34    4.28    16.49616   157.06388    -4.66204
   401  C   4.0   -0.02    4.22    4.04    17.34586   159.47714    -6.09353
   402  C   4.0   -0.06    4.08    3.77    17.37932   159.09405    -8.93586
   403  C   4.0   -0.08    4.14    3.88    15.68472   161.72852    -5.33755
   404  H   1.0    0.11    1.15    1.45    19.96155   158.81561    -2.41536
   405  H   1.0    0.04    1.05    1.44    14.68327   159.03084    -1.51328
   406  H   1.0    0.05    1.03    1.43    17.86038   155.55741    -4.86845
   407  H   1.0    0.04    1.02    1.43    14.65202   156.40841    -5.36112
   408  H   1.0    0.07    1.09    1.44    19.27744   159.90708    -5.55210
   409  H   1.0    0.07    0.99    1.43    17.78067   160.91171    -9.92219
   410  H   1.0    0.05    1.00    1.43    18.86660   157.80175    -9.49324
   411  H   1.0    0.04    1.00    1.43    15.59076   158.41601    -9.66561
   412  H   1.0    0.04    1.01    1.43    15.67537   163.14553    -6.81217
   413  H   1.0    0.03    1.00    1.43    13.74030   161.16309    -5.02773
   414  H   1.0    0.04    0.99    1.43    16.39372   162.58809    -3.58597
   415  N   5.0   -0.15    3.56    2.12    17.28660   153.65018    -0.14604
   416  C   4.0    0.04    4.50    4.54    17.10974   151.37078     1.37442
   417  C   4.0    0.17    3.51    3.12    16.16831   151.92977     4.06025
   418  O   6.0   -0.31    1.25    1.80    14.82849   150.63286     5.29498
   419  C   4.0   -0.04    4.34    4.27    19.75831   150.22341     1.57690
   420  C   4.0   -0.03    4.19    3.97    19.56646   147.43062     2.24956
   421  C   4.0    0.24    3.19    3.03    17.85756   146.23324     0.19418
   422  O   6.0   -0.33    1.19    1.80    18.82543   145.84449    -1.88525
   423  O   6.0   -0.31    1.18    1.80    15.62428   145.76627     0.80111
   424  H   1.0    0.11    1.12    1.45    18.92143   153.96422    -0.99300
   425  H   1.0    0.06    1.07    1.44    15.82408   150.01154     0.47335
   426  H   1.0    0.05    1.04    1.43    20.68853   150.40031    -0.23590
   427  H   1.0    0.06    1.02    1.43    20.86727   151.31026     2.97744
   428  H   1.0    0.04    1.02    1.43    21.45398   146.59259     2.26110
   429  H   1.0    0.06    1.01    1.43    18.71810   147.21384     4.14625
   430  N   5.0   -0.13    3.69    2.26    17.19837   154.04879     4.89351
   431  C   4.0    0.04    4.42    4.41    17.06765   154.72127     7.47988
   432  C   4.0    0.15    3.50    3.11    14.59638   156.08691     8.02468
   433  O   6.0   -0.32    1.31    1.80    13.75112   156.22824    10.18364
   434  C   4.0   -0.03    4.20    4.01    19.46500   156.15530     8.35353
   435  C   4.0   -0.02    4.17    3.95    19.03441   158.58977     9.83983
   436  C   4.0    0.26    3.08    3.02    20.61061   160.89687     8.82913
   437  O   6.0   -0.29    1.17    1.80    22.52223   161.48535    10.01993
   438  O   6.0   -0.29    1.18    1.80    19.73038   162.01017     6.98135
   439  H   1.0    0.12    1.12    1.45    18.44907   155.06248     3.77451
   440  H   1.0    0.05    1.07    1.44    16.91516   152.96499     8.56713
   441  H   1.0    0.05    1.01    1.43    20.63061   154.83691     9.48343
   442  H   1.0    0.08    1.03    1.43    20.59746   156.56547     6.66494
   443  H   1.0    0.06    1.05    1.44    17.05839   159.17031     9.65891
   444  H   1.0    0.05    1.02    1.43    19.44637   158.30691    11.83385
   445  N   5.0   -0.13    3.56    2.12    13.25332   157.03139     6.05763
   446  C   4.0    0.04    4.47    4.49    11.07593   158.56498     6.61871
   447  C   4.0    0.15    3.46    3.10     8.54978   157.22992     6.14275
   448  O   6.0   -0.30    1.20    1.80     6.54280   157.93391     7.01409
   449  C   4.0   -0.04    4.33    4.26    11.07813   161.09770     5.23698
   450  C   4.0   -0.03    4.09    3.78    10.05992   160.91251     2.56256
   451  S   6.0   -0.06    2.46    3.10    10.05045   163.92765     0.95601
   452  C   4.0   -0.07    3.88    3.44    13.40291   164.41775     0.60182
   453  H   1.0    0.12    1.12    1.45    14.11326   157.04890     4.32841
   454  H   1.0    0.06    1.09    1.44    11.20987   158.91050     8.66347
   455  H   1.0    0.04    1.03    1.43     9.84524   162.37909     6.31964
   456  H   1.0    0.05    1.03    1.43    13.00800   161.85869     5.28054
   457  H   1.0    0.05    1.06    1.44    11.17024   159.57538     1.43956
   458  H   1.0    0.05    1.07    1.44     8.06717   160.28041     2.59983
   459  H   1.0    0.04    1.04    1.43    13.73230   165.74646    -0.92853
   460  H   1.0    0.05    1.03    1.43    14.29069   165.13120     2.32435
   461  H   1.0    0.04    1.03    1.43    14.31185   162.60725     0.15334
   462  N   5.0   -0.14    3.55    2.11     8.82518   155.25627     4.58050
   463  C   4.0    0.03    4.47    4.49     7.15716   153.12274     4.51635
   464  C   4.0    0.16    3.64    3.19     7.00958   151.80098     7.09724
   465  O   6.0   -0.30    1.34    1.80     5.07770   151.35436     8.09070
   466  C   4.0   -0.05    4.40    4.38     8.18942   151.19969     2.65017
   467  C   4.0   -0.02    4.28    4.17     7.21697   148.57947     3.36430
   468  C   4.0   -0.07    4.12    3.83     4.35005   148.45934     3.12495
   469  C   4.0   -0.07    4.08    3.77     8.64739   146.57536     1.87137
   470  H   1.0    0.10    1.13    1.45    10.66083   154.94636     4.05121
   471  H   1.0    0.05    1.06    1.44     5.27095   153.75287     4.01321
   472  H   1.0    0.04    1.02    1.43     7.65536   151.64802     0.68227
   473  H   1.0    0.06    1.02    1.43    10.27470   151.18872     2.73463
   474  H   1.0    0.05    1.10    1.44     7.67641   148.19050     5.35410
   475  H   1.0    0.04    1.00    1.43     3.71617   146.58787     3.75087
   476  H   1.0    0.05    1.01    1.43     3.40303   149.87558     4.27475
   477  H   1.0    0.03    1.00    1.43     3.76306   148.66036     1.16565
   478  H   1.0    0.06    1.00    1.43     8.02757   144.69950     2.44508
   479  H   1.0    0.05    1.00    1.43     8.32364   146.72142    -0.14721
   480  H   1.0    0.06    0.99    1.43    10.69948   146.72819     2.21457
   481  N   5.0   -0.14    3.58    2.14     9.22325   151.53647     8.23587
   482  C   4.0    0.04    4.35    4.30     9.29162   150.48455    10.76877
   483  C   4.0    0.09    3.44    3.09     7.37546   151.85816    12.19410
   484  O   6.0   -0.28    1.07    1.80     5.41678   150.75896    13.41559
   485  C   4.0   -0.04    4.36    4.31    11.83913   151.22348    11.93984
   486  C   4.0   -0.03    4.15    3.90    13.96107   149.37427    11.55481
   487  C   4.0    0.25    3.11    3.03    15.39557   148.97279    14.11468
   488  O   6.0   -0.31    1.24    1.80    14.38308   149.70184    16.04049
   489  O   6.0   -0.30    1.18    1.80    17.44040   147.88799    14.04513
   490  H   1.0    0.09    1.06    1.44    10.90253   151.49419     7.23680
   491  H   1.0    0.05    1.06    1.44     9.09008   148.47868    10.76272
   492  H   1.0    0.08    1.06    1.44    12.51598   153.09858    11.35306
   493  H   1.0    0.07    1.07    1.44    11.58342   151.26823    14.02108
   494  H   1.0    0.05    1.01    1.43    13.23574   147.49918    10.92000
   495  H   1.0    0.06    1.01    1.43    15.34318   149.89690    10.07432
   496  N   5.0   -0.22    3.19    1.95    16.54663   137.21961    10.94269
   497  C   4.0    0.02    4.19    3.97    16.39993   135.48857     8.75209
   498  C   4.0    0.07    3.18    3.03    17.00125   132.78924     9.71064
   499  O   6.0   -0.32    1.12    1.80    15.86016   130.92009     9.33544
   500  C   4.0   -0.06    4.23    4.06    18.31567   136.37114     6.74075
   501  C   4.0   -0.05    4.16    3.92    17.19343   138.40770     4.99414
   502  C   4.0   -0.01    4.21    4.03    15.21248   137.27149     3.22606
   503  N   5.0   -0.14    3.41    2.03    14.04268   139.17445     1.62061
   504  C   4.0    0.10    3.35    3.06    12.49126   138.70766    -0.30253
   505  N   5.0   -0.17    3.27    1.97    11.80083   136.35095    -0.78806
   506  N   5.0   -0.16    3.27    1.97    11.91689   140.52510    -1.87706
   507  H   1.0    0.08    1.02    1.43    16.70016   139.08273    10.48409
   508  H   1.0    0.04    1.06    1.44    14.49938   135.49872     8.01726
   509  H   1.0    0.03    1.02    1.43    20.00420   137.16121     7.68317
   510  H   1.0    0.04    1.03    1.43    18.91498   134.77081     5.63173
   511  H   1.0    0.04    1.02    1.43    16.33507   139.92019     6.10648
   512  H   1.0    0.04    1.03    1.43    18.71427   139.24069     3.88014
   513  H   1.0    0.04    1.03    1.43    16.08391   135.83411     2.02472
   514  H   1.0    0.04    1.02    1.43    13.72966   136.34124     4.37051
   515  H   1.0    0.09    1.07    1.44    14.48394   141.00936     1.98070
   516  H   1.0    0.08    1.03    1.43    11.99653   134.99296     0.57256
   517  H   1.0    0.12    1.05    1.44    10.40525   135.95167    -2.07321
   518  H   1.0    0.09    1.03    1.43    12.35154   142.34722    -1.37084
   519  H   1.0    0.13    1.05    1.44    10.30860   140.39933    -3.02057
   520  N   5.0   -0.24    3.16    1.95    -0.17450   133.18769   -17.72194
   521  C   4.0    0.03    4.27    4.15     1.83899   133.39699   -15.81173
   522  C   4.0    0.07    3.24    3.04     1.47469   131.35126   -13.83725
   523  O   6.0   -0.32    1.22    1.80     3.21388   130.26419   -12.91193
   524  C   4.0   -0.04    4.26    4.12     2.17055   135.97347   -14.48461
   525  C   4.0    0.15    3.28    3.05     5.01410   136.34293   -14.39776
   526  O   6.0   -0.31    1.24    1.80     6.29517   136.33232   -16.26615
   527  N   5.0   -0.18    3.22    1.96     6.01227   136.64376   -12.08281
   528  H   1.0    0.07    1.01    1.43    -1.10246   134.74754   -18.36903
   529  H   1.0    0.05    1.10    1.44     3.59407   133.02516   -16.75287
   530  H   1.0    0.04    1.01    1.43     1.24492   137.48142   -15.58741
   531  H   1.0    0.04    1.02    1.43     1.36001   135.96897   -12.57189
   532  H   1.0    0.10    1.06    1.44     7.93134   136.45220   -12.04553
   533  H   1.0    0.12    1.05    1.44     5.21910   136.09460   -10.46842
   534  N   5.0   -0.21    3.27    1.97     4.88866   126.33367   -15.71584
   535  C   4.0    0.03    4.27    4.14     7.55226   126.91783   -15.84777
   536  C   4.0    0.15    3.40    3.08     8.76765   126.49142   -13.23417
   537  O   6.0   -0.30    1.25    1.80    10.87186   125.63748   -13.03666
   538  C   4.0   -0.04    4.19    3.98     7.95920   129.65581   -16.85631
   539  C   4.0   -0.05    4.09    3.78     7.34146   130.16890   -19.65750
   540  C   4.0   -0.02    4.12    3.85     9.24960   129.21567   -21.68654
   541  N   5.0   -0.14    3.35    2.00    11.80640   130.24005   -21.55105
   542  C   4.0    0.08    3.32    3.06    13.32756   131.03385   -23.41213
   543  N   5.0   -0.19    3.23    1.96    12.46389   131.88596   -25.60329
   544  N   5.0   -0.19    3.23    1.96    15.82589   131.02818   -23.02051
   545  H   1.0    0.10    1.06    1.44     3.63436   127.76904   -15.74587
   546  H   1.0    0.04    1.06    1.44     8.49506   125.59446   -17.10170
   547  H   1.0    0.06    1.03    1.43     6.80357   130.89747   -15.68121
   548  H   1.0    0.05    1.03    1.43     9.92165   130.14775   -16.49404
   549  H   1.0    0.03    1.02    1.43     5.50264   129.30467   -20.10423
   550  H   1.0    0.05    1.03    1.43     7.13115   132.20511   -19.84846
   551  H   1.0    0.03    1.03    1.43     9.38807   127.16969   -21.50826
   552  H   1.0    0.03    1.03    1.43     8.44719   129.64080   -23.53408
   553  H   1.0    0.08    1.07    1.44    12.70537   129.80025   -19.90258
   554  H   1.0    0.07    1.03    1.43    10.80754   131.19171   -26.27209
   555  H   1.0    0.07    1.03    1.43    13.72940   132.29453   -26.99279
   556  H   1.0    0.08    1.02    1.43    16.60333   130.76947   -21.26624
   557  H   1.0    0.07    1.02    1.43    17.00447   131.83442   -24.31700
   558  N   5.0   -0.14    3.48    2.07     7.33131   126.98038   -11.21530
   559  C   4.0    0.03    4.36    4.31     8.30719   126.35585    -8.72011
   560  C   4.0    0.07    3.18    3.03     8.14608   123.49956    -8.28119
   561  O   6.0   -0.30    1.12    1.80    10.16068   122.31314    -8.21285
   562  C   4.0   -0.05    4.17    3.94     7.16538   128.19473    -6.76858
   563  C   4.0   -0.03    4.16    3.92     8.62548   130.71431    -7.05980
   564  C   4.0    0.25    3.04    3.02     7.50125   133.16637    -5.75818
   565  O   6.0   -0.30    1.19    1.80     7.99272   133.48378    -3.49329
   566  O   6.0   -0.29    1.19    1.80     6.27008   134.61366    -7.17449
   567  H   1.0    0.10    1.08    1.44     5.64954   127.91333   -11.31662
   568  H   1.0    0.07    1.08    1.44    10.35178   126.71335    -8.73139
   569  H   1.0    0.05    1.01    1.43     5.13540   128.46681    -7.14748
   570  H   1.0    0.04    1.02    1.43     7.36314   127.49172    -4.84830
   571  H   1.0    0.05    1.03    1.43    10.51950   130.42909    -6.33295
   572  H   1.0    0.06    1.02    1.43     8.73008   131.15296    -9.09283
   573  H   1.0    0.08    1.07    1.44     0.45770   132.49203   -19.13931
   574  H   1.0    0.04    1.05    1.44    -0.26691   130.87949   -13.27569
   575  H   1.0    0.07    1.07    1.44     4.45574   125.35570   -17.03823
   576  H   1.0    0.04    1.04    1.43     6.46187   122.67047    -8.06414
   577  H   1.0    0.08    1.07    1.44     5.18833   174.86452    -1.69346
   578  H   1.0    0.04    1.04    1.43     9.75377   176.10368     2.42627
   579  H   1.0    0.08    1.08    1.44    -1.83013   152.86593    -9.15882
   580  H   1.0    0.05    1.05    1.44    39.53651   133.98600   -20.12144
   581  H   1.0    0.08    1.08    1.44     4.37063   159.04751   -17.89099
   582  H   1.0    0.04    1.05    1.44     6.77904   162.87240   -22.08686
   583  H   1.0    0.08    1.08    1.44     9.76810   165.92059   -14.94332
   584  H   1.0    0.05    1.05    1.44    18.31593   166.72165   -17.11608
   585  H   1.0    0.08    1.08    1.44    19.51343   168.60948   -11.60160
   586  H   1.0    0.06    1.05    1.44     7.45788   153.74218    12.31556
   587  H   1.0    0.09    1.07    1.44    15.14169   137.05967    11.88774
   588  H   1.0    0.04    1.06    1.44    18.52356   132.48664    10.78863

  Z AO/shell   Hii/eV     exponent
  1     Wed Apr 25 08:07:45 CEST 2018   EN: 2.200 GM2: 0.406  GM3: 0.0800  RAES: 1.40
     1s    -10.707211    1.230000
  6     Wed Apr 25 08:07:45 CEST 2018   EN: 2.550 GM2: 0.538  GM3: 0.1500  RAES: 3.00
     2s    -13.970922    2.096432
     2p    -10.063292    1.800000
  7     Wed Apr 25 08:07:45 CEST 2018   EN: 3.040 GM2: 0.461  GM3:-0.0640  RAES: 1.90
     2s    -16.686243    2.339881
     2p    -12.523956    2.014332
  8     Wed Apr 25 08:07:45 CEST 2018   EN: 3.440 GM2: 0.452  GM3:-0.0517  RAES: 1.80
     2s    -20.229985    2.439742
     2p    -15.503117    2.137023
 16     Tue Apr 24 11:44:34 CEST 2018   EN: 2.580 GM2: 0.340  GM3:-0.0502  RAES: 3.10
     3s    -20.029654    1.981333
     3p    -11.377694    2.025643
     3d     -0.420282    1.702555
 no old-style atom pair restraining (fixing) potential

molecular fragmentation (1/2 indicates fragments):
111111111111111111122222222222222222222222222222222222222222222222222222
222222222222222222222222222222222222222222222222222222222222222222222222
222222222222222222222222222222222222222222222222222222222222222222222222
222222222222222222222222222222222222222222222222222222222222222222222222
222222222222222222222222222222222222222222222222222222222222222222222222
222222222222222222222222222222222222222222222222222222222222222222222222
222222222222222222222222222222222222222222222222222222222222222222222222
222222222222222222222222222222222222222222222222222222222222222222222222
112222222222
# atoms in fragment 1/2:    21   567
 fragment masses (1/2) :      115.17     4008.47
CMA distance (Bohr)    :  26.866
constraining FC (au)   :  0.0500
           ------------------------------------------------- 
          |        Self-Consistent Charge Iterations        |
           ------------------------------------------------- 

 Ncao       : 1455
 Nao        : 1454
 Nshell     : 876
 Nel        : 1632
 T(el)      :   500.0
 intcut     :    35.0
 scfconv/Eh :  0.100E-06
   qconv/e  :  0.100E-04
 intneglect :  0.100E-08
 broydamp   :      0.400
 iter      E             dE          RMSdq      gap      omega  full diag
   1   -939.4981989 -0.939498E+03  0.480E+00    2.26       0.0  T
   2   -942.0227235 -0.252452E+01  0.222E+00    0.99       1.0  T
   3   -942.1833932 -0.160670E+00  0.128E+00    2.02       1.0  T
   4   -942.3418038 -0.158411E+00  0.319E-01    0.69       1.0  T
   5   -942.3586149 -0.168112E-01  0.186E-01    1.14       1.0  T
   6   -942.3627230 -0.410807E-02  0.823E-02    0.92       1.0  T
   7   -942.3638248 -0.110180E-02  0.315E-02    0.96       1.0  T
   8   -942.3639108 -0.860049E-04  0.159E-02    0.95       1.0  T
   9   -942.3639387 -0.278927E-04  0.672E-03    0.95       1.0  T
  10   -942.3639438 -0.504520E-05  0.310E-03    0.94       1.3  T
  11   -942.3639451 -0.129694E-05  0.130E-03    0.94       3.2  T
  12   -942.3639453 -0.216716E-06  0.644E-04    0.94       6.4  T
  13   -942.3639453 -0.519917E-07  0.282E-04    0.94      14.6  T
  14   -942.3639453 -0.890725E-08  0.115E-04    0.93      35.8  T
  15   -942.3639453 -0.167199E-08  0.519E-05    0.93      79.4  T
  16   -942.3639453 -0.263981E-09  0.237E-05    0.93     173.9  T
speedup  1.73
cpu  time for SCC   28.79 s
wall time for SCC   16.63 s

   *** convergence criteria satisfied after 16 iterations ***

          eigenvalues
 #    :         804        805        806        807        808        809        810        811
 occ. :        2.000      2.000      2.000      2.000      2.000      2.000      2.000      2.000
 eps  :        -9.954     -9.920     -9.910     -9.905     -9.867     -9.806     -9.797     -9.775
 #    :         812        813        814        815        816        817        818        819
 occ. :        2.000      2.000      2.000      2.000      2.000      0.000      0.000      0.000
 eps  :        -9.755     -9.733     -9.716     -9.701     -9.468     -8.534     -8.062     -7.913
 #    :         820        821        822        823        824        825        826        827
 occ. :        0.000      0.000      0.000      0.000      0.000      0.000      0.000      0.000
 eps  :        -7.717     -7.529     -7.477     -7.433     -7.161     -6.935     -6.881     -6.816


   #   Z            q   n(s)   n(p)   n(d)      C6AA      α(0)
   1   7 N     -0.392  1.309  4.082  0.000    30.142     8.154
   2   6 C      0.037  1.057  2.906  0.000    19.976     6.367
   3   6 C      0.198  1.098  2.705  0.000    23.780     7.986
   4   8 O     -0.396  1.771  4.625  0.000    21.604     6.232
   5   6 C     -0.068  1.062  3.006  0.000    21.790     6.645
   6   6 C     -0.012  1.056  2.956  0.000    20.755     6.480
   7   6 C     -0.114  1.041  3.073  0.000    22.731     6.798
   8   6 C     -0.115  1.046  3.069  0.000    22.748     6.800
   9   1 H      0.179  0.821  0.000  0.000     1.218     1.728
  10   1 H      0.050  0.950  0.000  0.000     2.320     2.382
  11   1 H      0.060  0.940  0.000  0.000     2.204     2.322
  12   1 H      0.026  0.974  0.000  0.000     2.649     2.545
  13   1 H      0.029  0.971  0.000  0.000     2.594     2.519
  14   1 H      0.050  0.950  0.000  0.000     2.315     2.379
  15   1 H      0.036  0.964  0.000  0.000     2.504     2.475
  16   1 H      0.049  0.951  0.000  0.000     2.331     2.388
  17   1 H      0.048  0.952  0.000  0.000     2.350     2.397
  18   1 H      0.051  0.949  0.000  0.000     2.308     2.376
  19   1 H      0.023  0.977  0.000  0.000     2.689     2.564
  20   7 N     -0.387  1.293  4.094  0.000    30.021     8.138
  21   6 C      0.020  1.053  2.927  0.000    20.226     6.402
  22   6 C      0.274  1.030  2.696  0.000    22.366     7.744
  23   8 O     -0.493  1.724  4.770  0.000    23.634     6.518
  24   6 C     -0.088  1.067  3.021  0.000    22.165     6.701
  25   6 C     -0.012  1.062  2.949  0.000    20.752     6.479
  26   6 C     -0.127  1.044  3.083  0.000    22.999     6.838
  27   6 C     -0.117  1.039  3.078  0.000    22.789     6.806
  28   1 H      0.171  0.829  0.000  0.000     1.269     1.765
  29   1 H      0.060  0.940  0.000  0.000     2.199     2.319
  30   1 H      0.072  0.928  0.000  0.000     2.067     2.248
  31   1 H      0.026  0.974  0.000  0.000     2.640     2.541
  32   1 H      0.006  0.994  0.000  0.000     2.957     2.689
  33   1 H      0.058  0.942  0.000  0.000     2.225     2.333
  34   1 H      0.047  0.953  0.000  0.000     2.353     2.399
  35   1 H      0.062  0.938  0.000  0.000     2.179     2.309
  36   1 H      0.022  0.978  0.000  0.000     2.707     2.573
  37   1 H      0.058  0.942  0.000  0.000     2.223     2.331
  38   1 H      0.023  0.977  0.000  0.000     2.684     2.562
  39   7 N     -0.176  1.246  3.930  0.000    24.817     7.399
  40   6 C      0.030  1.048  2.922  0.000    20.058     6.374
  41   6 C      0.294  1.024  2.683  0.000    22.025     7.687
  42   8 O     -0.492  1.752  4.740  0.000    23.603     6.514
  43   6 C     -0.059  1.066  2.993  0.000    21.633     6.621
  44   6 C     -0.089  1.059  3.030  0.000    22.190     6.706
  45   6 C      0.375  1.016  2.609  0.000    20.648     7.436
  46   8 O     -0.599  1.765  4.834  0.000    26.091     6.848
  47   8 O     -0.639  1.764  4.875  0.000    27.107     6.980
  48   1 H      0.225  0.775  0.000  0.000     0.985     1.555
  49   1 H      0.043  0.957  0.000  0.000     2.405     2.425
  50   1 H      0.053  0.947  0.000  0.000     2.277     2.360
  51   1 H      0.055  0.945  0.000  0.000     2.260     2.351
  52   1 H      0.027  0.973  0.000  0.000     2.628     2.535
  53   1 H      0.010  0.990  0.000  0.000     2.897     2.662
  54   7 N     -0.184  1.249  3.936  0.000    24.992     7.425
  55   6 C      0.021  1.061  2.919  0.000    20.213     6.398
  56   6 C      0.277  1.039  2.684  0.000    22.315     7.739
  57   8 O     -0.501  1.742  4.759  0.000    23.808     6.542
  58   6 C     -0.026  1.061  2.964  0.000    20.997     6.518
  59   6 C     -0.126  1.043  3.083  0.000    22.976     6.835
  60   6 C     -0.137  1.043  3.095  0.000    23.198     6.868
  61   1 H      0.215  0.785  0.000  0.000     1.034     1.593
  62   1 H      0.059  0.941  0.000  0.000     2.217     2.328
  63   1 H      0.049  0.951  0.000  0.000     2.329     2.387
  64   1 H      0.079  0.921  0.000  0.000     1.987     2.205
  65   1 H      0.025  0.975  0.000  0.000     2.658     2.550
  66   1 H      0.057  0.943  0.000  0.000     2.233     2.337
  67   1 H      0.088  0.912  0.000  0.000     1.900     2.155
  68   1 H      0.058  0.942  0.000  0.000     2.219     2.329
  69   1 H      0.051  0.949  0.000  0.000     2.306     2.375
  70   7 N     -0.172  1.246  3.926  0.000    24.725     7.385
  71   6 C      0.022  1.058  2.920  0.000    20.160     6.384
  72   6 C      0.293  1.032  2.675  0.000    22.033     7.687
  73   8 O     -0.484  1.734  4.750  0.000    23.432     6.490
  74   6 C     -0.017  1.050  2.967  0.000    20.837     6.492
  75   6 C     -0.113  1.046  3.067  0.000    22.716     6.795
  76   6 C     -0.128  1.040  3.088  0.000    22.987     6.833
  77   1 H      0.222  0.778  0.000  0.000     1.001     1.567
  78   1 H      0.083  0.917  0.000  0.000     1.949     2.183
  79   1 H      0.046  0.954  0.000  0.000     2.374     2.410
  80   1 H      0.066  0.934  0.000  0.000     2.131     2.283
  81   1 H      0.023  0.977  0.000  0.000     2.685     2.563
  82   1 H      0.053  0.947  0.000  0.000     2.282     2.362
  83   1 H      0.083  0.917  0.000  0.000     1.946     2.181
  84   1 H      0.060  0.940  0.000  0.000     2.195     2.317
  85   1 H      0.047  0.953  0.000  0.000     2.356     2.400
  86   7 N     -0.229  1.269  3.960  0.000    26.019     7.576
  87   6 C      0.024  1.069  2.907  0.000    20.182     6.396
  88   6 C      0.293  1.032  2.674  0.000    22.037     7.692
  89   8 O     -0.495  1.718  4.777  0.000    23.670     6.523
  90   6 C     -0.007  1.051  2.956  0.000    20.669     6.466
  91   6 C     -0.110  1.042  3.068  0.000    22.658     6.788
  92   6 C     -0.103  1.039  3.064  0.000    22.534     6.769
  93   1 H      0.236  0.764  0.000  0.000     0.942     1.520
  94   1 H      0.055  0.945  0.000  0.000     2.259     2.351
  95   1 H      0.037  0.963  0.000  0.000     2.490     2.468
  96   1 H      0.037  0.963  0.000  0.000     2.489     2.467
  97   1 H      0.045  0.955  0.000  0.000     2.377     2.411
  98   1 H      0.036  0.964  0.000  0.000     2.500     2.472
  99   1 H      0.029  0.971  0.000  0.000     2.599     2.521
 100   1 H      0.029  0.971  0.000  0.000     2.602     2.523
 101   1 H      0.064  0.936  0.000  0.000     2.158     2.297
 102   7 N     -0.172  1.252  3.920  0.000    24.721     7.384
 103   6 C      0.056  1.035  2.909  0.000    19.583     6.291
 104   6 C      0.290  1.020  2.690  0.000    22.084     7.697
 105   8 O     -0.552  1.744  4.808  0.000    24.971     6.700
 106   6 C     -0.106  1.067  3.039  0.000    22.504     6.752
 107   6 C      0.285  1.034  2.681  0.000    22.165     7.710
 108   8 O     -0.461  1.746  4.715  0.000    22.930     6.420
 109   7 N     -0.288  1.263  4.025  0.000    27.432     7.779
 110   1 H      0.230  0.770  0.000  0.000     0.965     1.539
 111   1 H      0.056  0.944  0.000  0.000     2.244     2.343
 112   1 H      0.093  0.907  0.000  0.000     1.855     2.130
 113   1 H      0.060  0.940  0.000  0.000     2.200     2.320
 114   1 H      0.225  0.775  0.000  0.000     0.985     1.555
 115   1 H      0.224  0.776  0.000  0.000     0.992     1.560
 116   7 N     -0.174  1.248  3.926  0.000    24.768     7.391
 117   6 C      0.040  1.065  2.895  0.000    19.899     6.350
 118   6 C      0.293  1.036  2.670  0.000    22.025     7.686
 119   8 O     -0.520  1.745  4.775  0.000    24.226     6.599
 120   6 C     -0.060  1.050  3.010  0.000    21.643     6.621
 121   6 C     -0.092  1.071  3.021  0.000    22.249     6.716
 122   6 C      0.381  1.012  2.607  0.000    20.555     7.420
 123   8 O     -0.600  1.722  4.878  0.000    26.111     6.851
 124   8 O     -0.608  1.761  4.847  0.000    26.305     6.876
 125   1 H      0.249  0.751  0.000  0.000     0.888     1.476
 126   1 H      0.051  0.949  0.000  0.000     2.307     2.376
 127   1 H      0.072  0.928  0.000  0.000     2.062     2.246
 128   1 H      0.039  0.961  0.000  0.000     2.463     2.454
 129   1 H     -0.001  1.001  0.000  0.000     3.074     2.742
 130   1 H      0.037  0.963  0.000  0.000     2.485     2.465
 131   7 N     -0.186  1.245  3.941  0.000    25.037     7.431
 132   6 C      0.039  1.055  2.906  0.000    19.922     6.355
 133   6 C      0.269  1.060  2.672  0.000    22.459     7.760
 134   8 O     -0.516  1.758  4.758  0.000    24.144     6.588
 135   6 C     -0.064  1.051  3.013  0.000    21.724     6.636
 136   6 C     -0.075  1.053  3.022  0.000    21.949     6.672
 137   6 C     -0.019  1.063  2.957  0.000    21.029     6.549
 138   7 N     -0.154  1.213  3.940  0.000    24.322     7.325
 139   6 C      0.237  1.018  2.745  0.000    23.039     7.858
 140   7 N     -0.221  1.238  3.983  0.000    25.835     7.549
 141   7 N     -0.242  1.233  4.010  0.000    26.329     7.621
 142   1 H      0.235  0.765  0.000  0.000     0.945     1.523
 143   1 H      0.064  0.936  0.000  0.000     2.149     2.292
 144   1 H      0.055  0.945  0.000  0.000     2.261     2.351
 145   1 H      0.045  0.955  0.000  0.000     2.388     2.417
 146   1 H      0.064  0.936  0.000  0.000     2.150     2.293
 147   1 H      0.081  0.919  0.000  0.000     1.964     2.192
 148   1 H      0.076  0.924  0.000  0.000     2.022     2.224
 149   1 H      0.100  0.900  0.000  0.000     1.785     2.089
 150   1 H      0.186  0.814  0.000  0.000     1.179     1.701
 151   1 H      0.240  0.760  0.000  0.000     0.922     1.504
 152   1 H      0.268  0.732  0.000  0.000     0.816     1.415
 153   1 H      0.229  0.771  0.000  0.000     0.971     1.544
 154   1 H      0.261  0.739  0.000  0.000     0.843     1.438
 155   7 N     -0.201  1.257  3.944  0.000    25.357     7.479
 156   6 C      0.029  1.063  2.908  0.000    20.098     6.384
 157   6 C      0.295  1.031  2.675  0.000    22.002     7.682
 158   8 O     -0.505  1.726  4.779  0.000    23.901     6.555
 159   6 C     -0.074  1.054  3.020  0.000    21.922     6.666
 160   6 C     -0.073  1.054  3.019  0.000    21.903     6.664
 161   6 C     -0.026  1.059  2.967  0.000    21.151     6.567
 162   7 N     -0.144  1.213  3.931  0.000    24.108     7.292
 163   6 C      0.237  1.007  2.756  0.000    23.047     7.860
 164   7 N     -0.241  1.233  4.007  0.000    26.285     7.614
 165   7 N     -0.255  1.232  4.023  0.000    26.614     7.662
 166   1 H      0.229  0.771  0.000  0.000     0.971     1.544
 167   1 H      0.062  0.938  0.000  0.000     2.172     2.305
 168   1 H      0.053  0.947  0.000  0.000     2.284     2.363
 169   1 H      0.081  0.919  0.000  0.000     1.966     2.193
 170   1 H      0.066  0.934  0.000  0.000     2.132     2.283
 171   1 H      0.044  0.956  0.000  0.000     2.392     2.419
 172   1 H      0.086  0.914  0.000  0.000     1.917     2.166
 173   1 H      0.089  0.911  0.000  0.000     1.891     2.150
 174   1 H      0.218  0.782  0.000  0.000     1.017     1.580
 175   1 H      0.232  0.768  0.000  0.000     0.956     1.532
 176   1 H      0.279  0.721  0.000  0.000     0.779     1.383
 177   1 H      0.216  0.784  0.000  0.000     1.030     1.590
 178   1 H      0.268  0.732  0.000  0.000     0.816     1.415
 179   7 N     -0.190  1.259  3.931  0.000    25.127     7.445
 180   6 C      0.048  1.042  2.910  0.000    19.752     6.325
 181   6 C      0.276  1.048  2.676  0.000    22.338     7.740
 182   8 O     -0.503  1.752  4.750  0.000    23.840     6.546
 183   6 C     -0.063  1.053  3.010  0.000    21.710     6.633
 184   6 C     -0.110  1.077  3.033  0.000    22.598     6.769
 185   6 C      0.375  1.023  2.602  0.000    20.649     7.436
 186   8 O     -0.631  1.776  4.856  0.000    26.902     6.954
 187   8 O     -0.645  1.770  4.874  0.000    27.243     6.998
 188   1 H      0.226  0.774  0.000  0.000     0.984     1.554
 189   1 H      0.078  0.922  0.000  0.000     2.004     2.214
 190   1 H      0.053  0.947  0.000  0.000     2.281     2.362
 191   1 H      0.040  0.960  0.000  0.000     2.452     2.449
 192   1 H      0.050  0.950  0.000  0.000     2.324     2.384
 193   1 H      0.018  0.982  0.000  0.000     2.767     2.601
 194   7 N     -0.190  1.266  3.925  0.000    25.130     7.445
 195   6 C      0.029  1.068  2.902  0.000    20.078     6.379
 196   6 C      0.294  1.038  2.668  0.000    22.012     7.683
 197   8 O     -0.499  1.724  4.775  0.000    23.765     6.536
 198   6 C     -0.039  1.045  2.994  0.000    21.262     6.563
 199   6 C     -0.099  1.070  3.029  0.000    22.399     6.738
 200   6 C      0.381  1.013  2.605  0.000    20.545     7.418
 201   8 O     -0.633  1.759  4.874  0.000    26.946     6.960
 202   8 O     -0.622  1.751  4.870  0.000    26.653     6.922
 203   1 H      0.223  0.777  0.000  0.000     0.996     1.563
 204   1 H      0.066  0.934  0.000  0.000     2.128     2.281
 205   1 H      0.018  0.982  0.000  0.000     2.769     2.602
 206   1 H      0.046  0.954  0.000  0.000     2.374     2.409
 207   1 H      0.027  0.973  0.000  0.000     2.631     2.536
 208   1 H      0.019  0.981  0.000  0.000     2.743     2.590
 209   7 N     -0.195  1.249  3.946  0.000    25.235     7.461
 210   6 C      0.041  1.063  2.896  0.000    19.901     6.354
 211   6 C      0.277  1.049  2.673  0.000    22.313     7.736
 212   8 O     -0.479  1.728  4.751  0.000    23.324     6.475
 213   6 C     -0.057  1.058  2.999  0.000    21.612     6.620
 214   6 C     -0.103  1.082  3.021  0.000    22.487     6.754
 215   6 C      0.379  1.014  2.607  0.000    20.581     7.424
 216   8 O     -0.606  1.727  4.879  0.000    26.273     6.872
 217   8 O     -0.643  1.769  4.874  0.000    27.195     6.992
 218   1 H      0.214  0.786  0.000  0.000     1.037     1.595
 219   1 H      0.058  0.942  0.000  0.000     2.222     2.331
 220   1 H      0.040  0.960  0.000  0.000     2.449     2.447
 221   1 H      0.024  0.976  0.000  0.000     2.674     2.557
 222   1 H      0.023  0.977  0.000  0.000     2.686     2.563
 223   1 H      0.016  0.984  0.000  0.000     2.789     2.612
 224   7 N     -0.185  1.250  3.935  0.000    25.001     7.426
 225   6 C      0.011  1.073  2.916  0.000    20.389     6.428
 226   6 C      0.286  1.035  2.679  0.000    22.159     7.708
 227   8 O     -0.496  1.731  4.765  0.000    23.687     6.525
 228   6 C      0.075  1.039  2.886  0.000    19.563     6.340
 229   8 O     -0.450  1.706  4.743  0.000    21.836     6.308
 230   1 H      0.194  0.806  0.000  0.000     1.137     1.671
 231   1 H      0.074  0.926  0.000  0.000     2.040     2.234
 232   1 H      0.083  0.917  0.000  0.000     1.954     2.186
 233   1 H      0.041  0.959  0.000  0.000     2.432     2.439
 234   1 H      0.306  0.694  0.000  0.000     0.703     1.317
 235   7 N     -0.196  1.254  3.943  0.000    25.259     7.464
 236   6 C      0.033  1.057  2.910  0.000    20.034     6.375
 237   6 C      0.272  1.045  2.684  0.000    22.412     7.753
 238   8 O     -0.485  1.738  4.746  0.000    23.449     6.492
 239   6 C     -0.121  1.044  3.077  0.000    22.880     6.821
 240   1 H      0.235  0.765  0.000  0.000     0.944     1.522
 241   1 H      0.062  0.938  0.000  0.000     2.177     2.307
 242   1 H      0.070  0.930  0.000  0.000     2.088     2.260
 243   1 H      0.054  0.946  0.000  0.000     2.272     2.357
 244   1 H      0.059  0.941  0.000  0.000     2.209     2.324
 245   7 N     -0.174  1.248  3.926  0.000    24.761     7.390
 246   6 C      0.017  1.060  2.923  0.000    20.284     6.412
 247   6 C      0.270  1.050  2.680  0.000    22.434     7.755
 248   8 O     -0.484  1.742  4.742  0.000    23.422     6.489
 249   6 C     -0.128  1.042  3.086  0.000    23.020     6.842
 250   1 H      0.210  0.790  0.000  0.000     1.056     1.610
 251   1 H      0.104  0.896  0.000  0.000     1.748     2.068
 252   1 H      0.088  0.912  0.000  0.000     1.898     2.155
 253   1 H      0.073  0.927  0.000  0.000     2.058     2.244
 254   1 H      0.055  0.945  0.000  0.000     2.253     2.347
 255   7 N     -0.180  1.240  3.939  0.000    24.892     7.410
 256   6 C      0.031  1.063  2.906  0.000    20.072     6.382
 257   6 C      0.210  1.084  2.706  0.000    23.553     7.948
 258   8 O     -0.340  1.739  4.601  0.000    20.525     6.074
 259   6 C     -0.127  1.043  3.084  0.000    22.992     6.836
 260   1 H      0.187  0.813  0.000  0.000     1.175     1.698
 261   1 H      0.089  0.911  0.000  0.000     1.890     2.150
 262   1 H      0.082  0.918  0.000  0.000     1.955     2.186
 263   1 H      0.064  0.936  0.000  0.000     2.155     2.296
 264   1 H      0.065  0.935  0.000  0.000     2.144     2.290
 265   7 N     -0.381  1.302  4.079  0.000    29.858     8.115
 266   6 C      0.028  1.049  2.923  0.000    20.111     6.388
 267   6 C      0.193  1.091  2.715  0.000    23.874     8.003
 268   8 O     -0.362  1.733  4.630  0.000    20.940     6.135
 269   6 C     -0.077  1.062  3.015  0.000    21.955     6.667
 270   6 C     -0.072  1.045  3.027  0.000    21.876     6.659
 271   6 C     -0.024  1.055  2.969  0.000    21.037     6.537
 272   7 N     -0.162  1.252  3.910  0.000    24.508     7.353
 273   6 C      0.244  1.009  2.747  0.000    22.912     7.838
 274   7 N     -0.265  1.241  4.023  0.000    26.858     7.697
 275   7 N     -0.276  1.269  4.006  0.000    27.125     7.735
 276   1 H      0.177  0.823  0.000  0.000     1.229     1.737
 277   1 H      0.049  0.951  0.000  0.000     2.331     2.387
 278   1 H      0.079  0.921  0.000  0.000     1.992     2.207
 279   1 H      0.057  0.943  0.000  0.000     2.239     2.340
 280   1 H      0.052  0.948  0.000  0.000     2.293     2.368
 281   1 H      0.057  0.943  0.000  0.000     2.233     2.337
 282   1 H      0.091  0.909  0.000  0.000     1.870     2.139
 283   1 H      0.077  0.923  0.000  0.000     2.011     2.217
 284   1 H      0.255  0.745  0.000  0.000     0.866     1.458
 285   1 H      0.247  0.753  0.000  0.000     0.897     1.484
 286   1 H      0.249  0.751  0.000  0.000     0.887     1.475
 287   1 H      0.210  0.790  0.000  0.000     1.056     1.610
 288   1 H      0.253  0.747  0.000  0.000     0.872     1.463
 289   7 N     -0.388  1.309  4.079  0.000    30.043     8.140
 290   6 C      0.032  1.042  2.926  0.000    20.046     6.375
 291   6 C      0.262  1.047  2.691  0.000    22.588     7.784
 292   8 O     -0.490  1.751  4.739  0.000    23.559     6.508
 293   6 C     -0.128  1.048  3.080  0.000    22.979     6.829
 294   1 H      0.170  0.830  0.000  0.000     1.275     1.769
 295   1 H      0.024  0.976  0.000  0.000     2.667     2.554
 296   1 H      0.031  0.969  0.000  0.000     2.577     2.510
 297   1 H      0.048  0.952  0.000  0.000     2.343     2.394
 298   1 H      0.078  0.922  0.000  0.000     1.998     2.211
 299   7 N     -0.179  1.255  3.924  0.000    24.876     7.408
 300   6 C      0.009  1.065  2.926  0.000    20.430     6.437
 301   6 C      0.215  1.073  2.712  0.000    23.451     7.931
 302   8 O     -0.356  1.734  4.622  0.000    20.828     6.119
 303   6 C     -0.083  1.059  3.025  0.000    22.083     6.689
 304   6 C     -0.098  1.059  3.039  0.000    22.366     6.733
 305   6 C     -0.030  1.055  2.975  0.000    21.195     6.569
 306   7 N     -0.143  1.223  3.920  0.000    24.101     7.291
 307   6 C      0.236  1.014  2.750  0.000    23.058     7.862
 308   7 N     -0.243  1.225  4.018  0.000    26.342     7.623
 309   7 N     -0.261  1.232  4.029  0.000    26.761     7.683
 310   1 H      0.229  0.771  0.000  0.000     0.970     1.543
 311   1 H      0.089  0.911  0.000  0.000     1.893     2.152
 312   1 H      0.080  0.920  0.000  0.000     1.976     2.198
 313   1 H      0.076  0.924  0.000  0.000     2.020     2.223
 314   1 H      0.089  0.911  0.000  0.000     1.891     2.150
 315   1 H      0.092  0.908  0.000  0.000     1.858     2.132
 316   1 H      0.091  0.909  0.000  0.000     1.866     2.136
 317   1 H      0.079  0.921  0.000  0.000     1.992     2.207
 318   1 H      0.225  0.775  0.000  0.000     0.985     1.555
 319   1 H      0.247  0.753  0.000  0.000     0.894     1.481
 320   1 H      0.258  0.742  0.000  0.000     0.855     1.448
 321   1 H      0.234  0.766  0.000  0.000     0.949     1.526
 322   1 H      0.256  0.744  0.000  0.000     0.862     1.454
 323   7 N     -0.370  1.286  4.084  0.000    29.555     8.074
 324   6 C      0.014  1.061  2.925  0.000    20.350     6.423
 325   6 C      0.267  1.050  2.683  0.000    22.493     7.766
 326   8 O     -0.436  1.726  4.710  0.000    22.420     6.348
 327   6 C      0.058  1.044  2.899  0.000    19.827     6.380
 328   8 O     -0.499  1.717  4.782  0.000    22.878     6.457
 329   1 H      0.154  0.846  0.000  0.000     1.374     1.836
 330   1 H      0.079  0.921  0.000  0.000     1.993     2.208
 331   1 H      0.047  0.953  0.000  0.000     2.356     2.401
 332   1 H      0.041  0.959  0.000  0.000     2.439     2.442
 333   1 H      0.322  0.678  0.000  0.000     0.658     1.274
 334   7 N     -0.188  1.240  3.948  0.000    25.077     7.437
 335   6 C      0.012  1.058  2.930  0.000    20.374     6.426
 336   6 C      0.271  1.043  2.686  0.000    22.430     7.761
 337   8 O     -0.463  1.755  4.709  0.000    22.973     6.427
 338   6 C      0.112  1.045  2.843  0.000    18.802     6.185
 339   8 O     -0.490  1.736  4.754  0.000    22.687     6.430
 340   6 C     -0.157  1.047  3.111  0.000    23.599     6.926
 341   1 H      0.224  0.776  0.000  0.000     0.992     1.560
 342   1 H      0.098  0.902  0.000  0.000     1.799     2.098
 343   1 H      0.043  0.957  0.000  0.000     2.415     2.430
 344   1 H      0.334  0.666  0.000  0.000     0.627     1.243
 345   1 H      0.075  0.925  0.000  0.000     2.035     2.231
 346   1 H      0.094  0.906  0.000  0.000     1.840     2.121
 347   1 H      0.085  0.915  0.000  0.000     1.926     2.170
 348   7 N     -0.156  1.241  3.915  0.000    24.369     7.332
 349   6 C      0.023  1.056  2.920  0.000    20.147     6.384
 350   6 C      0.313  1.040  2.647  0.000    21.686     7.629
 351   8 O     -0.518  1.749  4.769  0.000    24.193     6.595
 352   6 C     -0.088  1.064  3.024  0.000    22.174     6.703
 353   6 C     -0.007  1.056  2.950  0.000    20.662     6.466
 354   6 C     -0.108  1.043  3.066  0.000    22.630     6.783
 355   6 C     -0.104  1.043  3.062  0.000    22.562     6.774
 356   1 H      0.241  0.759  0.000  0.000     0.921     1.503
 357   1 H      0.077  0.923  0.000  0.000     2.013     2.219
 358   1 H      0.074  0.926  0.000  0.000     2.040     2.234
 359   1 H      0.060  0.940  0.000  0.000     2.201     2.320
 360   1 H      0.024  0.976  0.000  0.000     2.680     2.560
 361   1 H      0.052  0.948  0.000  0.000     2.300     2.371
 362   1 H      0.034  0.966  0.000  0.000     2.531     2.488
 363   1 H      0.031  0.969  0.000  0.000     2.576     2.510
 364   1 H      0.042  0.958  0.000  0.000     2.420     2.433
 365   1 H      0.053  0.947  0.000  0.000     2.282     2.362
 366   1 H      0.008  0.992  0.000  0.000     2.918     2.672
 367   7 N     -0.219  1.260  3.959  0.000    25.769     7.539
 368   6 C      0.042  1.061  2.897  0.000    19.861     6.345
 369   6 C      0.332  1.022  2.646  0.000    21.365     7.569
 370   8 O     -0.537  1.762  4.774  0.000    24.609     6.651
 371   6 C     -0.070  1.059  3.011  0.000    21.834     6.652
 372   6 C     -0.101  1.076  3.025  0.000    22.434     6.745
 373   6 C      0.372  1.022  2.606  0.000    20.690     7.444
 374   8 O     -0.663  1.784  4.879  0.000    27.715     7.058
 375   8 O     -0.657  1.777  4.880  0.000    27.562     7.039
 376   1 H      0.213  0.787  0.000  0.000     1.040     1.598
 377   1 H      0.024  0.976  0.000  0.000     2.674     2.557
 378   1 H      0.054  0.946  0.000  0.000     2.265     2.354
 379   1 H      0.074  0.926  0.000  0.000     2.039     2.233
 380   1 H      0.044  0.956  0.000  0.000     2.398     2.422
 381   1 H      0.022  0.978  0.000  0.000     2.697     2.568
 382   7 N     -0.204  1.248  3.956  0.000    25.438     7.491
 383   6 C      0.046  1.045  2.910  0.000    19.803     6.334
 384   6 C      0.289  1.036  2.675  0.000    22.098     7.699
 385   8 O     -0.531  1.767  4.763  0.000    24.478     6.633
 386   6 C      0.112  1.044  2.844  0.000    18.832     6.195
 387   8 O     -0.467  1.704  4.763  0.000    22.194     6.359
 388   6 C     -0.136  1.046  3.090  0.000    23.170     6.864
 389   1 H      0.235  0.765  0.000  0.000     0.943     1.521
 390   1 H      0.009  0.991  0.000  0.000     2.899     2.663
 391   1 H      0.031  0.969  0.000  0.000     2.569     2.506
 392   1 H      0.363  0.637  0.000  0.000     0.559     1.174
 393   1 H      0.104  0.896  0.000  0.000     1.750     2.069
 394   1 H      0.035  0.965  0.000  0.000     2.512     2.478
 395   1 H      0.046  0.954  0.000  0.000     2.364     2.405
 396   7 N     -0.184  1.249  3.935  0.000    24.982     7.423
 397   6 C      0.035  1.058  2.907  0.000    19.980     6.363
 398   6 C      0.286  1.039  2.675  0.000    22.161     7.709
 399   8 O     -0.514  1.743  4.771  0.000    24.104     6.582
 400   6 C     -0.077  1.064  3.013  0.000    21.966     6.671
 401   6 C     -0.023  1.058  2.964  0.000    20.946     6.510
 402   6 C     -0.121  1.043  3.078  0.000    22.880     6.821
 403   6 C     -0.124  1.044  3.080  0.000    22.939     6.830
 404   1 H      0.259  0.741  0.000  0.000     0.850     1.444
 405   1 H      0.059  0.941  0.000  0.000     2.210     2.325
 406   1 H      0.043  0.957  0.000  0.000     2.413     2.429
 407   1 H      0.057  0.943  0.000  0.000     2.236     2.339
 408   1 H      0.060  0.940  0.000  0.000     2.200     2.319
 409   1 H      0.084  0.916  0.000  0.000     1.939     2.178
 410   1 H      0.032  0.968  0.000  0.000     2.551     2.498
 411   1 H      0.051  0.949  0.000  0.000     2.307     2.375
 412   1 H      0.076  0.924  0.000  0.000     2.023     2.224
 413   1 H      0.048  0.952  0.000  0.000     2.345     2.395
 414   1 H      0.024  0.976  0.000  0.000     2.678     2.559
 415   7 N     -0.208  1.259  3.949  0.000    25.522     7.503
 416   6 C      0.044  1.055  2.901  0.000    19.831     6.339
 417   6 C      0.300  1.026  2.674  0.000    21.906     7.665
 418   8 O     -0.487  1.722  4.765  0.000    23.496     6.499
 419   6 C     -0.041  1.049  2.992  0.000    21.291     6.567
 420   6 C     -0.090  1.065  3.025  0.000    22.213     6.711
 421   6 C      0.371  1.021  2.608  0.000    20.706     7.447
 422   8 O     -0.597  1.744  4.853  0.000    26.034     6.841
 423   8 O     -0.633  1.769  4.864  0.000    26.934     6.958
 424   1 H      0.226  0.774  0.000  0.000     0.982     1.552
 425   1 H      0.056  0.944  0.000  0.000     2.244     2.343
 426   1 H      0.051  0.949  0.000  0.000     2.311     2.377
 427   1 H      0.006  0.994  0.000  0.000     2.950     2.686
 428   1 H      0.031  0.969  0.000  0.000     2.569     2.507
 429   1 H     -0.002  1.002  0.000  0.000     3.100     2.753
 430   7 N     -0.198  1.253  3.945  0.000    25.303     7.471
 431   6 C      0.059  1.047  2.895  0.000    19.594     6.302
 432   6 C      0.283  1.049  2.668  0.000    22.214     7.719
 433   8 O     -0.502  1.745  4.757  0.000    23.820     6.544
 434   6 C     -0.025  1.051  2.974  0.000    21.019     6.528
 435   6 C     -0.084  1.065  3.019  0.000    22.115     6.697
 436   6 C      0.379  1.020  2.601  0.000    20.589     7.425
 437   8 O     -0.635  1.764  4.871  0.000    27.004     6.967
 438   8 O     -0.628  1.752  4.877  0.000    26.830     6.945
 439   1 H      0.212  0.788  0.000  0.000     1.047     1.603
 440   1 H      0.034  0.966  0.000  0.000     2.534     2.489
 441   1 H      0.007  0.993  0.000  0.000     2.945     2.684
 442   1 H      0.021  0.979  0.000  0.000     2.715     2.577
 443   1 H      0.013  0.987  0.000  0.000     2.842     2.636
 444   1 H      0.008  0.992  0.000  0.000     2.924     2.674
 445   7 N     -0.201  1.261  3.940  0.000    25.373     7.481
 446   6 C      0.026  1.056  2.917  0.000    20.122     6.385
 447   6 C      0.274  1.041  2.685  0.000    22.368     7.745
 448   8 O     -0.459  1.732  4.728  0.000    22.904     6.417
 449   6 C     -0.053  1.048  3.005  0.000    21.502     6.597
 450   6 C     -0.009  1.065  2.945  0.000    20.750     6.487
 451  16 S     -0.149  1.887  4.219  0.043   147.331    20.429
 452   6 C     -0.050  1.050  3.000  0.000    21.541     6.621
 453   1 H      0.224  0.776  0.000  0.000     0.992     1.560
 454   1 H      0.069  0.931  0.000  0.000     2.093     2.263
 455   1 H      0.069  0.931  0.000  0.000     2.100     2.266
 456   1 H      0.032  0.968  0.000  0.000     2.552     2.498
 457   1 H      0.035  0.965  0.000  0.000     2.520     2.483
 458   1 H      0.059  0.941  0.000  0.000     2.216     2.328
 459   1 H      0.093  0.907  0.000  0.000     1.852     2.128
 460   1 H      0.026  0.974  0.000  0.000     2.638     2.540
 461   1 H      0.025  0.975  0.000  0.000     2.655     2.548
 462   7 N     -0.192  1.258  3.934  0.000    25.169     7.451
 463   6 C      0.020  1.059  2.920  0.000    20.232     6.404
 464   6 C      0.300  1.028  2.672  0.000    21.911     7.666
 465   8 O     -0.425  1.713  4.712  0.000    22.177     6.314
 466   6 C     -0.068  1.060  3.008  0.000    21.790     6.644
 467   6 C     -0.004  1.054  2.949  0.000    20.606     6.456
 468   6 C     -0.115  1.041  3.073  0.000    22.751     6.802
 469   6 C     -0.097  1.038  3.059  0.000    22.407     6.750
 470   1 H      0.199  0.801  0.000  0.000     1.111     1.652
 471   1 H      0.099  0.901  0.000  0.000     1.796     2.096
 472   1 H      0.070  0.930  0.000  0.000     2.085     2.258
 473   1 H      0.022  0.978  0.000  0.000     2.704     2.571
 474   1 H      0.010  0.990  0.000  0.000     2.888     2.658
 475   1 H      0.049  0.951  0.000  0.000     2.332     2.388
 476   1 H      0.057  0.943  0.000  0.000     2.232     2.337
 477   1 H      0.048  0.952  0.000  0.000     2.350     2.397
 478   1 H      0.052  0.948  0.000  0.000     2.292     2.367
 479   1 H      0.033  0.967  0.000  0.000     2.549     2.497
 480   1 H      0.020  0.980  0.000  0.000     2.726     2.582
 481   7 N     -0.197  1.260  3.937  0.000    25.286     7.468
 482   6 C      0.055  1.043  2.902  0.000    19.644     6.309
 483   6 C      0.194  1.098  2.709  0.000    23.869     8.004
 484   8 O     -0.423  1.798  4.625  0.000    22.141     6.309
 485   6 C     -0.067  1.054  3.013  0.000    21.763     6.638
 486   6 C     -0.083  1.072  3.011  0.000    22.084     6.692
 487   6 C      0.382  1.016  2.602  0.000    20.528     7.415
 488   8 O     -0.611  1.748  4.864  0.000    26.400     6.889
 489   8 O     -0.645  1.757  4.888  0.000    27.248     6.999
 490   1 H      0.183  0.817  0.000  0.000     1.195     1.713
 491   1 H      0.071  0.929  0.000  0.000     2.070     2.250
 492   1 H      0.057  0.943  0.000  0.000     2.230     2.335
 493   1 H      0.064  0.936  0.000  0.000     2.148     2.292
 494   1 H      0.015  0.985  0.000  0.000     2.807     2.620
 495   1 H     -0.010  1.010  0.000  0.000     3.229     2.810
 496   7 N     -0.386  1.324  4.063  0.000    29.996     8.134
 497   6 C      0.026  1.063  2.911  0.000    20.155     6.396
 498   6 C      0.211  1.081  2.708  0.000    23.532     7.944
 499   8 O     -0.345  1.728  4.618  0.000    20.622     6.088
 500   6 C     -0.082  1.060  3.022  0.000    22.073     6.689
 501   6 C     -0.077  1.052  3.025  0.000    21.973     6.674
 502   6 C     -0.031  1.058  2.973  0.000    21.215     6.573
 503   7 N     -0.156  1.210  3.946  0.000    24.374     7.332
 504   6 C      0.241  1.014  2.744  0.000    22.961     7.845
 505   7 N     -0.245  1.243  4.003  0.000    26.399     7.631
 506   7 N     -0.253  1.266  3.987  0.000    26.574     7.656
 507   1 H      0.148  0.852  0.000  0.000     1.412     1.861
 508   1 H      0.046  0.954  0.000  0.000     2.373     2.409
 509   1 H      0.079  0.921  0.000  0.000     1.985     2.203
 510   1 H      0.081  0.919  0.000  0.000     1.970     2.195
 511   1 H      0.043  0.957  0.000  0.000     2.413     2.429
 512   1 H      0.066  0.934  0.000  0.000     2.133     2.284
 513   1 H      0.099  0.901  0.000  0.000     1.790     2.092
 514   1 H      0.080  0.920  0.000  0.000     1.981     2.201
 515   1 H      0.197  0.803  0.000  0.000     1.123     1.660
 516   1 H      0.251  0.749  0.000  0.000     0.880     1.470
 517   1 H      0.235  0.765  0.000  0.000     0.945     1.523
 518   1 H      0.200  0.800  0.000  0.000     1.108     1.649
 519   1 H      0.249  0.751  0.000  0.000     0.887     1.475
 520   7 N     -0.390  1.313  4.077  0.000    30.084     8.146
 521   6 C      0.035  1.052  2.912  0.000    19.985     6.366
 522   6 C      0.201  1.084  2.716  0.000    23.729     7.978
 523   8 O     -0.358  1.738  4.620  0.000    20.857     6.123
 524   6 C     -0.099  1.067  3.031  0.000    22.377     6.734
 525   6 C      0.296  1.032  2.673  0.000    21.986     7.678
 526   8 O     -0.471  1.728  4.743  0.000    23.150     6.451
 527   7 N     -0.294  1.286  4.008  0.000    27.579     7.800
 528   1 H      0.183  0.817  0.000  0.000     1.197     1.714
 529   1 H      0.068  0.932  0.000  0.000     2.110     2.272
 530   1 H      0.099  0.901  0.000  0.000     1.792     2.093
 531   1 H      0.050  0.950  0.000  0.000     2.323     2.383
 532   1 H      0.183  0.817  0.000  0.000     1.196     1.713
 533   1 H      0.216  0.784  0.000  0.000     1.027     1.588
 534   7 N     -0.397  1.314  4.083  0.000    30.290     8.174
 535   6 C      0.022  1.064  2.914  0.000    20.224     6.406
 536   6 C      0.272  1.046  2.682  0.000    22.397     7.750
 537   8 O     -0.500  1.747  4.753  0.000    23.781     6.538
 538   6 C     -0.072  1.056  3.017  0.000    21.888     6.662
 539   6 C     -0.079  1.057  3.022  0.000    22.007     6.680
 540   6 C     -0.026  1.055  2.971  0.000    21.134     6.562
 541   7 N     -0.136  1.214  3.922  0.000    23.941     7.267
 542   6 C      0.236  1.019  2.744  0.000    23.050     7.860
 543   7 N     -0.248  1.261  3.987  0.000    26.464     7.640
 544   7 N     -0.248  1.246  4.002  0.000    26.460     7.640
 545   1 H      0.160  0.840  0.000  0.000     1.336     1.811
 546   1 H      0.059  0.941  0.000  0.000     2.211     2.325
 547   1 H      0.041  0.959  0.000  0.000     2.438     2.442
 548   1 H      0.026  0.974  0.000  0.000     2.647     2.544
 549   1 H      0.075  0.925  0.000  0.000     2.033     2.230
 550   1 H      0.070  0.930  0.000  0.000     2.081     2.256
 551   1 H      0.089  0.911  0.000  0.000     1.888     2.149
 552   1 H      0.103  0.897  0.000  0.000     1.761     2.075
 553   1 H      0.208  0.792  0.000  0.000     1.064     1.616
 554   1 H      0.266  0.734  0.000  0.000     0.823     1.421
 555   1 H      0.258  0.742  0.000  0.000     0.853     1.446
 556   1 H      0.216  0.784  0.000  0.000     1.030     1.590
 557   1 H      0.239  0.761  0.000  0.000     0.929     1.510
 558   7 N     -0.177  1.250  3.927  0.000    24.836     7.402
 559   6 C      0.024  1.063  2.913  0.000    20.176     6.395
 560   6 C      0.198  1.087  2.714  0.000    23.772     7.985
 561   8 O     -0.357  1.765  4.593  0.000    20.846     6.121
 562   6 C     -0.057  1.059  2.998  0.000    21.600     6.618
 563   6 C     -0.100  1.079  3.021  0.000    22.418     6.742
 564   6 C      0.367  1.028  2.605  0.000    20.769     7.458
 565   8 O     -0.617  1.762  4.855  0.000    26.548     6.908
 566   8 O     -0.635  1.773  4.863  0.000    26.999     6.967
 567   1 H      0.228  0.772  0.000  0.000     0.974     1.546
 568   1 H      0.080  0.920  0.000  0.000     1.981     2.201
 569   1 H      0.047  0.953  0.000  0.000     2.353     2.399
 570   1 H      0.051  0.949  0.000  0.000     2.303     2.373
 571   1 H      0.027  0.973  0.000  0.000     2.627     2.534
 572   1 H      0.019  0.981  0.000  0.000     2.752     2.594
 573   1 H      0.194  0.806  0.000  0.000     1.135     1.668
 574   1 H      0.086  0.914  0.000  0.000     1.921     2.167
 575   1 H      0.195  0.805  0.000  0.000     1.133     1.667
 576   1 H      0.089  0.911  0.000  0.000     1.885     2.147
 577   1 H      0.180  0.820  0.000  0.000     1.212     1.724
 578   1 H      0.080  0.920  0.000  0.000     1.981     2.201
 579   1 H      0.199  0.801  0.000  0.000     1.108     1.649
 580   1 H      0.076  0.924  0.000  0.000     2.025     2.225
 581   1 H      0.163  0.837  0.000  0.000     1.315     1.796
 582   1 H      0.084  0.916  0.000  0.000     1.935     2.175
 583   1 H      0.182  0.818  0.000  0.000     1.201     1.716
 584   1 H      0.064  0.936  0.000  0.000     2.148     2.292
 585   1 H      0.195  0.805  0.000  0.000     1.134     1.668
 586   1 H      0.076  0.924  0.000  0.000     2.018     2.221
 587   1 H      0.172  0.828  0.000  0.000     1.259     1.758
 588   1 H      0.074  0.926  0.000  0.000     2.038     2.233

 Mol. C6AA /au·bohr⁶  :    3212074.674979
 Mol. C8AA /au·bohr⁸  :   70882109.080616
 Mol. α(0) /au        :       2665.580602

 
molecular dipole:
                 x           y           z       tot (Debye)
 q only:     -106.606    -581.205     -47.767
   full:     -106.926    -582.070     -43.459    1508.312
molecular quadrupole (traceless):
                xx          xy          yy          xz          yz          zz
 q only:    39418.730  -23366.294  -83247.099     223.790  -11987.857   43828.370
  q+dip:    39585.274  -23372.889  -83509.137     396.750  -10960.573   43923.863
   full:    39581.063  -23368.475  -83505.374     401.291  -10960.174   43924.311
speedup  1.67
cpu  time for grad   33.32 s
wall time for grad   20.00 s

SCC energy    :    -942.3851324
rep           :      10.8745866
ES            :       4.3913185
AES           :      -0.2576605
AXC           :       0.2590443
disp          :      -0.8237002
XB            :       0.0000000
fix           :       0.0000000
Gborn         :       0.0000000
Gsasa         :       0.0000000
Ghb           :       0.0000000
Gshift        :       0.0000000
Gsolv         :      -1.6347045    -1025.79
Etot ala COSMO:    -942.3851324
grad norm     :       0.7818015
total E       :    -931.4266780
atomizationE  :     165.0536502   103572.73
(atE without considering molecular charge,
 total energy contains solvation terms)
H-L gap (eV)  :          0.9348

------------------------------------------------------------------------
 * finished run on 2019/05/11 at 21:00:42.601     
------------------------------------------------------------------------
 total:
 * wall-time:     0 d,  0 h,  0 min, 21.469 sec
 *  cpu-time:     0 d,  0 h,  0 min, 34.868 sec
 * ratio c/w:     1.624 speedup
 SCF:
 * wall-time:     0 d,  0 h,  0 min, 20.613 sec
 *  cpu-time:     0 d,  0 h,  0 min, 34.367 sec
 * ratio c/w:     1.667 speedup

