      -----------------------------------------------------------      
     |                   =====================                   |     
     |                           x T B                           |     
     |                   =====================                   |     
     |                         S. Grimme                         |     
     |          Mulliken Center for Theoretical Chemistry        |     
     |                    University of Bonn                     |     
     |                 Version 6.0.1 (SAW181210)                 |     
      -----------------------------------------------------------      

   This program is distributed in the hope that it will be useful,
   but WITHOUT ANY WARRANTY; without even the implied warranty of
   MERCHANTABILITY or FITNESS FOR A PARTICULAR PURPOSE.
   
   FOR NON-COMMERCIAL, ACADEMIA USE ONLY.
   
   Cite this work as:
   S. Grimme, C. Bannwarth, P. Shushkov, J. Comput. Theory Chem., 2017,
   13, 1989-2009.
   C. Bannwarth, S. Ehlert and S. Grimme., ChemRxiv, 2018, preprint.
   http://doi.org/10.26434/chemrxiv.7246238.v1
   
   for sTDA-xTB:
   S. Grimme and C. Bannwarth, J. Chem. Phys., 2016, 145, 054103.
   
   in the mass-spec context:
   V. Asgeirsson, C. Bauer and S. Grimme, Chem. Sci., 2017, 8, 4879.
   
   if GBSA is used:
   P. Shushkov, F. März and S. Grimme, unpublished.
   
   for ANC optimizer:
   S. Grimme, unpublished.
   Rational Function algorithm used in ANCopt:
   F. Eckert, P. Pulay, H.-J. Werner, J. Comput. Chem., 1997, 18, 1473.
   
   with help from (in alphabetical order)
   C. Bannwarth, F. Bohle, G. Brandenburg, E. Caldeweyher, M. Checinski,
   S. Dohm, S. Ehlert, S. Ehrlich, F. März, H. Neugebauer, J. Pisarek,
   P. Pracht, P. Shushkov, and S. Spicher.
   
 * started run on 2019/05/04 at 20:22:39.785     
========================================================================
 # omp threads = 2
========================================================================
number of atoms            : 1643
number of electrons        : 4504
charge                     : -10
spin                       : .0
first test random number   : .6421

########################################################################
# WARNING! Please study the warnings concerning your input carefully
#  - Process number higher than OMP_NUM_THREADS, I hope you know what you are doing.
########################################################################

           ------------------------------------------------- 
          |                 G F N 2 - x T B                 |
          | Geometry, Frequencies, Noncovalent interactions |
          |            JCTC 2018 parametrisation            |
           ------------------------------------------------- 
 
      method parameters     
 k(s)        :  1.8500
 k(p)        :  2.2300
 k(d)        :  2.2300
 k(f)        :  2.0000
 kEN (H0ij)  : -2.0000
 D4 a1       :  0.5200
 D4 a2       :  5.0000
 D4 s6       :  1.0000
 D4 s8       :  2.7000
 D4 s9       :  5.0000
 alphaj      :  2.0000

 Solvent             : h2o
 Using internal parameter file: .param_gbsa2_h2o
 Gsolv ref. state (COSMO-RS): gsolv [1 M gas/solution]
 temperature (mdtemp)       :    298.150000000000     
 dielectric constant        :    80.2000000000000     
 rho                        :    1.00000000000000     
 mass                       :    18.0000000000000     
 surface tension            :    15.5689454083859     
 probe radius               :   0.975313790000000     
 vdW radii scaling          :    1.00000000000000     
 Gshift (Eh)                :   1.857443126794793E-003
 c1                         :    1.55243817000000     
 soset                      :   0.130326360000000     
 HB correction              :  T

            Z     q(EN)     CN     RAES       Cart. coordinates
     1  N   5.0   -0.23    3.26    1.97     6.63483   176.38324     6.74821
     2  C   4.0    0.02    4.38    4.35     4.97565   175.62168     8.80612
     3  C   4.0    0.14    3.50    3.11     4.71865   172.76819     9.01777
     4  O   6.0   -0.31    1.32    1.80     4.44464   171.74774    11.10403
     5  C   4.0   -0.03    4.30    4.20     2.31680   176.83489     8.47164
     6  C   4.0   -0.05    4.22    4.05     0.64251   175.30799     6.63105
     7  C   4.0   -0.10    4.09    3.79     2.57381   179.63168     7.60237
     8  C   4.0   -0.08    4.02    3.65    -1.07714   173.39369     7.84803
     9  H   1.0    0.06    1.03    1.43     5.70130   176.54954     5.07013
    10  H   1.0    0.04    1.06    1.44     5.80902   176.30576    10.55979
    11  H   1.0    0.04    1.06    1.44     1.37950   176.79520    10.30468
    12  H   1.0    0.02    1.04    1.43    -0.54802   176.62702     5.58981
    13  H   1.0    0.03    1.05    1.44     1.87083   174.28942     5.32903
    14  H   1.0    0.02    1.00    1.43     0.69164   180.44048     7.37938
    15  H   1.0    0.02    1.00    1.43     3.62638   180.68237     9.02722
    16  H   1.0    0.02    1.00    1.43     3.57914   179.68648     5.80524
    17  H   1.0    0.03    1.00    1.43    -2.15996   172.43749     6.37971
    18  H   1.0    0.05    1.01    1.43     0.06614   172.02742     8.88171
    19  H   1.0    0.04    1.00    1.43    -2.35271   174.36501     9.14249
    20  N   5.0   -0.16    3.56    2.12     4.77912   171.49452     6.85215
    21  C   4.0    0.03    4.44    4.45     4.45597   168.77520     6.81813
    22  C   4.0    0.15    3.44    3.09     6.75955   167.46751     7.93874
    23  O   6.0   -0.31    1.23    1.80     6.82191   165.14504     8.09748
    24  C   4.0   -0.05    4.38    4.35     3.96465   167.79822     4.14795
    25  C   4.0   -0.03    4.21    4.01     1.83114   165.84424     4.03079
    26  C   4.0   -0.09    4.13    3.86    -0.40440   167.13303     2.78546
    27  C   4.0   -0.08    4.09    3.79     2.56625   163.44807     2.60593
    28  H   1.0    0.06    1.06    1.44     5.04557   172.29198     5.11738
    29  H   1.0    0.05    1.07    1.44     2.77979   168.28199     7.90850
    30  H   1.0    0.03    1.05    1.44     3.44119   169.38559     2.94230
    31  H   1.0    0.04    1.04    1.43     5.68241   166.91004     3.43741
    32  H   1.0    0.04    1.07    1.44     1.36249   165.20173     5.92996
    33  H   1.0    0.03    1.00    1.43    -1.96909   165.79700     2.66829
    34  H   1.0    0.03    1.00    1.43    -0.95620   168.76198     3.91929
    35  H   1.0    0.03    1.00    1.43     0.14173   167.74341     0.89573
    36  H   1.0    0.03    1.00    1.43     0.96376   162.15360     2.60026
    37  H   1.0    0.03    1.00    1.43     3.07458   163.94695     0.67274
    38  H   1.0    0.05    1.00    1.43     4.17440   162.57312     3.55080
    39  N   5.0   -0.15    3.55    2.11     8.65306   168.95095     8.67951
    40  C   4.0    0.04    4.47    4.49    10.73175   167.94939    10.14405
    41  C   4.0    0.15    3.47    3.10    10.24798   168.10813    12.98242
    42  O   6.0   -0.31    1.31    1.80    11.65583   167.03099    14.48853
    43  C   4.0   -0.04    4.35    4.30    13.18273   169.28354     9.51099
    44  C   4.0    0.16    3.30    3.05    15.34646   168.30466    11.06435
    45  O   6.0   -0.27    1.24    1.80    15.57134   166.02376    11.47064
    46  N   5.0   -0.20    3.18    1.95    16.92817   170.01297    11.99598
    47  H   1.0    0.07    1.08    1.44     8.78345   170.83501     8.29023
    48  H   1.0    0.07    1.07    1.44    10.99254   165.97085     9.63760
    49  H   1.0    0.04    1.03    1.43    13.62681   168.98118     7.52300
    50  H   1.0    0.03    1.04    1.43    12.97675   171.29799     9.88894
    51  H   1.0    0.08    1.02    1.43    18.43050   169.45362    13.06557
    52  H   1.0    0.06    1.03    1.43    16.64093   171.88569    11.64260
    53  N   5.0   -0.14    3.49    2.07     8.25621   169.42716    13.73264
    54  C   4.0    0.04    4.52    4.56     7.86693   169.79755    16.41038
    55  C   4.0    0.15    3.47    3.10     5.44808   168.77142    17.50453
    56  O   6.0   -0.31    1.64    1.81     3.36749   169.58401    16.85069
    57  C   4.0   -0.03    4.35    4.29     8.19952   172.54332    17.13226
    58  C   4.0    0.14    3.25    3.04     8.82691   172.83811    19.88370
    59  O   6.0   -0.31    1.22    1.80     7.34725   172.09923    21.53343
    60  N   5.0   -0.21    3.18    1.95    11.05679   173.87179    20.41471
    61  H   1.0    0.12    1.13    1.45     6.94096   170.22462    12.57046
    62  H   1.0    0.06    1.12    1.45     9.29934   168.59946    17.27965
    63  H   1.0    0.03    1.04    1.43     9.73776   173.35401    16.02866
    64  H   1.0    0.06    1.05    1.44     6.44963   173.56188    16.75620
    65  H   1.0    0.07    1.02    1.43    11.58969   174.12124    22.24963
    66  H   1.0    0.06    1.03    1.43    12.23220   174.41415    18.98608
    67  N   5.0   -0.14    3.50    2.08     5.80524   166.99319    19.24308
    68  C   4.0    0.03    4.51    4.56     3.75111   165.53810    20.32589
    69  C   4.0    0.15    3.52    3.12     1.66863   167.23130    21.30099
    70  O   6.0   -0.32    1.46    1.80    -0.32125   167.40893    20.14070
    71  C   4.0   -0.03    4.36    4.30     4.66951   163.68617    22.39703
    72  C   4.0   -0.05    4.25    4.11     6.95797   164.75387    23.81622
    73  C   4.0   -0.08    4.13    3.86     5.34603   161.17851    21.21973
    74  C   4.0   -0.08    4.00    3.62     7.67418   163.27421    26.19538
    75  H   1.0    0.07    1.09    1.44     7.53434   166.51320    19.94795
    76  H   1.0    0.05    1.07    1.44     2.94608   164.42694    18.78955
    77  H   1.0    0.04    1.06    1.44     3.13695   163.42917    23.74819
    78  H   1.0    0.04    1.04    1.43     8.58502   164.73119    22.55388
    79  H   1.0    0.04    1.04    1.43     6.53467   166.68706    24.38691
    80  H   1.0    0.05    1.00    1.43     5.98854   159.89538    22.69750
    81  H   1.0    0.04    1.00    1.43     3.67930   160.40183    20.29188
    82  H   1.0    0.04    1.00    1.43     6.84648   161.46952    19.84023
    83  H   1.0    0.04    1.00    1.43     9.31068   164.16616    27.07221
    84  H   1.0    0.04    1.00    1.43     6.08114   163.29122    27.50118
    85  H   1.0    0.05    1.00    1.43     8.12960   161.33535    25.66815
    86  N   5.0   -0.15    3.51    2.09     2.16185   168.53143    23.38725
    87  C   4.0    0.03    4.45    4.46     0.22866   170.04510    24.60801
    88  C   4.0    0.16    3.52    3.13    -1.17919   171.60601    22.67671
    89  O   6.0   -0.32    1.24    1.80    -3.48088   171.85357    22.81277
    90  C   4.0   -0.06    4.30    4.21     1.37572   171.77609    26.59978
    91  C   4.0   -0.06    4.17    3.94     2.05413   170.48352    29.06965
    92  C   4.0   -0.02    4.21    4.02     2.98010   172.42615    31.00284
    93  N   5.0   -0.15    3.38    2.01     4.30291   171.26775    33.14201
    94  C   4.0    0.07    3.33    3.06     5.54068   172.54521    34.92591
    95  N   5.0   -0.22    3.25    1.97     5.64839   175.06421    34.87111
    96  N   5.0   -0.21    3.23    1.96     6.67829   171.29610    36.77974
    97  H   1.0    0.07    1.07    1.44     3.87394   168.57489    24.27353
    98  H   1.0    0.04    1.06    1.44    -1.08470   168.77898    25.56421
    99  H   1.0    0.04    1.03    1.43     3.10293   172.59812    25.83633
   100  H   1.0    0.03    1.04    1.43     0.01890   173.26519    27.03253
   101  H   1.0    0.03    1.03    1.43     0.39117   169.53676    29.83310
   102  H   1.0    0.04    1.03    1.43     3.55646   169.11346    28.74273
   103  H   1.0    0.03    1.03    1.43     4.28401   173.72440    30.07688
   104  H   1.0    0.02    1.03    1.43     1.36060   173.46172    31.74173
   105  H   1.0    0.07    1.06    1.44     4.27456   169.34590    33.27618
   106  H   1.0    0.06    1.03    1.43     4.77723   176.03553    33.45193
   107  H   1.0    0.05    1.02    1.43     6.60270   176.01852    36.24872
   108  H   1.0    0.07    1.02    1.43     6.60270   169.37047    36.83265
   109  H   1.0    0.05    1.02    1.43     7.62882   172.26175    38.15168
   110  N   5.0   -0.14    3.59    2.15     0.22110   172.63024    20.86068
   111  C   4.0    0.03    4.49    4.52    -0.88817   174.24029    18.93127
   112  C   4.0    0.17    3.51    3.12    -2.56625   172.59812    17.30422
   113  O   6.0   -0.31    1.28    1.80    -4.61849   173.34267    16.50487
   114  C   4.0    0.04    4.21    4.02     1.14328   175.58389    17.29477
   115  O   6.0   -0.24    2.19    1.86     2.60971   173.74896    15.95307
   116  C   4.0   -0.09    4.07    3.74     2.88561   177.20527    18.92938
   117  H   1.0    0.09    1.07    1.44     2.12405   172.38080    20.67549
   118  H   1.0    0.04    1.06    1.44    -1.95587   175.76152    19.81945
   119  H   1.0    0.04    1.04    1.43     0.20220   176.82166    15.94362
   120  H   1.0    0.17    1.31    1.50     2.55680   172.12380    16.84124
   121  H   1.0    0.03    1.00    1.43     4.29724   178.13313    17.75020
   122  H   1.0    0.02    1.00    1.43     1.78957   178.64335    19.91582
   123  H   1.0    0.05    1.00    1.43     3.84559   176.02608    20.31833
   124  N   5.0   -0.12    3.64    2.20    -1.69130   170.30588    16.86580
   125  C   4.0    0.04    4.52    4.56    -3.12939   168.61458    15.32379
   126  C   4.0    0.16    3.54    3.13    -5.57847   167.98341    16.66549
   127  O   6.0   -0.30    1.44    1.80    -7.57024   168.90560    15.88882
   128  C   4.0   -0.04    4.37    4.32    -1.60627   166.25998    14.65860
   129  C   4.0   -0.03    4.17    3.94    -2.48688   164.82946    12.28700
   130  C   4.0   -0.08    4.12    3.84    -4.62038   166.15982    10.79222
   131  C   4.0   -0.08    4.11    3.82    -0.24566   164.34758    10.55223
   132  H   1.0    0.13    1.17    1.46    -0.03024   169.59912    17.54422
   133  H   1.0    0.05    1.08    1.44    -3.59237   169.50086    13.52288
   134  H   1.0    0.06    1.04    1.43     0.34960   166.82312    14.34491
   135  H   1.0    0.05    1.04    1.43    -1.71776   164.94851    16.24408
   136  H   1.0    0.03    1.06    1.44    -3.29379   163.05122    12.94462
   137  H   1.0    0.03    1.00    1.43    -5.11171   165.00898     9.15572
   138  H   1.0    0.05    1.00    1.43    -6.26255   166.37525    12.01677
   139  H   1.0    0.04    1.00    1.43    -3.95520   168.00986    10.17617
   140  H   1.0    0.03    1.00    1.43    -0.89762   163.33468     8.88171
   141  H   1.0    0.04    1.00    1.43     0.57826   166.15415    10.00232
   142  H   1.0    0.05    1.00    1.43     1.15084   163.21752    11.55945
   143  N   5.0   -0.14    3.53    2.10    -5.39517   166.46407    18.68183
   144  C   4.0    0.03    4.45    4.46    -7.56079   165.60424    20.18794
   145  C   4.0    0.16    3.56    3.14    -9.63004   167.51476    19.97251
   146  O   6.0   -0.32    1.28    1.80   -11.80890   166.83635    19.57945
   147  C   4.0   -0.05    4.34    4.26    -6.85404   165.31512    22.96395
   148  C   4.0   -0.04    4.28    4.16    -4.57314   163.72775    23.34189
   149  C   4.0   -0.01    4.24    4.07    -3.93819   163.38382    26.08389
   150  N   5.0   -0.13    3.41    2.03    -1.82170   161.62448    26.29554
   151  C   4.0    0.11    3.35    3.07    -1.41163   160.06357    28.22873
   152  N   5.0   -0.17    3.27    1.97    -2.97821   159.96530    30.19782
   153  N   5.0   -0.17    3.25    1.97     0.58204   158.55746    28.18148
   154  H   1.0    0.09    1.09    1.44    -3.71898   165.77432    19.33946
   155  H   1.0    0.04    1.06    1.44    -8.18440   163.76743    19.49630
   156  H   1.0    0.05    1.04    1.43    -6.47420   167.17839    23.75574
   157  H   1.0    0.04    1.03    1.43    -8.42062   164.42883    23.96550
   158  H   1.0    0.06    1.05    1.44    -4.90384   161.86637    22.52364
   159  H   1.0    0.05    1.05    1.44    -2.96498   164.62726    22.42160
   160  H   1.0    0.03    1.03    1.43    -3.39584   165.19039    26.91159
   161  H   1.0    0.05    1.03    1.43    -5.55957   162.60714    27.08922
   162  H   1.0    0.07    1.06    1.44    -0.55369   161.58858    24.84423
   163  H   1.0    0.08    1.03    1.43    -4.53345   161.10103    30.24884
   164  H   1.0    0.08    1.02    1.43    -2.62105   158.75399    31.65291
   165  H   1.0    0.09    1.03    1.43     1.78579   158.59903    26.67726
   166  H   1.0    0.10    1.03    1.43     0.91652   157.35370    29.64980
   167  N   5.0   -0.12    3.61    2.16    -8.88549   169.91471    20.19739
   168  C   4.0    0.04    4.36    4.31   -10.57302   172.06711    19.95929
   169  C   4.0    0.16    3.62    3.18   -11.81268   172.04443    17.39115
   170  O   6.0   -0.31    1.41    1.80   -14.00665   171.33956    17.12848
   171  C   4.0   -0.08    4.15    3.90    -9.12549   174.51430    20.35991
   172  H   1.0    0.10    1.08    1.44    -7.06380   170.43438    20.55644
   173  H   1.0    0.04    1.06    1.44   -12.04511   171.96506    21.39737
   174  H   1.0    0.03    1.00    1.43   -10.42562   176.10167    20.17471
   175  H   1.0    0.04    1.00    1.43    -8.29779   174.50296    22.24585
   176  H   1.0    0.07    1.02    1.43    -7.64016   174.65414    18.94072
   177  N   5.0   -0.13    3.63    2.19   -10.38215   172.72473    15.46363
   178  C   4.0    0.04    4.50    4.54   -11.51599   172.96284    13.00509
   179  C   4.0    0.16    3.49    3.11   -12.85203   170.52320    12.30212
   180  O   6.0   -0.32    1.27    1.80   -14.22775   170.41738    10.44452
   181  C   4.0   -0.04    4.27    4.13    -9.56768   173.85101    11.07946
   182  C   4.0   -0.04    4.21    4.03   -10.57491   175.94671     9.38060
   183  C   4.0    0.14    3.21    3.04   -11.28355   178.36934    10.81301
   184  O   6.0   -0.32    1.21    1.80   -13.09202   178.40525    12.28889
   185  N   5.0   -0.21    3.16    1.95    -9.86815   180.39702    10.35381
   186  H   1.0    0.11    1.09    1.44    -8.49621   173.10835    15.55244
   187  H   1.0    0.07    1.09    1.44   -12.97108   174.42171    12.99565
   188  H   1.0    0.05    1.04    1.43    -7.91606   174.57288    12.07724
   189  H   1.0    0.04    1.03    1.43    -9.02911   172.26175     9.88516
   190  H   1.0    0.03    1.03    1.43    -9.12738   176.43426     7.99921
   191  H   1.0    0.05    1.03    1.43   -12.26621   175.26641     8.42062
   192  H   1.0    0.06    1.02    1.43    -8.40361   180.28741     9.10659
   193  H   1.0    0.07    1.02    1.43   -10.24798   182.05998    11.24954
   194  N   5.0   -0.12    3.69    2.26   -12.47408   168.58245    13.84980
   195  C   4.0    0.04    4.40    4.39   -13.52666   166.10691    13.34713
   196  C   4.0    0.15    3.61    3.17   -16.23842   166.05211    14.16539
   197  O   6.0   -0.31    1.38    1.80   -17.87681   165.16583    12.78211
   198  C   4.0   -0.07    4.15    3.90   -12.03944   164.09813    14.70396
   199  H   1.0    0.12    1.16    1.46   -11.44040   168.67316    15.47497
   200  H   1.0    0.05    1.06    1.44   -13.40572   165.69684    11.33269
   201  H   1.0    0.04    1.00    1.43   -12.86903   162.25754    14.29389
   202  H   1.0    0.04    1.00    1.43   -10.08736   164.15104    14.04822
   203  H   1.0    0.07    1.03    1.43   -12.10936   164.46474    16.72974
   204  N   5.0   -0.14    3.61    2.17   -16.69006   167.02154    16.43306
   205  C   4.0    0.04    4.43    4.44   -19.21851   167.21996    17.46674
   206  C   4.0    0.16    3.52    3.12   -20.95139   168.17238    15.39938
   207  O   6.0   -0.30    1.23    1.80   -23.23985   167.85302    15.50331
   208  C   4.0   -0.05    4.30    4.19   -19.26954   169.08134    19.69094
   209  C   4.0   -0.05    4.18    3.95   -18.02043   168.20262    22.14003
   210  C   4.0   -0.01    4.24    4.08   -19.36780   165.93306    23.19261
   211  N   5.0   -0.15    3.38    2.01   -20.07834   166.24864    25.84956
   212  C   4.0    0.08    3.33    3.06   -19.38670   164.71607    27.73740
   213  N   5.0   -0.18    3.25    1.97   -17.91460   162.71674    27.29331
   214  N   5.0   -0.20    3.22    1.96   -20.17660   165.18095    30.09389
   215  H   1.0    0.11    1.10    1.44   -15.32001   167.69428    17.61225
   216  H   1.0    0.05    1.05    1.44   -19.85157   165.38693    18.16216
   217  H   1.0    0.05    1.03    1.43   -18.30200   170.80288    19.10513
   218  H   1.0    0.04    1.03    1.43   -21.23863   169.49519    20.13314
   219  H   1.0    0.06    1.03    1.43   -16.06078   167.68672    21.76775
   220  H   1.0    0.03    1.03    1.43   -18.09791   169.71629    23.53465
   221  H   1.0    0.04    1.04    1.43   -21.08745   165.60991    22.10790
   222  H   1.0    0.04    1.05    1.44   -18.13003   164.29277    23.05466
   223  H   1.0    0.06    1.06    1.44   -21.18950   167.75853    26.29554
   224  H   1.0    0.08    1.04    1.43   -17.30611   162.34636    25.50185
   225  H   1.0    0.09    1.02    1.43   -17.39682   161.55834    28.74462
   226  H   1.0    0.06    1.02    1.43   -21.30477   166.70217    30.44915
   227  H   1.0    0.07    1.02    1.43   -19.65126   164.01309    31.53386
   228  N   5.0   -0.13    3.65    2.21   -19.81378   169.32700    13.48886
   229  C   4.0    0.04    4.40    4.38   -21.24052   170.61391    11.52544
   230  C   4.0    0.16    3.47    3.10   -22.84112   168.79599     9.95508
   231  O   6.0   -0.29    1.23    1.80   -24.97462   169.42716     9.23509
   232  C   4.0   -0.04    4.27    4.14   -19.46796   172.19939     9.85303
   233  C   4.0   -0.02    4.20    4.00   -18.79521   171.09579     7.24710
   234  C   4.0    0.23    3.11    3.03   -20.08212   172.53576     5.09848
   235  O   6.0   -0.30    1.17    1.80   -22.38002   173.13669     5.36115
   236  O   6.0   -0.31    1.17    1.80   -18.78766   173.08756     3.16718
   237  H   1.0    0.10    1.14    1.45   -17.90326   169.40637    13.24509
   238  H   1.0    0.05    1.06    1.44   -22.55199   171.91404    12.43818
   239  H   1.0    0.05    1.04    1.43   -20.36747   174.02297     9.52044
   240  H   1.0    0.06    1.05    1.44   -17.69728   172.46206    10.87159
   241  H   1.0    0.06    1.03    1.43   -16.75809   171.20917     6.96931
   242  H   1.0    0.05    1.06    1.44   -19.40938   169.13047     7.16395
   243  N   5.0   -0.13    3.51    2.09   -21.83578   166.54155     9.46942
   244  C   4.0    0.04    4.45    4.46   -23.02442   164.88615     7.64772
   245  C   4.0    0.14    3.46    3.10   -23.66315   162.33124     8.74754
   246  O   6.0   -0.28    1.74    1.81   -22.52553   161.50354    10.59380
   247  C   4.0    0.03    4.17    3.94   -21.33312   164.60647     5.33659
   248  O   6.0   -0.27    2.12    1.84   -22.68805   163.43673     3.36938
   249  H   1.0    0.12    1.10    1.44   -20.24085   165.84424    10.29523
   250  H   1.0    0.06    1.08    1.44   -24.83100   165.69873     7.08647
   251  H   1.0    0.04    1.02    1.43   -20.71140   166.46974     4.71865
   252  H   1.0    0.04    1.03    1.43   -19.70228   163.44618     5.82414
   253  H   1.0    0.11    1.01    1.43   -22.75986   164.55734     1.89728
   254  N   5.0   -0.13    3.55    2.11   -25.51319   161.10103     7.59859
   255  C   4.0    0.03    4.58    4.64   -26.22562   158.56879     8.32802
   256  C   4.0    0.15    3.62    3.18   -24.10156   156.82647     7.68741
   257  O   6.0   -0.30    1.40    1.80   -22.97907   157.03434     5.67296
   258  C   4.0    0.05    4.32    4.24   -28.38368   157.60692     6.73876
   259  O   6.0   -0.26    2.14    1.85   -27.95472   158.35903     4.16685
   260  C   4.0   -0.08    4.07    3.75   -30.89513   158.60848     7.71197
   261  H   1.0    0.08    1.07    1.44   -26.55821   161.81723     6.14539
   262  H   1.0    0.03    1.06    1.44   -26.72450   158.59147    10.32735
   263  H   1.0    0.04    1.05    1.44   -28.49896   155.55279     6.82947
   264  H   1.0    0.14    1.05    1.44   -26.14436   158.61226     3.87394
   265  H   1.0    0.03    1.00    1.43   -32.43715   157.89794     6.54601
   266  H   1.0    0.03    1.00    1.43   -31.19182   157.99810     9.65650
   267  H   1.0    0.04    1.00    1.43   -30.90458   160.66639     7.64961
   268  N   5.0   -0.15    3.49    2.07   -23.59890   155.07091     9.39194
   269  C   4.0    0.03    4.45    4.46   -21.94728   152.96576     8.84959
   270  C   4.0    0.16    3.63    3.18   -21.98129   152.41207     6.05468
   271  O   6.0   -0.31    1.44    1.80   -20.06511   152.69175     4.79046
   272  C   4.0   -0.05    4.39    4.37   -22.85435   150.59415    10.22342
   273  C   4.0   -0.03    4.19    3.97   -21.07044   148.31514     9.98531
   274  C   4.0   -0.08    4.08    3.76   -19.54733   147.95798    12.45140
   275  C   4.0   -0.07    4.09    3.78   -22.49908   145.90952     9.29745
   276  H   1.0    0.08    1.06    1.44   -24.31699   155.05957    11.18151
   277  H   1.0    0.04    1.05    1.44   -20.04054   153.43819     9.47131
   278  H   1.0    0.05    1.04    1.43   -23.04710   151.03068    12.22653
   279  H   1.0    0.05    1.04    1.44   -24.67982   150.04235     9.44485
   280  H   1.0    0.04    1.06    1.44   -19.74575   148.68175     8.45085
   281  H   1.0    0.04    1.00    1.43   -18.29822   146.33471    12.23787
   282  H   1.0    0.04    1.00    1.43   -18.43806   149.65685    12.80667
   283  H   1.0    0.04    1.00    1.43   -20.85691   147.63673    14.00854
   284  H   1.0    0.05    1.00    1.43   -21.15926   144.35239     9.15005
   285  H   1.0    0.04    1.00    1.43   -23.88425   145.50890    10.76766
   286  H   1.0    0.04    1.00    1.43   -23.45150   146.18920     7.49276
   287  N   5.0   -0.15    3.52    2.09   -24.18849   151.64862     5.11549
   288  C   4.0    0.03    4.43    4.43   -24.53242   150.83415     2.50011
   289  C   4.0    0.17    3.57    3.15   -22.57467   152.00011     0.80313
   290  O   6.0   -0.29    1.25    1.80   -21.28020   150.68108    -0.60660
   291  C   4.0   -0.05    4.28    4.16   -27.16859   151.54279     1.53824
   292  C   4.0   -0.03    4.20    4.00   -27.55976   151.18563    -1.31525
   293  C   4.0    0.24    3.12    3.03   -27.48228   148.42663    -2.11649
   294  O   6.0   -0.30    1.17    1.80   -29.43248   147.10383    -1.82925
   295  O   6.0   -0.27    1.17    1.80   -25.46595   147.59705    -3.04246
   296  H   1.0    0.07    1.06    1.44   -25.81555   151.57114     6.14539
   297  H   1.0    0.06    1.06    1.44   -24.33400   148.78568     2.43586
   298  H   1.0    0.04    1.03    1.43   -28.55565   150.36549     2.50578
   299  H   1.0    0.05    1.03    1.43   -27.50874   153.52890     1.96531
   300  H   1.0    0.04    1.03    1.43   -29.40036   151.94908    -1.84059
   301  H   1.0    0.06    1.04    1.43   -26.06877   152.18341    -2.32625
   302  N   5.0   -0.12    3.61    2.17   -22.38002   154.49454     0.98455
   303  C   4.0    0.04    4.52    4.57   -20.61502   155.97231    -0.49889
   304  C   4.0    0.16    3.54    3.14   -17.94484   155.27122     0.13984
   305  O   6.0   -0.32    1.43    1.80   -16.58046   154.21487    -1.41729
   306  C   4.0    0.05    4.33    4.25   -20.86257   158.76344     0.12850
   307  O   6.0   -0.25    2.12    1.84   -23.49118   159.41917     0.35905
   308  C   4.0   -0.07    4.08    3.76   -19.56433   160.35459    -1.89162
   309  H   1.0    0.11    1.10    1.44   -23.44961   155.56791     2.17507
   310  H   1.0    0.06    1.06    1.44   -21.02509   155.62082    -2.48688
   311  H   1.0    0.05    1.07    1.44   -19.94228   159.17918     1.92374
   312  H   1.0    0.14    1.06    1.44   -23.67827   160.91394     1.43808
   313  H   1.0    0.04    1.00    1.43   -19.74386   162.35580    -1.43619
   314  H   1.0    0.04    1.00    1.43   -17.56500   159.86893    -1.99366
   315  H   1.0    0.05    1.00    1.43   -20.43172   160.00688    -3.72843
   316  N   5.0   -0.13    3.66    2.22   -17.24186   155.88916     2.46798
   317  C   4.0    0.03    4.46    4.48   -14.71152   155.50933     3.42229
   318  C   4.0    0.16    3.53    3.13   -13.86870   152.89395     2.68341
   319  O   6.0   -0.33    1.41    1.80   -12.05078   152.60482     1.27368
   320  C   4.0   -0.05    4.38    4.35   -14.65294   155.85137     6.28523
   321  C   4.0   -0.02    4.25    4.10   -16.46518   157.84314     7.36237
   322  C   4.0   -0.08    4.10    3.81   -16.09858   158.30423    10.17239
   323  C   4.0   -0.07    4.16    3.93   -16.20818   160.30923     5.96209
   324  H   1.0    0.09    1.11    1.45   -18.42294   156.67907     3.77000
   325  H   1.0    0.04    1.06    1.44   -13.42461   156.91339     2.63995
   326  H   1.0    0.04    1.04    1.43   -15.13859   154.05046     7.15828
   327  H   1.0    0.03    1.03    1.43   -12.74431   156.40506     6.82758
   328  H   1.0    0.06    1.07    1.44   -18.36814   157.09670     7.11104
   329  H   1.0    0.05    1.00    1.43   -17.44406   159.73287    10.79789
   330  H   1.0    0.04    1.00    1.43   -16.42172   156.54301    11.18907
   331  H   1.0    0.04    1.00    1.43   -14.17294   158.95997    10.49932
   332  H   1.0    0.05    1.01    1.43   -17.51776   161.67928     6.77089
   333  H   1.0    0.03    1.00    1.43   -14.27310   160.98953     6.15295
   334  H   1.0    0.04    1.02    1.43   -16.65227   160.00121     3.97409
   335  N   5.0   -0.14    3.53    2.10   -15.28032   151.00800     3.54324
   336  C   4.0    0.03    4.41    4.40   -14.71152   148.37183     3.01222
   337  C   4.0    0.16    3.50    3.12   -14.19373   147.96743     0.22299
   338  O   6.0   -0.31    1.24    1.80   -12.36637   146.69565    -0.46676
   339  C   4.0   -0.04    4.25    4.10   -16.90927   146.68809     3.86071
   340  C   4.0   -0.03    4.14    3.88   -16.59935   143.81570     3.36182
   341  C   4.0    0.23    3.09    3.02   -16.22519   142.19243     5.76933
   342  O   6.0   -0.29    1.15    1.80   -17.98830   140.65608     6.35515
   343  O   6.0   -0.31    1.17    1.80   -14.18428   142.43431     7.02033
   344  H   1.0    0.10    1.10    1.44   -16.85447   151.24611     4.62983
   345  H   1.0    0.05    1.06    1.44   -13.03155   147.84082     4.07803
   346  H   1.0    0.04    1.03    1.43   -17.15682   146.92808     5.89217
   347  H   1.0    0.06    1.03    1.43   -18.60813   147.29847     2.86671
   348  H   1.0    0.06    1.03    1.43   -18.29066   143.12973     2.40751
   349  H   1.0    0.06    1.03    1.43   -14.94962   143.53224     2.16185
   350  N   5.0   -0.13    3.56    2.13   -15.79244   149.05780    -1.37761
   351  C   4.0    0.04    4.48    4.51   -15.59213   148.55514    -4.07236
   352  C   4.0    0.16    3.52    3.12   -13.38115   149.97432    -5.06636
   353  O   6.0   -0.31    1.27    1.80   -12.00165   149.05213    -6.64995
   354  C   4.0   -0.03    4.28    4.17   -17.97885   149.29780    -5.53690
   355  C   4.0   -0.02    4.18    3.96   -18.76120   147.29658    -7.50977
   356  C   4.0    0.25    3.11    3.03   -20.02354   148.40963    -9.83224
   357  O   6.0   -0.28    1.19    1.80   -20.54699   150.72265    -9.86248
   358  O   6.0   -0.29    1.17    1.80   -20.48463   146.96021   -11.64449
   359  H   1.0    0.12    1.08    1.44   -17.20973   150.26534    -0.87872
   360  H   1.0    0.06    1.07    1.44   -15.38615   146.52557    -4.36338
   361  H   1.0    0.08    1.04    1.43   -19.53599   149.52646    -4.20842
   362  H   1.0    0.07    1.04    1.43   -17.63303   151.07036    -6.52900
   363  H   1.0    0.07    1.03    1.43   -17.07934   146.28369    -8.13149
   364  H   1.0    0.06    1.03    1.43   -20.08968   145.98700    -6.63672
   365  N   5.0   -0.14    3.66    2.22   -13.02399   152.21365    -4.05724
   366  C   4.0    0.04    4.51    4.56   -11.09836   153.84637    -4.98888
   367  C   4.0    0.16    3.57    3.15    -8.48109   153.09237    -4.00055
   368  O   6.0   -0.32    1.34    1.80    -6.55735   153.70086    -5.14005
   369  C   4.0   -0.03    4.50    4.53   -11.77677   156.51277    -4.27645
   370  C   4.0   -0.04    4.18    3.96   -10.70341   157.26866    -1.79713
   371  S   6.0   -0.02    2.73    3.11    -7.76299   158.79178    -2.44342
   372  C   4.0   -0.07    3.95    3.54    -8.96486   161.82479    -3.35426
   373  H   1.0    0.13    1.19    1.46   -14.04822   152.93552    -2.59270
   374  H   1.0    0.05    1.07    1.44   -11.00009   153.77834    -7.04490
   375  H   1.0    0.05    1.09    1.44   -11.04545   157.79779    -5.70886
   376  H   1.0    0.05    1.04    1.44   -13.82712   156.67718    -4.16307
   377  H   1.0    0.04    1.07    1.44   -11.96574   158.58202    -0.83526
   378  H   1.0    0.07    1.11    1.45   -10.37837   155.61137    -0.61794
   379  H   1.0    0.04    1.09    1.44    -7.38505   163.05500    -3.83425
   380  H   1.0    0.05    1.04    1.43   -10.19696   161.59425    -4.98888
   381  H   1.0    0.03    1.09    1.44   -10.02689   162.62604    -1.78012
   382  N   5.0   -0.14    3.56    2.12    -8.39227   151.76200    -1.89351
   383  C   4.0    0.04    4.46    4.47    -6.03389   150.60738    -1.12628
   384  C   4.0    0.16    3.60    3.17    -5.20808   148.67986    -3.06891
   385  O   6.0   -0.31    1.44    1.80    -3.14639   148.88584    -4.09504
   386  C   4.0   -0.05    4.39    4.36    -6.31357   149.31859     1.42296
   387  C   4.0   -0.02    4.22    4.05    -5.15895   146.68620     1.80847
   388  C   4.0   -0.08    4.06    3.72    -2.22232   146.51423     1.56658
   389  C   4.0   -0.07    4.11    3.82    -6.05468   145.75078     4.35771
   390  H   1.0    0.12    1.15    1.45    -9.87949   151.45587    -0.70676
   391  H   1.0    0.05    1.06    1.44    -4.61282   152.08892    -0.95053
   392  H   1.0    0.03    1.05    1.44    -5.44619   150.54502     2.83270
   393  H   1.0    0.06    1.05    1.44    -8.32991   149.12961     1.79902
   394  H   1.0    0.05    1.09    1.44    -5.79579   145.47488     0.26834
   395  H   1.0    0.04    1.00    1.43    -1.63650   144.56404     1.87650
   396  H   1.0    0.05    1.01    1.43    -1.66863   147.12083    -0.32125
   397  H   1.0    0.04    1.00    1.43    -1.36060   147.74066     2.98010
   398  H   1.0    0.05    1.00    1.43    -5.26856   143.87806     4.69786
   399  H   1.0    0.04    1.00    1.43    -5.41218   147.05847     5.81469
   400  H   1.0    0.05    1.00    1.43    -8.11259   145.65819     4.35393
   401  N   5.0   -0.14    3.58    2.14    -6.82380   146.79391    -3.51678
   402  C   4.0    0.03    4.44    4.44    -6.35704   144.85505    -5.38761
   403  C   4.0    0.17    3.58    3.16    -4.92652   146.09093    -7.53056
   404  O   6.0   -0.31    1.28    1.80    -2.94230   145.20276    -8.33369
   405  C   4.0   -0.04    4.36    4.31    -8.84959   143.88940    -6.43263
   406  C   4.0   -0.03    4.16    3.91   -10.44074   142.21511    -4.73565
   407  C   4.0    0.24    3.11    3.02   -12.90305   141.40252    -6.07925
   408  O   6.0   -0.29    1.19    1.80   -13.43973   142.40219    -8.17495
   409  O   6.0   -0.28    1.15    1.80   -14.32412   139.77925    -5.05880
   410  H   1.0    0.10    1.07    1.44    -8.49810   146.56903    -2.58703
   411  H   1.0    0.04    1.05    1.44    -5.31580   143.27524    -4.57314
   412  H   1.0    0.08    1.05    1.44   -10.00799   145.52402    -6.90884
   413  H   1.0    0.05    1.04    1.43    -8.43952   142.79714    -8.12960
   414  H   1.0    0.05    1.03    1.43    -9.37304   140.52191    -4.24810
   415  H   1.0    0.06    1.03    1.43   -10.94151   143.24879    -3.02545
   416  N   5.0   -0.13    3.56    2.12    -5.98098   148.19609    -8.40550
   417  C   4.0    0.03    4.41    4.39    -4.84526   149.78535   -10.32357
   418  C   4.0    0.16    3.56    3.14    -2.14484   150.39762    -9.62626
   419  O   6.0   -0.31    1.42    1.80    -0.37039   149.56614   -10.88860
   420  C   4.0   -0.05    4.28    4.15    -6.35326   152.24010   -10.69207
   421  C   4.0   -0.05    4.16    3.91    -8.97998   151.91318   -11.89960
   422  C   4.0   -0.04    4.15    3.89   -10.52577   154.37927   -11.95819
   423  C   4.0   -0.02    4.11    3.83   -13.36603   153.88794   -12.13771
   424  N   5.0   -0.10    4.03    2.95   -14.14271   152.84103   -14.64916
   425  H   1.0    0.10    1.07    1.44    -7.68174   148.86694    -7.79512
   426  H   1.0    0.05    1.06    1.44    -4.86415   148.76868   -12.11503
   427  H   1.0    0.07    1.06    1.44    -6.62916   153.11693    -8.84770
   428  H   1.0    0.04    1.03    1.43    -5.26667   153.49299   -11.91283
   429  H   1.0    0.04    1.03    1.43    -8.74754   151.26500   -13.84035
   430  H   1.0    0.06    1.03    1.43   -10.04578   150.52423   -10.81679
   431  H   1.0    0.05    1.03    1.43   -10.16862   155.44319   -10.23098
   432  H   1.0    0.06    1.03    1.43    -9.96264   155.49043   -13.59847
   433  H   1.0    0.05    1.02    1.43   -13.90460   152.52734   -10.68829
   434  H   1.0    0.06    1.02    1.43   -14.37326   155.66051   -11.84858
   435  H   1.0    0.08    1.01    1.43   -16.08535   152.53868   -14.67939
   436  H   1.0    0.11    1.05    1.44   -13.67028   154.10337   -16.07968
   437  H   1.0    0.07    1.02    1.43   -13.22619   151.13272   -14.97797
   438  N   5.0   -0.13    3.60    2.16    -1.78390   151.80735    -7.59481
   439  C   4.0    0.04    4.65    4.71     0.76723   152.47632    -6.97120
   440  C   4.0    0.17    3.71    3.25     2.34326   150.17463    -7.18663
   441  O   6.0   -0.30    1.35    1.80     4.03268   150.00456    -8.73998
   442  C   4.0   -0.05    4.49    4.52     0.98077   153.32291    -4.28590
   443  C   4.0   -0.03    4.25    4.10     3.55457   154.60415    -4.03456
   444  C   4.0   -0.08    4.15    3.90     3.59237   156.93796    -5.73343
   445  C   4.0   -0.08    4.07    3.74     4.17818   155.33169    -1.26990
   446  H   1.0    0.11    1.09    1.44    -3.15773   152.47254    -6.41562
   447  H   1.0    0.04    1.09    1.44     1.36249   154.00511    -8.21653
   448  H   1.0    0.04    1.03    1.43    -0.51212   154.66840    -3.83425
   449  H   1.0    0.04    1.05    1.44     0.88250   151.70720    -3.01222
   450  H   1.0    0.04    1.06    1.44     5.02100   153.28134    -4.61849
   451  H   1.0    0.03    1.00    1.43     5.42540   157.86204    -5.56335
   452  H   1.0    0.03    1.02    1.43     3.27867   156.35215    -7.68363
   453  H   1.0    0.03    1.00    1.43     2.09949   158.22486    -5.13816
   454  H   1.0    0.04    1.00    1.43     6.02823   156.23498    -1.21509
   455  H   1.0    0.04    1.00    1.43     2.74010   156.63560    -0.57826
   456  H   1.0    0.03    1.00    1.43     4.19330   153.62716    -0.11527
   457  N   5.0   -0.14    3.59    2.15     1.71587   148.38506    -5.57091
   458  C   4.0    0.04    4.42    4.41     2.97821   145.97188    -5.45186
   459  C   4.0    0.17    3.54    3.13     3.92685   144.97600    -7.99921
   460  O   6.0   -0.26    1.29    1.80     6.05657   144.05759    -8.19385
   461  C   4.0   -0.04    4.25    4.10     1.26801   144.04436    -4.11015
   462  C   4.0   -0.03    4.17    3.93     2.31680   141.33827    -3.95520
   463  C   4.0    0.25    3.12    3.03     5.12116   141.20221    -3.20875
   464  O   6.0   -0.27    1.17    1.80     6.62916   140.05704    -4.64495
   465  O   6.0   -0.29    1.17    1.80     5.81280   142.25857    -1.20565
   466  H   1.0    0.10    1.12    1.45     0.29480   148.55892    -4.28023
   467  H   1.0    0.06    1.07    1.44     4.70164   146.23077    -4.35204
   468  H   1.0    0.04    1.03    1.43     0.95242   144.69065    -2.18074
   469  H   1.0    0.07    1.04    1.43    -0.52345   143.95176    -5.12305
   470  H   1.0    0.05    1.03    1.43     1.24155   140.29136    -2.54357
   471  H   1.0    0.06    1.03    1.43     2.11649   140.44443    -5.79957
   472  N   5.0   -0.13    3.56    2.13     2.41885   145.15174    -9.97208
   473  C   4.0    0.04    4.63    4.70     3.44119   144.18987   -12.31345
   474  C   4.0    0.16    3.58    3.16     5.52745   145.90952   -13.24131
   475  O   6.0   -0.28    1.31    1.80     7.61560   145.05158   -13.81390
   476  C   4.0   -0.03    4.33    4.25     1.47399   143.76090   -14.37137
   477  C   4.0   -0.07    4.16    3.92    -0.71054   142.28125   -13.34524
   478  C   4.0   -0.08    4.22    4.05     0.62361   146.24022   -15.45607
   479  H   1.0    0.12    1.09    1.44     0.63684   145.88495   -10.00799
   480  H   1.0    0.06    1.08    1.44     4.19708   142.32471   -11.87693
   481  H   1.0    0.04    1.06    1.44     2.31302   142.66486   -15.90015
   482  H   1.0    0.04    1.00    1.43    -2.09193   141.99779   -14.84569
   483  H   1.0    0.05    1.00    1.43    -0.02835   140.45955   -12.66683
   484  H   1.0    0.06    1.02    1.43    -1.56469   143.33382   -11.79378
   485  H   1.0    0.03    1.00    1.43    -0.78046   145.88495   -16.92061
   486  H   1.0    0.07    1.03    1.43    -0.20220   147.38162   -13.95374
   487  H   1.0    0.04    1.03    1.43     2.25066   147.21154   -16.26298
   488  N   5.0   -0.13    3.60    2.16     4.98321   148.34349   -13.35091
   489  C   4.0    0.04    4.52    4.57     6.91829   150.07448   -14.14082
   490  C   4.0    0.10    3.42    3.09     9.40328   149.29969   -12.92195
   491  O   6.0   -0.30    1.13    1.80    11.20796   148.66474   -14.22208
   492  C   4.0   -0.03    4.35    4.29     6.26444   152.74466   -13.43973
   493  C   4.0   -0.08    4.18    3.96     8.60581   154.38494   -13.50209
   494  C   4.0   -0.08    4.16    3.92     4.32180   153.71598   -15.26332
   495  H   1.0    0.10    1.08    1.44     3.27678   149.12961   -12.91817
   496  H   1.0    0.04    1.07    1.44     7.11104   149.97243   -16.18928
   497  H   1.0    0.06    1.07    1.44     5.49910   152.81080   -11.52922
   498  H   1.0    0.03    1.00    1.43     8.08803   156.31057   -12.98809
   499  H   1.0    0.04    1.02    1.43     9.97964   153.64417   -12.15850
   500  H   1.0    0.03    1.00    1.43     9.39572   154.35282   -15.40316
   501  H   1.0    0.04    1.00    1.43     3.83992   155.65484   -14.76065
   502  H   1.0    0.03    1.00    1.43     5.10226   153.65740   -17.16816
   503  H   1.0    0.04    1.00    1.43     2.64562   152.52545   -15.15371
   504  N   5.0   -0.13    4.08    3.08   -20.89659   177.41692    -3.53001
   505  C   4.0   -0.00    4.20    3.99   -18.25664   177.81565    -2.60971
   506  C   4.0    0.06    3.21    3.04   -16.65604   179.23673    -4.53345
   507  O   6.0   -0.34    1.16    1.80   -17.02265   178.99484    -6.82758
   508  C   4.0    0.03    4.15    3.89   -16.99620   175.27775    -2.00878
   509  O   6.0   -0.26    2.05    1.83   -14.59624   175.65003    -0.87305
   510  H   1.0    0.05    1.02    1.43   -21.27642   175.49129    -3.61694
   511  H   1.0    0.04    1.01    1.43   -22.15893   178.27675    -2.29413
   512  H   1.0    0.05    1.03    1.43   -21.09312   178.20494    -5.31958
   513  H   1.0    0.03    1.05    1.44   -18.34168   178.94382    -0.88817
   514  H   1.0    0.06    1.03    1.43   -18.19617   174.22328    -0.70865
   515  H   1.0    0.04    1.02    1.43   -16.75242   174.21950    -3.75866
   516  H   1.0    0.11    1.01    1.43   -14.21452   174.24785     0.27401
   517  N   5.0   -0.20    3.20    1.95   -10.11948   178.86634    -3.12750
   518  C   4.0    0.02    4.25    4.10    -8.25621   176.88213    -2.82136
   519  C   4.0    0.15    3.41    3.08    -9.14627   174.37635    -3.95142
   520  O   6.0   -0.33    1.30    1.80    -8.93840   173.96628    -6.23043
   521  C   4.0   -0.09    4.14    3.89    -7.59292   176.60056    -0.01323
   522  H   1.0    0.07    1.03    1.43   -10.69207   179.60144    -1.43997
   523  H   1.0    0.03    1.06    1.44    -6.54601   177.39613    -3.84748
   524  H   1.0    0.03    1.00    1.43    -6.19263   175.10579     0.19842
   525  H   1.0    0.02    1.00    1.43    -6.82758   178.38446     0.67652
   526  H   1.0    0.04    1.00    1.43    -9.29934   176.11679     1.03368
   527  N   5.0   -0.15    3.49    2.07   -10.20074   172.75308    -2.35271
   528  C   4.0    0.03    4.40    4.37   -10.82624   170.15470    -3.04057
   529  C   4.0    0.15    3.46    3.10   -12.12826   169.85235    -5.59737
   530  O   6.0   -0.31    1.28    1.80   -11.79189   167.91727    -6.85593
   531  C   4.0   -0.05    4.33    4.25   -12.42306   168.92449    -0.95431
   532  C   4.0   -0.03    4.16    3.91   -11.27977   167.82656     1.49855
   533  C   4.0   -0.08    4.11    3.83   -11.60103   164.97119     1.65918
   534  C   4.0   -0.08    4.11    3.82    -8.51133   168.53143     1.87461
   535  H   1.0    0.07    1.08    1.44   -10.65616   173.18204    -0.52912
   536  H   1.0    0.04    1.08    1.44    -9.03478   169.15126    -3.20498
   537  H   1.0    0.04    1.04    1.43   -13.76854   170.35501    -0.33259
   538  H   1.0    0.04    1.05    1.44   -13.42272   167.35413    -1.83681
   539  H   1.0    0.04    1.06    1.44   -12.33802   168.68450     3.04246
   540  H   1.0    0.03    1.00    1.43   -10.76388   164.30033     3.41662
   541  H   1.0    0.04    1.00    1.43   -13.60981   164.51954     1.61950
   542  H   1.0    0.03    1.05    1.44   -10.65427   164.09813     0.05291
   543  H   1.0    0.03    1.00    1.43    -7.83858   167.69428     3.63205
   544  H   1.0    0.03    1.00    1.43    -7.41339   167.80955     0.28913
   545  H   1.0    0.03    1.00    1.43    -8.34881   170.58367     1.96531
   546  N   5.0   -0.14    3.50    2.08   -13.55878   171.77231    -6.38349
   547  C   4.0    0.03    4.43    4.42   -15.11781   171.58712    -8.66061
   548  C   4.0    0.16    3.43    3.09   -13.66839   170.66871   -10.99065
   549  O   6.0   -0.31    1.22    1.80   -14.76065   169.57267   -12.72730
   550  C   4.0   -0.04    4.28    4.16   -16.41794   174.10612    -9.21052
   551  C   4.0   -0.05    4.17    3.94   -19.07300   173.82455   -10.32168
   552  C   4.0   -0.05    4.17    3.94   -20.85313   172.40726    -8.52077
   553  C   4.0   -0.05    4.11    3.83   -23.19450   171.38303    -9.86626
   554  N   5.0   -0.13    3.99    2.84   -25.11446   173.37102   -10.42373
   555  H   1.0    0.09    1.07    1.44   -13.68162   173.47684    -5.49154
   556  H   1.0    0.05    1.07    1.44   -16.57479   170.18116    -8.28078
   557  H   1.0    0.06    1.06    1.44   -16.58046   175.16626    -7.45119
   558  H   1.0    0.04    1.03    1.43   -15.27654   175.15870   -10.56357
   559  H   1.0    0.03    1.03    1.43   -19.86480   175.69349   -10.67128
   560  H   1.0    0.04    1.03    1.43   -18.96340   172.76442   -12.08480
   561  H   1.0    0.04    1.04    1.43   -19.84590   170.81422    -7.69118
   562  H   1.0    0.03    1.03    1.43   -21.47863   173.69416    -7.03923
   563  H   1.0    0.03    1.02    1.43   -22.62002   170.53832   -11.65583
   564  H   1.0    0.03    1.02    1.43   -24.08456   169.96195    -8.67006
   565  H   1.0    0.03    1.01    1.43   -26.66214   172.57355   -11.33647
   566  H   1.0    0.03    1.01    1.43   -25.72106   174.20628    -8.75132
   567  H   1.0    0.03    1.01    1.43   -24.33400   174.75430   -11.58213
   568  N   5.0   -0.14    3.62    2.18   -11.20041   171.09201   -10.97553
   569  C   4.0    0.03    4.51    4.56    -9.59036   170.44950   -13.10336
   570  C   4.0    0.14    3.66    3.20    -8.49432   167.81522   -12.79344
   571  O   6.0   -0.32    1.34    1.80    -8.23732   166.37336   -14.61703
   572  C   4.0   -0.03    4.32    4.24    -7.42473   172.36379   -13.31123
   573  C   4.0   -0.05    4.25    4.10    -4.94163   171.30933   -12.16795
   574  C   4.0   -0.08    4.15    3.89    -8.28078   174.96217   -12.20196
   575  C   4.0   -0.09    4.08    3.77    -4.09315   172.49418    -9.67351
   576  H   1.0    0.10    1.10    1.44   -10.24987   171.88758    -9.49965
   577  H   1.0    0.05    1.06    1.44   -10.73175   170.52320   -14.81734
   578  H   1.0    0.02    1.06    1.44    -6.97876   172.68883   -15.29544
   579  H   1.0    0.05    1.15    1.45    -5.19486   169.29299   -11.82968
   580  H   1.0    0.03    1.03    1.43    -3.42607   171.60979   -13.53044
   581  H   1.0    0.02    1.00    1.43    -6.72553   176.30387   -12.36070
   582  H   1.0    0.03    1.00    1.43    -9.90783   175.64247   -13.26588
   583  H   1.0    0.06    1.03    1.43    -8.79289   174.71083   -10.22342
   584  H   1.0    0.03    1.00    1.43    -2.33948   171.60034    -9.06879
   585  H   1.0    0.03    1.00    1.43    -3.79079   174.51241    -9.95886
   586  H   1.0    0.05    1.06    1.44    -5.55768   172.19561    -8.25621
   587  N   5.0   -0.14    3.67    2.23    -7.85559   167.22185   -10.44074
   588  C   4.0    0.03    4.40    4.38    -6.72553   164.83135    -9.76043
   589  C   4.0    0.15    3.43    3.09    -8.59636   162.68273   -10.23287
   590  O   6.0   -0.32    1.24    1.80    -8.27700   160.57379    -9.32202
   591  C   4.0   -0.05    4.44    4.45    -5.91295   164.90882    -6.99199
   592  C   4.0   -0.03    4.18    3.96    -3.82292   166.69084    -6.06980
   593  C   4.0   -0.08    4.18    3.96    -4.84715   169.24386    -5.29879
   594  C   4.0   -0.09    4.12    3.83    -2.47932   165.48330    -3.81914
   595  H   1.0    0.09    1.09    1.44    -8.10881   168.39537    -8.93273
   596  H   1.0    0.04    1.06    1.44    -5.05313   164.47230   -10.90939
   597  H   1.0    0.05    1.06    1.44    -7.58536   165.39826    -5.89406
   598  H   1.0    0.05    1.05    1.44    -5.28178   163.00965    -6.50444
   599  H   1.0    0.03    1.06    1.44    -2.50011   167.00075    -7.61938
   600  H   1.0    0.03    1.00    1.43    -3.28623   170.42871    -4.66195
   601  H   1.0    0.04    1.07    1.44    -5.77311   170.11313    -6.92018
   602  H   1.0    0.04    1.02    1.43    -6.20397   168.98874    -3.77000
   603  H   1.0    0.03    1.00    1.43    -0.99400   166.75131    -3.16529
   604  H   1.0    0.03    1.00    1.43    -3.84748   165.16772    -2.31113
   605  H   1.0    0.03    1.00    1.43    -1.66107   163.68806    -4.41062
   606  N   5.0   -0.13    3.68    2.24   -10.56735   163.25531   -11.66339
   607  C   4.0    0.04    4.46    4.48   -12.38148   161.38260   -12.42117
   608  C   4.0    0.16    3.45    3.09   -11.70496   160.44340   -15.05545
   609  O   6.0   -0.28    1.25    1.80   -12.72919   158.56879   -15.96440
   610  C   4.0   -0.02    4.34    4.27   -15.03277   162.52210   -12.37393
   611  C   4.0    0.15    3.24    3.04   -17.01887   160.60970   -11.68795
   612  O   6.0   -0.27    1.20    1.80   -18.52498   159.83113   -13.28477
   613  N   5.0   -0.19    3.18    1.95   -17.01320   159.79712    -9.31068
   614  H   1.0    0.11    1.16    1.46   -10.94718   165.02599   -12.32479
   615  H   1.0    0.05    1.07    1.44   -12.44574   159.78389   -11.12293
   616  H   1.0    0.05    1.04    1.43   -15.09135   164.03577   -10.97742
   617  H   1.0    0.07    1.04    1.43   -15.48063   163.26854   -14.24097
   618  H   1.0    0.10    1.02    1.43   -18.31522   158.49887    -8.73242
   619  H   1.0    0.08    1.03    1.43   -15.70551   160.47175    -8.06535
   620  N   5.0   -0.13    3.54    2.11    -9.94752   161.73597   -16.28188
   621  C   4.0    0.05    4.56    4.62    -9.40139   161.14449   -18.89159
   622  C   4.0    0.14    3.52    3.12    -6.76333   160.32057   -19.29599
   623  O   6.0   -0.32    1.41    1.80    -5.06069   161.82290   -19.70417
   624  C   4.0   -0.03    4.38    4.34   -10.09492   163.32523   -20.59234
   625  C   4.0    0.15    3.26    3.04   -12.88226   163.62381   -20.84935
   626  O   6.0   -0.27    1.24    1.80   -14.31089   161.83424   -20.44495
   627  N   5.0   -0.20    3.18    1.95   -13.70240   165.90471   -21.51831
   628  H   1.0    0.12    1.12    1.45    -8.90250   163.16839   -15.52599
   629  H   1.0    0.07    1.11    1.45   -10.54089   159.48720   -19.33757
   630  H   1.0    0.05    1.04    1.43    -9.33147   165.06756   -19.80244
   631  H   1.0    0.04    1.04    1.43    -9.30879   162.99831   -22.46695
   632  H   1.0    0.08    1.02    1.43   -15.59213   166.22785   -21.72429
   633  H   1.0    0.06    1.03    1.43   -12.44196   167.33145   -21.82444
   634  N   5.0   -0.15    3.53    2.10    -6.43263   157.87149   -19.22418
   635  C   4.0    0.03    4.42    4.42    -3.96842   156.81513   -19.63236
   636  C   4.0    0.08    3.35    3.06    -2.42830   158.34203   -21.57500
   637  O   6.0   -0.32    1.19    1.80    -0.34582   159.15272   -20.99108
   638  C   4.0   -0.03    4.33    4.25    -4.11204   153.90117   -20.14448
   639  C   4.0   -0.06    4.26    4.11    -2.28090   153.06969   -22.20995
   640  C   4.0   -0.08    4.19    3.99    -6.75010   153.10182   -20.83990
   641  C   4.0   -0.09    4.04    3.69     0.38361   152.87694   -21.32934
   642  H   1.0    0.08    1.10    1.44    -7.82536   156.58080   -18.88970
   643  H   1.0    0.05    1.07    1.44    -2.87238   157.03623   -17.90326
   644  H   1.0    0.03    1.06    1.44    -3.56402   152.98276   -18.38325
   645  H   1.0    0.03    1.04    1.43    -2.85349   151.21587   -22.89970
   646  H   1.0    0.03    1.05    1.44    -2.34137   154.44163   -23.74441
   647  H   1.0    0.04    1.00    1.43    -6.76711   151.07036   -21.18005
   648  H   1.0    0.05    1.02    1.43    -8.02189   153.56480   -19.28843
   649  H   1.0    0.04    1.00    1.43    -7.32647   154.10526   -22.54443
   650  H   1.0    0.02    1.00    1.43     1.56847   152.27790   -22.90348
   651  H   1.0    0.05    1.01    1.43     0.99967   154.72131   -20.64904
   652  H   1.0    0.03    1.00    1.43     0.48755   151.49555   -19.80622
   653  N   5.0   -0.20    3.30    1.98    -0.34960   163.51610   -18.82545
   654  C   4.0    0.03    4.30    4.20     1.13573   162.81690   -16.68250
   655  C   4.0    0.08    3.24    3.04     3.73410   162.07613   -17.64059
   656  O   6.0   -0.33    1.12    1.80     5.58981   163.39515   -17.20973
   657  C   4.0   -0.05    4.38    4.35    -0.13417   160.66450   -15.26143
   658  C   4.0   -0.03    4.23    4.06     1.12439   160.13727   -12.72164
   659  C   4.0   -0.08    4.16    3.92     1.75745   162.56556   -11.33080
   660  C   4.0   -0.08    4.12    3.84    -0.50267   158.46297   -11.09458
   661  H   1.0    0.13    1.11    1.45    -1.79902   162.31990   -19.25253
   662  H   1.0    0.04    1.08    1.44     1.32470   164.36458   -15.33702
   663  H   1.0    0.05    1.03    1.43    -2.10326   161.15772   -14.91372
   664  H   1.0    0.05    1.03    1.43    -0.02835   158.95052   -16.40093
   665  H   1.0    0.03    1.06    1.44     2.89317   159.14894   -13.09391
   666  H   1.0    0.03    1.00    1.43     2.64940   162.09691    -9.53367
   667  H   1.0    0.04    1.01    1.43     3.04624   163.68239   -12.48542
   668  H   1.0    0.03    1.00    1.43     0.01890   163.62003   -10.99821
   669  H   1.0    0.03    1.01    1.43     0.45731   158.13038    -9.30312
   670  H   1.0    0.05    1.00    1.43    -2.30736   159.40027   -10.76199
   671  H   1.0    0.04    1.00    1.43    -0.80880   156.67529   -12.06968
   672  N   5.0   -0.23    3.23    1.96    17.10391   153.74621    -0.40629
   673  C   4.0    0.03    4.38    4.34    17.05667   151.49933     1.15651
   674  C   4.0    0.15    3.45    3.09    16.26109   152.12483     3.83236
   675  O   6.0   -0.30    1.24    1.80    14.63215   150.90596     4.93785
   676  C   4.0   -0.05    4.30    4.20    19.67961   150.25778     1.21509
   677  C   4.0   -0.04    4.19    3.99    19.63803   147.54791     2.13350
   678  C   4.0    0.24    3.17    3.03    17.48374   146.06637     0.92975
   679  O   6.0   -0.30    1.16    1.80    17.92594   144.92497    -1.10927
   680  O   6.0   -0.28    1.17    1.80    15.34646   146.07582     2.01445
   681  H   1.0    0.07    1.03    1.43    18.44373   153.70464    -1.79146
   682  H   1.0    0.06    1.07    1.44    15.69795   150.17652     0.35338
   683  H   1.0    0.03    1.03    1.43    20.46195   150.26723    -0.68975
   684  H   1.0    0.03    1.03    1.43    20.89659   151.33492     2.48121
   685  H   1.0    0.04    1.03    1.43    21.41437   146.63140     1.63650
   686  H   1.0    0.05    1.03    1.43    19.38103   147.52335     4.17629
   687  N   5.0   -0.15    3.56    2.12    17.44028   154.07125     4.85093
   688  C   4.0    0.03    4.48    4.50    17.19084   154.66651     7.49087
   689  C   4.0    0.15    3.57    3.15    14.72663   155.95530     8.03700
   690  O   6.0   -0.33    1.33    1.80    13.80256   155.82302    10.12137
   691  C   4.0   -0.05    4.32    4.24    19.42827   156.28412     8.32424
   692  C   4.0   -0.02    4.27    4.14    18.77821   158.43084    10.05523
   693  C   4.0    0.24    3.15    3.03    20.15582   160.81190     9.29745
   694  O   6.0   -0.31    1.16    1.80    22.39892   161.11992    10.03444
   695  O   6.0   -0.29    1.17    1.80    18.98419   162.36903     7.93874
   696  H   1.0    0.07    1.07    1.44    18.59112   155.27689     3.88339
   697  H   1.0    0.06    1.07    1.44    17.23430   152.93741     8.60959
   698  H   1.0    0.05    1.03    1.43    20.77187   155.07658     9.31635
   699  H   1.0    0.04    1.05    1.44    20.31077   157.08914     6.64617
   700  H   1.0    0.07    1.08    1.44    16.75242   158.79367     9.96641
   701  H   1.0    0.05    1.03    1.43    19.32434   157.94707    11.98086
   702  N   5.0   -0.14    3.55    2.12    13.64382   157.20252     6.18129
   703  C   4.0    0.04    4.50    4.54    11.34780   158.54990     6.71609
   704  C   4.0    0.15    3.51    3.12     9.02722   156.92284     6.34192
   705  O   6.0   -0.32    1.32    1.80     7.07324   157.37449     7.48709
   706  C   4.0   -0.04    4.39    4.37    11.19285   160.98008     5.21375
   707  C   4.0   -0.04    4.08    3.77    10.48420   160.68151     2.47743
   708  S   6.0   -0.07    2.49    3.10    10.40294   163.72586     0.90707
   709  C   4.0   -0.08    3.87    3.43    13.68917   164.62915     0.87683
   710  H   1.0    0.07    1.06    1.44    14.28822   157.30835     4.36716
   711  H   1.0    0.06    1.08    1.44    11.37615   159.15272     8.68518
   712  H   1.0    0.06    1.05    1.44     9.77366   162.19140     6.08681
   713  H   1.0    0.05    1.05    1.44    13.03533   161.89849     5.27423
   714  H   1.0    0.03    1.07    1.44    11.87693   159.49287     1.53257
   715  H   1.0    0.04    1.07    1.44     8.61715   159.82357     2.33948
   716  H   1.0    0.03    1.04    1.43    13.87248   166.46596    -0.03968
   717  H   1.0    0.04    1.04    1.43    14.37137   164.74064     2.81758
   718  H   1.0    0.03    1.04    1.43    14.76443   163.21374    -0.16441
   719  N   5.0   -0.14    3.59    2.14     9.24454   155.02745     4.73754
   720  C   4.0    0.03    4.50    4.53     7.32647   153.12071     4.62794
   721  C   4.0    0.16    3.69    3.23     7.21686   152.00200     7.21686
   722  O   6.0   -0.31    1.50    1.80     5.21753   151.88483     8.29779
   723  C   4.0   -0.05    4.40    4.37     8.02567   151.09304     2.74388
   724  C   4.0   -0.02    4.20    3.99     7.21497   148.38884     3.36938
   725  C   4.0   -0.07    4.05    3.71     4.49566   147.73311     2.45853
   726  C   4.0   -0.05    4.06    3.73     9.22375   146.51801     2.32247
   727  H   1.0    0.08    1.07    1.44    10.71097   154.77422     3.51111
   728  H   1.0    0.04    1.06    1.44     5.51800   153.89928     4.02134
   729  H   1.0    0.03    1.04    1.43     7.16017   151.57870     0.93919
   730  H   1.0    0.05    1.05    1.44    10.07791   151.07792     2.56058
   731  H   1.0    0.06    1.09    1.44     7.11671   148.19231     5.41784
   732  H   1.0    0.07    1.01    1.43     4.06669   145.78480     2.97443
   733  H   1.0    0.04    1.00    1.43     3.15773   149.01056     3.36560
   734  H   1.0    0.04    1.00    1.43     4.40117   147.95609     0.41385
   735  H   1.0    0.07    1.00    1.43     8.64361   144.59238     2.77034
   736  H   1.0    0.06    1.00    1.43     9.35981   146.75423     0.28157
   737  H   1.0    0.07    1.00    1.43    11.04167   146.92619     3.19931
   738  N   5.0   -0.14    3.57    2.13     9.38438   151.22532     8.22598
   739  C   4.0    0.03    4.45    4.47     9.51099   150.24077    10.78845
   740  C   4.0    0.17    3.66    3.21     7.56646   151.71476    12.21708
   741  O   6.0   -0.30    1.34    1.80     5.63894   150.71698    13.03155
   742  C   4.0   -0.04    4.35    4.29    12.06968   150.77367    12.02811
   743  C   4.0   -0.03    4.15    3.90    14.35436   149.36016    11.01521
   744  C   4.0    0.24    3.10    3.02    16.38581   148.95198    13.08635
   745  O   6.0   -0.31    1.26    1.80    15.65449   148.36238    15.25765
   746  O   6.0   -0.27    1.15    1.80    18.71018   149.18819    12.59502
   747  H   1.0    0.10    1.07    1.44    11.08135   151.25555     7.31324
   748  H   1.0    0.05    1.05    1.44     9.22942   148.19987    10.80923
   749  H   1.0    0.07    1.07    1.44    12.47030   152.78245    11.81079
   750  H   1.0    0.06    1.05    1.44    11.91472   150.29746    14.02555
   751  H   1.0    0.05    1.03    1.43    13.75909   147.51390    10.32168
   752  H   1.0    0.06    1.03    1.43    15.20285   150.44675     9.48453
   753  N   5.0   -0.13    3.57    2.13     8.08992   154.16195    12.39471
   754  C   4.0    0.03    4.39    4.37     6.56869   155.95908    13.79689
   755  C   4.0    0.17    3.54    3.14     3.78512   155.46586    13.27155
   756  O   6.0   -0.32    1.37    1.80     2.36972   154.56258    14.88537
   757  C   4.0   -0.05    4.26    4.11     7.31513   158.69163    13.08824
   758  C   4.0   -0.04    4.17    3.93    10.07791   159.47397    13.64382
   759  C   4.0   -0.04    4.15    3.91    10.38782   161.15583    15.96629
   760  C   4.0   -0.02    4.13    3.86    13.18273   161.73409    16.38770
   761  N   5.0   -0.11    3.98    2.82    13.65894   163.46507    18.57790
   762  H   1.0    0.09    1.08    1.44     9.61682   154.98398    11.55378
   763  H   1.0    0.05    1.06    1.44     6.89372   155.75121    15.82079
   764  H   1.0    0.07    1.05    1.44     7.01466   158.93351    11.06435
   765  H   1.0    0.04    1.03    1.43     6.10004   159.98042    14.13893
   766  H   1.0    0.05    1.03    1.43    11.19663   157.77133    13.95374
   767  H   1.0    0.05    1.03    1.43    10.80923   160.51143    12.02244
   768  H   1.0    0.05    1.03    1.43     9.38060   162.93028    15.68095
   769  H   1.0    0.04    1.03    1.43     9.65272   160.18829    17.62925
   770  H   1.0    0.05    1.02    1.43    14.18050   159.96908    16.75053
   771  H   1.0    0.07    1.02    1.43    13.93862   162.63548    14.69640
   772  H   1.0    0.06    1.01    1.43    15.55433   163.38949    19.09379
   773  H   1.0    0.07    1.02    1.43    13.20352   165.31323    18.08657
   774  H   1.0    0.06    1.01    1.43    12.55723   162.92461    20.11424
   775  N   5.0   -0.13    3.55    2.12     3.01411   155.98176    10.96797
   776  C   4.0    0.04    4.55    4.60     0.41007   155.63216    10.35381
   777  C   4.0    0.17    3.80    3.33    -0.48566   153.04513    11.11726
   778  O   6.0   -0.32    1.55    1.80    -2.15996   152.76923    12.65172
   779  C   4.0   -0.05    4.52    4.57     0.02646   155.94396     7.56457
   780  C   4.0   -0.03    4.30    4.19    -2.63806   155.31091     6.81057
   781  C   4.0   -0.08    4.11    3.83    -3.53946   157.02678     4.68841
   782  C   4.0   -0.08    4.26    4.13    -2.50389   152.59726     6.02445
   783  H   1.0    0.11    1.09    1.44     4.12716   156.62616     9.53367
   784  H   1.0    0.04    1.06    1.44    -0.68219   157.05890    11.36103
   785  H   1.0    0.04    1.04    1.43     0.40440   157.89983     7.03923
   786  H   1.0    0.05    1.05    1.44     1.30580   154.68352     6.55735
   787  H   1.0    0.04    1.06    1.44    -4.01189   155.58870     8.32046
   788  H   1.0    0.04    1.00    1.43    -5.47265   156.51655     4.18952
   789  H   1.0    0.03    1.00    1.43    -3.47332   158.98264     5.33281
   790  H   1.0    0.04    1.00    1.43    -2.30547   156.78300     3.05758
   791  H   1.0    0.03    1.01    1.43    -4.37850   151.97365     5.44241
   792  H   1.0    0.03    1.01    1.43    -1.18486   152.41963     4.45219
   793  H   1.0    0.05    1.14    1.45    -1.85193   151.46909     7.61938
   794  N   5.0   -0.15    3.75    2.34     0.60849   151.11194    10.04767
   795  C   4.0    0.04    4.58    4.64    -0.52723   148.74411    10.44452
   796  C   4.0    0.17    3.62    3.18    -1.09604   148.32459    13.19785
   797  O   6.0   -0.29    1.29    1.80    -2.88561   147.02068    13.77232
   798  C   4.0   -0.04    4.37    4.32     1.03746   146.63517     9.31824
   799  C   4.0   -0.02    4.25    4.09     3.72276   146.38573    10.24042
   800  C   4.0    0.24    3.15    3.03     5.10226   144.39585     8.76077
   801  O   6.0   -0.31    1.24    1.80     4.21220   143.82893     6.65561
   802  O   6.0   -0.31    1.18    1.80     7.02600   143.38674     9.68485
   803  H   1.0    0.12    1.14    1.45     2.19775   151.14973     8.95730
   804  H   1.0    0.04    1.08    1.44    -2.32247   148.68175     9.43540
   805  H   1.0    0.06    1.04    1.43     0.09260   144.85127     9.73209
   806  H   1.0    0.05    1.04    1.43     1.12817   146.92808     7.28111
   807  H   1.0    0.08    1.06    1.44     4.70353   148.18097    10.00043
   808  H   1.0    0.06    1.03    1.43     3.72087   145.84338    12.22842
   809  N   5.0   -0.13    3.67    2.23     0.30047   149.45654    14.93261
   810  C   4.0    0.04    4.58    4.64    -0.38550   148.98410    17.56500
   811  C   4.0    0.16    3.58    3.15    -2.85349   150.28046    18.15649
   812  O   6.0   -0.32    1.30    1.80    -4.52589   149.22977    19.40749
   813  C   4.0   -0.03    4.28    4.17     1.62138   149.84582    19.47930
   814  C   4.0   -0.06    4.20    4.00     4.09126   150.47699    18.15649
   815  C   4.0   -0.07    4.19    3.98     0.69731   152.07759    21.07989
   816  H   1.0    0.11    1.11    1.45     1.80280   150.62250    14.61514
   817  H   1.0    0.05    1.07    1.44    -0.54046   146.93753    17.74075
   818  H   1.0    0.04    1.06    1.44     1.97098   148.28113    20.77376
   819  H   1.0    0.05    1.00    1.43     5.47076   151.07981    19.56244
   820  H   1.0    0.05    1.00    1.43     4.77534   148.79891    17.17572
   821  H   1.0    0.08    1.06    1.44     3.75866   151.99444    16.80344
   822  H   1.0    0.05    1.00    1.43     2.18263   152.61427    22.40270
   823  H   1.0    0.05    1.01    1.43     0.25889   153.65929    19.83456
   824  H   1.0    0.05    1.01    1.43    -0.99211   151.50878    22.11357
   825  N   5.0   -0.14    3.67    2.24    -3.03490   152.58214    17.18517
   826  C   4.0    0.04    4.59    4.66    -5.11927   154.26589    17.68217
   827  C   4.0    0.16    3.65    3.20    -7.57591   153.06969    16.96407
   828  O   6.0   -0.32    1.33    1.80    -9.46375   153.38339    18.25475
   829  C   4.0   -0.02    4.36    4.31    -4.77345   156.67907    16.21007
   830  C   4.0   -0.07    4.23    4.06    -6.80679   156.94174    14.19373
   831  C   4.0   -0.07    4.12    3.84    -4.66762   158.89005    18.02232
   832  H   1.0    0.12    1.13    1.45    -1.71776   153.35315    16.00787
   833  H   1.0    0.05    1.08    1.44    -5.14005   154.66840    19.70228
   834  H   1.0    0.05    1.08    1.44    -2.98577   156.65450    15.18773
   835  H   1.0    0.03    1.00    1.43    -6.50633   158.70107    13.16383
   836  H   1.0    0.05    1.02    1.43    -6.68207   155.34114    12.90305
   837  H   1.0    0.05    1.02    1.43    -8.65494   156.96820    15.10458
   838  H   1.0    0.04    1.00    1.43    -4.41629   160.62860    16.94517
   839  H   1.0    0.05    1.00    1.43    -6.43074   158.97131    19.08623
   840  H   1.0    0.05    1.00    1.43    -3.08214   158.62738    19.30922
   841  N   5.0   -0.14    3.74    2.32    -7.51733   151.66563    14.90994
   842  C   4.0    0.04    4.65    4.72    -9.68485   150.30124    14.12192
   843  C   4.0    0.16    3.58    3.16   -10.43696   148.33593    16.06645
   844  O   6.0   -0.34    1.46    1.80   -12.66494   148.06570    16.66549
   845  C   4.0   -0.02    4.40    4.38    -9.17273   149.06536    11.68607
   846  C   4.0   -0.07    4.13    3.86   -11.66339   148.47010    10.34814
   847  C   4.0   -0.07    4.26    4.12    -7.53623   150.78879    10.13460
   848  H   1.0    0.09    1.14    1.45    -5.98098   151.45209    13.76665
   849  H   1.0    0.05    1.07    1.44   -11.23442   151.64295    13.91972
   850  H   1.0    0.06    1.07    1.44    -8.18251   147.27957    11.95441
   851  H   1.0    0.05    1.00    1.43   -11.25521   147.55547     8.54723
   852  H   1.0    0.05    1.00    1.43   -12.78022   147.21343    11.53867
   853  H   1.0    0.04    1.00    1.43   -12.68951   150.22754    10.02689
   854  H   1.0    0.04    1.00    1.43    -7.14505   149.89117     8.32235
   855  H   1.0    0.04    1.00    1.43    -8.53022   152.56891     9.83602
   856  H   1.0    0.06    1.05    1.44    -5.77311   151.12894    11.14560
   857  N   5.0   -0.12    3.59    2.15    -8.64172   146.97722    17.11903
   858  C   4.0    0.05    4.63    4.70    -9.43351   145.34827    19.11269
   859  C   4.0    0.16    3.61    3.17   -10.48987   146.77690    21.28398
   860  O   6.0   -0.29    1.37    1.80   -12.40794   146.02857    22.35357
   861  C   4.0   -0.03    4.40    4.38    -7.36048   143.60783    19.90826
   862  C   4.0    0.14    3.28    3.05    -7.04301   141.55937    18.06578
   863  O   6.0   -0.28    1.22    1.80    -6.79356   142.09794    15.77543
   864  N   5.0   -0.19    3.16    1.95    -7.19230   139.15942    18.95962
   865  H   1.0    0.12    1.07    1.44    -6.77089   146.97533    16.65604
   866  H   1.0    0.06    1.10    1.44   -10.94529   144.15396    18.38325
   867  H   1.0    0.06    1.04    1.43    -5.59170   144.65663    20.03487
   868  H   1.0    0.05    1.05    1.44    -7.82158   142.78013    21.73752
   869  H   1.0    0.09    1.02    1.43    -6.98443   137.66843    17.75587
   870  H   1.0    0.09    1.02    1.43    -7.51166   138.84761    20.83423
   871  N   5.0   -0.13    3.57    2.13    -9.28989   148.89907    21.86980
   872  C   4.0    0.04    4.44    4.45   -10.23854   150.56392    23.82755
   873  C   4.0    0.17    3.54    3.13   -13.10336   150.57903    23.64614
   874  O   6.0   -0.27    1.23    1.80   -14.43184   150.45998    25.55665
   875  C   4.0   -0.04    4.30    4.20    -9.14438   153.22654    23.54032
   876  C   4.0   -0.03    4.21    4.01    -6.35515   153.40417    24.22629
   877  C   4.0    0.24    3.13    3.03    -5.64461   155.97609    25.25052
   878  O   6.0   -0.31    1.19    1.80    -5.63516   157.80346    23.74819
   879  O   6.0   -0.29    1.21    1.80    -5.10793   156.15372    27.56165
   880  H   1.0    0.11    1.10    1.44    -7.66851   149.50756    21.02509
   881  H   1.0    0.06    1.06    1.44    -9.66595   149.91574    25.69649
   882  H   1.0    0.08    1.09    1.44    -9.35036   153.81991    21.57878
   883  H   1.0    0.06    1.04    1.43   -10.17995   154.50777    24.77620
   884  H   1.0    0.05    1.03    1.43    -5.92618   152.00011    25.67004
   885  H   1.0    0.05    1.04    1.43    -5.22320   153.05079    22.54254
   886  N   5.0   -0.12    3.61    2.17   -14.02177   150.62250    21.31044
   887  C   4.0    0.04    4.47    4.50   -16.69195   150.45053    20.81722
   888  C   4.0    0.16    3.50    3.11   -17.50831   147.72744    20.82667
   889  O   6.0   -0.30    1.44    1.80   -18.95017   146.99044    22.48585
   890  C   4.0   -0.05    4.29    4.17   -17.35713   151.76011    18.34546
   891  C   4.0   -0.04    4.19    3.98   -17.00375   154.62116    18.54766
   892  C   4.0   -0.01    4.19    3.97   -19.48874   156.11404    18.78766
   893  N   5.0   -0.14    3.40    2.02   -20.03676   157.41417    16.40660
   894  C   4.0    0.08    3.33    3.06   -22.33467   157.88282    15.49764
   895  N   5.0   -0.18    3.24    1.97   -24.39447   157.17229    16.77132
   896  N   5.0   -0.13    3.59    2.15   -22.55199   159.05445    13.28855
   897  H   1.0    0.11    1.09    1.44   -12.94273   150.77745    19.72118
   898  H   1.0    0.07    1.07    1.44   -17.73319   151.44264    22.29310
   899  H   1.0    0.05    1.03    1.43   -16.13070   151.05713    16.84880
   900  H   1.0    0.04    1.03    1.43   -19.32623   151.37839    17.87870
   901  H   1.0    0.05    1.04    1.43   -15.86803   155.02934    20.21629
   902  H   1.0    0.04    1.03    1.43   -16.03621   155.28823    16.85636
   903  H   1.0    0.05    1.03    1.43   -21.03832   154.82336    19.20906
   904  H   1.0    0.05    1.02    1.43   -19.31489   157.51811    20.28432
   905  H   1.0    0.07    1.06    1.44   -18.53254   158.00944    15.35780
   906  H   1.0    0.09    1.03    1.43   -24.21684   156.25955    18.46073
   907  H   1.0    0.08    1.02    1.43   -26.14625   157.54267    16.05511
   908  H   1.0    0.11    1.14    1.45   -20.97218   159.57980    12.31723
   909  H   1.0    0.10    1.09    1.44   -24.29810   159.42862    12.56290
   910  N   5.0   -0.14    3.49    2.07   -16.54455   146.22510    19.04844
   911  C   4.0    0.03    4.37    4.34   -17.30422   143.56437    18.79710
   912  C   4.0    0.17    3.51    3.12   -18.43617   142.48912    21.24619
   913  O   6.0   -0.31    1.29    1.80   -20.42605   141.28347    21.21973
   914  C   4.0   -0.04    4.24    4.08   -15.10836   141.89574    17.90137
   915  C   4.0   -0.05    4.12    3.85   -14.15972   142.33227    15.17261
   916  C   4.0   -0.01    4.17    3.94   -15.78299   141.08505    13.09580
   917  N   5.0   -0.14    3.37    2.01   -16.24408   138.36573    13.42083
   918  C   4.0    0.10    3.33    3.06   -15.78299   136.58939    11.68607
   919  N   5.0   -0.16    3.27    1.97   -14.81734   137.18466     9.44674
   920  N   5.0   -0.17    3.27    1.97   -16.30267   134.18944    12.18684
   921  H   1.0    0.12    1.16    1.45   -15.23497   146.78635    17.75020
   922  H   1.0    0.04    1.06    1.44   -18.77632   143.50579    17.35713
   923  H   1.0    0.05    1.04    1.43   -13.50776   142.22077    19.15615
   924  H   1.0    0.05    1.04    1.43   -15.70929   139.93043    18.02232
   925  H   1.0    0.05    1.03    1.43   -14.13704   144.35805    14.80411
   926  H   1.0    0.06    1.03    1.43   -12.25487   141.56504    15.01009
   927  H   1.0    0.04    1.02    1.43   -17.61980   142.01857    13.05801
   928  H   1.0    0.06    1.05    1.44   -14.82868   141.33260    11.28733
   929  H   1.0    0.08    1.06    1.44   -16.97541   137.78748    15.10836
   930  H   1.0    0.11    1.06    1.44   -14.41483   139.02336     9.02911
   931  H   1.0    0.09    1.03    1.43   -14.47719   135.80327     8.14661
   932  H   1.0    0.11    1.06    1.44   -17.05289   133.70189    13.89327
   933  H   1.0    0.09    1.03    1.43   -15.95118   132.83073    10.86403
   934  N   5.0   -0.12    3.56    2.12   -17.17572   142.95588    23.36079
   935  C   4.0    0.04    4.46    4.47   -18.20940   142.21322    25.78720
   936  C   4.0    0.16    3.47    3.10   -20.70951   143.54169    26.34089
   937  O   6.0   -0.31    1.42    1.80   -22.70128   142.37195    26.12735
   938  C   4.0   -0.05    4.29    4.18   -16.26676   142.58738    27.87724
   939  C   4.0   -0.03    4.21    4.02   -14.68128   140.22711    28.29109
   940  C   4.0    0.25    3.13    3.03   -11.87126   140.74301    28.49140
   941  O   6.0   -0.28    1.18    1.80   -11.04923   141.98834    30.31498
   942  O   6.0   -0.27    1.20    1.80   -10.46530   139.84917    26.83600
   943  H   1.0    0.11    1.08    1.44   -15.46174   143.83271    23.44961
   944  H   1.0    0.05    1.07    1.44   -18.64593   140.20066    25.74185
   945  H   1.0    0.07    1.04    1.43   -15.00442   144.13318    27.36323
   946  H   1.0    0.04    1.03    1.43   -17.23997   143.02958    29.63846
   947  H   1.0    0.04    1.03    1.43   -15.28032   139.32571    30.04286
   948  H   1.0    0.05    1.04    1.43   -14.97230   138.94588    26.70372
   949  N   5.0   -0.13    3.50    2.08   -20.60557   145.97944    26.95505
   950  C   4.0    0.03    4.42    4.41   -22.85813   147.48177    27.52008
   951  C   4.0    0.17    3.51    3.12   -25.13147   146.59171    26.02909
   952  O   6.0   -0.32    1.29    1.80   -27.15347   146.22510    27.09678
   953  C   4.0   -0.04    4.28    4.16   -22.41215   150.28424    26.97584
   954  C   4.0   -0.03    4.18    3.97   -20.25975   151.46153    28.48951
   955  C   4.0    0.24    3.11    3.02   -19.47741   154.08258    27.53520
   956  O   6.0   -0.30    1.17    1.80   -21.15170   155.73798    27.29520
   957  O   6.0   -0.27    1.17    1.80   -17.18706   154.50021    27.06843
   958  H   1.0    0.09    1.07    1.44   -18.96718   146.98666    27.07977
   959  H   1.0    0.04    1.06    1.44   -23.25875   147.25123    29.52697
   960  H   1.0    0.06    1.03    1.43   -21.96051   150.50155    24.97840
   961  H   1.0    0.05    1.03    1.43   -24.13180   151.32358    27.42748
   962  H   1.0    0.04    1.03    1.43   -20.85502   151.65618    30.45104
   963  H   1.0    0.06    1.04    1.43   -18.61191   150.22943    28.37235
   964  N   5.0   -0.12    3.51    2.09   -24.79131   146.21188    23.57055
   965  C   4.0    0.04    4.41    4.40   -26.85301   145.38040    21.93972
   966  C   4.0    0.16    3.51    3.12   -27.59000   142.66297    22.52931
   967  O   6.0   -0.30    1.30    1.80   -29.68948   142.16408    23.42882
   968  C   4.0   -0.05    4.28    4.16   -26.10467   145.61094    19.15426
   969  C   4.0   -0.04    4.15    3.90   -28.20605   146.57848    17.39115
   970  C   4.0    0.24    3.10    3.02   -27.88858   149.37339    16.65982
   971  O   6.0   -0.31    1.16    1.80   -27.96039   149.95920    14.35625
   972  O   6.0   -0.30    1.17    1.80   -27.70905   150.98154    18.38136
   973  H   1.0    0.10    1.07    1.44   -23.11513   146.46321    22.65214
   974  H   1.0    0.06    1.06    1.44   -28.48762   146.58793    22.27609
   975  H   1.0    0.05    1.04    1.43   -24.52486   146.92430    19.01064
   976  H   1.0    0.04    1.04    1.43   -25.53776   143.75145    18.47585
   977  H   1.0    0.04    1.03    1.43   -28.18904   145.46543    15.65827
   978  H   1.0    0.04    1.03    1.43   -30.02208   146.37439    18.34168
   979  N   5.0   -0.14    3.55    2.11   -25.84578   140.91686    22.05499
   980  C   4.0    0.05    4.44    4.44   -26.28231   138.28637    22.63325
   981  C   4.0    0.17    3.51    3.12   -27.51819   138.01613    25.22028
   982  O   6.0   -0.29    1.24    1.80   -28.95816   136.25869    25.67571
   983  C   4.0    0.04    4.20    3.99   -23.81811   136.85584    22.58034
   984  O   6.0   -0.25    2.05    1.83   -24.29810   134.30282    22.02476
   985  H   1.0    0.11    1.09    1.44   -24.12235   141.27969    21.27265
   986  H   1.0    0.06    1.06    1.44   -27.54276   137.47567    21.21973
   987  H   1.0    0.06    1.03    1.43   -22.59545   137.65331    21.12714
   988  H   1.0    0.05    1.02    1.43   -22.90726   136.99568    24.42282
   989  H   1.0    0.12    1.01    1.43   -22.70884   133.35418    21.98129
   990  N   5.0   -0.12    3.57    2.13   -26.97206   139.80571    26.88891
   991  C   4.0    0.04    4.36    4.31   -28.27030   139.99846    29.29642
   992  C   4.0    0.16    3.45    3.10   -31.10300   140.33861    28.95060
   993  O   6.0   -0.29    1.28    1.80   -32.51462   138.48101    28.96950
   994  C   4.0   -0.08    4.15    3.90   -27.18371   142.15086    30.87434
   995  H   1.0    0.12    1.15    1.45   -25.62657   141.16064    26.62246
   996  H   1.0    0.05    1.06    1.44   -27.97928   138.23912    30.32632
   997  H   1.0    0.03    1.00    1.43   -28.19471   142.24534    32.66580
   998  H   1.0    0.04    1.00    1.43   -25.18438   141.78992    31.21449
   999  H   1.0    0.07    1.04    1.43   -27.41236   143.91964    29.84444
  1000  N   5.0   -0.14    3.47    2.06   -31.91558   142.69888    28.58022
  1001  C   4.0    0.03    4.36    4.31   -34.60088   143.34516    28.75218
[...]
1357   1 H      0.268  0.732  0.000  0.000     0.817     1.416
1358   1 H      0.275  0.725  0.000  0.000     0.794     1.396
1359   1 H      0.277  0.723  0.000  0.000     0.785     1.388
1360   7 N     -0.180  1.251  3.929  0.000    24.901     7.411
1361   6 C      0.035  1.046  2.919  0.000    19.971     6.360
1362   6 C      0.289  1.037  2.674  0.000    22.101     7.699
1363   8 O     -0.460  1.732  4.727  0.000    22.908     6.417
1364   6 C     -0.047  1.042  3.005  0.000    21.411     6.586
1365   6 C     -0.092  1.057  3.036  0.000    22.250     6.714
1366   6 C      0.356  1.029  2.615  0.000    20.958     7.492
1367   8 O     -0.600  1.784  4.816  0.000    26.120     6.852
1368   8 O     -0.630  1.761  4.869  0.000    26.867     6.949
1369   1 H      0.226  0.774  0.000  0.000     0.982     1.553
1370   1 H      0.100  0.900  0.000  0.000     1.784     2.089
1371   1 H      0.021  0.979  0.000  0.000     2.716     2.577
1372   1 H      0.013  0.987  0.000  0.000     2.842     2.636
1373   1 H      0.019  0.981  0.000  0.000     2.745     2.591
1374   1 H      0.018  0.982  0.000  0.000     2.759     2.598
1375   7 N     -0.183  1.243  3.940  0.000    24.963     7.420
1376   6 C      0.036  1.049  2.915  0.000    19.959     6.360
1377   6 C      0.291  1.028  2.680  0.000    22.062     7.693
1378   8 O     -0.485  1.729  4.757  0.000    23.460     6.494
1379   6 C     -0.051  1.046  3.005  0.000    21.471     6.595
1380   6 C     -0.082  1.055  3.027  0.000    22.055     6.685
1381   6 C      0.372  1.020  2.608  0.000    20.697     7.445
1382   8 O     -0.668  1.787  4.881  0.000    27.861     7.077
1383   8 O     -0.627  1.749  4.878  0.000    26.795     6.940
1384   1 H      0.189  0.811  0.000  0.000     1.163     1.690
1385   1 H      0.046  0.954  0.000  0.000     2.374     2.410
1386   1 H      0.043  0.957  0.000  0.000     2.413     2.429
1387   1 H      0.060  0.940  0.000  0.000     2.204     2.322
1388   1 H      0.026  0.974  0.000  0.000     2.637     2.540
1389   1 H      0.004  0.996  0.000  0.000     2.990     2.704
1390   7 N     -0.186  1.250  3.936  0.000    25.032     7.431
1391   6 C      0.034  1.056  2.910  0.000    19.998     6.367
1392   6 C      0.284  1.038  2.678  0.000    22.189     7.714
1393   8 O     -0.474  1.735  4.739  0.000    23.212     6.460
1394   6 C     -0.062  1.051  3.011  0.000    21.682     6.628
1395   6 C     -0.099  1.067  3.032  0.000    22.387     6.736
1396   6 C      0.364  1.027  2.609  0.000    20.825     7.468
1397   8 O     -0.634  1.762  4.872  0.000    26.966     6.962
1398   8 O     -0.656  1.779  4.877  0.000    27.537     7.036
1399   1 H      0.206  0.794  0.000  0.000     1.074     1.623
1400   1 H      0.070  0.930  0.000  0.000     2.088     2.260
1401   1 H      0.037  0.963  0.000  0.000     2.488     2.466
1402   1 H      0.041  0.959  0.000  0.000     2.433     2.439
1403   1 H      0.050  0.950  0.000  0.000     2.323     2.383
1404   1 H      0.037  0.963  0.000  0.000     2.492     2.469
1405   7 N     -0.178  1.244  3.935  0.000    24.858     7.405
1406   6 C      0.014  1.067  2.918  0.000    20.339     6.422
1407   6 C      0.290  1.035  2.675  0.000    22.089     7.696
1408   8 O     -0.503  1.735  4.768  0.000    23.860     6.549
1409   6 C      0.073  1.040  2.887  0.000    19.568     6.335
1410   8 O     -0.495  1.738  4.757  0.000    22.781     6.443
1411   1 H      0.196  0.804  0.000  0.000     1.125     1.662
1412   1 H      0.090  0.910  0.000  0.000     1.884     2.146
1413   1 H      0.077  0.923  0.000  0.000     2.014     2.219
1414   1 H      0.058  0.942  0.000  0.000     2.222     2.331
1415   1 H      0.320  0.680  0.000  0.000     0.665     1.281
1416   7 N     -0.172  1.251  3.920  0.000    24.714     7.383
1417   6 C      0.041  1.050  2.910  0.000    19.900     6.353
1418   6 C      0.208  1.089  2.703  0.000    23.586     7.954
1419   8 O     -0.349  1.740  4.608  0.000    20.685     6.098
1420   6 C     -0.116  1.041  3.075  0.000    22.775     6.804
1421   1 H      0.228  0.772  0.000  0.000     0.976     1.548
1422   1 H      0.078  0.922  0.000  0.000     1.999     2.211
1423   1 H      0.067  0.933  0.000  0.000     2.119     2.277
1424   1 H      0.048  0.952  0.000  0.000     2.349     2.397
1425   1 H      0.060  0.940  0.000  0.000     2.194     2.316
1426   7 N     -0.395  1.328  4.068  0.000    30.237     8.167
1427   6 C      0.022  1.055  2.923  0.000    20.210     6.402
1428   6 C      0.274  1.040  2.686  0.000    22.365     7.745
1429   8 O     -0.509  1.767  4.742  0.000    23.986     6.566
1430   6 C     -0.106  1.062  3.043  0.000    22.503     6.752
1431   6 C      0.287  1.032  2.680  0.000    22.127     7.702
1432   8 O     -0.528  1.776  4.752  0.000    24.402     6.623
1433   7 N     -0.285  1.267  4.019  0.000    27.370     7.770
1434   1 H      0.178  0.822  0.000  0.000     1.224     1.733
1435   1 H      0.068  0.932  0.000  0.000     2.112     2.273
1436   1 H      0.094  0.906  0.000  0.000     1.841     2.122
1437   1 H      0.057  0.943  0.000  0.000     2.230     2.335
1438   1 H      0.236  0.764  0.000  0.000     0.942     1.520
1439   1 H      0.244  0.756  0.000  0.000     0.909     1.493
1440   7 N     -0.172  1.240  3.932  0.000    24.712     7.383
1441   6 C      0.026  1.039  2.935  0.000    20.127     6.384
1442   6 C      0.271  1.028  2.701  0.000    22.426     7.756
1443   8 O     -0.454  1.735  4.719  0.000    22.789     6.400
1444   6 C     -0.102  1.053  3.049  0.000    22.434     6.741
1445   6 C      0.290  1.028  2.682  0.000    22.081     7.694
1446   8 O     -0.522  1.778  4.744  0.000    24.275     6.606
1447   7 N     -0.291  1.271  4.020  0.000    27.494     7.788
1448   1 H      0.242  0.758  0.000  0.000     0.915     1.499
1449   1 H      0.072  0.928  0.000  0.000     2.062     2.246
1450   1 H      0.104  0.896  0.000  0.000     1.747     2.067
1451   1 H      0.068  0.932  0.000  0.000     2.108     2.270
1452   1 H      0.245  0.755  0.000  0.000     0.901     1.487
1453   1 H      0.249  0.751  0.000  0.000     0.887     1.476
1454   7 N     -0.171  1.243  3.928  0.000    24.701     7.381
1455   6 C      0.011  1.066  2.924  0.000    20.395     6.430
1456   6 C      0.208  1.077  2.715  0.000    23.595     7.955
1457   8 O     -0.322  1.734  4.588  0.000    20.188     6.024
1458   6 C     -0.024  1.068  2.957  0.000    20.967     6.513
1459   6 C     -0.063  1.044  3.019  0.000    21.694     6.630
1460   6 C     -0.097  1.036  3.060  0.000    22.395     6.747
1461   6 C     -0.153  1.044  3.109  0.000    23.520     6.915
1462   1 H      0.202  0.798  0.000  0.000     1.094     1.639
1463   1 H      0.094  0.906  0.000  0.000     1.842     2.123
1464   1 H      0.052  0.948  0.000  0.000     2.295     2.369
1465   1 H      0.032  0.968  0.000  0.000     2.557     2.501
1466   1 H      0.029  0.971  0.000  0.000     2.598     2.521
1467   1 H      0.029  0.971  0.000  0.000     2.596     2.520
1468   1 H      0.064  0.936  0.000  0.000     2.155     2.296
1469   1 H      0.026  0.974  0.000  0.000     2.637     2.540
1470   1 H      0.083  0.917  0.000  0.000     1.948     2.182
1471   1 H      0.069  0.931  0.000  0.000     2.095     2.264
1472   1 H      0.022  0.978  0.000  0.000     2.696     2.568
1473   7 N     -0.385  1.319  4.066  0.000    29.958     8.129
1474   6 C      0.039  1.045  2.916  0.000    19.933     6.359
1475   6 C      0.200  1.091  2.709  0.000    23.744     7.981
1476   8 O     -0.374  1.751  4.623  0.000    21.170     6.169
1477   6 C     -0.083  1.059  3.024  0.000    22.067     6.685
1478   6 C     -0.073  1.046  3.027  0.000    21.886     6.660
1479   6 C     -0.025  1.056  2.969  0.000    21.096     6.552
1480   7 N     -0.168  1.233  3.935  0.000    24.632     7.371
1481   6 C      0.243  1.016  2.741  0.000    22.934     7.841
1482   7 N     -0.256  1.233  4.024  0.000    26.655     7.668
1483   7 N     -0.238  1.227  4.011  0.000    26.224     7.606
1484   1 H      0.179  0.821  0.000  0.000     1.219     1.729
1485   1 H      0.031  0.969  0.000  0.000     2.574     2.509
1486   1 H      0.080  0.920  0.000  0.000     1.977     2.199
1487   1 H      0.068  0.932  0.000  0.000     2.110     2.272
1488   1 H      0.070  0.930  0.000  0.000     2.082     2.256
1489   1 H      0.051  0.949  0.000  0.000     2.310     2.377
1490   1 H      0.097  0.903  0.000  0.000     1.815     2.107
1491   1 H      0.076  0.924  0.000  0.000     2.022     2.224
1492   1 H      0.251  0.749  0.000  0.000     0.880     1.469
1493   1 H      0.273  0.727  0.000  0.000     0.800     1.401
1494   1 H      0.219  0.781  0.000  0.000     1.016     1.579
1495   1 H      0.208  0.792  0.000  0.000     1.068     1.619
1496   1 H      0.209  0.791  0.000  0.000     1.060     1.613
1497   7 N     -0.399  1.319  4.079  0.000    30.333     8.180
1498   6 C      0.034  1.048  2.918  0.000    20.017     6.371
1499   6 C      0.287  1.034  2.679  0.000    22.137     7.706
1500   8 O     -0.516  1.745  4.771  0.000    24.145     6.588
1501   6 C     -0.042  1.050  2.992  0.000    21.305     6.569
1502   6 C     -0.082  1.052  3.030  0.000    22.052     6.685
1503   6 C      0.366  1.026  2.608  0.000    20.795     7.463
1504   8 O     -0.666  1.777  4.889  0.000    27.796     7.069
1505   8 O     -0.637  1.764  4.872  0.000    27.035     6.971
1506   1 H      0.169  0.831  0.000  0.000     1.277     1.770
1507   1 H      0.034  0.966  0.000  0.000     2.528     2.487
1508   1 H      0.023  0.977  0.000  0.000     2.694     2.567
1509   1 H      0.035  0.965  0.000  0.000     2.510     2.478
1510   1 H      0.025  0.975  0.000  0.000     2.660     2.551
1511   1 H     -0.006  1.006  0.000  0.000     3.166     2.783
1512   7 N     -0.169  1.236  3.934  0.000    24.663     7.376
1513   6 C      0.024  1.048  2.928  0.000    20.159     6.390
1514   6 C      0.197  1.087  2.716  0.000    23.804     7.990
1515   8 O     -0.351  1.738  4.613  0.000    20.734     6.105
1516   6 C     -0.064  1.044  3.020  0.000    21.690     6.624
1517   6 C     -0.015  1.060  2.955  0.000    20.852     6.502
1518  16 S     -0.186  1.903  4.236  0.047   148.963    20.542
1519   6 C     -0.062  1.054  3.008  0.000    21.773     6.656
1520   1 H      0.226  0.774  0.000  0.000     0.984     1.554
1521   1 H      0.089  0.911  0.000  0.000     1.885     2.147
1522   1 H      0.080  0.920  0.000  0.000     1.976     2.198
1523   1 H      0.060  0.940  0.000  0.000     2.198     2.318
1524   1 H      0.048  0.952  0.000  0.000     2.341     2.393
1525   1 H      0.059  0.941  0.000  0.000     2.212     2.326
1526   1 H      0.087  0.913  0.000  0.000     1.907     2.160
1527   1 H      0.041  0.959  0.000  0.000     2.434     2.440
1528   1 H      0.058  0.942  0.000  0.000     2.224     2.332
1529   7 N     -0.394  1.326  4.068  0.000    30.201     8.162
1530   6 C      0.037  1.053  2.910  0.000    19.962     6.362
1531   6 C      0.277  1.039  2.684  0.000    22.319     7.738
1532   8 O     -0.511  1.753  4.759  0.000    24.038     6.573
1533   6 C     -0.069  1.051  3.019  0.000    21.815     6.648
1534   6 C     -0.088  1.064  3.024  0.000    22.177     6.705
1535   6 C      0.359  1.033  2.608  0.000    20.908     7.483
1536   8 O     -0.639  1.761  4.878  0.000    27.091     6.978
1537   8 O     -0.640  1.782  4.858  0.000    27.124     6.983
1538   1 H      0.161  0.839  0.000  0.000     1.327     1.805
1539   1 H      0.019  0.981  0.000  0.000     2.747     2.592
1540   1 H      0.062  0.938  0.000  0.000     2.172     2.305
1541   1 H      0.014  0.986  0.000  0.000     2.828     2.630
1542   1 H      0.032  0.968  0.000  0.000     2.557     2.500
1543   1 H      0.026  0.974  0.000  0.000     2.642     2.542
1544   7 N     -0.178  1.245  3.933  0.000    24.854     7.404
1545   6 C      0.018  1.057  2.924  0.000    20.272     6.411
1546   6 C      0.282  1.034  2.684  0.000    22.224     7.721
1547   8 O     -0.511  1.759  4.751  0.000    24.022     6.571
1548   6 C     -0.099  1.063  3.035  0.000    22.380     6.735
1549   6 C     -0.067  1.052  3.016  0.000    21.791     6.646
1550   6 C     -0.080  1.052  3.028  0.000    22.023     6.682
1551   6 C     -0.038  1.057  2.981  0.000    21.342     6.594
1552   7 N     -0.134  1.232  3.902  0.000    23.894     7.260
1553   1 H      0.222  0.778  0.000  0.000     1.000     1.566
1554   1 H      0.039  0.961  0.000  0.000     2.461     2.453
1555   1 H      0.103  0.897  0.000  0.000     1.757     2.073
1556   1 H      0.064  0.936  0.000  0.000     2.149     2.293
1557   1 H      0.046  0.954  0.000  0.000     2.365     2.405
1558   1 H      0.068  0.932  0.000  0.000     2.102     2.267
1559   1 H      0.079  0.921  0.000  0.000     1.985     2.204
1560   1 H      0.044  0.956  0.000  0.000     2.392     2.419
1561   1 H      0.087  0.913  0.000  0.000     1.911     2.162
1562   1 H      0.136  0.864  0.000  0.000     1.490     1.909
1563   1 H      0.297  0.703  0.000  0.000     0.724     1.333
1564   1 H      0.308  0.692  0.000  0.000     0.691     1.302
1565   1 H      0.259  0.741  0.000  0.000     0.850     1.444
1566   7 N     -0.167  1.242  3.925  0.000    24.603     7.367
1567   6 C      0.029  1.047  2.924  0.000    20.072     6.376
1568   6 C      0.211  1.071  2.718  0.000    23.534     7.946
1569   8 O     -0.361  1.751  4.610  0.000    20.915     6.132
1570   6 C     -0.092  1.060  3.033  0.000    22.226     6.706
1571   6 C     -0.017  1.045  2.971  0.000    20.836     6.492
1572   6 C     -0.124  1.048  3.076  0.000    22.933     6.828
1573   6 C     -0.128  1.047  3.081  0.000    22.976     6.829
1574   1 H      0.251  0.749  0.000  0.000     0.881     1.470
1575   1 H      0.073  0.927  0.000  0.000     2.055     2.242
1576   1 H      0.082  0.918  0.000  0.000     1.954     2.186
1577   1 H      0.074  0.926  0.000  0.000     2.041     2.234
1578   1 H      0.030  0.970  0.000  0.000     2.587     2.515
1579   1 H      0.054  0.946  0.000  0.000     2.274     2.358
1580   1 H      0.048  0.952  0.000  0.000     2.339     2.392
1581   1 H      0.059  0.941  0.000  0.000     2.212     2.326
1582   1 H      0.051  0.949  0.000  0.000     2.313     2.378
1583   1 H      0.061  0.939  0.000  0.000     2.190     2.314
1584   1 H      0.033  0.967  0.000  0.000     2.540     2.492
1585   7 N     -0.397  1.317  4.080  0.000    30.295     8.175
1586   6 C      0.035  1.056  2.908  0.000    19.987     6.366
1587   6 C      0.285  1.041  2.674  0.000    22.180     7.713
1588   8 O     -0.558  1.769  4.789  0.000    25.104     6.718
1589   6 C     -0.006  1.057  2.948  0.000    20.644     6.462
1590   6 C     -0.117  1.044  3.073  0.000    22.802     6.809
1591   6 C     -0.100  1.040  3.060  0.000    22.471     6.760
1592   1 H      0.195  0.805  0.000  0.000     1.133     1.667
1593   1 H      0.017  0.983  0.000  0.000     2.784     2.609
1594   1 H     -0.011  1.011  0.000  0.000     3.264     2.825
1595   1 H      0.003  0.997  0.000  0.000     3.015     2.715
1596   1 H      0.041  0.959  0.000  0.000     2.430     2.438
1597   1 H      0.107  0.893  0.000  0.000     1.723     2.053
1598   1 H      0.008  0.992  0.000  0.000     2.925     2.675
1599   1 H      0.060  0.940  0.000  0.000     2.204     2.322
1600   1 H      0.004  0.996  0.000  0.000     2.984     2.702
1601   7 N     -0.172  1.251  3.920  0.000    24.713     7.383
1602   6 C      0.032  1.049  2.919  0.000    20.037     6.372
1603   6 C      0.224  1.077  2.699  0.000    23.294     7.905
1604   8 O     -0.389  1.750  4.638  0.000    21.458     6.211
1605   6 C     -0.018  1.057  2.961  0.000    20.854     6.494
1606   6 C     -0.128  1.045  3.083  0.000    23.005     6.838
1607   6 C     -0.113  1.042  3.071  0.000    22.719     6.795
1608   1 H      0.255  0.745  0.000  0.000     0.864     1.456
1609   1 H      0.050  0.950  0.000  0.000     2.322     2.383
1610   1 H      0.066  0.934  0.000  0.000     2.126     2.280
1611   1 H      0.081  0.919  0.000  0.000     1.971     2.195
1612   1 H      0.065  0.935  0.000  0.000     2.136     2.286
1613   1 H      0.048  0.952  0.000  0.000     2.346     2.395
1614   1 H      0.067  0.933  0.000  0.000     2.118     2.276
1615   1 H      0.045  0.955  0.000  0.000     2.381     2.413
1616   1 H      0.024  0.976  0.000  0.000     2.679     2.559
1617   1 H      0.196  0.804  0.000  0.000     1.124     1.661
1618   1 H      0.029  0.971  0.000  0.000     2.605     2.524
1619   1 H      0.119  0.881  0.000  0.000     1.622     1.991
1620   1 H      0.189  0.811  0.000  0.000     1.165     1.690
1621   1 H      0.077  0.923  0.000  0.000     2.013     2.218
1622   1 H      0.193  0.807  0.000  0.000     1.141     1.673
1623   1 H      0.065  0.935  0.000  0.000     2.142     2.288
1624   1 H      0.177  0.823  0.000  0.000     1.233     1.739
1625   1 H      0.069  0.931  0.000  0.000     2.099     2.266
1626   1 H      0.194  0.806  0.000  0.000     1.138     1.671
1627   1 H      0.047  0.953  0.000  0.000     2.359     2.402
1628   1 H      0.184  0.816  0.000  0.000     1.191     1.710
1629   1 H      0.063  0.937  0.000  0.000     2.161     2.299
1630   1 H      0.192  0.808  0.000  0.000     1.147     1.677
1631   1 H      0.101  0.899  0.000  0.000     1.776     2.084
1632   1 H      0.211  0.789  0.000  0.000     1.049     1.604
1633   1 H      0.081  0.919  0.000  0.000     1.966     2.193
1634   1 H      0.212  0.788  0.000  0.000     1.047     1.603
1635   1 H      0.057  0.943  0.000  0.000     2.230     2.335
1636   1 H      0.184  0.816  0.000  0.000     1.193     1.711
1637   1 H      0.093  0.907  0.000  0.000     1.846     2.125
1638   1 H      0.190  0.810  0.000  0.000     1.156     1.684
1639   1 H      0.093  0.907  0.000  0.000     1.852     2.128
1640   1 H      0.198  0.802  0.000  0.000     1.117     1.656
1641   1 H      0.067  0.933  0.000  0.000     2.119     2.276
1642   1 H      0.178  0.822  0.000  0.000     1.225     1.734
1643   1 H      0.081  0.919  0.000  0.000     1.972     2.196

 Mol. C6AA /au·bohr⁶  :   24807070.156341
 Mol. C8AA /au·bohr⁸  :  548954761.188142
 Mol. α(0) /au        :       7401.858410

 
molecular dipole:
                 x           y           z       tot (Debye)
 q only:       66.469   -1300.510     -72.386
   full:       72.491   -1303.057     -69.689    3321.958
molecular quadrupole (traceless):
                xx          xy          yy          xz          yz          zz
 q only:    81185.244   11584.089 -162701.146    2492.749  -13611.149   81515.902
  q+dip:    81603.905   12901.126 -163693.884    2678.545  -12938.234   82089.979
   full:    81600.997   12899.047 -163688.259    2684.709  -12942.867   82087.262
speedup  1.28
cpu  time for grad   18 m 50.1 s
wall time for grad   14 m 43.8 s

SCC energy    :   -2593.6532042
rep           :      29.8078877
ES            :      13.2656136
AES           :      -0.8148934
AXC           :       0.7320681
disp          :      -2.3539873
XB            :       0.0000000
fix           :       0.0000000
Gborn         :       0.0000000
Gsasa         :       0.0000000
Ghb           :       0.0000000
Gshift        :       0.0000000
Gsolv         :      -5.5595584    -3488.68
Etot ala COSMO:   -2593.6532042
grad norm     :       0.9791945
total E       :   -2563.5830464
atomizationE  :     460.9002244   289219.26
(atE without considering molecular charge,
 total energy contains solvation terms)
H-L gap (eV)  :          1.1662

------------------------------------------------------------------------
 * finished run on 2019/05/04 at 20:37:42.897     
------------------------------------------------------------------------
 total:
 * wall-time:     0 d,  0 h, 15 min,  3.111 sec
 *  cpu-time:     0 d,  0 h, 19 min,  1.785 sec
 * ratio c/w:     1.264 speedup
 SCF:
 * wall-time:     0 d,  0 h, 14 min, 52.277 sec
 *  cpu-time:     0 d,  0 h, 18 min, 56.355 sec
 * ratio c/w:     1.274 speedup

