      -----------------------------------------------------------      
     |                   =====================                   |     
     |                           x T B                           |     
     |                   =====================                   |     
     |                         S. Grimme                         |     
     |          Mulliken Center for Theoretical Chemistry        |     
     |                    University of Bonn                     |     
     |                 Version 6.0.1 (SAW181210)                 |     
      -----------------------------------------------------------      

   This program is distributed in the hope that it will be useful,
   but WITHOUT ANY WARRANTY; without even the implied warranty of
   MERCHANTABILITY or FITNESS FOR A PARTICULAR PURPOSE.
   
   FOR NON-COMMERCIAL, ACADEMIA USE ONLY.
   
   Cite this work as:
   S. Grimme, C. Bannwarth, P. Shushkov, J. Comput. Theory Chem., 2017,
   13, 1989-2009.
   C. Bannwarth, S. Ehlert and S. Grimme., ChemRxiv, 2018, preprint.
   http://doi.org/10.26434/chemrxiv.7246238.v1
   
   for sTDA-xTB:
   S. Grimme and C. Bannwarth, J. Chem. Phys., 2016, 145, 054103.
   
   in the mass-spec context:
   V. Asgeirsson, C. Bauer and S. Grimme, Chem. Sci., 2017, 8, 4879.
   
   if GBSA is used:
   P. Shushkov, F. März and S. Grimme, unpublished.
   
   for ANC optimizer:
   S. Grimme, unpublished.
   Rational Function algorithm used in ANCopt:
   F. Eckert, P. Pulay, H.-J. Werner, J. Comput. Chem., 1997, 18, 1473.
   
   with help from (in alphabetical order)
   C. Bannwarth, F. Bohle, G. Brandenburg, E. Caldeweyher, M. Checinski,
   S. Dohm, S. Ehlert, S. Ehrlich, F. März, H. Neugebauer, J. Pisarek,
   P. Pracht, P. Shushkov, and S. Spicher.
   
 * started run on 2019/05/12 at 13:13:41.724     
========================================================================
 # omp threads = 2
========================================================================
number of atoms            : 565
number of electrons        : 1486
charge                     : 2
spin                       : .0
first test random number   : .5766

########################################################################
# WARNING! Please study the warnings concerning your input carefully
#  - Process number higher than OMP_NUM_THREADS, I hope you know what you are doing.
########################################################################

           ------------------------------------------------- 
          |                 G F N 2 - x T B                 |
          | Geometry, Frequencies, Noncovalent interactions |
          |            JCTC 2018 parametrisation            |
           ------------------------------------------------- 
 
      method parameters     
 k(s)        :  1.8500
 k(p)        :  2.2300
 k(d)        :  2.2300
 k(f)        :  2.0000
 kEN (H0ij)  : -2.0000
 D4 a1       :  0.5200
 D4 a2       :  5.0000
 D4 s6       :  1.0000
 D4 s8       :  2.7000
 D4 s9       :  5.0000
 alphaj      :  2.0000

 Solvent             : h2o
 Using internal parameter file: .param_gbsa2_h2o
 Gsolv ref. state (COSMO-RS): gsolv [1 M gas/solution]
 temperature (mdtemp)       :    298.150000000000     
 dielectric constant        :    80.2000000000000     
 rho                        :    1.00000000000000     
 mass                       :    18.0000000000000     
 surface tension            :    15.5689454083859     
 probe radius               :   0.975313790000000     
 vdW radii scaling          :    1.00000000000000     
 Gshift (Eh)                :   1.857443126794793E-003
 c1                         :    1.55243817000000     
 soset                      :   0.130326360000000     
 HB correction              :  T

            Z     q(EN)     CN     RAES       Cart. coordinates
     1  N   5.0   -0.13    3.43    2.04    45.63083    72.44065   143.74980
     2  C   4.0    0.03    4.53    4.58    43.33847    73.38197   144.93598
     3  C   4.0    0.15    3.41    3.08    41.56557    74.65367   143.09045
     4  O   6.0   -0.27    1.23    1.80    42.26884    76.25811   141.55852
     5  C   4.0   -0.03    4.36    4.31    44.34072    75.24848   146.89981
     6  C   4.0   -0.04    4.27    4.14    46.67013    73.85712   147.86719
     7  C   4.0   -0.00    4.39    4.36    47.78483    72.73275   145.44639
     8  H   1.0    0.06    1.06    1.44    42.32321    71.82576   145.86162
     9  H   1.0    0.06    1.03    1.43    44.90227    76.99656   145.95937
    10  H   1.0    0.05    1.02    1.43    42.96492    75.64103   148.37654
    11  H   1.0    0.05    1.02    1.43    47.98668    75.10939   148.82300
    12  H   1.0    0.05    1.02    1.43    46.08718    72.36832   149.16655
    13  H   1.0    0.06    1.02    1.43    49.12798    74.06148   144.62046
    14  H   1.0    0.05    1.02    1.43    48.68725    70.91288   145.81032
    15  N   5.0   -0.15    3.51    2.09    39.15349    74.06616   143.46489
    16  C   4.0    0.04    4.40    4.38    37.10680    75.12654   141.99480
    17  C   4.0    0.16    3.41    3.08    36.79872    77.98456   142.39566
    18  O   6.0   -0.28    1.23    1.80    35.82745    79.33280   140.80452
    19  C   4.0   -0.03    4.33    4.26    34.69298    73.65603   142.64276
    20  C   4.0   -0.01    3.56    3.14    32.44002    74.37725   141.07838
    21  C   4.0   -0.03    3.47    3.10    30.59841    75.96054   142.06430
    22  C   4.0   -0.03    3.46    3.10    32.09884    73.36170   138.68305
    23  C   4.0   -0.04    3.37    3.07    28.43602    76.51846   140.70870
    24  C   4.0   -0.03    3.38    3.07    29.92592    73.89789   137.32893
    25  C   4.0   -0.03    3.37    3.07    28.09069    75.47673   138.33300
    26  H   1.0    0.11    1.12    1.45    38.70561    72.76719   144.84137
    27  H   1.0    0.07    1.06    1.44    37.54058    74.86553   139.98570
    28  H   1.0    0.05    1.03    1.43    35.12573    71.65456   142.37881
    29  H   1.0    0.05    1.03    1.43    34.27725    73.91138   144.65205
    30  H   1.0    0.05    1.03    1.43    30.81214    76.67311   143.96320
    31  H   1.0    0.06    1.03    1.43    33.50197    72.08802   137.93295
    32  H   1.0    0.05    1.03    1.43    27.00826    77.71572   141.53387
    33  H   1.0    0.06    1.03    1.43    29.62292    73.03967   135.50592
    34  H   1.0    0.06    1.03    1.43    26.39350    75.88707   137.27753
    35  N   5.0   -0.14    3.45    2.05    37.74789    78.91406   144.56326
    36  C   4.0    0.04    4.30    4.19    37.94907    81.62023   144.98065
    37  C   4.0    0.10    3.22    3.04    39.60078    82.90648   142.94277
    38  O   6.0   -0.27    1.14    1.80    39.14483    85.05774   142.25141
    39  C   4.0   -0.04    4.25    4.10    39.10972    82.17959   147.58202
    40  C   4.0   -0.05    4.16    3.92    37.25622    82.02763   149.80510
    41  C   4.0   -0.04    4.16    3.92    35.55514    84.36363   149.99428
    42  C   4.0   -0.03    4.12    3.83    33.96070    84.29385   152.39995
    43  N   5.0   -0.11    4.03    2.94    32.56652    86.69126   152.79287
    44  H   1.0    0.08    1.07    1.44    38.37191    77.73033   145.92407
    45  H   1.0    0.06    1.05    1.44    36.07260    82.48407   144.82811
    46  H   1.0    0.05    1.03    1.43    40.64619    80.84006   147.90066
    47  H   1.0    0.06    1.03    1.43    39.93439    84.06856   147.53476
    48  H   1.0    0.05    1.02    1.43    36.10798    80.32167   149.68049
    49  H   1.0    0.05    1.03    1.43    38.36266    81.87740   151.53713
    50  H   1.0    0.05    1.03    1.43    36.75480    86.03916   150.03364
    51  H   1.0    0.05    1.03    1.43    34.30455    84.46008   148.36181
    52  H   1.0    0.05    1.02    1.43    32.58389    82.76104   152.31495
    53  H   1.0    0.05    1.02    1.43    35.15113    83.97559   154.05042
    54  H   1.0    0.11    1.13    1.45    31.10044    86.46607   154.22592
    55  H   1.0    0.07    1.02    1.43    33.73159    88.13298   153.34442
    56  H   1.0    0.08    1.02    1.43    31.58001    87.23023   151.21378
    57  N   5.0   -0.20    3.19    1.95    26.56513    86.91760   133.05633
    58  C   4.0    0.03    4.21    4.02    24.95006    85.30674   134.57015
    59  C   4.0    0.08    3.21    3.04    22.55540    86.61404   135.49636
    60  O   6.0   -0.29    1.13    1.80    20.59815    85.42328   135.86112
    61  C   4.0   -0.05    4.25    4.10    26.40604    84.14468   136.79354
    62  C   4.0   -0.04    4.18    3.96    26.88301    85.93785   139.02779
    63  C   4.0   -0.00    4.21    4.03    29.58988    85.65696   139.99189
    64  N   5.0   -0.13    3.41    2.03    29.87558    86.81249   142.45652
    65  C   4.0    0.10    3.35    3.06    32.06726    87.32329   143.55187
    66  N   5.0   -0.17    3.25    1.97    34.24715    87.22945   142.32675
    67  N   5.0   -0.18    3.24    1.97    32.05139    87.84357   146.05353
    68  H   1.0    0.09    1.02    1.43    27.77527    88.08571   133.96890
    69  H   1.0    0.05    1.06    1.44    24.31634    83.77828   133.31763
    70  H   1.0    0.05    1.03    1.43    25.33943    82.50295   137.42573
    71  H   1.0    0.05    1.04    1.43    28.20148    83.47678   136.05162
    72  H   1.0    0.05    1.03    1.43    26.57659    87.89581   138.47770
    73  H   1.0    0.05    1.02    1.43    25.56408    85.53549   140.56299
    74  H   1.0    0.05    1.02    1.43    30.06652    83.64663   140.13469
    75  H   1.0    0.05    1.03    1.43    30.86959    86.58920   138.66898
    76  H   1.0    0.11    1.11    1.45    28.32323    86.84989   143.60633
    77  H   1.0    0.10    1.03    1.43    34.36482    87.04644   140.42021
    78  H   1.0    0.11    1.04    1.43    35.90993    87.52235   143.21746
    79  H   1.0    0.11    1.05    1.44    30.31894    88.04528   146.84570
    80  H   1.0    0.09    1.03    1.43    33.43527    88.96306   146.73721
    81  N   5.0   -0.18    3.21    1.96    17.45617    84.64458   131.66626
    82  C   4.0    0.04    4.21    4.03    16.67749    82.03418   132.03177
    83  C   4.0    0.09    3.20    3.04    14.90276    81.76525   134.29559
    84  O   6.0   -0.26    1.11    1.80    13.07601    80.34402   134.26102
    85  C   4.0   -0.03    4.26    4.13    19.02131    80.36021   132.32256
    86  C   4.0   -0.03    4.17    3.94    18.42493    77.57417   131.93227
    87  C   4.0    0.25    3.09    3.02    20.82458    75.91849   131.47613
    88  O   6.0   -0.31    1.28    1.80    20.36321    73.73832   130.66201
    89  O   6.0   -0.29    1.17    1.80    22.93553    76.79547   131.93865
    90  H   1.0    0.10    1.03    1.43    19.32568    84.97491   131.47807
    91  H   1.0    0.06    1.05    1.44    15.59739    81.44014   130.35744
    92  H   1.0    0.06    1.03    1.43    20.38595    80.93671   130.88104
    93  H   1.0    0.06    1.02    1.43    19.87547    80.68782   134.16938
    94  H   1.0    0.05    1.02    1.43    17.41830    76.79926   133.55831
    95  H   1.0    0.06    1.03    1.43    17.20642    77.33919   130.28253
    96  N   5.0   -0.20    3.25    1.97    15.82136    70.18323   149.73952
    97  C   4.0    0.03    4.42    4.41    18.02171    69.74654   151.29432
    98  C   4.0    0.15    3.44    3.09    20.31197    69.16176   149.64153
    99  O   6.0   -0.31    1.28    1.80    20.14345    67.80904   147.77200
   100  C   4.0   -0.02    4.27    4.15    17.62075    67.50414   153.10512
   101  C   4.0   -0.07    4.13    3.86    19.91509    67.19864   154.83037
   102  C   4.0   -0.07    4.12    3.85    15.21510    67.89467   154.64327
   103  H   1.0    0.13    1.07    1.44    15.10178    68.66997   148.79329
   104  H   1.0    0.04    1.06    1.44    18.36455    71.46268   152.39235
   105  H   1.0    0.05    1.05    1.44    17.40545    65.78773   151.96841
   106  H   1.0    0.04    1.00    1.43    19.54619    65.74823   156.23634
   107  H   1.0    0.05    1.00    1.43    21.59973    66.66399   153.78411
   108  H   1.0    0.05    1.00    1.43    20.31912    68.96286   155.80623
   109  H   1.0    0.04    1.00    1.43    14.95007    66.32300   155.93750
   110  H   1.0    0.04    1.00    1.43    15.34064    69.61302   155.75960
   111  H   1.0    0.05    1.00    1.43    13.57354    68.04143   153.42128
   112  N   5.0   -0.15    3.49    2.07    22.47321    70.20505   150.42268
   113  C   4.0    0.04    4.51    4.55    24.91870    69.57422   149.36986
   114  C   4.0    0.14    3.45    3.09    26.37489    68.13007   151.41086
   115  O   6.0   -0.32    1.29    1.80    26.72126    69.08433   153.50044
   116  C   4.0   -0.02    4.27    4.15    26.36134    71.96982   148.60197
   117  C   4.0   -0.07    4.14    3.89    29.11405    71.35127   148.04972
   118  C   4.0   -0.07    4.12    3.84    25.11484    73.17128   146.30872
   119  H   1.0    0.11    1.09    1.44    22.49232    71.23469   152.03611
   120  H   1.0    0.07    1.08    1.44    24.60690    68.37387   147.72234
   121  H   1.0    0.05    1.05    1.44    26.29007    73.30936   150.18401
   122  H   1.0    0.04    1.00    1.43    30.07076    73.01388   147.32121
   123  H   1.0    0.05    1.00    1.43    30.08976    70.75985   149.75729
   124  H   1.0    0.04    1.00    1.43    29.24880    69.84603   146.66506
   125  H   1.0    0.04    1.00    1.43    25.89807    75.03894   145.96709
   126  H   1.0    0.04    1.00    1.43    25.43116    72.01636   144.64002
   127  H   1.0    0.05    1.00    1.43    23.09071    73.37222   146.59655
   128  N   5.0   -0.14    3.46    2.05    27.09195    65.79772   150.78558
   129  C   4.0    0.04    4.49    4.52    28.58729    64.16914   152.40830
   130  C   4.0    0.14    3.45    3.10    31.22147    63.89234   151.23281
   131  O   6.0   -0.30    1.24    1.80    31.49438    63.05799   149.09117
   132  C   4.0   -0.02    4.28    4.15    27.41160    61.51539   152.64281
   133  C   4.0   -0.08    4.15    3.89    29.11091    59.85520   154.25525
   134  C   4.0   -0.08    4.11    3.82    24.76930    61.61029   153.77550
   135  H   1.0    0.11    1.09    1.44    26.86646    65.22786   148.96292
   136  H   1.0    0.06    1.06    1.44    28.72662    65.08323   154.25585
   137  H   1.0    0.05    1.06    1.44    27.30808    60.72954   150.73260
   138  H   1.0    0.03    1.00    1.43    28.27370    57.99495   154.46655
   139  H   1.0    0.05    1.01    1.43    30.96164    59.66352   153.39457
   140  H   1.0    0.04    1.00    1.43    29.33974    60.68853   156.12255
   141  H   1.0    0.03    1.00    1.43    23.97011    59.72220   153.81850
   142  H   1.0    0.04    1.00    1.43    24.82670    62.34649   155.69430
   143  H   1.0    0.05    1.00    1.43    23.54471    62.81859   152.65074
   144  N   5.0   -0.14    3.48    2.06    33.15168    64.52936   152.73981
   145  C   4.0    0.03    4.39    4.37    35.75349    64.38582   151.91117
   146  C   4.0    0.15    3.46    3.10    37.28631    62.93342   153.87849
   147  O   6.0   -0.31    1.30    1.80    37.02420    63.31862   156.14421
   148  C   4.0   -0.03    4.25    4.10    36.98281    67.01608   151.60608
   149  C   4.0   -0.03    4.18    3.97    35.23053    68.93864   150.36456
   150  C   4.0    0.24    3.10    3.02    36.75457    71.16101   149.17542
   151  O   6.0   -0.32    1.24    1.80    38.10840    70.58738   147.31794
   152  O   6.0   -0.31    1.16    1.80    36.50011    73.30615   150.08976
   153  H   1.0    0.11    1.10    1.44    32.81287    65.35360   154.43444
   154  H   1.0    0.06    1.06    1.44    35.72513    63.41979   150.08208
   155  H   1.0    0.06    1.03    1.43    37.55970    67.73371   153.45531
   156  H   1.0    0.06    1.03    1.43    38.68311    66.81638   150.45161
   157  H   1.0    0.05    1.03    1.43    34.19322    68.05333   148.81370
   158  H   1.0    0.06    1.02    1.43    33.88392    69.70242   151.72731
   159  N   5.0   -0.14    3.46    2.05    38.91474    61.19927   153.01161
   160  C   4.0    0.04    4.34    4.27    40.68288    60.02122   154.75487
   161  C   4.0    0.09    3.24    3.04    42.43371    62.06851   155.83583
   162  O   6.0   -0.27    1.13    1.80    43.20754    63.83209   154.55767
   163  C   4.0   -0.04    4.27    4.14    42.17005    57.97022   153.35996
   164  C   4.0   -0.04    4.19    3.97    43.97719    56.58642   155.11902
   165  C   4.0   -0.00    4.20    3.99    45.01788    54.14051   153.97424
   166  N   5.0   -0.14    3.39    2.02    46.38472    54.50876   151.62709
   167  C   4.0    0.10    3.34    3.06    48.73791    55.39982   151.41862
   168  N   5.0   -0.17    3.25    1.97    49.90687    56.49667   153.32693
   169  N   5.0   -0.17    3.23    1.96    49.83348    55.38271   149.13071
   170  H   1.0    0.08    1.07    1.44    39.40683    61.25082   151.16920
   171  H   1.0    0.06    1.05    1.44    39.59126    59.18526   156.29924
   172  H   1.0    0.05    1.03    1.43    40.82084    56.62660   152.57841
   173  H   1.0    0.06    1.03    1.43    43.23044    58.85425   151.82718
   174  H   1.0    0.05    1.03    1.43    45.49598    57.87291   155.64953
   175  H   1.0    0.05    1.03    1.43    42.97533    56.05785   156.84424
   176  H   1.0    0.05    1.02    1.43    46.25112    53.21029   155.34547
   177  H   1.0    0.05    1.03    1.43    43.45757    52.84724   153.59225
   178  H   1.0    0.08    1.07    1.44    45.60907    53.67717   150.09688
   179  H   1.0    0.09    1.03    1.43    49.20440    56.48013   155.09285
   180  H   1.0    0.10    1.03    1.43    51.73846    57.01393   153.22221
   181  H   1.0    0.10    1.03    1.43    49.06460    54.32781   147.74354
   182  H   1.0    0.10    1.03    1.43    51.69677    55.79607   148.93984
   183  N   5.0   -0.18    3.22    1.96    36.40452    52.04892   146.35029
   184  C   4.0    0.03    4.22    4.04    33.92427    51.43403   145.38493
   185  C   4.0    0.09    3.22    3.04    33.76527    51.84279   142.54456
   186  O   6.0   -0.26    1.12    1.80    35.10033    53.32952   141.37463
   187  C   4.0   -0.04    4.36    4.31    31.86577    52.99430   146.68524
   188  C   4.0   -0.03    4.17    3.95    31.22710    52.08628   149.36061
   189  C   4.0   -0.08    4.12    3.83    29.92230    54.23434   150.76729
   190  C   4.0   -0.07    4.10    3.80    29.51629    49.76514   149.28457
   191  H   1.0    0.10    1.03    1.43    36.89859    53.88842   146.35656
   192  H   1.0    0.04    1.06    1.44    33.65606    49.41480   145.75327
   193  H   1.0    0.06    1.03    1.43    32.48399    54.96355   146.72102
   194  H   1.0    0.05    1.03    1.43    30.15846    52.93197   145.53590
   195  H   1.0    0.05    1.05    1.44    32.98462    51.59501   150.33768
   196  H   1.0    0.04    1.00    1.43    29.53713    53.68680   152.70796
   197  H   1.0    0.04    1.00    1.43    31.11956    55.90074   150.79723
   198  H   1.0    0.04    1.00    1.43    28.16070    54.73382   149.83929
   199  H   1.0    0.05    1.00    1.43    29.18033    49.04613   151.17929
   200  H   1.0    0.04    1.00    1.43    27.71135    50.26630   148.44216
   201  H   1.0    0.05    1.00    1.43    30.34719    48.24278   148.17900
   202  N   5.0   -0.18    3.28    1.98    28.99742    54.02550   139.40476
   203  C   4.0    0.03    4.32    4.23    27.67806    56.36689   138.94833
   204  C   4.0    0.16    3.42    3.09    28.06502    58.12213   141.22167
   205  O   6.0   -0.30    1.25    1.80    28.72246    57.28670   143.25252
   206  C   4.0   -0.05    4.29    4.18    24.82465    55.80787   138.72291
   207  C   4.0   -0.05    4.20    4.00    24.19129    53.66225   136.88945
   208  C   4.0   -0.05    4.17    3.93    24.81811    54.33098   134.14350
   209  C   4.0   -0.03    4.11    3.83    23.54713    52.57728   132.24065
   210  N   5.0   -0.12    4.02    2.91    24.62762    49.97480   132.38032
   211  H   1.0    0.09    1.03    1.43    28.91769    53.36402   141.19579
   212  H   1.0    0.05    1.05    1.44    28.47930    57.18712   137.23089
   213  H   1.0    0.04    1.03    1.43    24.16827    55.29343   140.60656
   214  H   1.0    0.04    1.03    1.43    23.85504    57.53207   138.16009
   215  H   1.0    0.04    1.04    1.43    25.23296    51.99455   137.49723
   216  H   1.0    0.04    1.03    1.43    22.17548    53.28058   137.06273
   217  H   1.0    0.04    1.03    1.43    24.15234    56.23975   133.75873
   218  H   1.0    0.05    1.02    1.43    26.86283    54.32333   133.87765
   219  H   1.0    0.04    1.02    1.43    21.52325    52.47327   132.61360
   220  H   1.0    0.05    1.02    1.43    23.84066    53.29099   130.33129
   221  H   1.0    0.07    1.02    1.43    23.77749    48.79457   131.08595
   222  H   1.0    0.06    1.02    1.43    26.53577    50.03845   131.99577
   223  H   1.0    0.06    1.02    1.43    24.41034    49.23629   134.16310
   224  N   5.0   -0.15    3.49    2.07    27.35985    60.56430   140.81942
   225  C   4.0    0.04    4.47    4.49    28.03185    62.50809   142.61828
   226  C   4.0    0.14    3.39    3.08    25.76595    64.10113   143.45190
   227  O   6.0   -0.32    1.27    1.80    25.76288    65.24545   145.46809
   228  C   4.0    0.05    4.23    4.06    30.13683    64.18418   141.45320
   229  O   6.0   -0.24    2.13    1.84    32.08928    62.52363   140.70654
   230  C   4.0   -0.07    4.08    3.77    31.04715    66.20830   143.26932
   231  H   1.0    0.07    1.08    1.44    27.44637    61.13425   138.99529
   232  H   1.0    0.08    1.06    1.44    28.81941    61.57460   144.29283
   233  H   1.0    0.04    1.03    1.43    29.37155    65.11531   139.74819
   234  H   1.0    0.13    1.03    1.43    33.70567    63.32851   140.92091
   235  H   1.0    0.04    1.00    1.43    32.66046    67.22560   142.49874
   236  H   1.0    0.05    1.00    1.43    29.54517    67.56706   143.59720
   237  H   1.0    0.07    1.00    1.43    31.58684    65.36940   145.06916
   238  N   5.0   -0.14    3.53    2.10    23.87799    64.23095   141.77900
   239  C   4.0    0.03    4.40    4.37    21.60123    65.70642   142.17773
   240  C   4.0    0.15    3.40    3.08    19.37678    63.86975   142.40061
   241  O   6.0   -0.33    1.31    1.80    19.15631    62.15089   140.86400
   242  C   4.0   -0.04    4.23    4.07    21.21630    67.62016   139.99552
   243  C   4.0   -0.05    4.20    3.99    22.07870    66.61654   137.42488
   244  C   4.0   -0.05    4.16    3.92    21.24538    68.35327   135.26148
   245  C   4.0   -0.04    4.10    3.81    22.09996    67.32179   132.69229
   246  N   5.0   -0.11    4.02    2.92    20.87424    68.70663   130.57900
   247  H   1.0    0.08    1.09    1.44    23.81099    62.94400   140.36852
   248  H   1.0    0.07    1.07    1.44    21.80761    66.73101   143.95728
   249  H   1.0    0.05    1.03    1.43    19.21832    68.12908   139.94304
   250  H   1.0    0.04    1.02    1.43    22.26173    69.33779   140.45163
   251  H   1.0    0.04    1.03    1.43    24.13418    66.48302   137.41353
   252  H   1.0    0.05    1.03    1.43    21.28618    64.73233   137.16134
   253  H   1.0    0.04    1.04    1.43    19.19716    68.56398   135.31243
   254  H   1.0    0.05    1.03    1.43    22.04078    70.23125   135.55031
   255  H   1.0    0.05    1.02    1.43    24.13991    67.55434   132.52241
   256  H   1.0    0.04    1.02    1.43    21.64650    65.31707   132.53672
   257  H   1.0    0.07    1.02    1.43    21.60262    68.20115   128.85401
   258  H   1.0    0.06    1.02    1.43    18.94894    68.48753   130.59076
   259  H   1.0    0.10    1.08    1.44    21.11896    70.70435   130.75031
   260  N   5.0   -0.14    3.46    2.05    17.77635    64.30486   144.28787
   261  C   4.0    0.04    4.28    4.16    15.63534    62.74215   144.96122
   262  C   4.0    0.08    3.23    3.04    13.33695    64.41059   145.60906
   263  O   6.0   -0.31    1.20    1.80    13.60194    66.34676   146.86876
   264  C   4.0   -0.03    4.34    4.27    16.12389    61.26047   147.44349
   265  C   4.0   -0.01    3.55    3.14    18.36844    59.53254   147.34898
   266  C   4.0   -0.03    3.48    3.11    20.80916    60.51216   147.38620
   267  C   4.0   -0.04    3.46    3.10    18.03575    56.93097   147.28641
   268  C   4.0   -0.03    3.37    3.07    22.87664    58.91468   147.31632
   269  C   4.0   -0.04    3.37    3.07    20.10576    55.33564   147.23757
   270  C   4.0   -0.04    3.37    3.07    22.52900    56.32227   147.24204
   271  H   1.0    0.11    1.10    1.44    18.17992    65.70826   145.53771
   272  H   1.0    0.06    1.05    1.44    15.21800    61.45551   143.40369
   273  H   1.0    0.05    1.03    1.43    16.40243    62.65466   148.94326
   274  H   1.0    0.05    1.03    1.43    14.41901    60.18555   147.87737
   275  H   1.0    0.07    1.03    1.43    21.10522    62.52767   147.52690
   276  H   1.0    0.05    1.03    1.43    16.14822    56.15813   147.30517
   277  H   1.0    0.06    1.03    1.43    24.76444    59.69250   147.32220
   278  H   1.0    0.05    1.03    1.43    19.83229    53.31663   147.21815
   279  H   1.0    0.05    1.03    1.43    24.15839    55.09542   147.20504
   280  N   5.0   -0.20    3.20    1.96    12.49883    52.81825   164.24967
   281  C   4.0    0.03    4.25    4.10    14.07267    53.71252   162.20364
   282  C   4.0    0.09    3.21    3.04    16.66205    52.43025   162.22838
   283  O   6.0   -0.31    1.15    1.80    17.57590    51.54670   160.28975
   284  C   4.0   -0.04    4.33    4.25    14.36092    56.57341   162.35534
   285  C   4.0   -0.01    3.56    3.14    15.59276    57.66381   160.03364
   286  C   4.0   -0.03    3.47    3.10    14.77944    57.01479   157.61541
   287  C   4.0   -0.04    3.47    3.10    17.53107    59.41268   160.28192
   288  C   4.0   -0.04    3.38    3.07    15.90613    58.06503   155.50767
   289  C   4.0   -0.05    3.39    3.07    18.60853    60.52124   158.16539
   290  C   4.0   -0.05    3.37    3.07    17.81464    59.83772   155.76877
   291  H   1.0    0.09    1.03    1.43    11.70366    54.10926   165.42091
   292  H   1.0    0.05    1.06    1.44    13.18359    53.16274   160.41196
   293  H   1.0    0.05    1.03    1.43    12.46525    57.36570   162.57379
   294  H   1.0    0.04    1.03    1.43    15.46094    57.05947   164.02916
   295  H   1.0    0.06    1.03    1.43    13.24003    55.69993   157.37081
   296  H   1.0    0.05    1.03    1.43    18.19578    59.93608   162.13761
   297  H   1.0    0.05    1.03    1.43    15.28484    57.52107   153.64272
   298  H   1.0    0.04    1.04    1.43    20.09791    61.89271   158.41217
   299  H   1.0    0.04    1.03    1.43    18.66353    60.68788   154.12001
   300  N   5.0   -0.19    3.23    1.96    20.17426    48.21999   156.77239
   301  C   4.0    0.03    4.32    4.23    22.70115    48.72674   155.85624
   302  C   4.0    0.09    3.22    3.04    24.39886    46.40949   156.19640
   303  O   6.0   -0.28    1.11    1.80    25.68546    45.59487   154.44868
   304  C   4.0   -0.02    4.35    4.29    23.68801    51.11265   157.16358
   305  C   4.0   -0.05    4.21    4.02    22.47141    53.40959   155.89363
   306  C   4.0   -0.07    4.14    3.87    26.55691    51.27287   157.08103
   307  C   4.0   -0.08    4.03    3.67    22.51472    55.70801   157.60815
   308  H   1.0    0.12    1.06    1.44    19.52547    49.21762   158.27396
   309  H   1.0    0.05    1.06    1.44    22.62197    49.03588   153.80480
   310  H   1.0    0.05    1.06    1.44    23.07727    51.03719   159.13757
   311  H   1.0    0.04    1.03    1.43    23.46439    53.82638   154.13487
   312  H   1.0    0.05    1.03    1.43    20.50793    52.97755   155.43917
   313  H   1.0    0.04    1.00    1.43    27.19306    53.11195   157.72992
   314  H   1.0    0.05    1.00    1.43    27.40277    49.84393   158.28025
   315  H   1.0    0.04    1.00    1.43    27.22578    50.98736   155.16010
   316  H   1.0    0.04    1.01    1.43    21.74262    57.33125   156.62797
   317  H   1.0    0.05    1.00    1.43    21.36203    55.37586   159.27645
   318  H   1.0    0.03    1.00    1.43    24.42656    56.16203   158.20437
   319  N   5.0   -0.18    3.25    1.97    30.46220    57.90620   170.07033
   320  C   4.0    0.03    4.23    4.06    29.53314    59.65919   168.16498
   321  C   4.0    0.09    3.21    3.04    29.27551    62.20677   169.52712
   322  O   6.0   -0.27    1.13    1.80    27.87013    62.43529   171.34345
   323  C   4.0   -0.04    4.35    4.29    27.01872    58.63749   167.17639
   324  C   4.0   -0.02    4.17    3.94    25.93601    60.05215   164.89742
   325  C   4.0   -0.08    4.11    3.83    27.79241    60.19242   162.68851
   326  C   4.0   -0.08    4.12    3.83    23.54142    58.70642   164.00453
   327  H   1.0    0.11    1.03    1.43    29.34695    57.73668   171.61149
   328  H   1.0    0.05    1.05    1.44    30.95465    59.78017   166.67941
   329  H   1.0    0.04    1.03    1.43    27.32523    56.66397   166.65592
   330  H   1.0    0.06    1.03    1.43    25.65712    58.70712   168.72514
   331  H   1.0    0.05    1.05    1.44    25.47314    61.98646   165.47144
   332  H   1.0    0.04    1.00    1.43    26.85237    61.00017   161.04861
   333  H   1.0    0.06    1.00    1.43    29.42356    61.35944   163.12661
   334  H   1.0    0.04    1.00    1.43    28.43950    58.30597   162.18755
   335  H   1.0    0.04    1.00    1.43    22.64788    59.78669   162.50704
   336  H   1.0    0.04    1.00    1.43    24.02325    56.85154   163.26733
   337  H   1.0    0.04    1.00    1.43    22.20283    58.47319   165.53958
   338  N   5.0   -0.18    3.25    1.97    28.40985    70.13548   169.21400
   339  C   4.0    0.03    4.42    4.41    27.56050    72.25290   167.69765
   340  C   4.0    0.15    3.43    3.09    29.75170    74.12254   167.51275
   341  O   6.0   -0.26    1.24    1.80    31.11369    74.61277   169.33141
   342  C   4.0   -0.02    4.25    4.10    25.07799    73.33087   168.70716
   343  C   4.0   -0.06    4.13    3.86    24.35309    75.71687   167.27821
   344  C   4.0   -0.07    4.12    3.85    22.98264    71.36001   168.44880
   345  H   1.0    0.10    1.02    1.43    28.00748    70.13050   171.08998
   346  H   1.0    0.04    1.06    1.44    27.22359    71.52724   165.78513
   347  H   1.0    0.06    1.05    1.44    25.31243    73.78055   170.71065
   348  H   1.0    0.05    1.00    1.43    22.50086    76.33699   167.89921
   349  H   1.0    0.08    1.01    1.43    25.67444    77.24972   167.61660
   350  H   1.0    0.05    1.00    1.43    24.28083    75.36399   165.25343
   351  H   1.0    0.05    1.00    1.43    21.25757    72.09485   169.27925
   352  H   1.0    0.04    1.00    1.43    22.62906    70.97343   166.46286
   353  H   1.0    0.05    1.00    1.43    23.49540    69.60944   169.38849
   354  N   5.0   -0.15    3.44    2.04    30.22986    74.95159   165.18142
   355  C   4.0    0.04    4.31    4.21    32.22446    76.72533   164.59101
   356  C   4.0    0.10    3.22    3.04    34.86377    75.82194   165.41410
   357  O   6.0   -0.26    1.14    1.80    36.58500    77.33639   165.62794
   358  C   4.0   -0.01    4.33    4.26    31.78207    79.32353   165.82975
   359  C   4.0    0.16    3.21    3.04    29.31165    80.55981   165.02164
   360  O   6.0   -0.28    1.21    1.80    27.56089    80.80613   166.50365
   361  N   5.0   -0.18    3.18    1.95    29.20083    81.30188   162.59068
   362  H   1.0    0.11    1.10    1.44    28.95209    74.62164   163.77795
   363  H   1.0    0.05    1.05    1.44    32.25601    76.93024   162.53262
   364  H   1.0    0.08    1.03    1.43    31.71483    79.06359   167.87254
   365  H   1.0    0.07    1.03    1.43    33.37591    80.54226   165.36356
   366  H   1.0    0.10    1.03    1.43    27.66053    82.26015   162.00800
   367  H   1.0    0.09    1.03    1.43    30.74803    81.36019   161.48995
   368  N   5.0   -0.16    3.24    1.96    20.49776    86.02112   157.39020
   369  C   4.0    0.05    4.20    3.99    22.56018    87.60321   156.55103
   370  C   4.0    0.12    3.21    3.04    21.59887    90.15954   155.52606
   371  O   6.0   -0.22    1.14    1.80    19.41854    90.86989   155.79318
   372  C   4.0   -0.02    4.26    4.12    24.11601    86.13382   154.61436
   373  C   4.0    0.24    3.12    3.03    26.85211    87.03541   154.26658
   374  O   6.0   -0.31    1.33    1.80    28.51078    85.99983   155.60544
   375  O   6.0   -0.28    1.17    1.80    27.34012    88.64733   152.60954
   376  H   1.0    0.13    1.06    1.44    19.85044    84.77563   156.09507
   377  H   1.0    0.06    1.05    1.44    23.71376    88.08059   158.22092
   378  H   1.0    0.06    1.04    1.43    24.21282    84.17446   155.25096
   379  H   1.0    0.09    1.03    1.43    23.13875    86.19088   152.79708
   380  N   5.0   -0.17    3.26    1.97    22.45412    91.82790   149.37958
   381  C   4.0    0.04    4.23    4.07    20.86978    90.53840   147.55420
   382  C   4.0    0.11    3.27    3.05    19.17773    88.67945   149.01269
   383  O   6.0   -0.24    1.19    1.80    19.38049    88.35956   151.28744
   384  C   4.0   -0.03    4.25    4.09    22.50570    89.26812   145.56348
   385  C   4.0    0.25    3.14    3.03    23.99593    87.03017   146.77392
   386  O   6.0   -0.31    1.27    1.80    22.73033    85.42660   147.93985
   387  O   6.0   -0.31    1.23    1.80    26.31878    87.00234   146.42141
   388  H   1.0    0.11    1.03    1.43    23.83798    90.74402   150.14081
   389  H   1.0    0.05    1.05    1.44    19.64915    91.99122   146.71672
   390  H   1.0    0.05    1.02    1.43    21.33252    88.50399   144.05014
   391  H   1.0    0.06    1.02    1.43    23.81278    90.64995   144.77459
   392  N   5.0   -0.17    3.24    1.96    18.14689    82.56524   148.81702
   393  C   4.0    0.03    4.33    4.25    18.87100    80.08443   149.71405
   394  C   4.0    0.15    3.41    3.08    19.30334    80.14064   152.57860
   395  O   6.0   -0.30    1.28    1.80    19.85852    82.07638   153.71691
   396  C   4.0   -0.03    4.35    4.29    21.35413    79.26570   148.47599
   397  C   4.0   -0.02    3.55    3.14    21.09902    78.65053   145.71048
   398  C   4.0   -0.04    3.47    3.10    19.54157    76.69539   144.90686
   399  C   4.0   -0.04    3.46    3.10    22.50931    79.95160   143.92243
   400  C   4.0   -0.04    3.38    3.07    19.40244    76.05198   142.37481
   401  C   4.0   -0.04    3.38    3.07    22.35045    79.32273   141.38923
   402  C   4.0   -0.04    3.37    3.07    20.80577    77.36599   140.60369
   403  H   1.0    0.12    1.06    1.44    19.59232    83.79258   148.48006
   404  H   1.0    0.04    1.05    1.44    17.33843    78.75933   149.29105
   405  H   1.0    0.06    1.04    1.43    22.69905    80.80677   148.72337
   406  H   1.0    0.04    1.03    1.43    22.06546    77.60989   149.48786
   407  H   1.0    0.05    1.03    1.43    18.48053    75.64232   146.29934
   408  H   1.0    0.06    1.03    1.43    23.73194    81.47184   144.52612
   409  H   1.0    0.05    1.03    1.43    18.22802    74.49990   141.77885
   410  H   1.0    0.05    1.03    1.43    23.43405    80.37538   140.01994
   411  H   1.0    0.05    1.03    1.43    20.70643    76.87881   138.62462
   412  N   5.0   -0.14    3.48    2.06    19.16953    77.87967   153.71397
   413  C   4.0    0.03    4.51    4.56    20.18064    77.45556   156.22365
   414  C   4.0    0.14    3.46    3.10    22.31275    75.52829   155.93439
   415  O   6.0   -0.32    1.28    1.80    21.96564    73.45321   154.96684
   416  C   4.0   -0.02    4.25    4.10    18.17988    76.60825   158.14009
   417  C   4.0   -0.07    4.12    3.84    16.70246    74.31568   157.23392
   418  C   4.0   -0.07    4.14    3.88    19.51631    76.07986   160.63623
   419  H   1.0    0.08    1.06    1.44    18.46775    76.37151   152.76433
   420  H   1.0    0.05    1.07    1.44    20.96287    79.26647   156.85736
   421  H   1.0    0.05    1.05    1.44    16.88626    78.20683   158.39965
   422  H   1.0    0.04    1.00    1.43    15.35295    73.74112   158.67351
   423  H   1.0    0.05    1.00    1.43    15.67805    74.72937   155.50067
   424  H   1.0    0.05    1.01    1.43    17.99947    72.76143   156.89565
   425  H   1.0    0.04    1.00    1.43    18.15628    75.54863   162.08220
   426  H   1.0    0.05    1.00    1.43    20.87068    74.54555   160.43249
   427  H   1.0    0.05    1.00    1.43    20.51653    77.75201   161.30182
   428  N   5.0   -0.14    3.46    2.05    24.60109    76.32854   156.63736
   429  C   4.0    0.04    4.41    4.40    26.85599    74.82019   156.28461
   430  C   4.0    0.15    3.40    3.08    27.41612    73.28849   158.69340
   431  O   6.0   -0.32    1.28    1.80    27.24971    74.24242   160.80332
   432  C   4.0   -0.03    4.32    4.23    29.15220    76.50640   155.72967
   433  C   4.0   -0.02    3.52    3.12    29.23398    77.62295   153.10776
   434  C   4.0   -0.04    3.46    3.10    27.57111    79.51380   152.33339
   435  C   4.0   -0.04    3.47    3.10    31.13049    76.89579   151.44360
   436  C   4.0   -0.03    3.43    3.09    27.85209    80.71341   150.03241
   437  C   4.0   -0.05    3.43    3.09    31.41096    78.06228   149.12370
   438  C   4.0    0.06    3.44    3.09    29.80460    80.01537   148.40678
   439  O   6.0   -0.24    2.11    1.84    30.12012    81.30088   146.20362
   440  H   1.0    0.08    1.07    1.44    24.80285    77.96272   157.59584
   441  H   1.0    0.06    1.06    1.44    26.49909    73.51104   154.72484
   442  H   1.0    0.05    1.03    1.43    29.16278    78.02734   157.12862
   443  H   1.0    0.05    1.04    1.43    30.84861    75.36591   156.00782
   444  H   1.0    0.06    1.03    1.43    26.06091    80.13983   153.55671
   445  H   1.0    0.06    1.03    1.43    32.46625    75.43874   151.95166
   446  H   1.0    0.08    1.03    1.43    26.61653    82.25231   149.51316
   447  H   1.0    0.05    1.03    1.43    32.93656    77.46643   147.89989
   448  H   1.0    0.12    1.04    1.43    31.49801    80.57237   145.24105
   449  N   5.0   -0.14    3.50    2.08    28.13454    70.92041   158.26784
   450  C   4.0    0.03    4.43    4.43    28.71350    69.08205   160.19075
   451  C   4.0    0.15    3.47    3.10    31.12506    67.70713   159.46539
   452  O   6.0   -0.31    1.31    1.80    31.51719    67.09227   157.26341
   453  C   4.0   -0.04    4.40    4.39    26.66648    67.03669   160.31620
   454  C   4.0   -0.04    4.07    3.75    24.11202    68.15481   160.96606
   455  S   6.0   -0.06    2.52    3.10    21.99307    65.56230   161.78088
   456  C   4.0   -0.07    3.88    3.43    19.08044    67.30619   162.29128
   457  H   1.0    0.12    1.11    1.45    28.05165    70.20927   156.48477
   458  H   1.0    0.05    1.06    1.44    28.92346    70.04477   162.00627
   459  H   1.0    0.05    1.03    1.43    26.55366    66.09044   158.48740
   460  H   1.0    0.04    1.05    1.44    27.19461    65.65024   161.74963
   461  H   1.0    0.04    1.06    1.44    24.23821    69.40905   162.60111
   462  H   1.0    0.05    1.06    1.44    23.31524    69.19091   159.37289
   463  H   1.0    0.05    1.04    1.43    17.76471    66.04381   163.22321
   464  H   1.0    0.04    1.04    1.43    19.48091    68.91463   163.50083
   465  H   1.0    0.04    1.03    1.43    18.31437    67.93002   160.49308
   466  N   5.0   -0.13    3.53    2.10    32.65725    67.12421   161.35958
   467  C   4.0    0.04    4.52    4.56    34.93001    65.70316   160.90215
   468  C   4.0    0.14    3.47    3.10    34.68269    63.20254   162.24265
   469  O   6.0   -0.31    1.29    1.80    33.28688    63.02239   164.09124
   470  C   4.0    0.06    4.25    4.10    37.21858    67.22676   161.85445
   471  O   6.0   -0.24    2.13    1.84    37.08642    69.69956   160.88083
   472  C   4.0   -0.06    4.08    3.77    39.68906    65.94568   161.17302
   473  H   1.0    0.09    1.06    1.44    32.23030    67.59217   163.16928
   474  H   1.0    0.08    1.09    1.44    35.10942    65.41327   158.86332
   475  H   1.0    0.06    1.04    1.43    37.10780    67.45510   163.90985
   476  H   1.0    0.13    1.03    1.43    37.24345    69.63777   159.06280
   477  H   1.0    0.06    1.00    1.43    41.22068    67.08776   161.92401
   478  H   1.0    0.06    1.01    1.43    39.79933    64.08997   162.03581
   479  H   1.0    0.07    1.00    1.43    39.83924    65.76222   159.13098
   480  N   5.0   -0.14    3.47    2.06    36.00174    61.26001   161.33170
   481  C   4.0    0.04    4.36    4.30    36.10962    58.94776   162.78357
   482  C   4.0    0.08    3.21    3.04    38.84340    58.13506   163.17801
   483  O   6.0   -0.29    1.13    1.80    40.44956    58.36069   161.52593
   484  C   4.0   -0.03    4.32    4.24    34.45299    56.85619   161.64899
   485  C   4.0   -0.01    3.59    3.16    35.35123    55.96382   159.13433
   486  C   4.0   -0.04    3.49    3.11    34.82586    57.39736   157.00593
   487  C   4.0   -0.03    3.47    3.10    36.67403    53.71224   158.88248
   488  C   4.0   -0.05    3.45    3.10    35.54826    56.56522   154.64661
   489  C   4.0   -0.03    3.43    3.09    37.42876    52.86851   156.53408
   490  C   4.0    0.06    3.47    3.10    36.80944    54.27592   154.40423
   491  O   6.0   -0.25    2.12    1.84    37.41462    53.36265   152.07779
   492  H   1.0    0.10    1.07    1.44    37.00843    61.45536   159.71793
   493  H   1.0    0.06    1.08    1.44    35.31611    59.41010   164.64036
   494  H   1.0    0.04    1.03    1.43    34.41968    55.29552   162.99014
   495  H   1.0    0.04    1.03    1.43    32.55043    57.63181   161.48173
   496  H   1.0    0.06    1.03    1.43    33.81123    59.15634   157.18848
   497  H   1.0    0.06    1.03    1.43    37.07397    52.59477   160.54238
   498  H   1.0    0.05    1.03    1.43    35.09248    57.67640   152.99373
   499  H   1.0    0.06    1.03    1.43    38.43587    51.11364   156.29290
   500  H   1.0    0.11    1.04    1.44    36.58979    54.40005   150.81484
   501  N   5.0   -0.12    4.09    3.12    16.67702    62.02466   132.26532
   502  C   4.0   -0.00    4.31    4.21    15.85049    63.22490   134.70654
   503  C   4.0    0.15    3.42    3.09    14.28055    61.17103   136.12936
   504  O   6.0   -0.28    1.27    1.80    12.08758    60.80934   135.54143
   505  C   4.0   -0.03    4.31    4.23    14.17011    65.51738   134.11328
   506  C   4.0   -0.01    3.55    3.14    14.34152    67.49998   136.15042
   507  C   4.0   -0.03    3.48    3.11    13.97198    66.85354   138.66707
   508  C   4.0   -0.04    3.48    3.10    14.91725    69.99697   135.55284
   509  C   4.0   -0.03    3.38    3.07    14.15859    68.67383   140.53533
   510  C   4.0   -0.03    3.37    3.07    15.12954    71.81433   137.42335
   511  C   4.0   -0.03    3.38    3.07    14.74055    71.15078   139.92046
   512  H   1.0    0.05    1.02    1.43    17.56598    63.29932   131.08699
   513  H   1.0    0.06    1.02    1.43    17.86555    60.50740   132.58579
   514  H   1.0    0.07    1.02    1.43    15.07761    61.38036   131.33469
   515  H   1.0    0.04    1.04    1.43    17.49652    63.77808   135.82063
   516  H   1.0    0.04    1.03    1.43    14.67745    66.37375   132.31055
   517  H   1.0    0.07    1.04    1.43    12.21013    64.86962   133.97082
   518  H   1.0    0.07    1.03    1.43    13.50431    64.93837   139.18868
   519  H   1.0    0.06    1.03    1.43    15.17671    70.58185   133.61469
   520  H   1.0    0.07    1.03    1.43    13.85246    68.18504   142.49035
   521  H   1.0    0.06    1.03    1.43    15.56959    73.74625   136.92893
   522  H   1.0    0.06    1.03    1.43    14.84674    72.55739   141.39058
   523  N   5.0   -0.14    3.44    2.04    15.62741    59.70364   137.69167
   524  C   4.0    0.04    4.41    4.40    14.51049    57.37709   138.66251
   525  C   4.0    0.10    3.29    3.05    11.87022    57.82482   139.74166
   526  O   6.0   -0.28    1.13    1.80    11.53294    59.25564   141.52961
   527  C   4.0   -0.02    4.28    4.17    16.09385    56.14093   140.76419
   528  C   4.0   -0.07    4.13    3.87    15.33756    53.36725   140.98160
   529  C   4.0   -0.07    4.15    3.90    18.91941    56.29053   140.24339
   530  H   1.0    0.10    1.11    1.44    17.10910    60.42835   138.69142
   531  H   1.0    0.05    1.05    1.44    14.36356    56.07984   137.05367
   532  H   1.0    0.06    1.06    1.44    15.68490    57.10864   142.54178
   533  H   1.0    0.04    1.00    1.43    16.34752    52.52792   142.55896
   534  H   1.0    0.05    1.00    1.43    13.32737    53.14074   141.32414
   535  H   1.0    0.05    1.00    1.43    15.82563    52.37538   139.25209
   536  H   1.0    0.04    1.01    1.43    19.88707    55.01930   141.52953
   537  H   1.0    0.04    1.00    1.43    19.29030    55.73717   138.30765
   538  H   1.0    0.06    1.01    1.43    19.66345    58.16657   140.59142
   539  H   1.0    0.09    1.23    1.47    45.73683    70.75820   143.97488
   540  H   1.0    0.08    1.04    1.43    41.05686    81.97426   142.17995
   541  H   1.0    0.10    1.07    1.44    27.54854    85.95619   132.05575
   542  H   1.0    0.06    1.05    1.44    22.55967    88.47611   135.81842
   543  H   1.0    0.11    1.07    1.44    16.74072    85.25748   130.25027
   544  H   1.0    0.07    1.05    1.44    15.21694    82.76716   135.86675
   545  H   1.0    0.09    1.08    1.44    14.54812    70.76185   150.70730
   546  H   1.0    0.06    1.05    1.44    42.97926    61.98726   157.64327
   547  H   1.0    0.10    1.08    1.44    36.52686    51.53797   147.96785
   548  H   1.0    0.06    1.05    1.44    32.51422    50.86693   141.51809
   549  H   1.0    0.09    1.10    1.44    28.34490    52.80429   138.41711
   550  H   1.0    0.07    1.04    1.43    11.61445    63.92217   145.00450
   551  H   1.0    0.11    1.07    1.44    11.18700    51.94120   163.61528
   552  H   1.0    0.06    1.04    1.44    17.63761    52.30216   163.84174
   553  H   1.0    0.10    1.07    1.44    19.04955    48.52406   155.53339
   554  H   1.0    0.07    1.04    1.44    24.47362    45.53005   157.86735
   555  H   1.0    0.09    1.08    1.44    30.60189    56.35263   169.39249
   556  H   1.0    0.06    1.04    1.43    30.26434    63.70208   168.92934
   557  H   1.0    0.09    1.07    1.44    27.72010    68.69887   168.61989
   558  H   1.0    0.07    1.04    1.44    35.16640    73.99156   165.77356
   559  H   1.0    0.10    1.07    1.44    20.99477    85.10646   158.73517
   560  H   1.0    0.07    1.05    1.44    22.77795    91.30981   154.59992
   561  H   1.0    0.10    1.07    1.44    23.21911    93.15081   148.63310
   562  H   1.0    0.06    1.05    1.44    17.85802    87.68458   148.09636
   563  H   1.0    0.10    1.07    1.44    17.30254    82.41380   147.34845
   564  H   1.0    0.06    1.05    1.44    39.37827    57.38844   164.82953
   565  H   1.0    0.07    1.04    1.44    10.37906    56.94244   138.98740

  Z AO/shell   Hii/eV     exponent
  1     Wed Apr 25 08:07:45 CEST 2018   EN: 2.200 GM2: 0.406  GM3: 0.0800  RAES: 1.40
     1s    -10.707211    1.230000
  6     Wed Apr 25 08:07:45 CEST 2018   EN: 2.550 GM2: 0.538  GM3: 0.1500  RAES: 3.00
     2s    -13.970922    2.096432
     2p    -10.063292    1.800000
  7     Wed Apr 25 08:07:45 CEST 2018   EN: 3.040 GM2: 0.461  GM3:-0.0640  RAES: 1.90
     2s    -16.686243    2.339881
     2p    -12.523956    2.014332
  8     Wed Apr 25 08:07:45 CEST 2018   EN: 3.440 GM2: 0.452  GM3:-0.0517  RAES: 1.80
     2s    -20.229985    2.439742
     2p    -15.503117    2.137023
 16     Tue Apr 24 11:44:34 CEST 2018   EN: 2.580 GM2: 0.340  GM3:-0.0502  RAES: 3.10
     3s    -20.029654    1.981333
     3p    -11.377694    2.025643
     3d     -0.420282    1.702555
 no old-style atom pair restraining (fixing) potential

molecular fragmentation (1/2 indicates fragments):
111111111111111111111111111111111111111111111111111111112222222222222222
222222222222222222222222222222222222222222222222222222222222222222222222
222222222222222222222222222222222222222222222222222222222222222222222222
222222222222222222222222222222222222222222222222222222222222222222222222
222222222222222222222222222222222222222222222222222222222222222222222222
222222222222222222222222222222222222222222222222222222222222222222222222
222222222222222222222222222222222222222222222222222222222222222222222222
2222222222222222222222222222222222112222222222222222222222222
# atoms in fragment 1/2:    58   507
 fragment masses (1/2) :      375.49     3381.17
CMA distance (Bohr)    :  16.589
constraining FC (au)   :  0.0500
           ------------------------------------------------- 
          |        Self-Consistent Charge Iterations        |
           ------------------------------------------------- 

 Ncao       : 1366
 Nao        : 1365
 Nshell     : 831
 Nel        : 1486
 T(el)      :   500.0
 intcut     :    35.0
 scfconv/Eh :  0.100E-06
   qconv/e  :  0.100E-04
 intneglect :  0.100E-08
 broydamp   :      0.400
 iter      E             dE          RMSdq      gap      omega  full diag
   1   -843.8661378 -0.843866E+03  0.453E+00    2.64       0.0  T
   2   -845.6985314 -0.183239E+01  0.218E+00    1.55       1.0  T
   3   -845.8083921 -0.109861E+00  0.122E+00    1.74       1.0  T
   4   -845.9474855 -0.139093E+00  0.258E-01    1.08       1.0  T
   5   -845.9548570 -0.737146E-02  0.129E-01    1.32       1.0  T
   6   -845.9567086 -0.185157E-02  0.600E-02    1.36       1.0  T
   7   -845.9571556 -0.446987E-03  0.285E-02    1.36       1.0  T
   8   -845.9572539 -0.982920E-04  0.142E-02    1.36       1.0  T
   9   -845.9572830 -0.291585E-04  0.679E-03    1.35       1.0  T
