      -----------------------------------------------------------      
     |                   =====================                   |     
     |                           x T B                           |     
     |                   =====================                   |     
     |                         S. Grimme                         |     
     |          Mulliken Center for Theoretical Chemistry        |     
     |                    University of Bonn                     |     
     |                 Version 6.0.1 (SAW181210)                 |     
      -----------------------------------------------------------      

   This program is distributed in the hope that it will be useful,
   but WITHOUT ANY WARRANTY; without even the implied warranty of
   MERCHANTABILITY or FITNESS FOR A PARTICULAR PURPOSE.
   
   FOR NON-COMMERCIAL, ACADEMIA USE ONLY.
   
   Cite this work as:
   S. Grimme, C. Bannwarth, P. Shushkov, J. Comput. Theory Chem., 2017,
   13, 1989-2009.
   C. Bannwarth, S. Ehlert and S. Grimme., ChemRxiv, 2018, preprint.
   http://doi.org/10.26434/chemrxiv.7246238.v1
   
   for sTDA-xTB:
   S. Grimme and C. Bannwarth, J. Chem. Phys., 2016, 145, 054103.
   
   in the mass-spec context:
   V. Asgeirsson, C. Bauer and S. Grimme, Chem. Sci., 2017, 8, 4879.
   
   if GBSA is used:
   P. Shushkov, F. März and S. Grimme, unpublished.
   
   for ANC optimizer:
   S. Grimme, unpublished.
   Rational Function algorithm used in ANCopt:
   F. Eckert, P. Pulay, H.-J. Werner, J. Comput. Chem., 1997, 18, 1473.
   
   with help from (in alphabetical order)
   C. Bannwarth, F. Bohle, G. Brandenburg, E. Caldeweyher, M. Checinski,
   S. Dohm, S. Ehlert, S. Ehrlich, F. März, H. Neugebauer, J. Pisarek,
   P. Pracht, P. Shushkov, and S. Spicher.
   
 * started run on 2019/05/05 at 23:23:02.718     
========================================================================
 # omp threads = 2
========================================================================
number of atoms            : 736
number of electrons        : 1924
charge                     : 3
spin                       : .0
first test random number   : .5590

########################################################################
# WARNING! Please study the warnings concerning your input carefully
#  - Process number higher than OMP_NUM_THREADS, I hope you know what you are doing.
########################################################################

           ------------------------------------------------- 
          |                 G F N 2 - x T B                 |
          | Geometry, Frequencies, Noncovalent interactions |
          |            JCTC 2018 parametrisation            |
           ------------------------------------------------- 
 
      method parameters     
 k(s)        :  1.8500
 k(p)        :  2.2300
 k(d)        :  2.2300
 k(f)        :  2.0000
 kEN (H0ij)  : -2.0000
 D4 a1       :  0.5200
 D4 a2       :  5.0000
 D4 s6       :  1.0000
 D4 s8       :  2.7000
 D4 s9       :  5.0000
 alphaj      :  2.0000

 Solvent             : h2o
 Using internal parameter file: .param_gbsa2_h2o
 Gsolv ref. state (COSMO-RS): gsolv [1 M gas/solution]
 temperature (mdtemp)       :    298.150000000000     
 dielectric constant        :    80.2000000000000     
 rho                        :    1.00000000000000     
 mass                       :    18.0000000000000     
 surface tension            :    15.5689454083859     
 probe radius               :   0.975313790000000     
 vdW radii scaling          :    1.00000000000000     
 Gshift (Eh)                :   1.857443126794793E-003
 c1                         :    1.55243817000000     
 soset                      :   0.130326360000000     
 HB correction              :  T

            Z     q(EN)     CN     RAES       Cart. coordinates
     1  N   5.0   -0.20    3.18    1.95   124.05106   101.71261   395.96751
     2  C   4.0    0.03    4.29    4.17   122.21992    99.65659   395.64247
     3  C   4.0    0.08    3.22    3.04   121.09175    98.88936   398.21061
     4  O   6.0   -0.32    1.17    1.80   118.77872    98.62669   398.41848
     5  C   4.0   -0.02    4.32    4.23   123.35375    97.31900   394.30266
     6  C   4.0   -0.05    4.20    4.00   124.13421    97.95961   391.58712
     7  C   4.0   -0.07    4.15    3.90   121.42056    95.18739   394.25352
     8  C   4.0   -0.07    4.01    3.63   125.67433    95.93950   390.24542
     9  H   1.0    0.09    1.02    1.43   125.81984   101.33655   395.30232
    10  H   1.0    0.04    1.06    1.44   120.73648   100.39736   394.42171
    11  H   1.0    0.05    1.06    1.44   125.02427    96.73318   395.35335
    12  H   1.0    0.04    1.03    1.43   122.42779    98.27142   390.47596
    13  H   1.0    0.04    1.03    1.43   125.27182    99.67548   391.62492
    14  H   1.0    0.04    1.00    1.43   122.24448    93.55655   393.30488
    15  H   1.0    0.05    1.01    1.43   120.91789    94.69417   396.18860
    16  H   1.0    0.04    1.00    1.43   119.74815    95.82233   393.23307
    17  H   1.0    0.05    1.00    1.43   126.12031    96.58956   388.34246
    18  H   1.0    0.05    1.00    1.43   127.41288    95.60879   391.30177
    19  H   1.0    0.05    1.00    1.43   124.56884    94.20473   390.15282
    20  N   5.0   -0.19    3.30    1.98   116.46192   104.17681   400.86001
    21  C   4.0    0.03    4.49    4.53   114.20559   104.25051   399.41626
    22  C   4.0    0.15    3.52    3.12   112.61255   101.96394   399.96617
    23  O   6.0   -0.32    1.31    1.80   110.33921   102.17181   400.23451
    24  C   4.0   -0.03    4.41    4.41   114.86699   104.42626   396.63269
    25  C   4.0   -0.05    4.24    4.08   115.51895   107.17203   396.07711
    26  C   4.0   -0.08    4.17    3.94   112.70515   103.47194   394.98863
    27  C   4.0   -0.08    4.04    3.68   116.36554   107.60289   393.39748
    28  H   1.0    0.09    1.04    1.43   118.06630   104.03697   399.79987
    29  H   1.0    0.05    1.07    1.44   113.11522   105.91725   399.94160
    30  H   1.0    0.04    1.06    1.44   116.48271   103.22439   396.19616
    31  H   1.0    0.04    1.03    1.43   113.85032   108.33421   396.40970
    32  H   1.0    0.04    1.03    1.43   117.04774   107.75973   397.32622
    33  H   1.0    0.03    1.00    1.43   113.24939   103.62690   393.00820
    34  H   1.0    0.04    1.01    1.43   112.32153   101.50285   395.46106
    35  H   1.0    0.04    1.00    1.43   111.03274   104.61901   395.34768
    36  H   1.0    0.04    1.00    1.43   116.79640   109.60033   393.14426
    37  H   1.0    0.04    1.00    1.43   118.04740   106.46905   393.03465
    38  H   1.0    0.03    1.00    1.43   114.85187   107.04353   392.11813
    39  N   5.0   -0.15    3.49    2.07   113.82197    99.78887   400.13813
    40  C   4.0    0.04    4.30    4.20   112.49728    97.47017   400.75607
    41  C   4.0    0.10    3.19    3.04   111.21226    97.64214   403.39035
    42  O   6.0   -0.26    1.10    1.80   109.13545    96.61413   403.81176
    43  C   4.0    0.04    4.16    3.92   114.34543    95.26109   400.57844
    44  O   6.0   -0.24    2.08    1.84   113.00561    92.98586   400.55009
    45  H   1.0    0.11    1.11    1.44   115.71548    99.56399   399.86223
    46  H   1.0    0.06    1.06    1.44   110.98927    97.11869   399.39736
    47  H   1.0    0.05    1.02    1.43   115.44147    95.42738   398.84178
    48  H   1.0    0.06    1.02    1.43   115.60210    95.29132   402.21116
    49  H   1.0    0.12    1.01    1.43   114.18102    91.55911   400.43482
    50  N   5.0   -0.18    3.24    1.96   105.29175   102.03764   402.71950
    51  C   4.0    0.03    4.38    4.35   103.14880   100.74885   401.52708
    52  C   4.0    0.09    3.28    3.05   101.80332    98.94794   403.31287
    53  O   6.0   -0.30    1.53    1.80    99.50541    98.91582   403.45649
    54  C   4.0   -0.03    4.12    3.85   103.97650    99.34100   399.17248
    55  S   6.0   -0.07    2.39    3.10   105.20860   101.51608   396.86324
    56  H   1.0    0.12    1.06    1.44   107.01518   101.53120   402.02030
    57  H   1.0    0.04    1.08    1.44   101.80710   102.21150   400.97528
    58  H   1.0    0.06    1.07    1.44   105.45427    97.98985   399.66003
    59  H   1.0    0.05    1.09    1.44   102.36268    98.35646   398.35423
    60  H   1.0    0.07    1.00    1.43   107.13990   102.69338   397.82322
    61  N   5.0   -0.17    3.27    1.97    96.34579   102.39102   403.33366
    62  C   4.0    0.05    4.35    4.29    95.48407   101.13624   401.04331
    63  C   4.0    0.10    3.23    3.04    93.26742    99.44683   401.70471
    64  O   6.0   -0.24    1.13    1.80    93.57734    97.16404   402.21872
    65  C   4.0   -0.00    4.36    4.30    97.61757    99.64525   399.84333
    66  S   6.0   -0.06    2.40    3.10    97.70072    99.85879   396.54576
    67  H   1.0    0.13    1.10    1.44    97.74041   101.47261   404.29553
    68  H   1.0    0.05    1.08    1.44    94.84535   102.56299   399.70160
    69  H   1.0    0.06    1.26    1.48    99.41092   100.35768   400.56521
    70  H   1.0    0.09    1.11    1.45    97.39837    97.65915   400.34033
    71  H   1.0    0.07    0.98    1.43    95.58990    98.99518   395.63491
    72  N   5.0   -0.16    3.25    1.97    89.44073    91.60824   395.20217
    73  C   4.0    0.04    4.40    4.39    91.61769    91.01676   393.64125
    74  C   4.0    0.15    3.46    3.10    93.97229    92.36791   394.48029
    75  O   6.0   -0.28    1.26    1.80    93.86647    94.47496   395.40248
    76  C   4.0    0.05    4.26    4.13    91.14337    91.88603   390.90682
    77  O   6.0   -0.23    2.15    1.85    88.49965    92.41138   390.62525
    78  C   4.0   -0.07    4.06    3.73    92.02209    89.90749   389.00765
    79  H   1.0    0.12    1.06    1.44    87.81934    91.77454   394.17227
    80  H   1.0    0.05    1.06    1.44    91.89926    88.98153   393.77542
    81  H   1.0    0.05    1.05    1.44    92.22619    93.59057   390.49675
    82  H   1.0    0.13    1.01    1.43    88.14627    92.97074   388.89615
    83  H   1.0    0.05    1.00    1.43    91.66683    90.56512   387.08957
    84  H   1.0    0.05    1.00    1.43    94.04032    89.56167   389.23252
    85  H   1.0    0.06    1.00    1.43    91.00542    88.14249   389.30811
    86  N   5.0   -0.14    3.52    2.09    96.09823    91.12636   394.15148
    87  C   4.0    0.04    4.44    4.44    98.50574    92.23185   394.80344
    88  C   4.0    0.15    3.53    3.13   100.41059    91.15471   392.94961
    89  O   6.0   -0.28    1.28    1.80   100.09689    88.98531   392.13514
    90  C   4.0    0.05    4.16    3.92    99.23707    91.57990   397.51708
    91  O   6.0   -0.24    2.07    1.83   101.80143    92.16760   397.89314
    92  H   1.0    0.10    1.08    1.44    96.21540    89.34057   393.43338
    93  H   1.0    0.05    1.06    1.44    98.47551    94.28410   394.63903
    94  H   1.0    0.06    1.01    1.43    98.08434    92.68161   398.82099
    95  H   1.0    0.07    1.02    1.43    98.94038    89.56734   397.84211
    96  H   1.0    0.13    1.01    1.43   102.29653    91.75753   399.62980
    97  N   5.0   -0.09    3.66    2.22   102.38724    92.61736   392.26175
    98  C   4.0    0.05    4.64    4.71   104.10311    91.60636   390.37203
    99  C   4.0    0.16    3.42    3.08   106.41047    90.26465   391.43216
   100  O   6.0   -0.27    1.26    1.80   107.02652    90.51976   393.65448
   101  C   4.0   -0.04    4.38    4.35   104.96105    93.95717   388.93962
   102  C   4.0   -0.05    4.30    4.20   104.54153    96.11335   390.68950
   103  C   4.0   -0.01    4.33    4.26   103.22439    95.15337   393.01953
   104  H   1.0    0.07    1.07    1.44   103.05431    90.29866   389.17583
   105  H   1.0    0.05    1.04    1.43   106.95660    93.78521   388.45585
   106  H   1.0    0.05    1.03    1.43   103.83666    94.17638   387.22752
   107  H   1.0    0.04    1.03    1.43   106.36323    96.93160   391.19406
   108  H   1.0    0.03    1.03    1.43   103.37368    97.52309   389.74653
   109  H   1.0    0.06    1.02    1.43   104.52641    95.05322   394.61257
   110  H   1.0    0.04    1.02    1.43   101.61623    96.34579   393.49952
   111  N   5.0   -0.13    3.48    2.07   107.68603    88.86625   389.79377
   112  C   4.0    0.04    4.41    4.40   109.85922    87.38093   390.55155
   113  C   4.0    0.16    3.48    3.11   112.25917    88.93239   390.29077
   114  O   6.0   -0.31    1.30    1.80   112.47460    90.63315   388.72797
   115  C   4.0    0.03    4.15    3.90   110.07276    84.96775   388.96796
   116  O   6.0   -0.26    2.08    1.84   111.57509    85.32869   386.76454
   117  H   1.0    0.11    1.11    1.45   107.25518    88.72641   387.92105
   118  H   1.0    0.05    1.06    1.44   109.64190    86.82346   392.52254
   119  H   1.0    0.04    1.01    1.43   110.93825    83.49565   390.12069
   120  H   1.0    0.06    1.02    1.43   108.18303    84.38949   388.38971
   121  H   1.0    0.12    1.01    1.43   111.67147    83.75076   385.79889
   122  N   5.0   -0.15    3.51    2.09   114.12622    88.21241   391.76476
   123  C   4.0    0.03    4.41    4.40   116.51483    89.50876   391.81578
   124  C   4.0    0.16    3.44    3.09   117.72615    89.32357   389.20229
   125  O   6.0   -0.31    1.27    1.80   118.78628    91.16227   388.32356
   126  C   4.0   -0.05    4.23    4.05   118.21559    88.40894   393.91148
   127  C   4.0   -0.05    4.13    3.86   117.49371    89.10058   396.65915
   128  C   4.0   -0.05    4.11    3.82   116.71514    86.84803   398.36368
   129  C   4.0   -0.03    4.13    3.86   113.86355    86.34914   398.21061
   130  N   5.0   -0.11    3.98    2.81   112.83365    83.89249   399.03075
   131  H   1.0    0.07    1.07    1.44   114.04118    86.71008   392.96851
   132  H   1.0    0.05    1.06    1.44   116.26728    91.49864   392.28443
   133  H   1.0    0.05    1.03    1.43   118.16078    86.35481   393.76975
   134  H   1.0    0.05    1.03    1.43   120.13555    89.08546   393.59968
   135  H   1.0    0.04    1.03    1.43   119.11510    90.00765   397.54732
   136  H   1.0    0.04    1.03    1.43   115.90067    90.40449   396.60434
   137  H   1.0    0.05    1.03    1.43   117.70536    85.14916   397.74763
   138  H   1.0    0.05    1.02    1.43   117.19513    87.27321   400.32143
   139  H   1.0    0.06    1.03    1.43   112.93002    87.77399   399.36901
   140  H   1.0    0.04    1.04    1.43   113.30797    86.57024   396.23963
   141  H   1.0    0.07    1.02    1.43   110.88156    83.87171   398.80210
   142  H   1.0    0.06    1.02    1.43   113.61788    82.44307   397.95928
   143  H   1.0    0.07    1.02    1.43   113.25695    83.58447   400.92615
   144  N   5.0   -0.13    3.44    2.04   117.51828    87.13715   387.95129
   145  C   4.0    0.03    4.30    4.19   118.28551    86.83480   385.27544
   146  C   4.0    0.16    3.38    3.07   117.11010    88.98719   383.68996
   147  O   6.0   -0.30    1.24    1.80   118.48393    90.39504   382.42195
   148  C   4.0   -0.05    4.14    3.89   117.56930    84.10036   384.32301
   149  C   4.0   -0.05    4.08    3.77   117.85654    83.24432   381.49787
   150  C   4.0   -0.04    4.12    3.85   120.47570    83.40494   380.21097
   151  C   4.0   -0.03    4.11    3.82   122.48448    81.58703   381.19552
   152  N   5.0   -0.11    4.00    2.87   122.18779    79.01700   380.11082
   153  H   1.0    0.08    1.06    1.44   116.82286    85.51577   388.72608
   154  H   1.0    0.06    1.05    1.44   120.33019    86.96708   385.05623
   155  H   1.0    0.04    1.03    1.43   118.72203    82.78322   385.40772
   156  H   1.0    0.05    1.03    1.43   115.57753    83.82824   384.77277
   157  H   1.0    0.05    1.03    1.43   117.28206    81.26955   381.39016
   158  H   1.0    0.05    1.03    1.43   116.58853    84.40839   380.36782
   159  H   1.0    0.05    1.03    1.43   120.23381    83.00999   378.20408
   160  H   1.0    0.05    1.03    1.43   121.20513    85.31357   380.47175
   161  H   1.0    0.05    1.02    1.43   124.34964    82.29190   380.68151
   162  H   1.0    0.05    1.02    1.43   122.32574    81.44530   383.24398
   163  H   1.0    0.07    1.01    1.43   123.58052    77.82458   380.81757
   164  H   1.0    0.06    1.02    1.43   120.42468    78.28757   380.58325
   165  H   1.0    0.07    1.02    1.43   122.34464    79.09070   378.15306
   166  N   5.0   -0.14    3.44    2.04   114.60432    89.26498   383.87515
   167  C   4.0    0.03    4.34    4.27   113.12089    91.07912   382.34825
   168  C   4.0    0.15    3.36    3.07   113.89756    93.87025   382.77344
   169  O   6.0   -0.32    1.22    1.80   113.93158    95.43116   381.00088
   170  C   4.0   -0.04    4.27    4.13   110.27685    90.79944   382.92084
   171  C   4.0   -0.03    4.16    3.92   109.02585    88.31067   382.15361
   172  C   4.0    0.25    3.11    3.03   106.29331    88.10469   383.07580
   173  O   6.0   -0.31    1.27    1.80   105.62623    89.25554   385.02410
   174  O   6.0   -0.26    1.17    1.80   104.77019    86.78000   381.86259
   175  H   1.0    0.10    1.09    1.44   113.50450    88.24642   385.08646
   176  H   1.0    0.05    1.05    1.44   113.48749    90.61614   380.37538
   177  H   1.0    0.07    1.04    1.43   110.01418    90.99975   384.95418
   178  H   1.0    0.06    1.03    1.43   109.27718    92.30366   381.92873
   179  H   1.0    0.06    1.03    1.43   109.01829    88.16894   380.09948
   180  H   1.0    0.06    1.03    1.43   110.09165    86.74598   382.96430
   181  N   5.0   -0.14    3.47    2.06   114.48716    94.45039   385.15449
   182  C   4.0    0.03    4.47    4.50   115.26383    96.99018   385.97841
   183  C   4.0    0.15    3.45    3.09   117.84709    97.66293   384.92395
   184  O   6.0   -0.33    1.26    1.80   118.22315    99.74918   383.97720
   185  C   4.0   -0.03    4.32    4.24   115.30352    97.17727   388.89804
   186  C   4.0   -0.05    4.18    3.96   112.58798    96.86168   389.95629
   187  C   4.0   -0.08    4.12    3.84   116.45814    99.67737   389.76165
   188  C   4.0   -0.07    4.00    3.61   112.41224    96.13981   392.72852
   189  H   1.0    0.11    1.09    1.44   114.44936    93.18050   386.60391
   190  H   1.0    0.05    1.06    1.44   113.87300    98.32055   385.24331
   191  H   1.0    0.05    1.06    1.44   116.48271    95.65604   389.62937
   192  H   1.0    0.03    1.03    1.43   111.59210    98.64936   389.72574
   193  H   1.0    0.05    1.04    1.43   111.64123    95.38392   388.87725
   194  H   1.0    0.04    1.00    1.43   116.45436    99.74163   391.81956
   195  H   1.0    0.04    1.01    1.43   118.38944    99.80210   389.05867
   196  H   1.0    0.04    1.00    1.43   115.33564   101.23073   389.00765
   197  H   1.0    0.05    1.00    1.43   110.42803    95.97351   393.25386
   198  H   1.0    0.05    1.00    1.43   113.36655    94.33701   393.01386
   199  H   1.0    0.04    1.00    1.43   113.31931    97.60246   393.86046
   200  N   5.0   -0.14    3.38    2.01   119.61587    95.88092   385.13371
   201  C   4.0    0.02    4.24    4.07   122.11598    96.06611   383.93940
   202  C   4.0    0.16    3.33    3.06   122.00260    96.42894   381.09536
   203  O   6.0   -0.31    1.31    1.80   123.37454    98.01064   380.04279
   204  H   1.0    0.11    1.08    1.44   119.38344    94.25008   386.13526
   205  H   1.0    0.05    1.03    1.43   123.13076    97.66671   384.74820
   206  H   1.0    0.05    1.03    1.43   123.17234    94.34079   384.32113
   207  N   5.0   -0.13    3.46    2.05   120.33397    94.97574   379.87649
   208  C   4.0    0.04    4.34    4.28   119.93902    95.14959   377.13072
   209  C   4.0    0.16    3.44    3.09   119.19068    97.81033   376.39939
   210  O   6.0   -0.30    1.24    1.80   120.32452    98.93093   374.66841
   211  C   4.0   -0.06    4.11    3.81   117.94536    93.26176   376.24633
   212  H   1.0    0.11    1.09    1.44   119.22092    93.65482   380.73065
   213  H   1.0    0.06    1.06    1.44   121.70213    94.66204   376.18586
   214  H   1.0    0.05    1.00    1.43   117.70536    93.44506   374.20920
   215  H   1.0    0.06    1.00    1.43   118.57463    91.35502   376.70931
   216  H   1.0    0.06    1.00    1.43   116.16712    93.66616   377.20253
   217  N   5.0   -0.14    3.46    2.05   117.31041    98.80621   377.77134
   218  C   4.0    0.03    4.41    4.39   116.47893   101.42726   377.48032
   219  C   4.0    0.16    3.47    3.10   118.68802   103.25085   377.78078
   220  O   6.0   -0.32    1.26    1.80   119.22659   104.75318   376.06680
   221  C   4.0   -0.05    4.35    4.30   114.41724   102.08678   379.38894
   222  C   4.0   -0.04    4.08    3.76   113.49883   104.81365   379.18296
   223  S   6.0   -0.06    2.52    3.10   111.23872   105.70371   381.56779
   224  C   4.0   -0.07    3.89    3.45   113.26261   105.96260   384.24932
   225  H   1.0    0.11    1.08    1.44   116.32019    97.83489   379.10926
   226  H   1.0    0.05    1.06    1.44   115.66824   101.60301   375.59437
   227  H   1.0    0.05    1.03    1.43   112.79963   100.84900   379.07714
   228  H   1.0    0.06    1.04    1.43   115.15801   101.81088   381.29000
   229  H   1.0    0.04    1.08    1.44   115.12022   106.07221   379.35870
   230  H   1.0    0.04    1.07    1.44   112.60310   105.07065   377.34615
   231  H   1.0    0.03    1.04    1.43   112.13823   106.50495   385.88771
   232  H   1.0    0.04    1.04    1.43   114.16401   104.14280   384.58758
   233  H   1.0    0.03    1.04    1.43   114.69314   107.39691   383.87326
   234  N   5.0   -0.14    3.49    2.07   119.96169   103.07321   379.94074
   235  C   4.0    0.04    4.46    4.48   122.06874   104.74373   380.51900
   236  C   4.0    0.16    3.47    3.10   124.16066   104.63224   378.59904
   237  O   6.0   -0.28    1.22    1.80   125.18867   106.60889   377.89795
   238  C   4.0   -0.04    4.42    4.42   123.21202   104.09744   383.05879
   239  C   4.0   -0.02    4.20    4.00   121.86465   105.17459   385.35481
   240  C   4.0   -0.08    4.10    3.79   122.98336   104.10122   387.79255
   241  C   4.0   -0.08    4.12    3.84   122.05551   108.04319   385.33402
   242  H   1.0    0.11    1.09    1.44   119.57997   101.79198   381.32969
   243  H   1.0    0.05    1.07    1.44   121.27694   106.64479   380.54167
   244  H   1.0    0.06    1.04    1.43   123.21580   102.04709   383.25910
   245  H   1.0    0.05    1.04    1.44   125.14332   104.81176   383.09469
   246  H   1.0    0.04    1.06    1.44   119.87477   104.64357   385.29244
   247  H   1.0    0.04    1.00    1.43   121.98181   104.90814   389.40260
   248  H   1.0    0.04    1.00    1.43   122.76605   102.05276   387.78499
   249  H   1.0    0.05    1.00    1.43   124.98081   104.59633   387.88893
   250  H   1.0    0.04    1.00    1.43   121.08230   108.79152   386.98753
   251  H   1.0    0.05    1.00    1.43   124.04350   108.58365   385.38315
   252  H   1.0    0.04    1.00    1.43   121.17490   108.76129   383.61626
   253  N   5.0   -0.14    3.52    2.09   124.78427   102.32110   377.79590
   254  C   4.0    0.05    4.39    4.37   126.96313   101.86757   376.18208
   255  C   4.0    0.17    3.43    3.09   126.50203   103.05054   373.60260
   256  O   6.0   -0.24    1.21    1.80   128.15554   104.37712   372.58593
   257  C   4.0    0.04    4.15    3.90   127.51493    99.03109   375.97610
   258  O   6.0   -0.22    2.02    1.83   129.93756    98.60590   374.90462
   259  H   1.0    0.12    1.13    1.45   123.80729   100.72050   378.23810
   260  H   1.0    0.08    1.06    1.44   128.64120   102.72172   377.01544
   261  H   1.0    0.06    1.02    1.43   127.45824    98.19772   377.86015
   262  H   1.0    0.06    1.02    1.43   126.08818    98.15615   374.77612
   263  H   1.0    0.13    1.01    1.43   130.26637    96.78798   374.78368
   264  N   5.0   -0.13    3.47    2.06   124.23058   102.59133   372.60860
   265  C   4.0    0.04    4.38    4.35   123.30084   103.86123   370.35038
   266  C   4.0    0.16    3.45    3.10   123.43501   106.76763   370.52802
   267  O   6.0   -0.26    1.24    1.80   124.39310   108.06398   368.83860
   268  C   4.0   -0.04    4.38    4.34   120.57396   103.06943   369.88929
   269  C   4.0   -0.02    4.19    3.99   119.04140   104.42248   367.81815
   270  C   4.0   -0.06    4.11    3.81   119.99949   103.91981   365.15363
   271  C   4.0   -0.07    4.12    3.84   116.30129   103.55509   367.95610
   272  H   1.0    0.11    1.09    1.44   122.97203   101.32711   373.33993
   273  H   1.0    0.07    1.06    1.44   124.49892   103.28675   368.77624
   274  H   1.0    0.05    1.03    1.43   120.58719   101.07010   369.39040
   275  H   1.0    0.06    1.04    1.43   119.54406   103.34911   371.65051
   276  H   1.0    0.05    1.06    1.44   119.22848   106.44448   368.16019
   277  H   1.0    0.05    1.00    1.43   118.81652   104.94215   363.81193
   278  H   1.0    0.06    1.00    1.43   121.94968   104.56988   365.00813
   279  H   1.0    0.05    1.00    1.43   119.90311   101.89780   364.77758
   280  H   1.0    0.04    1.00    1.43   115.22037   104.51507   366.48967
   281  H   1.0    0.05    1.00    1.43   116.22759   101.51797   367.66508
   282  H   1.0    0.04    1.00    1.43   115.54162   104.02752   369.81181
   283  N   5.0   -0.14    3.47    2.06   122.43534   107.78241   372.57081
   284  C   4.0    0.05    4.33    4.26   122.44101   110.49606   372.91663
   285  C   4.0    0.11    3.21    3.04   125.09797   111.64879   372.90718
   286  O   6.0   -0.24    1.11    1.80   125.40221   113.81064   372.00956
   287  C   4.0   -0.04    4.34    4.26   121.01427   111.18203   375.32792
   288  C   4.0   -0.02    4.18    3.96   118.12110   110.76440   375.35060
   289  C   4.0   -0.08    4.11    3.82   117.04585   110.97983   378.00566
   290  C   4.0   -0.08    4.10    3.81   116.69625   112.61255   373.66685
   291  H   1.0    0.11    1.09    1.44   121.61520   106.79219   374.00700
   292  H   1.0    0.06    1.06    1.44   121.44891   111.34076   371.32170
   293  H   1.0    0.06    1.03    1.43   121.79095   110.05008   376.86238
   294  H   1.0    0.05    1.03    1.43   121.32985   113.18325   375.69831
   295  H   1.0    0.05    1.06    1.44   117.83386   108.86144   374.61927
   296  H   1.0    0.03    1.00    1.43   115.01061   110.67369   377.93196
   297  H   1.0    0.04    1.00    1.43   117.92646   109.55497   379.20375
   298  H   1.0    0.04    1.00    1.43   117.44647   112.86199   378.74076
   299  H   1.0    0.03    1.00    1.43   114.67991   112.20437   373.77834
   300  H   1.0    0.04    1.00    1.43   117.06285   114.53251   374.31881
   301  H   1.0    0.05    1.00    1.43   117.35009   112.39334   371.72610
   302  N   5.0   -0.20    3.19    1.95   121.35253   120.04295   388.57301
   303  C   4.0    0.03    4.24    4.07   118.76928   119.14155   388.21018
   304  C   4.0    0.09    3.24    3.04   117.01372   119.77272   390.37392
   305  O   6.0   -0.31    1.16    1.80   114.75928   119.94280   390.02432
   306  C   4.0   -0.05    4.41    4.40   118.81652   116.29940   387.81145
   307  C   4.0   -0.02    4.24    4.08   116.30696   114.97849   387.41839
   308  C   4.0   -0.09    4.15    3.89   116.50349   112.90735   385.47764
   309  C   4.0   -0.08    4.16    3.92   115.42635   113.78229   389.84479
   310  H   1.0    0.09    1.03    1.43   122.59219   118.61054   388.93206
   311  H   1.0    0.05    1.06    1.44   118.00961   120.07697   386.53966
   312  H   1.0    0.04    1.04    1.43   119.95980   115.91768   386.14093
   313  H   1.0    0.04    1.05    1.44   119.68579   115.44525   389.47063
   314  H   1.0    0.05    1.06    1.44   114.96337   116.39956   386.77399
   315  H   1.0    0.03    1.00    1.43   114.65912   112.01540   385.26032
   316  H   1.0    0.04    1.00    1.43   117.10443   113.72371   383.68429
   317  H   1.0    0.03    1.00    1.43   117.88488   111.51840   386.11636
   318  H   1.0    0.03    1.00    1.43   113.62166   112.84499   389.51409
   319  H   1.0    0.03    1.00    1.43   116.82853   112.40657   390.46273
   320  H   1.0    0.05    1.00    1.43   115.20525   115.24872   391.27343
   321  N   5.0   -0.20    3.20    1.95   109.72883   126.35275   382.27644
   322  C   4.0    0.03    4.27    4.13   107.61044   124.57451   382.02511
   323  C   4.0    0.08    3.20    3.04   106.19504   124.86931   379.56657
   324  O   6.0   -0.32    1.18    1.80   105.76418   122.98903   378.27022
   325  C   4.0   -0.04    4.29    4.17   105.83410   124.79183   384.26443
   326  C   4.0   -0.02    3.68    3.22   107.07943   124.11531   386.73808
   327  C   4.0   -0.01    3.62    3.18   109.37356   122.94179   387.09146
   328  C   4.0    0.01    3.88    3.44   106.06087   124.50081   389.20040
   329  N   5.0   -0.11    3.48    2.06   109.83843   122.60731   389.61992
   330  C   4.0    0.04    3.89    3.45   107.83910   123.54083   390.95784
   331  C   4.0   -0.04    3.40    3.08   103.81587   125.57040   390.10558
   332  C   4.0   -0.04    3.40    3.08   107.42903   123.61075   393.54488
   333  C   4.0   -0.02    3.36    3.07   103.40013   125.62709   392.67749
   334  C   4.0   -0.03    3.38    3.07   105.19159   124.64443   394.37258
   335  H   1.0    0.10    1.02    1.43   109.45104   127.77760   383.54445
   336  H   1.0    0.04    1.07    1.44   108.40980   122.67534   382.02511
   337  H   1.0    0.05    1.03    1.43   105.16325   126.73447   384.40049
   338  H   1.0    0.04    1.03    1.43   104.24295   123.51438   383.98286
   339  H   1.0    0.05    1.01    1.43   110.63023   122.36542   385.59102
   340  H   1.0    0.10    1.06    1.44   111.41635   121.79662   390.37581
   341  H   1.0    0.06    1.03    1.43   102.43448   126.33763   388.81300
   342  H   1.0    0.06    1.03    1.43   108.81042   122.88321   394.85824
   343  H   1.0    0.07    1.03    1.43   101.67293   126.43778   393.39937
   344  H   1.0    0.07    1.03    1.43   104.80231   124.70113   396.37569
   345  N   5.0   -0.19    3.26    1.97   110.17858   122.46369   373.73677
   346  C   4.0    0.03    4.45    4.47   110.34110   119.75004   373.75567
   347  C   4.0    0.16    3.55    3.14   107.97516   118.68613   372.65207
   348  O   6.0   -0.31    1.32    1.80   108.06587   117.12332   370.95698
   349  C   4.0   -0.03    4.40    4.38   110.60566   118.75227   376.47876
   350  C   4.0   -0.05    4.22    4.03   113.29852   119.18124   377.40662
   351  C   4.0   -0.07    4.15    3.91   109.94992   115.94414   376.67151
   352  C   4.0   -0.08    4.02    3.65   113.53285   119.20013   380.25255
   353  H   1.0    0.09    1.03    1.43   110.22960   123.23848   375.49988
   354  H   1.0    0.05    1.06    1.44   111.99272   119.19635   372.65585
   355  H   1.0    0.05    1.06    1.44   109.27151   119.79351   377.65417
   356  H   1.0    0.04    1.03    1.43   114.49850   117.67135   376.68474
   357  H   1.0    0.05    1.04    1.43   113.95992   121.00293   376.70742
   358  H   1.0    0.04    1.00    1.43   110.16724   115.33753   378.62738
   359  H   1.0    0.05    1.01    1.43   108.00162   115.66635   376.06113
   360  H   1.0    0.04    1.00    1.43   111.22549   114.87266   375.45831
   361  H   1.0    0.04    1.00    1.43   115.50383   119.51383   380.76088
   362  H   1.0    0.04    1.00    1.43   112.36122   120.71380   381.01222
   363  H   1.0    0.04    1.00    1.43   112.89790   117.38411   380.98954
   364  N   5.0   -0.14    3.51    2.09   105.84355   119.48359   373.68764
   365  C   4.0    0.04    4.40    4.38   103.42659   118.54818   372.81647
   366  C   4.0    0.09    3.26    3.05   103.23762   118.77872   369.90630
   367  O   6.0   -0.28    1.10    1.80   102.75763   116.90790   368.56081
   368  C   4.0    0.05    4.26    4.12   101.25530   119.99949   374.09015
   369  O   6.0   -0.26    2.16    1.85   101.46506   119.80674   376.76411
   370  C   4.0   -0.06    4.15    3.90    98.81377   118.89589   373.35316
   371  H   1.0    0.10    1.09    1.44   105.73017   120.76672   375.12194
   372  H   1.0    0.05    1.06    1.44   103.24707   116.56586   373.34560
   373  H   1.0    0.05    1.05    1.44   101.33844   121.97425   373.51378
   374  H   1.0    0.14    1.04    1.43   103.07699   120.52294   377.32536
   375  H   1.0    0.05    1.00    1.43    97.27364   119.92579   374.25456
   376  H   1.0    0.05    1.01    1.43    98.58133   119.00171   371.30847
   377  H   1.0    0.05    1.03    1.43    98.72873   116.92112   373.93519
   378  N   5.0   -0.19    3.21    1.96   107.99028   114.12244   366.46699
   379  C   4.0    0.03    4.23    4.06   107.18715   111.49950   366.57471
   380  C   4.0    0.08    3.20    3.04   104.73806   111.06108   365.13285
   381  O   6.0   -0.30    1.12    1.80   104.25618   108.94837   364.30704
   382  C   4.0   -0.04    4.36    4.32   106.89991   110.63779   369.30536
   383  C   4.0   -0.03    4.19    3.98   109.34332   110.24094   370.81525
   384  C   4.0   -0.08    4.11    3.82   108.72916   109.70237   373.56669
   385  C   4.0   -0.08    4.10    3.81   110.93636   108.09043   369.73622
   386  H   1.0    0.13    1.07    1.44   107.89012   115.06541   368.14507
   387  H   1.0    0.04    1.06    1.44   108.65357   110.34677   365.70166
   388  H   1.0    0.05    1.04    1.43   105.79631   112.05886   370.30692
   389  H   1.0    0.04    1.04    1.43   105.89457   108.83877   369.30158
   390  H   1.0    0.04    1.06    1.44   110.45826   111.96815   370.68864
   391  H   1.0    0.04    1.00    1.43   110.48661   109.42647   374.60415
   392  H   1.0    0.04    1.00    1.43   107.69548   111.30297   374.34904
   393  H   1.0    0.04    1.00    1.43   107.57454   107.99973   373.67441
   394  H   1.0    0.04    1.00    1.43   112.64467   107.88634   370.87006
   395  H   1.0    0.04    1.00    1.43   109.84032   106.34811   369.79669
   396  H   1.0    0.04    1.00    1.43   111.43525   108.53830   367.78791
   397  N   5.0   -0.19    3.22    1.96   106.59755   110.39590   358.27881
   398  C   4.0    0.04    4.27    4.13   107.64824   107.92603   357.96134
   399  C   4.0    0.10    3.23    3.04   105.59789   105.93993   357.58528
   400  O   6.0   -0.27    1.12    1.80   105.83977   104.33366   355.94122
   401  C   4.0   -0.05    4.34    4.28   109.25073   107.29297   360.23090
   402  C   4.0   -0.04    4.25    4.09   110.77007   104.91569   359.91909
   403  C   4.0   -0.00    4.25    4.11   111.58832   103.94438   362.47022
   404  N   5.0   -0.13    3.42    2.03   112.71837   101.46128   362.25291
   405  C   4.0    0.09    3.35    3.06   114.97849   101.00774   361.23623
   406  N   5.0   -0.18    3.24    1.97   116.42980   102.86156   360.28192
   407  N   5.0   -0.18    3.24    1.96   115.79107    98.64369   361.14553
   408  H   1.0    0.09    1.03    1.43   106.96227   111.19714   359.99468
   409  H   1.0    0.06    1.06    1.44   108.83877   107.90902   356.28137
   410  H   1.0    0.04    1.04    1.43   110.56598   108.84255   360.56727
   411  H   1.0    0.06    1.04    1.43   108.02051   107.04542   361.86362
   412  H   1.0    0.07    1.04    1.43   109.62300   103.47383   358.99880
   413  H   1.0    0.05    1.03    1.43   112.44814   105.30687   358.79093
   414  H   1.0    0.04    1.03    1.43   112.98105   105.22750   363.27903
   415  H   1.0    0.05    1.03    1.43   109.94992   103.81021   363.71177
   416  H   1.0    0.11    1.08    1.44   111.71682    99.95705   362.92376
   417  H   1.0    0.08    1.03    1.43   115.81185   104.68704   360.32161
   418  H   1.0    0.09    1.02    1.43   118.14945   102.44393   359.51847
   419  H   1.0    0.09    1.03    1.43   114.69503    97.22073   361.84472
   420  H   1.0    0.09    1.03    1.43   117.51261    98.24496   360.37641
   421  N   5.0   -0.18    3.18    1.95   104.77208    98.02197   356.82372
   422  C   4.0    0.03    4.33    4.25   105.78875    97.04310   359.22556
   423  C   4.0    0.15    3.39    3.08   104.85900    98.57944   361.48568
   424  O   6.0   -0.29    1.22    1.80   105.64513   100.76208   361.90898
   425  C   4.0   -0.04    4.29    4.17   108.66113    96.96373   359.16698
   426  C   4.0   -0.05    4.24    4.07   109.67402    94.67338   357.78559
   427  C   4.0   -0.04    4.21    4.01   112.02484    95.33478   356.26625
   428  C   4.0   -0.03    4.14    3.88   112.65223    93.28254   354.38976
   429  N   5.0   -0.11    4.03    2.95   112.90357    90.80511   355.71256
   430  H   1.0    0.11    1.02    1.43   105.38246    99.80021   356.39664
   431  H   1.0    0.05    1.07    1.44   105.03475    95.14203   359.46934
   432  H   1.0    0.05    1.04    1.43   109.35844    98.64747   358.20889
   433  H   1.0    0.06    1.03    1.43   109.36978    96.90893   361.10017
   434  H   1.0    0.05    1.03    1.43   110.17102    93.21451   359.15187
   435  H   1.0    0.05    1.04    1.43   108.23972    93.96473   356.48924
   436  H   1.0    0.05    1.03    1.43   111.69981    97.08467   355.23068
   437  H   1.0    0.05    1.03    1.43   113.62544    95.55777   357.54371
   438  H   1.0    0.06    1.02    1.43   111.14612    93.13514   352.99325
   439  H   1.0    0.06    1.02    1.43   114.43613    93.71718   353.45812
   440  H   1.0    0.07    1.01    1.43   113.33631    89.39160   354.41621
   441  H   1.0    0.07    1.01    1.43   114.33787    90.90149   357.05427
   442  H   1.0    0.06    1.02    1.43   111.21793    90.34969   356.61396
   443  N   5.0   -0.14    3.51    2.08   103.19604    97.35868   362.91620
   444  C   4.0    0.04    4.40    4.38   101.70883    98.56433   364.84372
   445  C   4.0    0.16    3.44    3.09   102.19071    97.51931   367.47800
   446  O   6.0   -0.31    1.26    1.80   100.96428    98.35835   369.27891
   447  C   4.0    0.04    4.18    3.96    98.92148    98.20906   364.17665
   448  O   6.0   -0.24    2.09    1.84    98.13725    95.69761   364.66987
   449  H   1.0    0.09    1.09    1.44   102.84078    95.47084   362.76124
   450  H   1.0    0.06    1.06    1.44   102.15292   100.57499   364.90608
   451  H   1.0    0.04    1.01    1.43    97.78954    99.49974   365.31426
   452  H   1.0    0.06    1.02    1.43    98.65314    98.61346   362.17543
   453  H   1.0    0.12    1.08    1.44    96.34768    95.49541   364.23523
   454  N   5.0   -0.14    3.40    2.02   103.91792    95.69950   367.71988
   455  C   4.0    0.02    4.27    4.14   104.34311    94.45039   370.13495
   456  C   4.0    0.16    3.35    3.07   105.33710    96.28532   372.09271
   457  O   6.0   -0.29    1.24    1.80   104.54909    96.23996   374.27345
   458  H   1.0    0.08    1.06    1.44   105.04042    95.05510   366.29125
   459  H   1.0    0.06    1.03    1.43   102.57243    93.65104   370.81903
   460  H   1.0    0.05    1.03    1.43   105.71694    92.93294   369.89496
   461  N   5.0   -0.13    3.52    2.09   107.01140    97.95205   371.26690
   462  C   4.0    0.04    4.41    4.40   108.28319    99.69627   372.94497
   463  C   4.0    0.16    3.45    3.09   106.50118   101.85245   373.67441
   464  O   6.0   -0.32    1.31    1.80   106.38401   102.62535   375.83815
   465  C   4.0   -0.05    4.28    4.16   110.67936   100.74885   371.69776
   466  C   4.0   -0.03    4.18    3.97   112.58042    98.79298   370.74533
   467  C   4.0    0.24    3.13    3.03   112.15712    98.00119   368.01279
   468  O   6.0   -0.30    1.24    1.80   110.74550    99.21439   366.56337
   469  O   6.0   -0.29    1.20    1.80   113.22104    96.07745   367.27580
   470  H   1.0    0.10    1.08    1.44   107.53297    98.14103   369.42064
   471  H   1.0    0.06    1.06    1.44   108.87278    98.69661   374.64762
   472  H   1.0    0.05    1.04    1.43   110.11433   101.88646   370.07637
   473  H   1.0    0.04    1.03    1.43   111.65824   101.92615   373.07726
   474  H   1.0    0.04    1.03    1.43   114.47582    99.58856   370.88139
   475  H   1.0    0.05    1.03    1.43   112.43869    97.10546   371.91696
   476  N   5.0   -0.14    3.51    2.08   105.10278   102.82377   371.86027
   477  C   4.0    0.03    4.42    4.41   103.09211   104.59822   372.43286
   478  C   4.0    0.16    3.46    3.10   101.27986   103.65714   374.48510
   479  O   6.0   -0.31    1.25    1.80   100.49185   105.13490   376.11782
   480  C   4.0   -0.04    4.39    4.36   101.57466   105.14057   370.04614
   481  C   4.0   -0.02    4.20    4.00    99.34289   106.99061   370.18409
   482  C   4.0   -0.07    4.10    3.81   100.11201   109.72883   370.60171
   483  C   4.0   -0.07    4.13    3.87    97.91237   106.80731   367.71988
   484  H   1.0    0.10    1.11    1.45   105.30498   102.42882   369.98377
   485  H   1.0    0.04    1.06    1.44   103.98595   106.31976   373.12450
   486  H   1.0    0.05    1.04    1.43   102.87857   105.90591   368.64774
   487  H   1.0    0.06    1.04    1.43   100.80365   103.34911   369.38473
   488  H   1.0    0.05    1.06    1.44    98.19016   106.47094   371.80925
   489  H   1.0    0.04    1.00    1.43    98.41693   110.89857   370.67352
   490  H   1.0    0.04    1.00    1.43   101.14191   109.87245   372.37995
   491  H   1.0    0.05    1.00    1.43   101.31577   110.33165   369.04269
   492  H   1.0    0.04    1.00    1.43    96.31555   108.10744   367.77280
   493  H   1.0    0.06    1.00    1.43    99.17471   107.30998   366.17220
   494  H   1.0    0.04    1.00    1.43    97.23963   104.87601   367.47800
   495  N   5.0   -0.14    3.47    2.06   100.59011   101.23451   374.37550
   496  C   4.0    0.04    4.44    4.45    98.88936   100.12524   376.26333
   497  C   4.0    0.16    3.44    3.09   100.01186   100.25941   378.88249
   498  O   6.0   -0.30    1.22    1.80    98.70606   100.94349   380.69474
   499  C   4.0   -0.04    4.29    4.17    98.27142    97.39081   375.60382
   500  C   4.0   -0.04    4.19    3.99    96.27209    97.17349   373.54402
   501  C   4.0   -0.04    4.17    3.94    96.27776    94.60724   372.21554
   502  C   4.0   -0.02    4.15    3.91    93.59435    93.73230   371.70909
   503  N   5.0   -0.11    4.01    2.89    93.47907    91.78399   369.70598
   504  H   1.0    0.11    1.07    1.44   101.16837    99.99485   373.01678
   505  H   1.0    0.06    1.06    1.44    97.13191   101.20049   376.24255
   506  H   1.0    0.07    1.04    1.43    99.98162    96.45917   374.93486
   507  H   1.0    0.05    1.03    1.43    97.56088    96.43838   377.28568
   508  H   1.0    0.05    1.04    1.43    94.41260    97.44372   374.38684
   509  H   1.0    0.05    1.03    1.43    96.61791    98.62291   372.12105
   510  H   1.0    0.06    1.03    1.43    97.26797    94.76409   370.41652
   511  H   1.0    0.05    1.03    1.43    97.20750    93.21262   373.41174
   512  H   1.0    0.07    1.03    1.43    92.80822    92.92538   373.43441
   513  H   1.0    0.05    1.03    1.43    92.46051    95.34234   371.10438
   514  H   1.0    0.08    1.03    1.43    91.61580    91.23219   369.41119
   515  H   1.0    0.07    1.02    1.43    94.20473    92.50209   368.02602
   516  H   1.0    0.07    1.02    1.43    94.53354    90.21174   370.23511
   517  N   5.0   -0.13    3.48    2.06   102.44015    99.59423   379.02233
   518  C   4.0    0.04    4.44    4.45   103.94627    99.84178   381.32024
   519  C   4.0    0.15    3.47    3.10   103.85934   102.56110   382.28589
   520  O   6.0   -0.32    1.29    1.80   103.23951   103.04676   384.48553
   521  C   4.0    0.05    4.23    4.06   106.76574    99.09534   380.94796
   522  O   6.0   -0.23    2.09    1.84   107.00384    96.71806   379.67429
   523  C   4.0   -0.07    4.11    3.81   108.04130    98.83078   383.47075
   524  H   1.0    0.11    1.07    1.44   103.43982    98.86290   377.54457
   525  H   1.0    0.05    1.06    1.44   103.13746    98.52653   382.68462
   526  H   1.0    0.05    1.05    1.44   107.66525   100.56744   379.82358
   527  H   1.0    0.12    1.01    1.43   108.79341    96.28910   379.46264
   528  H   1.0    0.05    1.00    1.43   110.01607    98.30921   383.20997
   529  H   1.0    0.04    1.00    1.43   107.95059   100.61468   384.49687
   530  H   1.0    0.04    1.00    1.43   107.10589    97.37191   384.58380
   531  N   5.0   -0.14    3.50    2.08   104.44515   104.33366   380.63049
   532  C   4.0    0.04    4.47    4.50   104.55098   106.98683   381.38638
   533  C   4.0    0.17    3.48    3.11   102.06599   107.94871   382.43707
   534  O   6.0   -0.32    1.33    1.80   102.04709   109.44159   384.22475
   535  C   4.0   -0.04    4.35    4.30   105.36734   108.61389   379.17351
   536  C   4.0   -0.02    3.78    3.31   105.11223   111.34643   379.57980
   537  C   4.0   -0.01    3.66    3.21   103.72328   112.95270   378.18519
   538  C   4.0    0.01    3.95    3.54   106.28953   112.81475   381.47709
   539  N   5.0   -0.12    3.52    2.09   103.96516   115.35643   379.06202
   540  C   4.0    0.03    3.94    3.53   105.52986   115.32431   381.10670
   541  C   4.0   -0.05    3.42    3.08   107.94682   112.26106   383.44618
   542  C   4.0   -0.06    3.41    3.08   106.33299   117.28773   382.63738
   543  C   4.0   -0.05    3.37    3.07   108.75562   114.20181   384.98631
   544  C   4.0   -0.05    3.39    3.07   107.92225   116.69247   384.58947
   545  H   1.0    0.11    1.09    1.44   104.85333   104.01619   378.77289
   546  H   1.0    0.05    1.07    1.44   105.95315   107.13990   382.88682
   547  H   1.0    0.04    1.05    1.44   107.35155   108.23027   378.77667
   548  H   1.0    0.05    1.04    1.43   104.21461   108.12067   377.53890
   549  H   1.0    0.05    1.02    1.43   102.57432   112.40846   376.58837
   550  H   1.0    0.09    1.07    1.44   103.11857   116.91923   378.31558
   551  H   1.0    0.05    1.03    1.43   108.58554   110.34866   383.75988
   552  H   1.0    0.05    1.03    1.43   105.73017   119.20958   382.30479
   553  H   1.0    0.04    1.03    1.43   110.04630   113.80308   386.51699
   554  H   1.0    0.05    1.03    1.43   108.54964   118.16834   385.85180
   555  N   5.0   -0.13    3.39    2.02    99.98540   107.06809   381.32780
   556  C   4.0    0.02    4.26    4.12    97.45317   107.74461   382.19707
   557  C   4.0    0.17    3.35    3.06    97.02609   106.95282   384.90883
   558  O   6.0   -0.29    1.25    1.80    96.37413   108.52129   386.46974
   559  H   1.0    0.11    1.08    1.44    99.98351   105.87568   379.81413
   560  H   1.0    0.06    1.03    1.43    97.20183   109.78363   382.06101
   561  H   1.0    0.05    1.03    1.43    96.04721   106.81487   381.01222
   562  N   5.0   -0.13    3.46    2.05    97.46262   104.53586   385.46063
   563  C   4.0    0.04    4.42    4.42    97.45317   103.57777   388.07034
   564  C   4.0    0.16    3.45    3.09    99.08778   105.13679   389.84479
   565  O   6.0   -0.29    1.20    1.80    98.22795   105.94938   391.90271
   566  C   4.0   -0.05    4.44    4.45    98.47929   100.90759   388.14782
   567  C   4.0   -0.02    4.20    4.01    96.71806    98.89314   387.13871
   568  C   4.0   -0.07    4.11    3.83    98.34134    96.65759   386.32612
   569  C   4.0   -0.07    4.09    3.79    94.74330    98.13725   389.12292
   570  H   1.0    0.11    1.07    1.44    97.83300   103.17526   384.14538
   571  H   1.0    0.06    1.06    1.44    95.49163   103.64580   388.69395
   572  H   1.0    0.06    1.05    1.44   100.20083   100.84145   387.01965
   573  H   1.0    0.04    1.04    1.43    98.90259   100.43138   390.10747
   574  H   1.0    0.06    1.06    1.44    95.64281    99.58667   385.52299
   575  H   1.0    0.05    1.00    1.43    97.11869    95.17227   385.58913
   576  H   1.0    0.05    1.00    1.43    99.65281    97.27742   384.86348
   577  H   1.0    0.04    1.00    1.43    99.38825    95.96028   387.95696
   578  H   1.0    0.05    1.00    1.43    93.51498    96.68783   388.32734
   579  H   1.0    0.05    1.00    1.43    95.71084    97.40403   390.78588
   580  H   1.0    0.05    1.00    1.43    93.63403    99.79643   389.63126
   581  N   5.0   -0.14    3.50    2.08   101.44616   105.50907   389.01143
   582  C   4.0    0.04    4.54    4.59   103.37557   106.76763   390.51754
   583  C   4.0    0.16    3.55    3.14   102.69527   109.45671   391.07501
   584  O   6.0   -0.32    1.29    1.80   102.84078   110.23716   393.24063
   585  C   4.0   -0.02    4.32    4.24   105.95126   106.74117   389.20607
   586  C   4.0   -0.08    4.15    3.90   107.78052   108.62712   390.40604
   587  C   4.0   -0.08    4.13    3.85   107.04731   104.09933   389.33268
   588  H   1.0    0.11    1.10    1.44   102.07733   104.94971   387.27855
   589  H   1.0    0.05    1.07    1.44   103.47194   105.69804   392.27498
   590  H   1.0    0.05    1.06    1.44   105.69615   107.30053   387.24075
   591  H   1.0    0.03    1.00    1.43   109.58143   108.54019   389.41205
   592  H   1.0    0.05    1.01    1.43   106.98494   110.52062   390.25486
   593  H   1.0    0.04    1.00    1.43   108.04697   108.13390   392.38837
   594  H   1.0    0.03    1.00    1.43   108.88223   104.08988   388.39726
   595  H   1.0    0.04    1.00    1.43   107.26273   103.55698   391.30744
   596  H   1.0    0.05    1.00    1.43   105.76607   102.79542   388.38215
   597  N   5.0   -0.14    3.52    2.09   101.99040   110.87400   389.13426
   598  C   4.0    0.04    4.43    4.43   101.35734   113.51773   389.51787
   599  C   4.0    0.15    3.47    3.10    99.14258   113.84654   391.32634
   600  O   6.0   -0.29    1.22    1.80    99.06888   115.70414   392.80599
   601  C   4.0   -0.04    4.34    4.28   100.78286   114.84809   387.02343
   602  C   4.0   -0.02    4.20    4.00    99.94950   117.65245   387.16705
   603  C   4.0   -0.07    4.12    3.84   101.84489   119.34753   388.47852
   604  C   4.0   -0.07    4.12    3.85    99.53187   118.68991   384.53655
   605  H   1.0    0.12    1.13    1.45   101.84111   110.26173   387.31256
   606  H   1.0    0.05    1.06    1.44   103.01841   114.41535   390.34179
   607  H   1.0    0.05    1.03    1.43   102.48551   114.78762   385.86692
   608  H   1.0    0.06    1.03    1.43    99.26163   113.81819   386.09180
   609  H   1.0    0.06    1.06    1.44    98.21095   117.67701   388.27254
   610  H   1.0    0.05    1.00    1.43   101.11924   121.27505   388.49742
   611  H   1.0    0.05    1.00    1.43   102.11890   118.68046   390.40793
   612  H   1.0    0.04    1.00    1.43   103.62879   119.27950   387.45240
   613  H   1.0    0.05    1.00    1.43    98.94794   120.66089   384.67828
   614  H   1.0    0.05    1.00    1.43   101.29120   118.55385   383.47453
   615  H   1.0    0.05    1.00    1.43    98.06166   117.58631   383.60681
   616  N   5.0   -0.13    3.39    2.02    97.34923   112.08154   391.20918
   617  C   4.0    0.03    4.27    4.14    95.20439   112.11555   392.95528
   618  C   4.0    0.17    3.34    3.06    96.03587   112.18358   395.68972
   619  O   6.0   -0.24    1.20    1.80    94.95306   113.56119   397.25252
   620  H   1.0    0.11    1.06    1.44    97.32278   110.62267   389.94873
   621  H   1.0    0.07    1.03    1.43    94.04977   113.78040   392.58490
   622  H   1.0    0.06    1.03    1.43    94.06111   110.42803   392.66427
   623  N   5.0   -0.13    3.51    2.08    97.99552   110.68314   396.19427
   624  C   4.0    0.04    4.38    4.35    99.15392   110.44692   398.67737
   625  C   4.0    0.17    3.49    3.11   100.50318   112.80152   399.44271
   626  O   6.0   -0.25    1.28    1.80   100.29720   113.62733   401.55354
   627  C   4.0   -0.07    4.14    3.89   101.01908   108.27185   398.70194
   628  H   1.0    0.11    1.08    1.44    98.85156   109.56820   394.87524
   629  H   1.0    0.07    1.06    1.44    97.64592   110.07276   400.02853
   630  H   1.0    0.05    1.00    1.43   101.86001   108.13201   400.57655
   631  H   1.0    0.05    1.00    1.43   100.02130   106.52763   398.24652
   632  H   1.0    0.06    1.01    1.43   102.48551   108.62901   397.29976
   633  N   5.0   -0.13    3.52    2.09   101.93560   113.86733   397.73062
   634  C   4.0    0.05    4.35    4.29   103.23762   116.20303   398.29376
   635  C   4.0    0.11    3.22    3.04   101.37624   118.33086   399.02130
   636  O   6.0   -0.24    1.10    1.80   101.75796   119.70658   400.87512
   637  C   4.0   -0.05    4.39    4.36   104.79664   117.01561   396.02042
   638  C   4.0   -0.03    4.21    4.02   106.78085   115.15423   395.05855
   639  C   4.0   -0.08    4.10    3.81   107.97516   116.14067   392.63403
   640  C   4.0   -0.07    4.13    3.85   108.75562   114.71392   397.06922
   641  H   1.0    0.10    1.08    1.44   102.23795   113.17947   395.95617
   642  H   1.0    0.07    1.06    1.44   104.49240   115.87044   399.89247
   643  H   1.0    0.05    1.04    1.43   103.50218   117.37277   394.45950
   644  H   1.0    0.05    1.04    1.43   105.79064   118.74849   396.52120
   645  H   1.0    0.05    1.06    1.44   105.89268   113.34576   394.62958
   646  H   1.0    0.04    1.00    1.43   109.38301   114.78573   391.98018
   647  H   1.0    0.04    1.00    1.43   106.50684   116.36932   391.20729
   648  H   1.0    0.05    1.00    1.43   108.87089   117.95480   393.01764
   649  H   1.0    0.04    1.00    1.43   110.15591   113.38167   396.35490
   650  H   1.0    0.05    1.00    1.43   109.66080   116.50727   397.52464
   651  H   1.0    0.05    1.00    1.43   107.84477   113.94103   398.74729
   652  O   6.0   -0.32    2.02    1.83   108.62712    92.33579   398.05943
   653  H   1.0    0.16    1.04    1.43   109.90079    93.28254   398.05943
   654  H   1.0    0.16    1.02    1.43   107.35155    93.28254   398.05943
   655  O   6.0   -0.36    2.07    1.83   106.14024   102.90503   366.70888
   656  H   1.0    0.15    1.02    1.43   107.36667   103.90280   366.85250
   657  H   1.0    0.18    1.03    1.43   105.42214   103.25463   365.33694
   658  O   6.0   -0.35    2.02    1.83   103.16770    91.75942   362.26613
   659  H   1.0    0.15    1.02    1.43   104.56610    92.05989   362.95588
   660  H   1.0    0.16    1.02    1.43   102.13213    91.47218   363.43398
   661  O   6.0   -0.34    2.03    1.83    87.86092    91.75942   367.82146
   662  H   1.0    0.17    1.02    1.43    86.46252    92.05989   367.13171
   663  H   1.0    0.16    1.02    1.43    88.89649    91.47218   366.65360
   664  N   5.0   -0.20    3.19    1.95    87.43384   106.04575   371.00942
   665  C   4.0    0.03    4.23    4.07    89.58435   104.32232   371.38926
   666  C   4.0    0.15    3.41    3.08    90.80889   104.53208   374.01598
   667  O   6.0   -0.31    1.24    1.80    91.71596   102.67259   375.10257
   668  C   4.0   -0.07    4.11    3.82    91.57234   104.76641   369.37670
   669  H   1.0    0.09    1.03    1.43    87.64738   107.27218   369.53922
   670  H   1.0    0.05    1.06    1.44    88.84736   102.40614   371.21540
   671  H   1.0    0.04    1.00    1.43    93.14459   103.47383   369.69039
   672  H   1.0    0.05    1.00    1.43    90.73897   104.42248   367.52477
   673  H   1.0    0.04    1.00    1.43    92.22807   106.71471   369.50142
   674  N   5.0   -0.14    3.50    2.08    90.85235   106.81109   375.01753
   675  C   4.0    0.04    4.41    4.40    92.03721   107.21738   377.43071
   676  C   4.0    0.09    3.24    3.04    90.32323   106.55787   379.59823
   677  O   6.0   -0.27    1.12    1.80    90.94684   104.93270   381.14024
   678  C   4.0   -0.05    4.44    4.45    92.90271   109.92725   377.62157
   679  C   4.0   -0.04    4.14    3.88    95.16471   110.33354   375.92649
   680  S   6.0   -0.04    2.58    3.10    96.74452   113.17002   376.77876
   681  C   4.0   -0.06    3.93    3.51    94.25575   115.22037   375.70350
   682  H   1.0    0.08    1.06    1.44    90.09268   108.38901   374.21062
   683  H   1.0    0.07    1.08    1.44    93.69072   105.99284   377.54410
   684  H   1.0    0.04    1.04    1.43    91.38715   111.18581   377.02064
   685  H   1.0    0.05    1.05    1.44    93.44128   110.35055   379.56421
   686  H   1.0    0.05    1.08    1.44    96.47618   108.75940   376.13058
   687  H   1.0    0.04    1.08    1.44    94.54488   110.48472   373.96873
   688  H   1.0    0.05    1.04    1.43    94.80566   117.17624   376.03987
   689  H   1.0    0.05    1.04    1.43    93.95528   114.91235   373.68905
   690  H   1.0    0.05    1.04    1.43    92.53232   114.78573   376.74474
   691  N   5.0   -0.18    3.11    1.94    87.03511    99.83800   378.05999
   692  C   4.0    0.02    4.08    3.76    88.75665    97.91993   377.12458
   693  C   4.0    0.08    3.13    3.03    87.82690    96.68783   374.72651
   694  O   6.0   -0.28    1.13    1.80    88.53933    94.54677   374.21629
   695  H   1.0    0.11    1.02    1.43    87.68706   101.64269   377.88236
   696  H   1.0    0.06    1.03    1.43    90.58968    98.77975   376.74285
   697  H   1.0    0.06    1.03    1.43    88.98719    96.45728   378.55699
   698  N   5.0   -0.20    3.22    1.96    87.83257    97.35868   367.17139
   699  C   4.0    0.04    4.22    4.04    89.31979    98.56433   365.24387
   700  C   4.0    0.11    3.23    3.04    88.83791    97.51931   362.60959
   701  O   6.0   -0.25    1.13    1.80    90.06434    98.35835   360.80868
   702  C   4.0    0.03    4.18    3.97    92.10713    98.20906   365.91094
   703  O   6.0   -0.24    2.10    1.84    92.89137    95.69761   365.41772
   704  H   1.0    0.11    1.05    1.44    88.18784    95.47084   367.32635
   705  H   1.0    0.05    1.06    1.44    88.87570   100.57499   365.18151
   706  H   1.0    0.05    1.01    1.43    93.23908    99.49974   364.77333
   707  H   1.0    0.03    1.02    1.43    92.37547    98.61346   367.91216
   708  H   1.0    0.11    1.08    1.44    94.68094    95.49541   365.85236
   709  H   1.0    0.09    1.07    1.44   123.50366   103.09595   395.14333
   710  H   1.0    0.06    1.04    1.43   122.22683    98.60727   399.69489
   711  H   1.0    0.10    1.08    1.44   116.59248   105.59978   401.78234
   712  H   1.0    0.07    1.04    1.43   112.05213    98.59275   404.79108
   713  H   1.0    0.10    1.07    1.44   105.14037   103.71680   402.49570
   714  H   1.0    0.08    1.05    1.44   102.80505    97.76475   404.39345
   715  H   1.0    0.10    1.07    1.44    96.95887   103.92842   402.94239
   716  H   1.0    0.07    1.04    1.43    91.51574   100.15515   401.73542
   717  H   1.0    0.11    1.07    1.44    89.20992    90.37154   396.34666
   718  H   1.0    0.09    1.04    1.43   126.55409   110.67230   373.61232
   719  H   1.0    0.10    1.07    1.44   121.87577   120.84702   387.16864
   720  H   1.0    0.06    1.05    1.44   117.71287   120.05262   392.10710
   721  H   1.0    0.10    1.07    1.44   111.11763   125.51305   382.78507
   722  H   1.0    0.07    1.04    1.44   105.61848   126.57988   379.00749
   723  H   1.0    0.10    1.07    1.44   111.48491   123.10455   372.85622
   724  H   1.0    0.07    1.04    1.43   103.50283   120.45341   369.07194
   725  H   1.0    0.10    1.07    1.44   109.61082   114.19948   365.95664
   726  H   1.0    0.07    1.04    1.44   103.53176   112.49041   364.86280
   727  H   1.0    0.11    1.08    1.44   107.23400   111.43987   357.09660
   728  H   1.0    0.07    1.04    1.44   104.05864   105.95165   358.68148
   729  H   1.0    0.10    1.07    1.44   105.24705    97.00186   355.54844
   730  H   1.0    0.08    1.04    1.43    99.82212   118.62152   397.98626
   731  H   1.0    0.10    1.07    1.44    86.02827   105.13988   370.69908
   732  H   1.0    0.06    1.05    1.44    88.66445   107.44174   379.79388
   733  H   1.0    0.11    1.08    1.44    85.56915    99.75224   377.20198
   734  H   1.0    0.06    1.05    1.44    86.64680    97.61943   373.58173
   735  H   1.0    0.10    1.08    1.44    88.16943    98.07244   368.67792
   736  H   1.0    0.07    1.04    1.43    87.54112    96.16924   362.35130

  Z AO/shell   Hii/eV     exponent
  1     Wed Apr 25 08:07:45 CEST 2018   EN: 2.200 GM2: 0.406  GM3: 0.0800  RAES: 1.40
     1s    -10.707211    1.230000
  6     Wed Apr 25 08:07:45 CEST 2018   EN: 2.550 GM2: 0.538  GM3: 0.1500  RAES: 3.00
     2s    -13.970922    2.096432
     2p    -10.063292    1.800000
  7     Wed Apr 25 08:07:45 CEST 2018   EN: 3.040 GM2: 0.461  GM3:-0.0640  RAES: 1.90
     2s    -16.686243    2.339881
     2p    -12.523956    2.014332
  8     Wed Apr 25 08:07:45 CEST 2018   EN: 3.440 GM2: 0.452  GM3:-0.0517  RAES: 1.80
     2s    -20.229985    2.439742
     2p    -15.503117    2.137023
 16     Tue Apr 24 11:44:34 CEST 2018   EN: 2.580 GM2: 0.340  GM3:-0.0502  RAES: 3.10
     3s    -20.029654    1.981333
     3p    -11.377694    2.025643
     3d     -0.420282    1.702555
 no old-style atom pair restraining (fixing) potential

molecular fragmentation (1/2 indicates fragments):
111111111111111111122222222222222222222222222222222222222222222222222222
222222222222222222222222222222222222222222222222222222222222222222222222
222222222222222222222222222222222222222222222222222222222222222222222222
222222222222222222222222222222222222222222222222222222222222222222222222
222222222222222222222222222222222222222222222222222222222222222222222222
222222222222222222222222222222222222222222222222222222222222222222222222
222222222222222222222222222222222222222222222222222222222222222222222222
222222222222222222222222222222222222222222222222222222222222222222222222
222222222222222222222222222222222222222222222222222222222222222222222222
222222222222222222222222222222222222222222222222222222222222112222222222
2222222222222222
# atoms in fragment 1/2:    21   715
 fragment masses (1/2) :      115.17     4747.92
CMA distance (Bohr)    :  20.996
constraining FC (au)   :  0.0500
           ------------------------------------------------- 
          |        Self-Consistent Charge Iterations        |
           ------------------------------------------------- 

 Ncao       : 1765
 Nao        : 1761
 Nshell     : 1075
 Nel        : 1924
 T(el)      :   500.0
 intcut     :    35.0
 scfconv/Eh :  0.100E-06
   qconv/e  :  0.100E-04
 intneglect :  0.100E-08
 broydamp   :      0.400
 iter      E             dE          RMSdq      gap      omega  full diag
   1  -1097.8053765 -0.109781E+04  0.455E+00    2.18       0.0  T
   2  -1100.1631973 -0.235782E+01  0.218E+00    1.24       1.0  T
   3  -1100.2957315 -0.132534E+00  0.119E+00    1.74       1.0  T
   4  -1100.4877238 -0.191992E+00  0.266E-01    1.27       1.0  T
   5  -1100.4973014 -0.957756E-02  0.131E-01    1.42       1.0  T
   6  -1100.4998002 -0.249885E-02  0.596E-02    1.39       1.0  T
   7  -1100.5006729 -0.872618E-03  0.271E-02    1.38       1.0  T
   8  -1100.5007881 -0.115217E-03  0.135E-02    1.38       1.0  T
   9  -1100.5008213 -0.332380E-04  0.593E-03    1.37       1.0  T
  10  -1100.5008265 -0.522299E-05  0.289E-03    1.38       1.3  T
  11  -1100.5008277 -0.110973E-05  0.149E-03    1.38       2.5  T
  12  -1100.5008280 -0.310066E-06  0.778E-04    1.38       4.7  T
  13  -1100.5008281 -0.124919E-06  0.383E-04    1.38       9.6  T
  14  -1100.5008281 -0.226764E-07  0.204E-04    1.38      18.1  T
  15  -1100.5008281 -0.930208E-08  0.871E-05    1.38      42.3  T
  16  -1100.5008281 -0.116574E-08  0.452E-05    1.38      81.6  T
speedup  1.96
cpu  time for SCC   40.16 s
wall time for SCC   20.49 s

   *** convergence criteria satisfied after 16 iterations ***

          eigenvalues
 #    :         950        951        952        953        954        955        956        957
 occ. :        2.000      2.000      2.000      2.000      2.000      2.000      2.000      2.000
 eps  :        -9.965     -9.955     -9.892     -9.882     -9.826     -9.817     -9.798     -9.751
 #    :         958        959        960        961        962        963        964        965
 occ. :        2.000      2.000      2.000      2.000      2.000      0.000      0.000      0.000
 eps  :        -9.705     -9.666     -9.655     -9.560     -9.558     -8.179     -8.160     -8.063
 #    :         966        967        968        969        970        971        972        973
 occ. :        0.000      0.000      0.000      0.000      0.000      0.000      0.000      0.000
 eps  :        -8.007     -7.995     -7.970     -7.959     -7.918     -7.907     -7.757     -7.629


   #   Z            q   n(s)   n(p)   n(d)      C6AA      α(0)
   1   7 N     -0.393  1.325  4.068  0.000    30.170     8.158
   2   6 C      0.030  1.063  2.906  0.000    20.082     6.383
   3   6 C      0.196  1.100  2.704  0.000    23.817     7.992
   4   8 O     -0.367  1.744  4.623  0.000    21.037     6.149
   5   6 C     -0.027  1.068  2.959  0.000    21.022     6.521
   6   6 C     -0.063  1.050  3.013  0.000    21.702     6.632
   7   6 C     -0.124  1.044  3.081  0.000    22.935     6.828
   8   6 C     -0.117  1.041  3.076  0.000    22.810     6.811
   9   1 H      0.163  0.837  0.000  0.000     1.319     1.799
  10   1 H      0.054  0.946  0.000  0.000     2.268     2.355
  11   1 H      0.046  0.954  0.000  0.000     2.366     2.406
  12   1 H      0.038  0.962  0.000  0.000     2.471     2.458
  13   1 H      0.031  0.969  0.000  0.000     2.579     2.511
  14   1 H      0.064  0.936  0.000  0.000     2.156     2.296
  15   1 H      0.045  0.955  0.000  0.000     2.385     2.415
  16   1 H      0.055  0.945  0.000  0.000     2.258     2.350
  17   1 H      0.037  0.963  0.000  0.000     2.487     2.466
  18   1 H      0.040  0.960  0.000  0.000     2.449     2.447
  19   1 H      0.055  0.945  0.000  0.000     2.255     2.348
  20   7 N     -0.393  1.316  4.078  0.000    30.188     8.160
  21   6 C      0.033  1.047  2.920  0.000    20.024     6.370
  22   6 C      0.279  1.039  2.682  0.000    22.282     7.731
  23   8 O     -0.513  1.741  4.772  0.000    24.073     6.578
  24   6 C     -0.028  1.066  2.962  0.000    21.030     6.521
  25   6 C     -0.060  1.047  3.013  0.000    21.635     6.621
  26   6 C     -0.120  1.043  3.077  0.000    22.862     6.818
  27   6 C     -0.114  1.039  3.075  0.000    22.733     6.799
  28   1 H      0.161  0.839  0.000  0.000     1.328     1.805
  29   1 H      0.030  0.970  0.000  0.000     2.592     2.518
  30   1 H      0.046  0.954  0.000  0.000     2.373     2.409
  31   1 H      0.029  0.971  0.000  0.000     2.600     2.521
  32   1 H      0.029  0.971  0.000  0.000     2.596     2.519
  33   1 H      0.062  0.938  0.000  0.000     2.173     2.305
  34   1 H      0.044  0.956  0.000  0.000     2.399     2.422
  35   1 H      0.035  0.965  0.000  0.000     2.515     2.480
  36   1 H      0.040  0.960  0.000  0.000     2.450     2.448
  37   1 H      0.039  0.961  0.000  0.000     2.460     2.453
  38   1 H      0.050  0.950  0.000  0.000     2.318     2.381
  39   7 N     -0.178  1.245  3.933  0.000    24.855     7.404
  40   6 C      0.024  1.059  2.917  0.000    20.178     6.397
  41   6 C      0.201  1.092  2.708  0.000    23.727     7.977
  42   8 O     -0.364  1.769  4.595  0.000    20.975     6.140
  43   6 C      0.065  1.039  2.896  0.000    19.697     6.356
  44   8 O     -0.459  1.719  4.740  0.000    22.027     6.336
  45   1 H      0.245  0.755  0.000  0.000     0.903     1.488
  46   1 H      0.091  0.909  0.000  0.000     1.865     2.135
  47   1 H      0.077  0.923  0.000  0.000     2.009     2.217
  48   1 H      0.052  0.948  0.000  0.000     2.291     2.367
  49   1 H      0.347  0.653  0.000  0.000     0.596     1.213
  50   7 N     -0.396  1.324  4.071  0.000    30.250     8.168
  51   6 C      0.047  1.047  2.906  0.000    19.769     6.326
  52   6 C      0.184  1.085  2.730  0.000    24.043     8.030
  53   8 O     -0.366  1.761  4.604  0.000    20.997     6.144
  54   6 C     -0.003  1.063  2.940  0.000    20.630     6.466
  55  16 S     -0.304  1.919  4.346  0.039   154.222    20.902
  56   1 H      0.189  0.811  0.000  0.000     1.163     1.690
  57   1 H      0.042  0.958  0.000  0.000     2.417     2.431
  58   1 H      0.067  0.933  0.000  0.000     2.116     2.275
  59   1 H      0.058  0.942  0.000  0.000     2.224     2.332
  60   1 H      0.219  0.781  0.000  0.000     1.007     1.569
  61   7 N     -0.396  1.325  4.071  0.000    30.253     8.169
  62   6 C      0.050  1.048  2.902  0.000    19.711     6.317
  63   6 C      0.201  1.093  2.706  0.000    23.725     7.977
  64   8 O     -0.373  1.767  4.606  0.000    21.145     6.165
  65   6 C     -0.009  1.066  2.942  0.000    20.716     6.477
  66  16 S     -0.341  1.899  4.392  0.050   155.963    21.019
  67   1 H      0.200  0.800  0.000  0.000     1.105     1.646
  68   1 H      0.042  0.958  0.000  0.000     2.420     2.433
  69   1 H      0.117  0.883  0.000  0.000     1.635     2.000
  70   1 H      0.054  0.946  0.000  0.000     2.276     2.359
  71   1 H      0.172  0.828  0.000  0.000     1.251     1.749
  72   7 N     -0.400  1.327  4.074  0.000    30.379     8.186
  73   6 C      0.035  1.054  2.912  0.000    20.000     6.368
  74   6 C      0.276  1.036  2.688  0.000    22.339     7.741
  75   8 O     -0.495  1.745  4.750  0.000    23.673     6.523
  76   6 C      0.117  1.045  2.837  0.000    18.741     6.178
  77   8 O     -0.485  1.734  4.750  0.000    22.568     6.413
  78   6 C     -0.136  1.049  3.086  0.000    23.170     6.864
  79   1 H      0.192  0.808  0.000  0.000     1.148     1.678
  80   1 H      0.016  0.984  0.000  0.000     2.789     2.612
  81   1 H      0.018  0.982  0.000  0.000     2.761     2.598
  82   1 H      0.340  0.660  0.000  0.000     0.613     1.230
  83   1 H      0.063  0.937  0.000  0.000     2.159     2.298
  84   1 H      0.045  0.955  0.000  0.000     2.377     2.411
  85   1 H      0.062  0.938  0.000  0.000     2.178     2.308
  86   7 N     -0.186  1.244  3.942  0.000    25.041     7.432
  87   6 C      0.032  1.049  2.920  0.000    20.042     6.374
  88   6 C      0.262  1.044  2.694  0.000    22.588     7.784
  89   8 O     -0.514  1.751  4.763  0.000    24.104     6.582
  90   6 C      0.085  1.035  2.881  0.000    19.374     6.304
  91   8 O     -0.471  1.717  4.754  0.000    22.281     6.372
  92   1 H      0.213  0.787  0.000  0.000     1.040     1.598
  93   1 H      0.066  0.934  0.000  0.000     2.133     2.284
  94   1 H      0.026  0.974  0.000  0.000     2.640     2.541
  95   1 H      0.037  0.963  0.000  0.000     2.484     2.465
  96   1 H      0.349  0.651  0.000  0.000     0.591     1.208
  97   7 N     -0.066  1.235  3.831  0.000    22.510     7.047
  98   6 C      0.023  1.058  2.919  0.000    20.152     6.386
  99   6 C      0.274  1.038  2.688  0.000    22.376     7.746
 100   8 O     -0.464  1.737  4.727  0.000    23.011     6.432
 101   6 C     -0.057  1.046  3.010  0.000    21.564     6.607
 102   6 C     -0.071  1.043  3.028  0.000    21.823     6.646
 103   6 C     -0.005  1.053  2.952  0.000    20.705     6.486
 104   1 H      0.065  0.935  0.000  0.000     2.147     2.291
 105   1 H      0.058  0.942  0.000  0.000     2.227     2.334
 106   1 H      0.045  0.955  0.000  0.000     2.378     2.411
 107   1 H      0.074  0.926  0.000  0.000     2.037     2.232
 108   1 H      0.054  0.946  0.000  0.000     2.274     2.358
 109   1 H      0.086  0.914  0.000  0.000     1.913     2.163
 110   1 H      0.052  0.948  0.000  0.000     2.290     2.367
 111   7 N     -0.189  1.245  3.944  0.000    25.100     7.441
 112   6 C      0.012  1.057  2.931  0.000    20.374     6.426
 113   6 C      0.282  1.033  2.685  0.000    22.221     7.720
 114   8 O     -0.483  1.745  4.738  0.000    23.400     6.486
 115   6 C      0.062  1.044  2.895  0.000    19.752     6.366
 116   8 O     -0.476  1.718  4.758  0.000    22.378     6.386
 117   1 H      0.221  0.779  0.000  0.000     1.005     1.571
 118   1 H      0.087  0.913  0.000  0.000     1.907     2.159
 119   1 H      0.076  0.924  0.000  0.000     2.021     2.223
 120   1 H      0.042  0.958  0.000  0.000     2.418     2.432
 121   1 H      0.340  0.660  0.000  0.000     0.612     1.229
 122   7 N     -0.172  1.241  3.932  0.000    24.726     7.385
 123   6 C      0.004  1.064  2.932  0.000    20.519     6.450
 124   6 C      0.276  1.040  2.684  0.000    22.323     7.737
 125   8 O     -0.483  1.737  4.745  0.000    23.404     6.486
 126   6 C     -0.097  1.064  3.033  0.000    22.353     6.731
 127   6 C     -0.092  1.058  3.034  0.000    22.266     6.719
 128   6 C     -0.101  1.061  3.041  0.000    22.437     6.745
 129   6 C     -0.060  1.053  3.007  0.000    21.754     6.658
 130   7 N     -0.147  1.232  3.915  0.000    24.164     7.301
 131   1 H      0.226  0.774  0.000  0.000     0.982     1.552
 132   1 H      0.087  0.913  0.000  0.000     1.907     2.159
 133   1 H      0.087  0.913  0.000  0.000     1.908     2.160
 134   1 H      0.080  0.920  0.000  0.000     1.979     2.200
 135   1 H      0.075  0.925  0.000  0.000     2.028     2.227
 136   1 H      0.068  0.932  0.000  0.000     2.113     2.273
 137   1 H      0.093  0.907  0.000  0.000     1.847     2.126
 138   1 H      0.081  0.919  0.000  0.000     1.965     2.192
 139   1 H      0.119  0.881  0.000  0.000     1.625     1.993
 140   1 H      0.101  0.899  0.000  0.000     1.776     2.084
 141   1 H      0.300  0.700  0.000  0.000     0.714     1.324
 142   1 H      0.302  0.698  0.000  0.000     0.708     1.318
 143   1 H      0.300  0.700  0.000  0.000     0.713     1.323
 144   7 N     -0.179  1.248  3.931  0.000    24.881     7.408
 145   6 C      0.000  1.076  2.924  0.000    20.597     6.465
 146   6 C      0.274  1.045  2.680  0.000    22.358     7.742
 147   8 O     -0.495  1.748  4.747  0.000    23.677     6.524
 148   6 C     -0.101  1.069  3.032  0.000    22.436     6.746
 149   6 C     -0.084  1.058  3.025  0.000    22.103     6.695
 150   6 C     -0.097  1.054  3.043  0.000    22.347     6.731
 151   6 C     -0.055  1.058  2.997  0.000    21.652     6.642
 152   7 N     -0.145  1.234  3.912  0.000    24.138     7.297
 153   1 H      0.224  0.776  0.000  0.000     0.992     1.560
 154   1 H      0.100  0.900  0.000  0.000     1.788     2.091
 155   1 H      0.092  0.908  0.000  0.000     1.858     2.132
 156   1 H      0.066  0.934  0.000  0.000     2.126     2.280
 157   1 H      0.079  0.921  0.000  0.000     1.991     2.207
 158   1 H      0.049  0.951  0.000  0.000     2.337     2.390
 159   1 H      0.082  0.918  0.000  0.000     1.961     2.190
 160   1 H      0.078  0.922  0.000  0.000     2.003     2.213
 161   1 H      0.117  0.883  0.000  0.000     1.634     1.999
 162   1 H      0.124  0.876  0.000  0.000     1.585     1.969
 163   1 H      0.302  0.698  0.000  0.000     0.709     1.319
 164   1 H      0.295  0.705  0.000  0.000     0.728     1.337
 165   1 H      0.294  0.706  0.000  0.000     0.731     1.339
 166   7 N     -0.180  1.252  3.928  0.000    24.904     7.412
 167   6 C      0.018  1.071  2.911  0.000    20.288     6.416
 168   6 C      0.269  1.051  2.680  0.000    22.455     7.759
 169   8 O     -0.524  1.754  4.770  0.000    24.321     6.612
 170   6 C     -0.059  1.050  3.010  0.000    21.640     6.623
 171   6 C     -0.100  1.065  3.035  0.000    22.408     6.740
 172   6 C      0.372  1.022  2.606  0.000    20.703     7.446
 173   8 O     -0.632  1.767  4.864  0.000    26.909     6.955
 174   8 O     -0.654  1.778  4.876  0.000    27.491     7.030
 175   1 H      0.229  0.771  0.000  0.000     0.969     1.542
 176   1 H      0.069  0.931  0.000  0.000     2.094     2.263
 177   1 H      0.067  0.933  0.000  0.000     2.120     2.277
 178   1 H      0.034  0.966  0.000  0.000     2.536     2.491
 179   1 H      0.027  0.973  0.000  0.000     2.628     2.535
 180   1 H      0.059  0.941  0.000  0.000     2.211     2.326
 181   7 N     -0.175  1.254  3.921  0.000    24.797     7.396
 182   6 C      0.014  1.067  2.919  0.000    20.355     6.425
 183   6 C      0.277  1.040  2.684  0.000    22.319     7.736
 184   8 O     -0.492  1.739  4.753  0.000    23.600     6.513
 185   6 C     -0.032  1.072  2.961  0.000    21.118     6.536
 186   6 C     -0.072  1.052  3.021  0.000    21.883     6.660
 187   6 C     -0.116  1.041  3.074  0.000    22.772     6.805
 188   6 C     -0.111  1.039  3.072  0.000    22.696     6.794
 189   1 H      0.236  0.764  0.000  0.000     0.941     1.519
 190   1 H      0.069  0.931  0.000  0.000     2.096     2.264
 191   1 H      0.062  0.938  0.000  0.000     2.179     2.308
 192   1 H      0.044  0.956  0.000  0.000     2.396     2.421
 193   1 H      0.040  0.960  0.000  0.000     2.447     2.446
 194   1 H      0.067  0.933  0.000  0.000     2.114     2.274
 195   1 H      0.042  0.958  0.000  0.000     2.425     2.435
 196   1 H      0.045  0.955  0.000  0.000     2.378     2.411
 197   1 H      0.042  0.958  0.000  0.000     2.427     2.436
 198   1 H      0.048  0.952  0.000  0.000     2.350     2.397
 199   1 H      0.049  0.951  0.000  0.000     2.334     2.389
 200   7 N     -0.170  1.242  3.928  0.000    24.681     7.378
 201   6 C     -0.035  1.053  2.981  0.000    21.264     6.579
 202   6 C      0.274  1.040  2.686  0.000    22.360     7.743
 203   8 O     -0.506  1.751  4.755  0.000    23.920     6.557
 204   1 H      0.240  0.760  0.000  0.000     0.922     1.504
 205   1 H      0.087  0.913  0.000  0.000     1.904     2.158
 206   1 H      0.114  0.886  0.000  0.000     1.667     2.019
 207   7 N     -0.180  1.254  3.926  0.000    24.889     7.409
 208   6 C      0.019  1.059  2.921  0.000    20.258     6.409
 209   6 C      0.276  1.042  2.682  0.000    22.335     7.739
 210   8 O     -0.506  1.754  4.752  0.000    23.912     6.556
 211   6 C     -0.137  1.047  3.090  0.000    23.197     6.868
 212   1 H      0.239  0.761  0.000  0.000     0.925     1.507
 213   1 H      0.082  0.918  0.000  0.000     1.959     2.189
 214   1 H      0.073  0.927  0.000  0.000     2.058     2.243
 215   1 H      0.091  0.909  0.000  0.000     1.865     2.136
 216   1 H      0.064  0.936  0.000  0.000     2.153     2.294
 217   7 N     -0.183  1.251  3.932  0.000    24.969     7.421
 218   6 C      0.028  1.058  2.914  0.000    20.116     6.387
 219   6 C      0.276  1.040  2.684  0.000    22.335     7.739
 220   8 O     -0.502  1.748  4.754  0.000    23.834     6.545
 221   6 C     -0.076  1.053  3.023  0.000    21.922     6.662
 222   6 C     -0.012  1.059  2.953  0.000    20.791     6.493
 223  16 S     -0.202  1.912  4.237  0.053   149.665    20.590
 224   6 C     -0.059  1.050  3.010  0.000    21.714     6.647
 225   1 H      0.227  0.773  0.000  0.000     0.978     1.549
 226   1 H      0.063  0.937  0.000  0.000     2.162     2.299
 227   1 H      0.058  0.942  0.000  0.000     2.217     2.328
 228   1 H      0.069  0.931  0.000  0.000     2.094     2.263
 229   1 H      0.047  0.953  0.000  0.000     2.356     2.400
 230   1 H      0.049  0.951  0.000  0.000     2.328     2.386
 231   1 H      0.066  0.934  0.000  0.000     2.129     2.282
 232   1 H      0.058  0.942  0.000  0.000     2.220     2.330
 233   1 H      0.062  0.938  0.000  0.000     2.180     2.309
 234   7 N     -0.188  1.255  3.933  0.000    25.076     7.437
 235   6 C      0.032  1.054  2.915  0.000    20.041     6.374
 236   6 C      0.283  1.036  2.681  0.000    22.208     7.718
 237   8 O     -0.518  1.762  4.756  0.000    24.185     6.594
 238   6 C     -0.075  1.055  3.020  0.000    21.914     6.662
 239   6 C     -0.017  1.055  2.963  0.000    20.848     6.494
 240   6 C     -0.117  1.045  3.072  0.000    22.797     6.808
 241   6 C     -0.117  1.044  3.073  0.000    22.789     6.806
 242   1 H      0.238  0.762  0.000  0.000     0.930     1.511
 243   1 H      0.066  0.934  0.000  0.000     2.132     2.283
 244   1 H      0.064  0.936  0.000  0.000     2.158     2.297
 245   1 H      0.050  0.950  0.000  0.000     2.319     2.381
 246   1 H      0.047  0.953  0.000  0.000     2.356     2.400
 247   1 H      0.052  0.948  0.000  0.000     2.290     2.367
 248   1 H      0.046  0.954  0.000  0.000     2.372     2.408
 249   1 H      0.043  0.957  0.000  0.000     2.412     2.429
 250   1 H      0.052  0.948  0.000  0.000     2.296     2.369
[...]
 450   1 H      0.096  0.904  0.000  0.000     1.819     2.109
 451   1 H      0.048  0.952  0.000  0.000     2.343     2.394
 452   1 H      0.057  0.943  0.000  0.000     2.238     2.339
 453   1 H      0.357  0.643  0.000  0.000     0.572     1.188
 454   7 N     -0.163  1.233  3.930  0.000    24.528     7.356
 455   6 C     -0.045  1.054  2.990  0.000    21.441     6.604
 456   6 C      0.277  1.032  2.690  0.000    22.308     7.734
 457   8 O     -0.495  1.753  4.742  0.000    23.679     6.524
 458   1 H      0.212  0.788  0.000  0.000     1.046     1.602
 459   1 H      0.111  0.889  0.000  0.000     1.692     2.034
 460   1 H      0.101  0.899  0.000  0.000     1.779     2.086
 461   7 N     -0.178  1.240  3.938  0.000    24.849     7.404
 462   6 C      0.024  1.058  2.918  0.000    20.174     6.395
 463   6 C      0.276  1.037  2.687  0.000    22.338     7.740
 464   8 O     -0.500  1.737  4.763  0.000    23.794     6.540
 465   6 C     -0.067  1.051  3.016  0.000    21.785     6.645
 466   6 C     -0.100  1.060  3.040  0.000    22.406     6.739
 467   6 C      0.364  1.020  2.615  0.000    20.822     7.468
 468   8 O     -0.620  1.754  4.866  0.000    26.620     6.917
 469   8 O     -0.632  1.755  4.877  0.000    26.908     6.955
 470   1 H      0.218  0.782  0.000  0.000     1.017     1.580
 471   1 H      0.062  0.938  0.000  0.000     2.172     2.305
 472   1 H      0.066  0.934  0.000  0.000     2.131     2.283
 473   1 H      0.032  0.968  0.000  0.000     2.554     2.499
 474   1 H      0.038  0.962  0.000  0.000     2.478     2.462
 475   1 H      0.024  0.976  0.000  0.000     2.670     2.555
 476   7 N     -0.197  1.253  3.945  0.000    25.287     7.469
 477   6 C      0.026  1.056  2.918  0.000    20.132     6.388
 478   6 C      0.276  1.044  2.680  0.000    22.336     7.739
 479   8 O     -0.509  1.750  4.759  0.000    23.979     6.565
 480   6 C     -0.088  1.061  3.027  0.000    22.159     6.700
 481   6 C     -0.012  1.051  2.961  0.000    20.760     6.481
 482   6 C     -0.115  1.042  3.072  0.000    22.746     6.800
 483   6 C     -0.125  1.047  3.078  0.000    22.935     6.826
 484   1 H      0.241  0.759  0.000  0.000     0.918     1.501
 485   1 H      0.065  0.935  0.000  0.000     2.136     2.286
 486   1 H      0.068  0.932  0.000  0.000     2.109     2.271
 487   1 H      0.065  0.935  0.000  0.000     2.136     2.286
 488   1 H      0.026  0.974  0.000  0.000     2.638     2.540
 489   1 H      0.046  0.954  0.000  0.000     2.365     2.405
 490   1 H      0.033  0.967  0.000  0.000     2.545     2.495
 491   1 H      0.043  0.957  0.000  0.000     2.414     2.429
 492   1 H      0.049  0.951  0.000  0.000     2.338     2.391
 493   1 H      0.056  0.944  0.000  0.000     2.244     2.342
 494   1 H      0.045  0.955  0.000  0.000     2.378     2.411
 495   7 N     -0.180  1.251  3.930  0.000    24.905     7.412
 496   6 C      0.021  1.059  2.920  0.000    20.223     6.403
 497   6 C      0.277  1.039  2.684  0.000    22.310     7.735
 498   8 O     -0.505  1.752  4.753  0.000    23.888     6.553
 499   6 C     -0.083  1.055  3.028  0.000    22.080     6.689
 500   6 C     -0.076  1.050  3.026  0.000    21.957     6.671
 501   6 C     -0.098  1.055  3.043  0.000    22.361     6.732
 502   6 C     -0.052  1.059  2.992  0.000    21.591     6.632
 503   7 N     -0.144  1.231  3.912  0.000    24.102     7.292
 504   1 H      0.227  0.773  0.000  0.000     0.977     1.548
 505   1 H      0.080  0.920  0.000  0.000     1.980     2.200
 506   1 H      0.076  0.924  0.000  0.000     2.019     2.222
 507   1 H      0.058  0.942  0.000  0.000     2.225     2.332
 508   1 H      0.055  0.945  0.000  0.000     2.256     2.349
 509   1 H      0.066  0.934  0.000  0.000     2.129     2.282
 510   1 H      0.085  0.915  0.000  0.000     1.926     2.170
 511   1 H      0.075  0.925  0.000  0.000     2.032     2.229
 512   1 H      0.122  0.878  0.000  0.000     1.598     1.977
 513   1 H      0.104  0.896  0.000  0.000     1.746     2.066
 514   1 H      0.301  0.699  0.000  0.000     0.710     1.320
 515   1 H      0.288  0.712  0.000  0.000     0.749     1.356
 516   1 H      0.301  0.699  0.000  0.000     0.710     1.320
 517   7 N     -0.178  1.245  3.934  0.000    24.861     7.405
 518   6 C      0.021  1.064  2.915  0.000    20.222     6.404
 519   6 C      0.275  1.040  2.685  0.000    22.349     7.742
 520   8 O     -0.496  1.739  4.757  0.000    23.690     6.526
 521   6 C      0.114  1.046  2.839  0.000    18.809     6.192
 522   8 O     -0.472  1.727  4.745  0.000    22.300     6.375
 523   6 C     -0.129  1.042  3.087  0.000    23.036     6.844
 524   1 H      0.226  0.774  0.000  0.000     0.982     1.552
 525   1 H      0.067  0.933  0.000  0.000     2.123     2.278
 526   1 H      0.042  0.958  0.000  0.000     2.418     2.432
 527   1 H      0.313  0.687  0.000  0.000     0.683     1.298
 528   1 H      0.060  0.940  0.000  0.000     2.204     2.322
 529   1 H      0.059  0.941  0.000  0.000     2.215     2.327
 530   1 H      0.059  0.941  0.000  0.000     2.212     2.326
 531   7 N     -0.176  1.252  3.924  0.000    24.810     7.398
 532   6 C      0.027  1.058  2.915  0.000    20.113     6.385
 533   6 C      0.286  1.037  2.677  0.000    22.163     7.709
 534   8 O     -0.485  1.736  4.749  0.000    23.459     6.494
 535   6 C     -0.073  1.045  3.028  0.000    21.881     6.658
 536   6 C     -0.035  1.052  2.983  0.000    28.783     8.795
 537   6 C     -0.008  1.062  2.946  0.000    28.118     8.693
 538   6 C     -0.018  1.067  2.951  0.000    28.140     8.673
 539   7 N     -0.116  1.229  3.888  0.000    23.529     7.204
 540   6 C      0.045  1.058  2.897  0.000    26.801     8.477
 541   6 C     -0.041  1.078  2.963  0.000    29.020     8.834
 542   6 C     -0.058  1.067  2.990  0.000    29.431     8.896
 543   6 C     -0.049  1.077  2.972  0.000    29.213     8.863
 544   6 C     -0.044  1.076  2.968  0.000    29.092     8.846
 545   1 H      0.233  0.767  0.000  0.000     0.952     1.529
 546   1 H      0.082  0.918  0.000  0.000     1.957     2.188
 547   1 H      0.075  0.925  0.000  0.000     2.027     2.226
 548   1 H      0.056  0.944  0.000  0.000     2.251     2.346
 549   1 H      0.035  0.965  0.000  0.000     2.517     2.481
 550   1 H      0.198  0.802  0.000  0.000     1.114     1.654
 551   1 H      0.028  0.972  0.000  0.000     2.620     2.531
 552   1 H      0.027  0.973  0.000  0.000     2.630     2.536
 553   1 H      0.028  0.972  0.000  0.000     2.608     2.525
 554   1 H      0.029  0.971  0.000  0.000     2.604     2.524
 555   7 N     -0.167  1.240  3.926  0.000    24.603     7.367
 556   6 C     -0.024  1.049  2.976  0.000    21.074     6.548
 557   6 C      0.284  1.033  2.683  0.000    22.187     7.713
 558   8 O     -0.505  1.744  4.760  0.000    23.886     6.553
 559   1 H      0.222  0.778  0.000  0.000     0.999     1.565
 560   1 H      0.086  0.914  0.000  0.000     1.915     2.164
 561   1 H      0.079  0.921  0.000  0.000     1.989     2.206
 562   7 N     -0.184  1.253  3.931  0.000    24.998     7.426
 563   6 C      0.028  1.059  2.913  0.000    20.110     6.385
 564   6 C      0.275  1.044  2.681  0.000    22.345     7.741
 565   8 O     -0.523  1.766  4.757  0.000    24.300     6.609
 566   6 C     -0.081  1.056  3.025  0.000    22.025     6.678
 567   6 C     -0.015  1.054  2.960  0.000    20.800     6.487
 568   6 C     -0.112  1.044  3.067  0.000    22.685     6.790
 569   6 C     -0.108  1.043  3.064  0.000    22.618     6.782
 570   1 H      0.225  0.775  0.000  0.000     0.986     1.555
 571   1 H      0.059  0.941  0.000  0.000     2.205     2.322
 572   1 H      0.075  0.925  0.000  0.000     2.036     2.231
 573   1 H      0.057  0.943  0.000  0.000     2.239     2.340
 574   1 H      0.043  0.957  0.000  0.000     2.406     2.426
 575   1 H      0.046  0.954  0.000  0.000     2.368     2.407
 576   1 H      0.041  0.959  0.000  0.000     2.434     2.440
 577   1 H      0.041  0.959  0.000  0.000     2.431     2.438
 578   1 H      0.041  0.959  0.000  0.000     2.432     2.439
 579   1 H      0.030  0.970  0.000  0.000     2.588     2.516
 580   1 H      0.033  0.967  0.000  0.000     2.543     2.494
 581   7 N     -0.186  1.253  3.933  0.000    25.038     7.432
 582   6 C      0.017  1.059  2.923  0.000    20.278     6.410
 583   6 C      0.288  1.033  2.679  0.000    22.123     7.703
 584   8 O     -0.511  1.735  4.776  0.000    24.022     6.571
 585   6 C     -0.021  1.059  2.962  0.000    20.907     6.503
 586   6 C     -0.115  1.042  3.072  0.000    22.747     6.801
 587   6 C     -0.130  1.045  3.084  0.000    23.041     6.843
 588   1 H      0.233  0.767  0.000  0.000     0.952     1.529
 589   1 H      0.077  0.923  0.000  0.000     2.009     2.217
 590   1 H      0.044  0.956  0.000  0.000     2.392     2.419
 591   1 H      0.060  0.940  0.000  0.000     2.198     2.319
 592   1 H      0.037  0.963  0.000  0.000     2.493     2.469
 593   1 H      0.054  0.946  0.000  0.000     2.276     2.359
 594   1 H      0.059  0.941  0.000  0.000     2.208     2.324
 595   1 H      0.063  0.937  0.000  0.000     2.165     2.301
 596   1 H      0.054  0.946  0.000  0.000     2.276     2.359
 597   7 N     -0.204  1.258  3.946  0.000    25.430     7.490
 598   6 C      0.033  1.054  2.913  0.000    20.012     6.369
 599   6 C      0.277  1.045  2.678  0.000    22.317     7.736
 600   8 O     -0.517  1.768  4.749  0.000    24.155     6.589
 601   6 C     -0.077  1.059  3.018  0.000    21.964     6.671
 602   6 C     -0.007  1.052  2.955  0.000    20.661     6.465
 603   6 C     -0.109  1.041  3.069  0.000    22.641     6.783
 604   6 C     -0.119  1.045  3.074  0.000    22.823     6.810
 605   1 H      0.244  0.756  0.000  0.000     0.907     1.492
 606   1 H      0.069  0.931  0.000  0.000     2.093     2.263
 607   1 H      0.070  0.930  0.000  0.000     2.083     2.257
 608   1 H      0.048  0.952  0.000  0.000     2.344     2.394
 609   1 H      0.014  0.986  0.000  0.000     2.827     2.629
 610   1 H      0.040  0.960  0.000  0.000     2.443     2.444
 611   1 H      0.027  0.973  0.000  0.000     2.623     2.532
 612   1 H      0.050  0.950  0.000  0.000     2.318     2.381
 613   1 H      0.047  0.953  0.000  0.000     2.362     2.403
 614   1 H      0.057  0.943  0.000  0.000     2.238     2.340
 615   1 H      0.042  0.958  0.000  0.000     2.417     2.431
 616   7 N     -0.166  1.241  3.926  0.000    24.603     7.367
 617   6 C     -0.026  1.050  2.976  0.000    21.108     6.552
 618   6 C      0.285  1.035  2.680  0.000    22.163     7.709
 619   8 O     -0.519  1.763  4.755  0.000    24.209     6.597
 620   1 H      0.216  0.784  0.000  0.000     1.030     1.590
 621   1 H      0.085  0.915  0.000  0.000     1.933     2.174
 622   1 H      0.086  0.914  0.000  0.000     1.914     2.163
 623   7 N     -0.179  1.247  3.932  0.000    24.869     7.407
 624   6 C      0.027  1.051  2.922  0.000    20.113     6.385
 625   6 C      0.291  1.024  2.685  0.000    22.063     7.693
 626   8 O     -0.510  1.741  4.769  0.000    24.005     6.569
 627   6 C     -0.127  1.043  3.084  0.000    22.982     6.834
 628   1 H      0.222  0.778  0.000  0.000     0.999     1.566
 629   1 H      0.060  0.940  0.000  0.000     2.203     2.321
 630   1 H      0.062  0.938  0.000  0.000     2.176     2.307
 631   1 H      0.064  0.936  0.000  0.000     2.153     2.295
 632   1 H      0.087  0.913  0.000  0.000     1.911     2.162
 633   7 N     -0.171  1.240  3.931  0.000    24.702     7.382
 634   6 C      0.036  1.055  2.909  0.000    19.970     6.362
 635   6 C      0.211  1.090  2.700  0.000    23.537     7.945
 636   8 O     -0.374  1.759  4.615  0.000    21.176     6.170
 637   6 C     -0.071  1.054  3.017  0.000    21.839     6.651
 638   6 C     -0.015  1.052  2.962  0.000    20.800     6.487
 639   6 C     -0.113  1.044  3.069  0.000    22.711     6.795
 640   6 C     -0.120  1.043  3.077  0.000    22.844     6.814
 641   1 H      0.225  0.775  0.000  0.000     0.987     1.556
 642   1 H      0.081  0.919  0.000  0.000     1.965     2.192
 643   1 H      0.051  0.949  0.000  0.000     2.309     2.376
 644   1 H      0.058  0.942  0.000  0.000     2.219     2.329
 645   1 H      0.042  0.958  0.000  0.000     2.421     2.433
 646   1 H      0.060  0.940  0.000  0.000     2.202     2.320
 647   1 H      0.035  0.965  0.000  0.000     2.514     2.479
 648   1 H      0.049  0.951  0.000  0.000     2.337     2.391
 649   1 H      0.057  0.943  0.000  0.000     2.238     2.339
 650   1 H      0.046  0.954  0.000  0.000     2.373     2.409
 651   1 H      0.034  0.966  0.000  0.000     2.532     2.488
 652   8 O     -0.611  1.656  4.955  0.000    25.434     6.807
 653   1 H      0.319  0.681  0.000  0.000     0.665     1.280
 654   1 H      0.285  0.715  0.000  0.000     0.767     1.375
 655   8 O     -0.607  1.653  4.955  0.000    25.359     6.797
 656   1 H      0.311  0.689  0.000  0.000     0.688     1.303
 657   1 H      0.328  0.672  0.000  0.000     0.641     1.257
 658   8 O     -0.640  1.682  4.959  0.000    26.169     6.905
 659   1 H      0.327  0.673  0.000  0.000     0.645     1.261
 660   1 H      0.341  0.659  0.000  0.000     0.608     1.224
 661   8 O     -0.643  1.673  4.970  0.000    26.222     6.912
 662   1 H      0.331  0.669  0.000  0.000     0.635     1.251
 663   1 H      0.340  0.660  0.000  0.000     0.611     1.227
 664   7 N     -0.408  1.330  4.078  0.000    30.592     8.215
 665   6 C      0.028  1.057  2.915  0.000    20.111     6.388
 666   6 C      0.264  1.047  2.689  0.000    22.557     7.778
 667   8 O     -0.500  1.753  4.747  0.000    23.776     6.538
 668   6 C     -0.125  1.046  3.079  0.000    22.944     6.829
 669   1 H      0.170  0.830  0.000  0.000     1.275     1.769
 670   1 H      0.042  0.958  0.000  0.000     2.423     2.434
 671   1 H      0.058  0.942  0.000  0.000     2.217     2.328
 672   1 H      0.063  0.937  0.000  0.000     2.167     2.302
 673   1 H      0.058  0.942  0.000  0.000     2.228     2.334
 674   7 N     -0.160  1.239  3.921  0.000    24.451     7.344
 675   6 C      0.027  1.049  2.924  0.000    20.113     6.384
 676   6 C      0.194  1.082  2.724  0.000    23.857     7.999
 677   8 O     -0.364  1.767  4.596  0.000    20.966     6.139
 678   6 C     -0.079  1.053  3.025  0.000    21.948     6.661
 679   6 C     -0.016  1.058  2.958  0.000    20.859     6.502
 680  16 S     -0.195  1.916  4.227  0.052   149.362    20.570
 681   6 C     -0.074  1.059  3.016  0.000    21.995     6.690
 682   1 H      0.226  0.774  0.000  0.000     0.984     1.554
 683   1 H      0.085  0.915  0.000  0.000     1.927     2.171
 684   1 H      0.071  0.929  0.000  0.000     2.073     2.252
 685   1 H      0.058  0.942  0.000  0.000     2.219     2.330
 686   1 H      0.062  0.938  0.000  0.000     2.177     2.308
 687   1 H      0.064  0.936  0.000  0.000     2.149     2.293
 688   1 H      0.071  0.929  0.000  0.000     2.080     2.255
 689   1 H      0.066  0.934  0.000  0.000     2.135     2.285
 690   1 H      0.055  0.945  0.000  0.000     2.260     2.351
 691   7 N     -0.381  1.329  4.052  0.000    29.854     8.115
 692   6 C     -0.021  1.047  2.974  0.000    21.032     6.545
 693   6 C      0.187  1.084  2.729  0.000    23.992     8.022
 694   8 O     -0.371  1.742  4.630  0.000    21.115     6.161
 695   1 H      0.143  0.857  0.000  0.000     1.452     1.888
 696   1 H      0.106  0.894  0.000  0.000     1.731     2.058
 697   1 H      0.088  0.912  0.000  0.000     1.898     2.155
 698   7 N     -0.403  1.326  4.077  0.000    30.449     8.195
 699   6 C      0.035  1.048  2.917  0.000    20.002     6.371
 700   6 C      0.202  1.088  2.710  0.000    23.698     7.973
 701   8 O     -0.380  1.766  4.614  0.000    21.282     6.185
 702   6 C      0.067  1.042  2.891  0.000    19.650     6.347
 703   8 O     -0.491  1.722  4.769  0.000    22.693     6.431
 704   1 H      0.194  0.806  0.000  0.000     1.139     1.672
 705   1 H      0.071  0.929  0.000  0.000     2.077     2.254
 706   1 H      0.040  0.960  0.000  0.000     2.445     2.445
 707   1 H      0.048  0.952  0.000  0.000     2.341     2.393
 708   1 H      0.347  0.653  0.000  0.000     0.596     1.213
 709   1 H      0.175  0.825  0.000  0.000     1.242     1.745
 710   1 H      0.082  0.918  0.000  0.000     1.960     2.189
 711   1 H      0.177  0.823  0.000  0.000     1.228     1.736
 712   1 H      0.076  0.924  0.000  0.000     2.024     2.225
 713   1 H      0.178  0.822  0.000  0.000     1.224     1.733
 714   1 H      0.087  0.913  0.000  0.000     1.907     2.159
 715   1 H      0.182  0.818  0.000  0.000     1.203     1.718
 716   1 H      0.072  0.928  0.000  0.000     2.061     2.245
 717   1 H      0.178  0.822  0.000  0.000     1.227     1.735
 718   1 H      0.064  0.936  0.000  0.000     2.148     2.292
 719   1 H      0.183  0.817  0.000  0.000     1.197     1.714
 720   1 H      0.064  0.936  0.000  0.000     2.148     2.292
 721   1 H      0.181  0.819  0.000  0.000     1.208     1.722
 722   1 H      0.080  0.920  0.000  0.000     1.980     2.200
 723   1 H      0.181  0.819  0.000  0.000     1.206     1.720
 724   1 H      0.076  0.924  0.000  0.000     2.019     2.222
 725   1 H      0.173  0.827  0.000  0.000     1.256     1.755
 726   1 H      0.070  0.930  0.000  0.000     2.088     2.259
 727   1 H      0.186  0.814  0.000  0.000     1.181     1.702
 728   1 H      0.073  0.927  0.000  0.000     2.048     2.238
 729   1 H      0.194  0.806  0.000  0.000     1.136     1.670
 730   1 H      0.065  0.935  0.000  0.000     2.143     2.289
 731   1 H      0.183  0.817  0.000  0.000     1.198     1.715
 732   1 H      0.082  0.918  0.000  0.000     1.953     2.185
 733   1 H      0.183  0.817  0.000  0.000     1.197     1.713
 734   1 H      0.061  0.939  0.000  0.000     2.187     2.313
 735   1 H      0.170  0.830  0.000  0.000     1.274     1.768
 736   1 H      0.085  0.915  0.000  0.000     1.928     2.171

 Mol. C6AA /au·bohr⁶  :    4753382.046612
 Mol. C8AA /au·bohr⁸  :  106337659.124962
 Mol. α(0) /au        :       3262.566565

 
molecular dipole:
                 x           y           z       tot (Debye)
 q only:      350.514     243.323    1106.825
   full:      350.835     241.834    1106.214    3013.163
molecular quadrupole (traceless):
                xx          xy          yy          xz          yz          zz
 q only:  -173169.310   42722.458 -205448.332  195337.824  133407.783  378617.642
  q+dip:  -172676.367   42530.377 -205515.976  195448.597  132441.222  378192.342
   full:  -172675.639   42534.346 -205514.676  195446.591  132442.463  378190.314
speedup  1.97
cpu  time for grad   48.03 s
wall time for grad   24.42 s

SCC energy    :   -1100.5287939
rep           :      13.5386014
ES            :       3.3979038
AES           :      -0.0959097
AXC           :       0.3854189
disp          :      -0.9939055
XB            :       0.0000000
fix           :       0.0000000
Gborn         :       0.0000000
Gsasa         :       0.0000000
Ghb           :       0.0000000
Gshift        :       0.0000000
Gsolv         :      -1.0020411     -628.79
Etot ala COSMO:   -1100.5287939
grad norm     :       1.1254209
total E       :   -1086.8700244
atomizationE  :     197.4500998   123901.81
(atE without considering molecular charge,
 total energy contains solvation terms)
H-L gap (eV)  :          1.3783

------------------------------------------------------------------------
 * finished run on 2019/05/05 at 23:23:28.937     
------------------------------------------------------------------------
 total:
 * wall-time:     0 d,  0 h,  0 min, 26.217 sec
 *  cpu-time:     0 d,  0 h,  0 min, 50.746 sec
 * ratio c/w:     1.936 speedup
 SCF:
 * wall-time:     0 d,  0 h,  0 min, 25.476 sec
 *  cpu-time:     0 d,  0 h,  0 min, 49.833 sec
 * ratio c/w:     1.956 speedup

