      -----------------------------------------------------------      
     |                   =====================                   |     
     |                           x T B                           |     
     |                   =====================                   |     
     |                         S. Grimme                         |     
     |          Mulliken Center for Theoretical Chemistry        |     
     |                    University of Bonn                     |     
     |                 Version 6.0.1 (SAW181210)                 |     
      -----------------------------------------------------------      

   This program is distributed in the hope that it will be useful,
   but WITHOUT ANY WARRANTY; without even the implied warranty of
   MERCHANTABILITY or FITNESS FOR A PARTICULAR PURPOSE.
   
   FOR NON-COMMERCIAL, ACADEMIA USE ONLY.
   
   Cite this work as:
   S. Grimme, C. Bannwarth, P. Shushkov, J. Comput. Theory Chem., 2017,
   13, 1989-2009.
   C. Bannwarth, S. Ehlert and S. Grimme., ChemRxiv, 2018, preprint.
   http://doi.org/10.26434/chemrxiv.7246238.v1
   
   for sTDA-xTB:
   S. Grimme and C. Bannwarth, J. Chem. Phys., 2016, 145, 054103.
   
   in the mass-spec context:
   V. Asgeirsson, C. Bauer and S. Grimme, Chem. Sci., 2017, 8, 4879.
   
   if GBSA is used:
   P. Shushkov, F. März and S. Grimme, unpublished.
   
   for ANC optimizer:
   S. Grimme, unpublished.
   Rational Function algorithm used in ANCopt:
   F. Eckert, P. Pulay, H.-J. Werner, J. Comput. Chem., 1997, 18, 1473.
   
   with help from (in alphabetical order)
   C. Bannwarth, F. Bohle, G. Brandenburg, E. Caldeweyher, M. Checinski,
   S. Dohm, S. Ehlert, S. Ehrlich, F. März, H. Neugebauer, J. Pisarek,
   P. Pracht, P. Shushkov, and S. Spicher.
   
 * started run on 2019/05/11 at 23:08:32.961     
========================================================================
 # omp threads = 2
========================================================================
number of atoms            : 234
number of electrons        : 656
charge                     : 0
spin                       : .0
first test random number   : .5942

########################################################################
# WARNING! Please study the warnings concerning your input carefully
#  - Process number higher than OMP_NUM_THREADS, I hope you know what you are doing.
########################################################################

           ------------------------------------------------- 
          |                 G F N 2 - x T B                 |
          | Geometry, Frequencies, Noncovalent interactions |
          |            JCTC 2018 parametrisation            |
           ------------------------------------------------- 
 
      method parameters     
 k(s)        :  1.8500
 k(p)        :  2.2300
 k(d)        :  2.2300
 k(f)        :  2.0000
 kEN (H0ij)  : -2.0000
 D4 a1       :  0.5200
 D4 a2       :  5.0000
 D4 s6       :  1.0000
 D4 s8       :  2.7000
 D4 s9       :  5.0000
 alphaj      :  2.0000

 Solvent             : h2o
 Using internal parameter file: .param_gbsa2_h2o
 Gsolv ref. state (COSMO-RS): gsolv [1 M gas/solution]
 temperature (mdtemp)       :    298.150000000000     
 dielectric constant        :    80.2000000000000     
 rho                        :    1.00000000000000     
 mass                       :    18.0000000000000     
 surface tension            :    15.5689454083859     
 probe radius               :   0.975313790000000     
 vdW radii scaling          :    1.00000000000000     
 Gshift (Eh)                :   1.857443126794793E-003
 c1                         :    1.55243817000000     
 soset                      :   0.130326360000000     
 HB correction              :  T

            Z     q(EN)     CN     RAES       Cart. coordinates
     1  N   5.0   -0.22    3.21    1.96   -25.46430   141.40517    22.15997
     2  C   4.0    0.04    4.30    4.20   -26.29641   138.87607    22.71658
     3  C   4.0    0.15    3.38    3.07   -26.82486   138.37073    25.52974
     4  O   6.0   -0.29    1.23    1.80   -27.64244   136.30387    26.13743
     5  C   4.0    0.04    4.13    3.87   -24.83606   136.74228    21.49605
     6  O   6.0   -0.25    2.05    1.83   -26.50683   135.47153    19.81334
     7  H   1.0    0.08    1.02    1.43   -23.59161   141.81270    22.18457
     8  H   1.0    0.06    1.08    1.44   -28.20189   138.75444    21.88058
     9  H   1.0    0.04    1.01    1.43   -23.20425   137.51272    20.47163
    10  H   1.0    0.05    1.02    1.43   -24.15697   135.46352    22.97518
    11  H   1.0    0.12    1.02    1.43   -25.99261   133.72019    19.69322
    12  N   5.0   -0.14    3.43    2.04   -26.56791   140.30946    27.14516
    13  C   4.0    0.03    4.32    4.23   -27.92258   140.48276    29.54826
    14  C   4.0    0.15    3.52    3.12   -30.74193   140.59650    28.98590
    15  O   6.0   -0.30    1.35    1.80   -32.10058   138.71692    29.02431
    16  C   4.0   -0.07    4.13    3.86   -27.15858   142.77101    31.15636
    17  H   1.0    0.08    1.07    1.44   -25.50349   141.82280    26.66668
    18  H   1.0    0.06    1.05    1.44   -27.60817   138.72699    30.61495
    19  H   1.0    0.05    1.00    1.43   -28.52136   143.04744    32.66406
    20  H   1.0    0.05    1.00    1.43   -25.31640   142.41862    32.00117
    21  H   1.0    0.04    1.00    1.43   -27.00513   144.47871    30.02403
    22  N   5.0   -0.15    3.54    2.11   -31.62916   142.90064    28.51711
    23  C   4.0    0.04    4.39    4.37   -34.30356   143.33316    28.80743
    24  C   4.0    0.17    3.54    3.13   -35.76748   141.29783    27.39655
    25  O   6.0   -0.30    1.26    1.80   -37.65455   140.33737    28.33933
    26  C   4.0   -0.07    4.12    3.84   -35.03401   145.93097    27.86760
    27  H   1.0    0.07    1.07    1.44   -30.45612   144.40056    28.41565
    28  H   1.0    0.06    1.05    1.44   -34.81089   143.14514    30.81845
    29  H   1.0    0.05    1.00    1.43   -37.04936   146.21614    28.11942
    30  H   1.0    0.05    1.00    1.43   -34.02199   147.37445    28.92256
    31  H   1.0    0.05    1.00    1.43   -34.56656   146.10927    25.87325
    32  N   5.0   -0.14    3.49    2.07   -34.92619   140.80061    25.05942
    33  C   4.0    0.03    4.33    4.26   -36.10457   138.93668    23.39765
    34  C   4.0    0.17    3.48    3.11   -36.98370   136.60787    24.87314
    35  O   6.0   -0.31    1.27    1.80   -39.16383   135.81505    24.85341
    36  C   4.0   -0.07    4.14    3.88   -34.23851   138.04629    21.38482
    37  H   1.0    0.08    1.07    1.44   -33.28464   141.58230    24.45907
    38  H   1.0    0.05    1.05    1.44   -37.78302   139.77758    22.51385
    39  H   1.0    0.05    1.00    1.43   -35.13734   136.60722    20.22974
    40  H   1.0    0.05    1.00    1.43   -33.69997   139.62919    20.19141
    41  H   1.0    0.05    1.00    1.43   -32.55294   137.25898    22.24919
    42  N   5.0   -0.14    3.53    2.10   -35.06680   135.43529    26.02290
    43  C   4.0    0.04    4.36    4.30   -35.38044   133.18146    27.53808
    44  C   4.0    0.16    3.46    3.10   -37.38379   133.55411    29.59711
    45  O   6.0   -0.31    1.30    1.80   -39.27409   132.21052    29.59020
    46  C   4.0   -0.06    4.14    3.87   -32.84784   132.48440    28.71639
    47  H   1.0    0.11    1.10    1.44   -33.39875   136.34317    26.25056
    48  H   1.0    0.06    1.05    1.44   -36.07961   131.64625    26.32821
    49  H   1.0    0.05    1.00    1.43   -33.08211   130.85792    29.94882
    50  H   1.0    0.06    1.00    1.43   -31.50466   132.01045    27.23621
    51  H   1.0    0.07    1.00    1.43   -32.08322   134.04794    29.80110
    52  N   5.0   -0.14    3.50    2.08   -36.74943   135.35513    31.27449
    53  C   4.0    0.03    4.36    4.31   -38.23202   136.34051    33.36214
    54  C   4.0    0.15    3.45    3.10   -40.82304   137.33736    32.56702
    55  O   6.0   -0.32    1.28    1.80   -42.21617   138.30818    34.12644
    56  C   4.0   -0.03    4.28    4.16   -36.74185   138.43821    34.65665
    57  C   4.0   -0.02    4.11    3.82   -37.76246   139.31688    37.21032
    58  C   4.0    0.25    3.04    3.02   -36.26034   141.72584    38.33217
    59  O   6.0   -0.28    1.16    1.80   -34.81455   142.91326    36.87946
    60  O   6.0   -0.27    1.14    1.80   -36.64593   142.29219    40.59897
    61  H   1.0    0.10    1.10    1.44   -35.27644   136.47013    30.76588
    62  H   1.0    0.05    1.05    1.44   -38.58985   134.79617    34.70659
    63  H   1.0    0.06    1.03    1.43   -34.78631   137.81680    34.90736
    64  H   1.0    0.07    1.03    1.43   -36.70285   140.07245    33.39005
    65  H   1.0    0.07    1.03    1.43   -39.72828   139.89209    37.03915
    66  H   1.0    0.05    1.02    1.43   -37.65226   137.80377    38.60810
    67  N   5.0   -0.13    3.59    2.14   -41.55596   136.80327    30.19615
    68  C   4.0    0.04    4.58    4.64   -44.10175   137.31822    29.41974
    69  C   4.0    0.15    3.57    3.15   -45.26757   135.24156    27.82881
    70  O   6.0   -0.31    1.31    1.80   -47.56342   134.90830    27.89978
    71  C   4.0   -0.02    4.29    4.18   -44.28613   139.92670    28.25719
    72  C   4.0   -0.06    4.16    3.92   -46.77606   140.17781    26.84703
    73  C   4.0   -0.06    4.15    3.90   -43.97762   141.85651    30.37774
    74  H   1.0    0.12    1.11    1.45   -40.24639   136.72695    28.81554
    75  H   1.0    0.06    1.09    1.44   -45.23780   137.34924    31.15855
    76  H   1.0    0.06    1.06    1.44   -42.72222   140.14879    26.91679
    77  H   1.0    0.04    1.00    1.43   -47.02136   142.11130    26.19090
    78  H   1.0    0.06    1.01    1.43   -46.81570   138.93837    25.21033
    79  H   1.0    0.05    1.00    1.43   -48.35208   139.69007    28.06806
    80  H   1.0    0.04    1.00    1.43   -44.23571   143.75830    29.63496
    81  H   1.0    0.05    1.00    1.43   -45.34546   141.53763    31.87040
    82  H   1.0    0.07    1.01    1.43   -42.09192   141.75722    31.17534
    83  N   5.0   -0.14    3.52    2.09   -43.75411   133.70366    26.53214
    84  C   4.0    0.04    4.44    4.45   -44.82155   131.22700    26.02501
    85  C   4.0    0.16    3.43    3.09   -45.14886   129.82234    28.55740
    86  O   6.0   -0.30    1.26    1.80   -46.48057   127.94483    28.68387
    87  C   4.0   -0.03    4.15    3.89   -43.52539   129.66501    23.91258
    88  C   4.0   -0.03    4.12    3.84   -45.47911   128.64411    21.99170
    89  C   4.0    0.25    3.04    3.02   -44.50714   127.22910    19.52346
    90  O   6.0   -0.27    1.15    1.80   -42.89828   125.53116    19.80116
    91  O   6.0   -0.27    1.15    1.80   -45.52551   127.87793    17.49005
    92  H   1.0    0.12    1.09    1.44   -41.87832   133.98915    26.34140
    93  H   1.0    0.06    1.08    1.44   -46.77121   131.57678    25.39319
    94  H   1.0    0.06    1.03    1.43   -42.20873   130.91023    22.92390
    95  H   1.0    0.06    1.02    1.43   -42.44409   128.10748    24.71100
    96  H   1.0    0.06    1.02    1.43   -46.72302   127.30986    22.95854
    97  H   1.0    0.06    1.02    1.43   -46.63989   130.20845    21.30412
    98  N   5.0   -0.13    3.55    2.11   -44.12141   130.92527    30.60614
    99  C   4.0    0.04    4.42    4.41   -44.60469   129.91034    33.13196
   100  C   4.0    0.16    3.51    3.12   -47.36193   130.43845    33.72507
   101  O   6.0   -0.30    1.26    1.80   -48.89677   128.76696    34.11966
   102  C   4.0   -0.04    4.25    4.11   -43.00250   131.13864    35.24816
   103  C   4.0   -0.03    4.13    3.86   -40.67630   129.60154    36.01456
   104  C   4.0    0.25    3.07    3.02   -41.32944   127.15287    37.59393
   105  O   6.0   -0.27    1.16    1.80   -39.97830   126.78510    39.49810
   106  O   6.0   -0.29    1.17    1.80   -43.08419   125.77996    36.82360
   107  H   1.0    0.11    1.13    1.45   -42.53531   131.96939    30.37048
   108  H   1.0    0.08    1.06    1.44   -44.33083   127.85597    33.17577
   109  H   1.0    0.05    1.03    1.43   -42.42258   133.02829    34.65296
   110  H   1.0    0.05    1.04    1.43   -44.18047   131.33479    36.93332
   111  H   1.0    0.06    1.02    1.43   -39.62850   129.00532    34.33456
   112  H   1.0    0.05    1.02    1.43   -39.41630   130.73077    37.19256
   113  N   5.0   -0.14    3.54    2.11   -47.90283   132.91730    33.80220
   114  C   4.0    0.04    4.47    4.49   -50.31122   133.81685    34.69526
   115  C   4.0    0.16    3.57    3.15   -52.33891   132.58072    33.10582
   116  O   6.0   -0.31    1.31    1.80   -54.03551   131.29381    34.02538
   117  C   4.0   -0.05    4.29    4.19   -50.53720   136.67145    34.60730
   118  C   4.0   -0.04    4.22    4.04   -52.15080   137.47148    36.83235
   119  C   4.0   -0.01    4.20    4.00   -51.82546   140.26635    37.41612
   120  N   5.0   -0.14    3.39    2.02   -52.26544   140.78255    40.08443
   121  C   4.0    0.10    3.33    3.06   -54.18046   142.02949    41.13156
   122  N   5.0   -0.18    3.25    1.97   -56.14768   142.82082    39.79151
   123  N   5.0   -0.18    3.24    1.96   -54.18003   142.41339    43.63363
   124  H   1.0    0.08    1.07    1.44   -46.50124   134.18400    33.55783
   125  H   1.0    0.05    1.06    1.44   -50.58705   133.12725    36.63596
   126  H   1.0    0.04    1.03    1.43   -48.64963   137.48994    34.80201
   127  H   1.0    0.05    1.03    1.43   -51.33427   137.30326    32.81629
   128  H   1.0    0.05    1.02    1.43   -54.12413   136.98290    36.51899
   129  H   1.0    0.05    1.04    1.43   -51.50904   136.42609    38.49393
   130  H   1.0    0.04    1.03    1.43   -49.86427   140.79950    37.03686
   131  H   1.0    0.04    1.03    1.43   -53.02999   141.44987    36.24587
   132  H   1.0    0.08    1.07    1.44   -50.87605   140.16956    41.24563
   133  H   1.0    0.08    1.03    1.43   -56.29791   142.47556    37.92625
   134  H   1.0    0.09    1.03    1.43   -57.49813   143.91425    40.56885
   135  H   1.0    0.09    1.03    1.43   -52.61381   142.08274    44.66314
   136  H   1.0    0.09    1.03    1.43   -55.47556   143.58717    44.39216
   137  N   5.0   -0.13    3.58    2.14   -52.19595   132.91387    30.61863
   138  C   4.0    0.05    4.55    4.61   -54.35536   132.06269    29.18260
   139  C   4.0    0.15    3.34    3.06   -54.39513   129.22123    28.56209
   140  O   6.0   -0.30    1.23    1.80   -55.97878   128.35301    27.12691
   141  C   4.0    0.06    4.24    4.07   -54.72350   133.89513    26.98861
   142  O   6.0   -0.25    2.17    1.85   -54.42712   136.29527    28.14078
   143  C   4.0   -0.06    4.07    3.74   -57.29476   133.61095    25.71258
   144  H   1.0    0.11    1.08    1.44   -50.81572   133.91564    29.75199
   145  H   1.0    0.07    1.08    1.44   -56.00201   132.29693    30.44389
   146  H   1.0    0.05    1.03    1.43   -53.19685   133.58390    25.60483
   147  H   1.0    0.12    1.03    1.43   -54.86166   137.57778    26.91621
   148  H   1.0    0.05    1.00    1.43   -57.34338   134.72306    23.98661
   149  H   1.0    0.07    1.01    1.43   -57.62403   131.64225    25.24459
   150  H   1.0    0.05    1.00    1.43   -58.77965   134.26070    26.97082
   151  N   5.0   -0.13    3.50    2.08   -52.77546   127.78634    29.89305
   152  C   4.0    0.04    4.34    4.28   -52.76640   125.03527    30.04295
   153  C   4.0    0.14    3.43    3.09   -54.11683   124.07499    32.42481
   154  O   6.0   -0.33    1.27    1.80   -54.60448   121.80597    32.64612
   155  C   4.0   -0.03    4.26    4.12   -50.00831   124.08324    30.05906
   156  C   4.0   -0.04    4.14    3.87   -49.61047   121.20705    30.12774
   157  C   4.0   -0.01    4.16    3.92   -49.68773   119.91681    27.50721
   158  N   5.0   -0.14    3.36    2.01   -47.98022   117.73897    27.32664
   159  C   4.0    0.10    3.32    3.06   -45.64506   117.70570    26.36421
   160  N   5.0   -0.18    3.25    1.97   -44.43988   119.84570    25.80585
   161  N   5.0   -0.18    3.23    1.96   -44.43268   115.50534    26.06492
   162  H   1.0    0.11    1.10    1.44   -51.38388   128.62485    30.89932
   163  H   1.0    0.06    1.05    1.44   -53.79443   124.30459    28.40164
   164  H   1.0    0.07    1.04    1.44   -49.06676   124.88433    28.41691
   165  H   1.0    0.07    1.03    1.43   -49.10485   124.95070    31.69759
   166  H   1.0    0.05    1.03    1.43   -47.72888   120.89692    30.90607
   167  H   1.0    0.06    1.04    1.43   -51.03587   120.35143    31.33843
   168  H   1.0    0.04    1.02    1.43   -51.58618   119.22582    27.11395
   169  H   1.0    0.05    1.03    1.43   -49.20427   121.28144    26.03690
   170  H   1.0    0.08    1.07    1.44   -48.73858   116.06186    27.83568
   171  H   1.0    0.09    1.03    1.43   -45.28233   121.53458    26.06299
   172  H   1.0    0.10    1.03    1.43   -42.83331   119.85958    24.78994
   173  H   1.0    0.09    1.03    1.43   -45.37601   113.85605    26.18124
   174  H   1.0    0.09    1.03    1.43   -42.75684   115.49249    25.16256
   175  N   5.0   -0.14    3.47    2.06   -54.67228   125.75947    34.23358
   176  C   4.0    0.04    4.34    4.28   -56.37564   125.03245    36.24870
   177  C   4.0    0.08    3.24    3.04   -59.08366   125.52957    35.33233
   178  O   6.0   -0.28    1.14    1.80   -60.80719   124.08220    35.88696
   179  C   4.0   -0.04    4.18    3.97   -55.65535   126.02096    38.87553
   180  C   4.0   -0.04    4.16    3.92   -52.89879   125.50269    39.62508
   181  C   4.0   -0.05    4.14    3.87   -51.83698   122.85976    38.98339
   182  C   4.0   -0.02    4.12    3.85   -49.29494   123.13405    37.61091
   183  N   5.0   -0.12    3.99    2.84   -48.17847   120.65438    36.81204
   184  H   1.0    0.11    1.09    1.44   -54.09146   127.58546    34.13935
   185  H   1.0    0.06    1.09    1.44   -56.31842   122.95780    36.33900
   186  H   1.0    0.05    1.03    1.43   -55.96054   128.05638    38.95578
   187  H   1.0    0.05    1.03    1.43   -56.94484   125.15514    40.22972
   188  H   1.0    0.06    1.04    1.43   -51.71630   126.90449    38.68221
   189  H   1.0    0.04    1.03    1.43   -52.73588   125.83360    41.64970
   190  H   1.0    0.05    1.03    1.43   -51.59531   121.76904    40.71056
   191  H   1.0    0.05    1.03    1.43   -53.12596   121.82425    37.76262
   192  H   1.0    0.06    1.02    1.43   -49.52996   124.30798    35.93428
   193  H   1.0    0.06    1.02    1.43   -47.92564   124.07273    38.83168
   194  H   1.0    0.07    1.02    1.43   -46.38809   121.00204    36.12882
   195  H   1.0    0.06    1.02    1.43   -48.03358   119.46489    38.34962
   196  H   1.0    0.06    1.02    1.43   -49.27637   119.79678    35.44888
   197  N   5.0   -0.18    3.25    1.97   -60.67274   123.33409    30.55275
   198  C   4.0    0.04    4.35    4.29   -61.21915   120.73924    30.01263
   199  C   4.0    0.16    3.41    3.08   -61.74067   119.24106    32.45664
   200  O   6.0   -0.26    1.24    1.80   -63.86071   118.33498    32.70339
   201  C   4.0   -0.05    4.27    4.13   -59.14213   119.49186    28.46232
   202  C   4.0   -0.03    4.24    4.07   -59.94308   116.79309    27.76275
   203  C   4.0    0.16    3.23    3.04   -62.37518   116.74744    26.19781
   204  O   6.0   -0.26    1.19    1.80   -64.39064   115.96325    27.00086
   205  N   5.0   -0.18    3.19    1.95   -62.11639   117.69607    23.84703
   206  H   1.0    0.10    1.05    1.44   -59.00378   123.67560    31.40362
   207  H   1.0    0.07    1.07    1.44   -63.00106   120.70176    28.95768
   208  H   1.0    0.05    1.03    1.43   -58.83794   120.61648    26.76167
   209  H   1.0    0.05    1.03    1.43   -57.39264   119.45119    29.55318
   210  H   1.0    0.04    1.03    1.43   -58.45617   115.88696    26.66217
   211  H   1.0    0.06    1.03    1.43   -60.27477   115.67848    29.46300
   212  H   1.0    0.08    1.03    1.43   -60.38699   118.03727    23.13258
   213  H   1.0    0.10    1.03    1.43   -63.57344   117.56069    22.62947
   214  N   5.0   -0.13    3.37    2.01   -59.91988   118.98228    34.22158
   215  C   4.0    0.04    4.20    4.00   -60.24614   117.34676    36.45669
   216  C   4.0    0.11    3.15    3.03   -62.67128   118.00710    38.03739
   217  O   6.0   -0.26    1.11    1.80   -63.42702   116.61105    39.72332
   218  C   4.0   -0.03    4.15    3.89   -57.70570   116.89587    37.90804
   219  C   4.0   -0.03    4.15    3.90   -57.23747   118.26510    40.44528
   220  C   4.0    0.15    3.18    3.03   -55.19077   117.08536    42.14364
   221  O   6.0   -0.28    1.20    1.80   -54.81755   114.82193    42.38566
   222  N   5.0   -0.19    3.18    1.95   -53.69714   118.76902    43.36626
   223  H   1.0    0.09    1.06    1.44   -58.19395   119.75982    33.92624
   224  H   1.0    0.06    1.06    1.44   -60.80931   115.48725    35.70303
   225  H   1.0    0.06    1.03    1.43   -57.61055   114.87831    38.32596
   226  H   1.0    0.05    1.03    1.43   -56.17595   117.33982    36.60258
   227  H   1.0    0.04    1.03    1.43   -56.77360   120.24521    40.15605
   228  H   1.0    0.06    1.03    1.43   -58.97588   118.15591    41.56084
   229  H   1.0    0.08    1.02    1.43   -54.30228   120.52011    43.85662
   230  H   1.0    0.10    1.04    1.43   -52.52750   117.99871    44.66395
   231  H   1.0    0.10    1.08    1.44   -25.96356   141.83493    20.59198
   232  H   1.0    0.06    1.05    1.44   -59.45825   127.04738    34.27073
   233  H   1.0    0.10    1.08    1.44   -60.65432   124.22396    29.10349
   234  H   1.0    0.08    1.04    1.43   -63.63160   119.59398    37.67594

  Z AO/shell   Hii/eV     exponent
  1     Wed Apr 25 08:07:45 CEST 2018   EN: 2.200 GM2: 0.406  GM3: 0.0800  RAES: 1.40
     1s    -10.707211    1.230000
  6     Wed Apr 25 08:07:45 CEST 2018   EN: 2.550 GM2: 0.538  GM3: 0.1500  RAES: 3.00
     2s    -13.970922    2.096432
     2p    -10.063292    1.800000
  7     Wed Apr 25 08:07:45 CEST 2018   EN: 3.040 GM2: 0.461  GM3:-0.0640  RAES: 1.90
     2s    -16.686243    2.339881
     2p    -12.523956    2.014332
  8     Wed Apr 25 08:07:45 CEST 2018   EN: 3.440 GM2: 0.452  GM3:-0.0517  RAES: 1.80
     2s    -20.229985    2.439742
     2p    -15.503117    2.137023
 no old-style atom pair restraining (fixing) potential

molecular fragmentation (1/2 indicates fragments):
111111111111111111111111111111111111111111111111111111111111111111111111
111111111111111111111111111111111111111111111111111111111111111111111111
111111111111111111111111111111111111111111111111111122222222222222222222
222222222222221122
# atoms in fragment 1/2:   198    36
 fragment masses (1/2) :     1401.54      258.28
CMA distance (Bohr)    :  22.421
constraining FC (au)   :  0.0500
           ------------------------------------------------- 
          |        Self-Consistent Charge Iterations        |
           ------------------------------------------------- 

 Ncao       : 582
 Nao        : 582
 Nshell     : 350
 Nel        : 656
 T(el)      :   500.0
 intcut     :    35.0
 scfconv/Eh :  0.100E-06
   qconv/e  :  0.100E-04
 intneglect :  0.100E-08
 broydamp   :      0.400
 iter      E             dE          RMSdq      gap      omega  full diag
   1   -378.9126527 -0.378913E+03  0.482E+00    3.51       0.0  T
   2   -379.9263771 -0.101372E+01  0.221E+00    2.32       1.0  T
   3   -379.9954389 -0.690618E-01  0.127E+00    2.51       1.0  T
   4   -380.0568332 -0.613943E-01  0.276E-01    1.74       1.0  T
   5   -380.0602718 -0.343861E-02  0.139E-01    1.94       1.0  T
   6   -380.0608784 -0.606632E-03  0.535E-02    1.94       1.0  T
   7   -380.0610230 -0.144594E-03  0.231E-02    2.00       1.0  T
   8   -380.0610362 -0.131990E-04  0.937E-03    2.01       1.0  T
   9   -380.0610415 -0.532638E-05  0.356E-03    2.02       1.8  T
  10   -380.0610418 -0.307739E-06  0.139E-03    2.02       4.7  T
  11   -380.0610420 -0.113175E-06  0.533E-04    2.02      12.3  T
  12   -380.0610420 -0.107307E-07  0.231E-04    2.02      28.3  T
  13   -380.0610420 -0.184343E-08  0.111E-04    2.02      58.7  T
  14   -380.0610420 -0.486921E-09  0.444E-05    2.02     147.4  T
  15   -380.0610420 -0.999307E-10  0.169E-05    2.02     387.1  T
speedup  1.68
cpu  time for SCC    2.87 s
wall time for SCC    1.71 s

   *** convergence criteria satisfied after 15 iterations ***

          eigenvalues
 #    :         316        317        318        319        320        321        322        323
 occ. :        2.000      2.000      2.000      2.000      2.000      2.000      2.000      2.000
 eps  :       -10.705    -10.693    -10.691    -10.683    -10.591    -10.568    -10.293    -10.236
 #    :         324        325        326        327        328        329        330        331
 occ. :        2.000      2.000      2.000      2.000      2.000      0.000      0.000      0.000
 eps  :       -10.224     -9.871     -9.853     -9.716     -9.695     -7.671     -7.526     -7.026
 #    :         332        333        334        335        336        337        338        339
 occ. :        0.000      0.000      0.000      0.000      0.000      0.000      0.000      0.000
 eps  :        -6.916     -6.723     -6.591     -6.544     -6.482     -6.431     -6.320     -6.296


   #   Z            q   n(s)   n(p)   n(d)      C6AA      α(0)
   1   7 N     -0.394  1.310  4.084  0.000    30.210     8.163
   2   6 C      0.020  1.059  2.921  0.000    20.261     6.412
   3   6 C      0.263  1.049  2.688  0.000    22.567     7.779
   4   8 O     -0.490  1.751  4.738  0.000    23.553     6.507
   5   6 C      0.076  1.038  2.886  0.000    19.531     6.332
   6   8 O     -0.491  1.731  4.760  0.000    22.707     6.433
   7   1 H      0.167  0.833  0.000  0.000     1.293     1.781
   8   1 H      0.078  0.922  0.000  0.000     2.005     2.214
   9   1 H      0.040  0.960  0.000  0.000     2.450     2.448
  10   1 H      0.028  0.972  0.000  0.000     2.614     2.529
  11   1 H      0.339  0.661  0.000  0.000     0.615     1.232
  12   7 N     -0.186  1.242  3.944  0.000    25.026     7.430
  13   6 C      0.019  1.061  2.919  0.000    20.257     6.410
  14   6 C      0.274  1.044  2.682  0.000    22.367     7.746
  15   8 O     -0.496  1.749  4.747  0.000    23.696     6.526
  16   6 C     -0.144  1.047  3.097  0.000    23.336     6.888
  17   1 H      0.231  0.769  0.000  0.000     0.961     1.535
  18   1 H      0.076  0.924  0.000  0.000     2.017     2.221
  19   1 H      0.064  0.936  0.000  0.000     2.148     2.292
  20   1 H      0.084  0.916  0.000  0.000     1.936     2.176
  21   1 H      0.080  0.920  0.000  0.000     1.983     2.202
  22   7 N     -0.184  1.249  3.935  0.000    24.994     7.425
  23   6 C      0.031  1.053  2.915  0.000    20.042     6.373
  24   6 C      0.288  1.038  2.673  0.000    22.114     7.701
  25   8 O     -0.510  1.754  4.756  0.000    24.006     6.569
  26   6 C     -0.138  1.043  3.095  0.000    23.204     6.868
  27   1 H      0.237  0.763  0.000  0.000     0.936     1.515
  28   1 H      0.055  0.945  0.000  0.000     2.259     2.350
  29   1 H      0.070  0.930  0.000  0.000     2.083     2.257
  30   1 H      0.083  0.917  0.000  0.000     1.944     2.181
  31   1 H      0.081  0.919  0.000  0.000     1.970     2.195
  32   7 N     -0.183  1.245  3.939  0.000    24.976     7.422
  33   6 C      0.021  1.062  2.918  0.000    20.233     6.405
  34   6 C      0.283  1.041  2.676  0.000    22.201     7.716
  35   8 O     -0.502  1.745  4.756  0.000    23.820     6.544
  36   6 C     -0.136  1.045  3.091  0.000    23.170     6.863
  37   1 H      0.218  0.782  0.000  0.000     1.020     1.582
  38   1 H      0.077  0.923  0.000  0.000     2.008     2.216
  39   1 H      0.073  0.927  0.000  0.000     2.056     2.242
  40   1 H      0.088  0.912  0.000  0.000     1.899     2.155
  41   1 H      0.064  0.936  0.000  0.000     2.155     2.295
  42   7 N     -0.179  1.251  3.928  0.000    24.878     7.408
  43   6 C      0.024  1.059  2.917  0.000    20.171     6.395
  44   6 C      0.274  1.044  2.682  0.000    22.362     7.743
  45   8 O     -0.480  1.738  4.742  0.000    23.344     6.478
  46   6 C     -0.136  1.044  3.092  0.000    23.170     6.863
  47   1 H      0.226  0.774  0.000  0.000     0.982     1.552
  48   1 H      0.075  0.925  0.000  0.000     2.026     2.226
  49   1 H      0.066  0.934  0.000  0.000     2.132     2.283
  50   1 H      0.087  0.913  0.000  0.000     1.908     2.160
  51   1 H      0.070  0.930  0.000  0.000     2.085     2.258
  52   7 N     -0.188  1.257  3.931  0.000    25.073     7.437
  53   6 C      0.032  1.059  2.908  0.000    20.044     6.376
  54   6 C      0.282  1.041  2.677  0.000    22.217     7.719
  55   8 O     -0.471  1.735  4.737  0.000    23.160     6.452
  56   6 C     -0.037  1.046  2.992  0.000    21.237     6.560
  57   6 C     -0.101  1.070  3.031  0.000    22.444     6.748
  58   6 C      0.364  1.037  2.599  0.000    20.833     7.469
  59   8 O     -0.639  1.770  4.868  0.000    27.086     6.978
  60   8 O     -0.640  1.775  4.864  0.000    27.111     6.981
  61   1 H      0.215  0.785  0.000  0.000     1.031     1.591
  62   1 H      0.060  0.940  0.000  0.000     2.195     2.317
  63   1 H      0.031  0.969  0.000  0.000     2.579     2.512
  64   1 H      0.035  0.965  0.000  0.000     2.515     2.480
  65   1 H      0.048  0.952  0.000  0.000     2.339     2.392
  66   1 H      0.014  0.986  0.000  0.000     2.822     2.627
  67   7 N     -0.192  1.250  3.942  0.000    25.165     7.450
  68   6 C      0.028  1.056  2.916  0.000    20.099     6.381
  69   6 C      0.271  1.044  2.685  0.000    22.424     7.756
  70   8 O     -0.487  1.729  4.758  0.000    23.496     6.499
  71   6 C     -0.009  1.055  2.954  0.000    20.695     6.470
  72   6 C     -0.120  1.040  3.080  0.000    22.855     6.816
  73   6 C     -0.111  1.040  3.071  0.000    22.668     6.787
  74   1 H      0.197  0.803  0.000  0.000     1.119     1.657
  75   1 H      0.076  0.924  0.000  0.000     2.019     2.222
  76   1 H      0.030  0.970  0.000  0.000     2.581     2.512
  77   1 H      0.061  0.939  0.000  0.000     2.189     2.314
  78   1 H      0.034  0.966  0.000  0.000     2.526     2.486
  79   1 H      0.066  0.934  0.000  0.000     2.135     2.285
  80   1 H      0.052  0.948  0.000  0.000     2.291     2.367
  81   1 H      0.057  0.943  0.000  0.000     2.229     2.335
  82   1 H      0.028  0.972  0.000  0.000     2.608     2.526
  83   7 N     -0.192  1.254  3.938  0.000    25.169     7.451
  84   6 C      0.023  1.069  2.908  0.000    20.177     6.393
  85   6 C      0.271  1.050  2.679  0.000    22.426     7.755
  86   8 O     -0.466  1.726  4.740  0.000    23.037     6.435
  87   6 C     -0.049  1.052  2.997  0.000    21.459     6.596
  88   6 C     -0.098  1.078  3.020  0.000    22.372     6.736
  89   6 C      0.368  1.029  2.602  0.000    20.755     7.455
  90   8 O     -0.631  1.765  4.866  0.000    26.901     6.954
  91   8 O     -0.648  1.780  4.868  0.000    27.322     7.008
  92   1 H      0.213  0.787  0.000  0.000     1.042     1.599
  93   1 H      0.083  0.917  0.000  0.000     1.945     2.181
  94   1 H      0.034  0.966  0.000  0.000     2.529     2.487
  95   1 H      0.045  0.955  0.000  0.000     2.383     2.414
  96   1 H      0.032  0.968  0.000  0.000     2.556     2.500
  97   1 H      0.014  0.986  0.000  0.000     2.819     2.626
  98   7 N     -0.221  1.271  3.950  0.000    25.820     7.547
  99   6 C      0.026  1.061  2.913  0.000    20.148     6.391
 100   6 C      0.273  1.044  2.683  0.000    22.382     7.748
 101   8 O     -0.449  1.719  4.730  0.000    22.684     6.386
 102   6 C     -0.048  1.053  2.995  0.000    21.437     6.592
 103   6 C     -0.092  1.066  3.026  0.000    22.255     6.718
 104   6 C      0.363  1.029  2.608  0.000    20.842     7.471
 105   8 O     -0.648  1.781  4.867  0.000    27.324     7.008
 106   8 O     -0.603  1.747  4.857  0.000    26.197     6.862
 107   1 H      0.216  0.784  0.000  0.000     1.027     1.587
 108   1 H      0.092  0.908  0.000  0.000     1.860     2.133
 109   1 H      0.017  0.983  0.000  0.000     2.776     2.606
 110   1 H      0.043  0.957  0.000  0.000     2.412     2.429
 111   1 H      0.013  0.987  0.000  0.000     2.848     2.639
 112   1 H      0.005  0.995  0.000  0.000     2.970     2.695
 113   7 N     -0.185  1.245  3.940  0.000    25.017     7.429
 114   6 C      0.017  1.060  2.923  0.000    20.280     6.411
 115   6 C      0.274  1.039  2.687  0.000    22.367     7.747
 116   8 O     -0.474  1.727  4.746  0.000    23.211     6.459
 117   6 C     -0.081  1.054  3.027  0.000    22.038     6.682
 118   6 C     -0.087  1.055  3.032  0.000    22.148     6.699
 119   6 C     -0.026  1.054  2.972  0.000    21.122     6.558
 120   7 N     -0.140  1.208  3.932  0.000    24.038     7.282
 121   6 C      0.234  1.018  2.747  0.000    23.090     7.867
 122   7 N     -0.241  1.223  4.018  0.000    26.302     7.617
 123   7 N     -0.262  1.244  4.018  0.000    26.787     7.687
 124   1 H      0.182  0.818  0.000  0.000     1.200     1.716
 125   1 H      0.088  0.912  0.000  0.000     1.902     2.157
 126   1 H      0.055  0.945  0.000  0.000     2.259     2.351
 127   1 H      0.073  0.927  0.000  0.000     2.054     2.241
 128   1 H      0.083  0.917  0.000  0.000     1.945     2.181
 129   1 H      0.074  0.926  0.000  0.000     2.040     2.234
 130   1 H      0.079  0.921  0.000  0.000     1.991     2.206
 131   1 H      0.094  0.906  0.000  0.000     1.844     2.124
 132   1 H      0.230  0.770  0.000  0.000     0.967     1.541
 133   1 H      0.246  0.754  0.000  0.000     0.899     1.485
 134   1 H      0.258  0.742  0.000  0.000     0.852     1.446
 135   1 H      0.244  0.756  0.000  0.000     0.908     1.493
 136   1 H      0.257  0.743  0.000  0.000     0.858     1.451
 137   7 N     -0.170  1.242  3.927  0.000    24.671     7.377
 138   6 C      0.014  1.065  2.921  0.000    20.329     6.417
 139   6 C      0.267  1.046  2.687  0.000    22.494     7.766
 140   8 O     -0.484  1.742  4.742  0.000    23.439     6.491
 141   6 C      0.120  1.043  2.836  0.000    18.706     6.174
 142   8 O     -0.480  1.722  4.758  0.000    22.471     6.399
 143   6 C     -0.143  1.045  3.098  0.000    23.315     6.886
 144   1 H      0.216  0.784  0.000  0.000     1.029     1.589
 145   1 H      0.103  0.897  0.000  0.000     1.758     2.074
 146   1 H      0.009  0.991  0.000  0.000     2.913     2.669
 147   1 H      0.340  0.660  0.000  0.000     0.612     1.229
 148   1 H      0.053  0.947  0.000  0.000     2.288     2.365
 149   1 H      0.072  0.928  0.000  0.000     2.063     2.246
 150   1 H      0.068  0.932  0.000  0.000     2.108     2.271
 151   7 N     -0.180  1.240  3.940  0.000    24.895     7.410
 152   6 C      0.013  1.065  2.921  0.000    20.368     6.428
 153   6 C      0.255  1.052  2.693  0.000    22.718     7.806
 154   8 O     -0.477  1.728  4.749  0.000    23.275     6.468
 155   6 C     -0.088  1.059  3.029  0.000    22.175     6.704
 156   6 C     -0.101  1.060  3.041  0.000    22.431     6.744
 157   6 C     -0.029  1.058  2.971  0.000    21.190     6.570
 158   7 N     -0.143  1.213  3.930  0.000    24.098     7.291
 159   6 C      0.233  1.021  2.746  0.000    23.118     7.872
 160   7 N     -0.235  1.223  4.013  0.000    26.166     7.597
 161   7 N     -0.258  1.242  4.016  0.000    26.705     7.675
 162   1 H      0.198  0.802  0.000  0.000     1.116     1.655
 163   1 H      0.087  0.913  0.000  0.000     1.909     2.161
 164   1 H      0.070  0.930  0.000  0.000     2.081     2.256
 165   1 H      0.073  0.927  0.000  0.000     2.049     2.238
 166   1 H      0.083  0.917  0.000  0.000     1.946     2.181
 167   1 H      0.102  0.898  0.000  0.000     1.764     2.077
 168   1 H      0.096  0.904  0.000  0.000     1.819     2.109
 169   1 H      0.067  0.933  0.000  0.000     2.123     2.278
 170   1 H      0.253  0.747  0.000  0.000     0.872     1.463
 171   1 H      0.224  0.776  0.000  0.000     0.992     1.561
 172   1 H      0.236  0.764  0.000  0.000     0.941     1.519
 173   1 H      0.261  0.739  0.000  0.000     0.843     1.439
 174   1 H      0.247  0.753  0.000  0.000     0.893     1.480
 175   7 N     -0.162  1.240  3.922  0.000    24.501     7.352
 176   6 C      0.012  1.063  2.925  0.000    20.381     6.428
 177   6 C      0.192  1.087  2.721  0.000    23.892     8.005
 178   8 O     -0.354  1.761  4.593  0.000    20.790     6.113
 179   6 C     -0.076  1.055  3.021  0.000    21.951     6.671
 180   6 C     -0.081  1.053  3.028  0.000    22.038     6.684
 181   6 C     -0.104  1.057  3.047  0.000    22.490     6.752
 182   6 C     -0.048  1.062  2.986  0.000    21.527     6.623
 183   7 N     -0.141  1.229  3.912  0.000    24.042     7.282
 184   1 H      0.219  0.781  0.000  0.000     1.013     1.577
 185   1 H      0.110  0.890  0.000  0.000     1.700     2.039
 186   1 H      0.070  0.930  0.000  0.000     2.086     2.259
 187   1 H      0.074  0.926  0.000  0.000     2.038     2.233
 188   1 H      0.060  0.940  0.000  0.000     2.202     2.321
 189   1 H      0.075  0.925  0.000  0.000     2.033     2.230
 190   1 H      0.090  0.910  0.000  0.000     1.875     2.141
 191   1 H      0.084  0.916  0.000  0.000     1.939     2.178
 192   1 H      0.106  0.894  0.000  0.000     1.735     2.060
 193   1 H      0.104  0.896  0.000  0.000     1.747     2.067
 194   1 H      0.286  0.714  0.000  0.000     0.756     1.362
 195   1 H      0.304  0.696  0.000  0.000     0.701     1.312
 196   1 H      0.294  0.706  0.000  0.000     0.732     1.341
 197   7 N     -0.384  1.319  4.066  0.000    29.943     8.127
 198   6 C      0.038  1.055  2.907  0.000    19.947     6.361
 199   6 C      0.274  1.050  2.676  0.000    22.365     7.744
 200   8 O     -0.510  1.763  4.746  0.000    23.996     6.568
 201   6 C     -0.083  1.061  3.022  0.000    22.080     6.689
 202   6 C     -0.103  1.061  3.042  0.000    22.456     6.746
 203   6 C      0.292  1.040  2.669  0.000    22.056     7.690
 204   8 O     -0.507  1.765  4.742  0.000    23.937     6.560
 205   7 N     -0.296  1.273  4.023  0.000    27.633     7.807
 206   1 H      0.145  0.855  0.000  0.000     1.434     1.876
 207   1 H      0.043  0.957  0.000  0.000     2.403     2.424
 208   1 H      0.053  0.947  0.000  0.000     2.277     2.360
 209   1 H      0.075  0.925  0.000  0.000     2.035     2.231
 210   1 H      0.078  0.922  0.000  0.000     2.000     2.212
 211   1 H      0.056  0.944  0.000  0.000     2.245     2.343
 212   1 H      0.230  0.770  0.000  0.000     0.967     1.540
 213   1 H      0.221  0.779  0.000  0.000     1.005     1.570
 214   7 N     -0.172  1.247  3.926  0.000    24.733     7.386
 215   6 C      0.024  1.073  2.903  0.000    20.206     6.405
 216   6 C      0.215  1.088  2.697  0.000    23.457     7.931
 217   8 O     -0.375  1.757  4.618  0.000    21.198     6.173
 218   6 C     -0.071  1.057  3.014  0.000    21.860     6.658
 219   6 C     -0.106  1.059  3.046  0.000    22.524     6.757
 220   6 C      0.290  1.043  2.667  0.000    22.075     7.693
 221   8 O     -0.488  1.759  4.729  0.000    23.526     6.503
 222   7 N     -0.291  1.286  4.005  0.000    27.500     7.788
 223   1 H      0.222  0.778  0.000  0.000     1.001     1.567
 224   1 H      0.090  0.910  0.000  0.000     1.881     2.145
 225   1 H      0.083  0.917  0.000  0.000     1.950     2.184
 226   1 H      0.092  0.908  0.000  0.000     1.855     2.130
 227   1 H      0.083  0.917  0.000  0.000     1.948     2.183
 228   1 H      0.071  0.929  0.000  0.000     2.076     2.253
 229   1 H      0.224  0.776  0.000  0.000     0.991     1.559
 230   1 H      0.222  0.778  0.000  0.000     1.001     1.567
 231   1 H      0.196  0.804  0.000  0.000     1.127     1.663
 232   1 H      0.073  0.927  0.000  0.000     2.054     2.241
 233   1 H      0.184  0.816  0.000  0.000     1.193     1.711
 234   1 H      0.077  0.923  0.000  0.000     2.009     2.216

 Mol. C6AA /au·bohr⁶  :     504109.778932
 Mol. C8AA /au·bohr⁸  :   11110571.731116
 Mol. α(0) /au        :       1054.985054

 
molecular dipole:
                 x           y           z       tot (Debye)
 q only:       -9.406      -0.664       5.874
   full:       -5.795       1.606       4.131      18.543
molecular quadrupole (traceless):
                xx          xy          yy          xz          yz          zz
 q only:      626.165   -2074.338    -499.922   -1149.247    1141.176    -126.243
  q+dip:       75.205   -1526.167     285.922    -858.490     912.393    -361.127
   full:       73.971   -1528.941     287.767    -858.214     915.456    -361.738
speedup  1.70
cpu  time for grad    3.53 s
wall time for grad    2.08 s

SCC energy    :    -380.0707424
rep           :       4.2285366
ES            :       1.5627387
AES           :      -0.0818295
AXC           :       0.1012299
disp          :      -0.2908452
XB            :       0.0000000
fix           :       0.0000000
Gborn         :       0.0000000
Gsasa         :       0.0000000
Ghb           :       0.0000000
Gshift        :       0.0000000
Gsolv         :      -0.4816669     -302.25
Etot ala COSMO:    -380.0707424
grad norm     :       0.3276060
total E       :    -375.8216277
atomizationE  :      65.7766833    41275.49
(atE without considering molecular charge,
 total energy contains solvation terms)
H-L gap (eV)  :          2.0239

------------------------------------------------------------------------
 * finished run on 2019/05/11 at 23:08:35.368     
------------------------------------------------------------------------
 total:
 * wall-time:     0 d,  0 h,  0 min,  2.406 sec
 *  cpu-time:     0 d,  0 h,  0 min,  3.968 sec
 * ratio c/w:     1.649 speedup
 SCF:
 * wall-time:     0 d,  0 h,  0 min,  2.194 sec
 *  cpu-time:     0 d,  0 h,  0 min,  3.770 sec
 * ratio c/w:     1.719 speedup

