      -----------------------------------------------------------      
     |                   =====================                   |     
     |                           x T B                           |     
     |                   =====================                   |     
     |                         S. Grimme                         |     
     |          Mulliken Center for Theoretical Chemistry        |     
     |                    University of Bonn                     |     
     |                 Version 6.0.1 (SAW181210)                 |     
      -----------------------------------------------------------      

   This program is distributed in the hope that it will be useful,
   but WITHOUT ANY WARRANTY; without even the implied warranty of
   MERCHANTABILITY or FITNESS FOR A PARTICULAR PURPOSE.
   
   FOR NON-COMMERCIAL, ACADEMIA USE ONLY.
   
   Cite this work as:
   S. Grimme, C. Bannwarth, P. Shushkov, J. Comput. Theory Chem., 2017,
   13, 1989-2009.
   C. Bannwarth, S. Ehlert and S. Grimme., ChemRxiv, 2018, preprint.
   http://doi.org/10.26434/chemrxiv.7246238.v1
   
   for sTDA-xTB:
   S. Grimme and C. Bannwarth, J. Chem. Phys., 2016, 145, 054103.
   
   in the mass-spec context:
   V. Asgeirsson, C. Bauer and S. Grimme, Chem. Sci., 2017, 8, 4879.
   
   if GBSA is used:
   P. Shushkov, F. März and S. Grimme, unpublished.
   
   for ANC optimizer:
   S. Grimme, unpublished.
   Rational Function algorithm used in ANCopt:
   F. Eckert, P. Pulay, H.-J. Werner, J. Comput. Chem., 1997, 18, 1473.
   
   with help from (in alphabetical order)
   C. Bannwarth, F. Bohle, G. Brandenburg, E. Caldeweyher, M. Checinski,
   S. Dohm, S. Ehlert, S. Ehrlich, F. März, H. Neugebauer, J. Pisarek,
   P. Pracht, P. Shushkov, and S. Spicher.
   
 * started run on 2019/05/08 at 09:27:36.755     
========================================================================
 # omp threads = 2
========================================================================
number of atoms            : 248
number of electrons        : 704
charge                     : -2
spin                       : .0
first test random number   : .0290

########################################################################
# WARNING! Please study the warnings concerning your input carefully
#  - Process number higher than OMP_NUM_THREADS, I hope you know what you are doing.
########################################################################

           ------------------------------------------------- 
          |                 G F N 2 - x T B                 |
          | Geometry, Frequencies, Noncovalent interactions |
          |            JCTC 2018 parametrisation            |
           ------------------------------------------------- 
 
      method parameters     
 k(s)        :  1.8500
 k(p)        :  2.2300
 k(d)        :  2.2300
 k(f)        :  2.0000
 kEN (H0ij)  : -2.0000
 D4 a1       :  0.5200
 D4 a2       :  5.0000
 D4 s6       :  1.0000
 D4 s8       :  2.7000
 D4 s9       :  5.0000
 alphaj      :  2.0000

 Solvent             : h2o
 Using internal parameter file: .param_gbsa2_h2o
 Gsolv ref. state (COSMO-RS): gsolv [1 M gas/solution]
 temperature (mdtemp)       :    298.150000000000     
 dielectric constant        :    80.2000000000000     
 rho                        :    1.00000000000000     
 mass                       :    18.0000000000000     
 surface tension            :    15.5689454083859     
 probe radius               :   0.975313790000000     
 vdW radii scaling          :    1.00000000000000     
 Gshift (Eh)                :   1.857443126794793E-003
 c1                         :    1.55243817000000     
 soset                      :   0.130326360000000     
 HB correction              :  T

            Z     q(EN)     CN     RAES       Cart. coordinates
     1  N   5.0   -0.23    3.16    1.95    -5.04539   165.92323    19.13268
     2  C   4.0    0.03    4.20    4.00    -6.79240   164.87265    21.03009
     3  C   4.0    0.07    3.22    3.04    -9.21227   166.44782    21.17229
     4  O   6.0   -0.30    1.12    1.80   -11.22005   165.39918    21.59102
     5  C   4.0   -0.05    4.26    4.12    -5.67343   164.82826    23.70940
     6  C   4.0   -0.05    4.12    3.85    -3.63947   162.81558    24.14218
     7  C   4.0   -0.02    4.15    3.90    -2.76210   162.87743    26.92560
     8  N   5.0   -0.14    3.33    1.99    -1.93709   160.47792    28.04565
     9  C   4.0    0.10    3.32    3.06    -3.21409   158.86358    29.56289
    10  N   5.0   -0.19    3.22    1.96    -5.58950   159.27835    30.42161
    11  N   5.0   -0.19    3.24    1.96    -1.98634   156.92862    30.62454
    12  H   1.0    0.07    1.02    1.43    -3.18221   165.90366    19.59868
    13  H   1.0    0.06    1.05    1.44    -7.32502   162.94516    20.48171
    14  H   1.0    0.03    1.02    1.43    -4.93896   166.71413    24.12187
    15  H   1.0    0.05    1.04    1.43    -7.25758   164.45853    24.97530
    16  H   1.0    0.08    1.05    1.44    -4.42469   160.95674    23.73481
    17  H   1.0    0.03    1.02    1.43    -2.05693   163.10354    22.85611
    18  H   1.0    0.02    1.02    1.43    -1.16098   164.16581    27.11153
    19  H   1.0    0.03    1.03    1.43    -4.31111   163.58720    28.08686
    20  H   1.0    0.07    1.07    1.44    -0.33209   159.75519    27.30942
    21  H   1.0    0.08    1.03    1.43    -6.76107   160.35942    29.37816
    22  H   1.0    0.08    1.04    1.43    -6.37610   157.90911    31.48407
    23  H   1.0    0.07    1.02    1.43    -0.19425   156.42527    30.15473
    24  H   1.0    0.07    1.03    1.43    -2.90040   155.66471    31.70960
    25  N   5.0   -0.23    3.24    1.97     0.61477   149.65151    14.95955
    26  C   4.0    0.02    4.41    4.40    -0.46350   149.18681    17.43813
    27  C   4.0    0.14    3.66    3.21    -2.89515   150.57941    17.75120
    28  O   6.0   -0.34    1.47    1.80    -4.67258   149.70834    18.99528
    29  C   4.0   -0.03    4.27    4.15     1.08601   149.91882    19.79917
    30  C   4.0   -0.09    4.11    3.82     3.03750   151.96200    19.22225
    31  C   4.0   -0.07    4.19    3.98    -0.64385   150.64944    22.04509
    32  H   1.0    0.07    1.02    1.43     2.51636   149.71715    14.77492
    33  H   1.0    0.04    1.05    1.44    -0.93228   147.16224    17.58698
    34  H   1.0    0.03    1.05    1.44     2.12874   148.22206    20.39447
    35  H   1.0    0.03    1.00    1.43     4.10375   152.36837    20.93457
    36  H   1.0    0.03    1.00    1.43     4.36066   151.31494    17.79113
    37  H   1.0    0.03    1.00    1.43     2.12053   153.67692    18.59418
    38  H   1.0    0.03    1.00    1.43     0.50659   150.83199    23.74505
    39  H   1.0    0.05    1.01    1.43    -1.59444   152.43905    21.73957
    40  H   1.0    0.05    1.01    1.43    -2.04218   149.19401    22.40911
    41  N   5.0   -0.16    3.58    2.14    -2.86376   152.92127    16.92479
    42  C   4.0    0.04    4.53    4.57    -5.03412   154.51899    17.29927
    43  C   4.0    0.09    3.48    3.10    -7.39941   153.08050    16.78091
    44  O   6.0   -0.31    1.16    1.80    -9.40471   153.36314    17.89126
    45  C   4.0   -0.03    4.36    4.30    -4.83385   156.63178    15.39128
    46  C   4.0   -0.07    4.18    3.97    -7.40864   157.42385    14.46034
    47  C   4.0   -0.08    4.12    3.85    -3.23971   158.67736    16.66110
    48  H   1.0    0.07    1.08    1.44    -1.30014   153.58558    16.03437
    49  H   1.0    0.07    1.10    1.44    -5.11403   155.25703    19.22525
    50  H   1.0    0.03    1.07    1.44    -3.85281   155.83759    13.76072
    51  H   1.0    0.03    1.00    1.43    -7.28108   159.12743    13.31312
    52  H   1.0    0.04    1.01    1.43    -8.29378   155.95665    13.33809
    53  H   1.0    0.06    1.01    1.43    -8.62700   157.83307    16.07096
    54  H   1.0    0.03    1.00    1.43    -3.01846   160.30532    15.42354
    55  H   1.0    0.06    1.00    1.43    -4.16132   159.28248    18.39442
    56  H   1.0    0.03    1.00    1.43    -1.38879   157.91242    17.10835
    57  N   5.0   -0.20    3.48    2.07    -8.69200   147.50475    17.53187
    58  C   4.0    0.05    4.62    4.69    -9.70136   145.89456    19.41520
    59  C   4.0    0.15    3.60    3.16   -10.95961   147.30771    21.48617
    60  O   6.0   -0.30    1.40    1.80   -12.57492   146.35136    22.85558
    61  C   4.0   -0.03    4.40    4.37    -7.56742   144.29772    20.46970
    62  C   4.0    0.15    3.44    3.09    -7.57622   142.48198    18.26774
    63  O   6.0   -0.32    1.31    1.80    -7.33048   143.26288    16.09352
    64  N   5.0   -0.19    3.20    1.95    -8.26812   140.11886    18.98178
    65  H   1.0    0.13    1.13    1.45    -6.83325   147.99320    17.60957
    66  H   1.0    0.05    1.09    1.44   -11.13129   144.64629    18.57179
    67  H   1.0    0.06    1.03    1.43    -5.86439   145.43561    20.62497
    68  H   1.0    0.06    1.02    1.43    -8.02298   143.41297    22.27322
    69  H   1.0    0.09    1.04    1.43    -8.62190   138.79467    17.65258
    70  H   1.0    0.10    1.03    1.43    -8.66665   139.71930    20.80094
    71  N   5.0   -0.14    3.72    2.29   -10.09090   149.61463    21.77758
    72  C   4.0    0.04    4.54    4.59   -11.08810   151.09039    23.84427
    73  C   4.0    0.18    3.56    3.14   -13.95518   150.73133    23.66967
    74  O   6.0   -0.28    1.20    1.80   -15.30420   150.08730    25.43107
    75  C   4.0   -0.03    4.30    4.20   -10.13880   153.78688    23.55304
    76  C   4.0   -0.03    4.23    4.07    -7.26951   153.76781    23.76442
    77  C   4.0    0.24    3.13    3.03    -6.18933   156.43389    23.24426
    78  O   6.0   -0.31    1.20    1.80    -7.17281   157.76150    21.56350
    79  O   6.0   -0.32    1.22    1.80    -4.35485   157.00726    24.61270
    80  H   1.0    0.11    1.11    1.45    -8.73147   150.26460    20.60820
    81  H   1.0    0.06    1.05    1.44   -10.48399   150.29266    25.66818
    82  H   1.0    0.07    1.04    1.43   -10.68265   154.56587    21.72997
    83  H   1.0    0.06    1.02    1.43   -10.98028   154.95116    25.03587
    84  H   1.0    0.05    1.03    1.43    -6.67677   153.18548    25.65313
    85  H   1.0    0.06    1.03    1.43    -6.43880   152.44756    22.41781
    86  N   5.0   -0.14    3.67    2.23   -14.62638   151.19158    21.26328
    87  C   4.0    0.04    4.46    4.48   -17.02476   150.67194    20.15130
    88  C   4.0    0.16    3.49    3.11   -17.71207   147.90189    20.33379
    89  O   6.0   -0.30    1.38    1.80   -19.42760   147.26962    21.77241
    90  C   4.0   -0.05    4.31    4.22   -16.93856   151.69100    17.48798
    91  C   4.0   -0.04    4.19    3.98   -16.67649   154.57288    17.65238
    92  C   4.0   -0.01    4.15    3.91   -19.09312   155.83851    18.75641
    93  N   5.0   -0.14    3.36    2.01   -19.85768   158.08659    17.34941
    94  C   4.0    0.09    3.31    3.06   -21.85873   158.48381    15.83657
    95  N   5.0   -0.18    3.24    1.96   -23.89625   157.00440    15.78999
    96  N   5.0   -0.20    3.25    1.97   -21.82010   160.52701    14.38746
    97  H   1.0    0.09    1.13    1.45   -13.19843   151.56715    20.05255
    98  H   1.0    0.06    1.07    1.44   -18.47602   151.64960    21.27650
    99  H   1.0    0.04    1.03    1.43   -15.33839   150.86077    16.48727
   100  H   1.0    0.04    1.03    1.43   -18.66398   151.18181    16.47956
   101  H   1.0    0.05    1.03    1.43   -15.02916   155.06298    18.77847
   102  H   1.0    0.04    1.03    1.43   -16.37055   155.28444    15.73709
   103  H   1.0    0.05    1.03    1.43   -20.64976   154.48770    18.70308
   104  H   1.0    0.06    1.02    1.43   -18.80378   156.34770    20.73776
   105  H   1.0    0.07    1.08    1.44   -18.40166   159.29825    17.06041
   106  H   1.0    0.11    1.04    1.43   -24.11387   155.42435    16.85057
   107  H   1.0    0.09    1.03    1.43   -25.57587   157.73534    15.26238
   108  H   1.0    0.07    1.02    1.43   -20.33609   161.76130    14.35705
   109  H   1.0    0.07    1.03    1.43   -23.40086   161.11083    13.50905
   110  N   5.0   -0.14    3.43    2.03   -16.49454   146.29763    18.82013
   111  C   4.0    0.03    4.35    4.29   -17.32098   143.67332    18.69589
   112  C   4.0    0.17    3.54    3.13   -18.26586   142.75092    21.32150
   113  O   6.0   -0.31    1.29    1.80   -20.25511   141.56205    21.49477
   114  C   4.0   -0.05    4.16    3.93   -15.38005   141.74217    17.67083
   115  C   4.0   -0.05    4.05    3.71   -14.65833   141.73988    14.80014
   116  C   4.0   -0.02    4.07    3.75   -16.45185   140.43153    12.86820
   117  N   5.0   -0.15    3.29    1.98   -17.01271   137.66034    13.07940
   118  C   4.0    0.08    3.29    3.05   -18.02037   136.03060    11.38668
   119  N   5.0   -0.20    3.21    1.96   -18.60496   136.60100     8.99604
   120  N   5.0   -0.20    3.24    1.97   -18.61183   133.70216    12.20117
   121  H   1.0    0.07    1.05    1.44   -15.02387   146.82798    17.70021
   122  H   1.0    0.05    1.05    1.44   -19.00329   143.60234    17.47068
   123  H   1.0    0.05    1.03    1.43   -13.65244   141.93804    18.78002
   124  H   1.0    0.05    1.03    1.43   -16.15748   139.88707    18.13847
   125  H   1.0    0.04    1.03    1.43   -14.48108   143.68331    14.14988
   126  H   1.0    0.05    1.02    1.43   -12.78982   140.88530    14.64603
   127  H   1.0    0.04    1.02    1.43   -18.27381   141.41122    12.94328
   128  H   1.0    0.03    1.02    1.43   -15.60462   140.75722    11.01440
   129  H   1.0    0.08    1.07    1.44   -16.80197   136.96397    14.84550
   130  H   1.0    0.07    1.02    1.43   -18.03227   138.23249     8.13122
   131  H   1.0    0.07    1.03    1.43   -19.16069   135.20049     7.83363
   132  H   1.0    0.08    1.03    1.43   -18.23179   133.13023    13.97439
   133  H   1.0    0.07    1.03    1.43   -19.17332   132.32664    11.00712
   134  N   5.0   -0.13    3.49    2.07   -16.76995   143.13669    23.31213
   135  C   4.0    0.04    4.44    4.45   -17.74739   142.47068    25.77625
   136  C   4.0    0.16    3.41    3.08   -20.16342   143.96975    26.43976
   137  O   6.0   -0.30    1.30    1.80   -22.12998   142.74629    26.50405
   138  C   4.0   -0.04    4.21    4.02   -15.66094   142.53445    27.77334
   139  C   4.0   -0.03    4.15    3.89   -14.28846   139.97015    27.93772
   140  C   4.0    0.26    3.07    3.02   -11.33329   140.20192    28.18658
   141  O   6.0   -0.28    1.16    1.80   -10.53234   140.92912    30.28567
   142  O   6.0   -0.27    1.15    1.80   -10.05200   139.64870    26.26987
   143  H   1.0    0.12    1.11    1.45   -15.21738   144.25345    23.21613
   144  H   1.0    0.06    1.07    1.44   -18.47046   140.52266    25.62306
   145  H   1.0    0.07    1.03    1.43   -14.32207   144.03275    27.28170
   146  H   1.0    0.05    1.03    1.43   -16.47138   143.00994    29.60652
   147  H   1.0    0.05    1.02    1.43   -14.95150   138.90570    29.56931
   148  H   1.0    0.06    1.03    1.43   -14.62091   138.86293    26.22932
   149  N   5.0   -0.14    3.42    2.03   -19.99291   146.44491    26.95699
   150  C   4.0    0.03    4.36    4.31   -22.04613   148.07394    27.86699
   151  C   4.0    0.16    3.47    3.10   -24.57147   147.30670    26.71037
   152  O   6.0   -0.32    1.23    1.80   -26.47993   147.12821    28.03164
   153  C   4.0   -0.04    4.27    4.14   -21.69976   150.89785    27.15309
   154  C   4.0   -0.03    4.13    3.86   -19.72639   152.34611    28.69038
   155  C   4.0    0.26    3.08    3.02   -18.49197   154.57255    27.14858
   156  O   6.0   -0.30    1.18    1.80   -19.72470   155.41929    25.33417
   157  O   6.0   -0.29    1.16    1.80   -16.38480   155.34669    27.87137
   158  H   1.0    0.11    1.07    1.44   -18.32974   147.34311    26.66182
   159  H   1.0    0.04    1.04    1.44   -22.19791   147.88994    29.93159
   160  H   1.0    0.07    1.03    1.43   -21.14115   150.98313    25.16866
   161  H   1.0    0.05    1.03    1.43   -23.52589   151.84508    27.31606
   162  H   1.0    0.04    1.02    1.43   -20.53409   153.13020    30.42033
   163  H   1.0    0.06    1.03    1.43   -18.16360   151.10771    29.21779
   164  N   5.0   -0.13    3.49    2.07   -24.49033   147.05252    24.18629
   165  C   4.0    0.03    4.32    4.23   -26.71392   146.61201    22.62344
   166  C   4.0    0.15    3.41    3.08   -27.42286   143.76174    22.59055
   167  O   6.0   -0.29    1.30    1.80   -29.52037   143.14526    23.42102
   168  C   4.0   -0.04    4.17    3.95   -26.37888   147.93854    20.04252
   169  C   4.0   -0.03    4.07    3.75   -28.77515   148.96977    18.74462
   170  C   4.0    0.24    3.03    3.02   -28.25569   151.08023    16.60024
   171  O   6.0   -0.31    1.14    1.80   -29.16291   150.77894    14.44664
   172  O   6.0   -0.31    1.19    1.80   -26.98225   152.93542    17.31139
   173  H   1.0    0.11    1.10    1.44   -22.77915   147.12590    23.33235
   174  H   1.0    0.06    1.06    1.44   -28.30250   147.49277    23.63386
   175  H   1.0    0.06    1.04    1.43   -25.14693   149.56373    20.38092
   176  H   1.0    0.05    1.02    1.43   -25.40892   146.66054    18.74376
   177  H   1.0    0.05    1.01    1.43   -29.88605   147.44356    17.91558
   178  H   1.0    0.05    1.02    1.43   -29.94765   149.93036    20.14725
   179  N   5.0   -0.14    3.42    2.03   -25.75052   142.04432    21.71268
   180  C   4.0    0.05    4.46    4.49   -26.48744   139.40880    21.77858
   181  C   4.0    0.18    3.55    3.14   -27.87403   138.73491    24.25203
   182  O   6.0   -0.27    1.23    1.80   -29.87207   137.57627    24.33031
   183  C   4.0    0.04    4.18    3.97   -24.32233   137.58744    21.47435
   184  O   6.0   -0.25    2.10    1.84   -25.53916   135.32056    20.81950
   185  H   1.0    0.11    1.08    1.44   -23.87892   142.42960    21.54887
   186  H   1.0    0.06    1.06    1.44   -27.83101   139.03547    20.23825
   187  H   1.0    0.05    1.01    1.43   -23.05171   138.21019    19.95530
   188  H   1.0    0.05    1.01    1.43   -23.22601   137.44020    23.22514
   189  H   1.0    0.11    1.02    1.43   -24.35203   133.93105    20.86527
   190  N   5.0   -0.13    3.46    2.05   -26.62959   139.46719    26.33199
   191  C   4.0    0.04    4.33    4.26   -27.92989   139.76565    28.73837
   192  C   4.0    0.17    3.52    3.12   -30.74001   140.38111    28.69584
   193  O   6.0   -0.28    1.30    1.80   -32.30695   138.70585    29.03902
   194  C   4.0   -0.07    4.18    3.97   -26.67487   141.78745    30.36026
   195  H   1.0    0.11    1.11    1.44   -25.08651   140.58918    26.12539
   196  H   1.0    0.05    1.06    1.44   -27.83817   137.93058    29.72266
   197  H   1.0    0.04    1.00    1.43   -27.67993   142.00289    32.13574
   198  H   1.0    0.05    1.00    1.43   -24.73674   141.22482    30.77164
   199  H   1.0    0.08    1.03    1.43   -26.59044   143.58913    29.39542
   200  N   5.0   -0.14    3.47    2.06   -31.43078   142.80854    28.75767
   201  C   4.0    0.04    4.28    4.15   -33.93716   143.28283    29.80839
   202  C   4.0    0.10    3.24    3.04   -35.98954   141.97290    28.18428
   203  O   6.0   -0.31    1.11    1.80   -38.07310   141.38169    29.01813
   204  C   4.0   -0.08    4.09    3.77   -34.39261   146.09971    30.11381
   205  H   1.0    0.10    1.06    1.44   -30.22905   144.26199    28.47201
   206  H   1.0    0.05    1.05    1.44   -34.04592   142.38998    31.69021
   207  H   1.0    0.04    1.00    1.43   -36.23045   146.42292    30.96756
   208  H   1.0    0.04    1.00    1.43   -32.94244   146.89969    31.32779
   209  H   1.0    0.04    1.00    1.43   -34.32121   147.02505    28.27699
   210  N   5.0   -0.23    3.20    1.96     4.69715   137.66260    29.31286
   211  C   4.0    0.03    4.25    4.09     1.98738   137.67681    29.22850
   212  C   4.0    0.09    3.26    3.04     1.11586   137.25976    26.54285
   213  O   6.0   -0.30    1.18    1.80    -0.02259   135.33756    25.95814
   214  C   4.0   -0.06    4.20    4.00     0.72887   140.02899    30.33140
   215  C   4.0   -0.04    4.10    3.80    -1.91877   139.46213    31.38168
   216  C   4.0    0.26    3.04    3.02    -3.80511   137.67801    29.77048
   217  O   6.0   -0.27    1.14    1.80    -4.46145   138.24816    27.55001
   218  O   6.0   -0.29    1.16    1.80    -4.55309   135.78754    30.98736
   219  H   1.0    0.07    1.03    1.43     5.57278   139.25663    29.90158
   220  H   1.0    0.05    1.06    1.44     1.27480   136.02840    30.29966
   221  H   1.0    0.03    1.03    1.43     1.86740   140.75902    31.89182
   222  H   1.0    0.04    1.02    1.43     0.62436   141.50952    28.89696
   223  H   1.0    0.04    1.03    1.43    -1.75040   138.46771    33.18022
   224  H   1.0    0.05    1.01    1.43    -2.90262   141.25194    31.73933
   225  N   5.0   -0.21    3.21    1.96    -3.76814   131.96332    24.33957
   226  C   4.0    0.04    4.25    4.10    -6.12481   132.13129    23.02794
   227  C   4.0    0.07    3.23    3.04    -5.95040   130.66206    20.51851
   228  O   6.0   -0.30    1.11    1.80    -7.73176   129.34040    19.76577
   229  C   4.0   -0.02    4.25    4.10    -7.01472   134.85567    22.66602
   230  C   4.0    0.16    3.26    3.05    -9.66334   134.65706    21.47028
   231  O   6.0   -0.28    1.20    1.80   -11.53760   134.32652    22.76192
   232  N   5.0   -0.19    3.18    1.95    -9.83813   134.76271    18.87659
   233  H   1.0    0.13    1.06    1.44    -2.95906   133.51066    25.13497
   234  H   1.0    0.06    1.07    1.44    -7.62080   131.11977    24.01793
   235  H   1.0    0.08    1.02    1.43    -7.12891   135.85291    24.47106
   236  H   1.0    0.05    1.02    1.43    -5.70705   135.84548    21.41689
   237  H   1.0    0.09    1.03    1.43   -11.45032   134.03084    18.15906
   238  H   1.0    0.08    1.03    1.43    -8.26697   134.37301    17.87580
   239  H   1.0    0.08    1.07    1.44    -5.17821   165.03764    17.68677
   240  H   1.0    0.04    1.04    1.44    -9.13739   168.31949    20.92271
   241  H   1.0    0.08    1.07    1.44     0.12433   148.42517    13.88806
   242  H   1.0    0.05    1.06    1.44    -7.42528   151.76012    15.42925
   243  H   1.0    0.11    1.10    1.44    -8.87313   146.77649    16.00563
   244  H   1.0    0.07    1.05    1.44   -35.64525   141.57182    26.36999
   245  H   1.0    0.08    1.08    1.44     5.22571   136.44342    30.37436
   246  H   1.0    0.05    1.05    1.44     1.46895   138.56387    25.22161
   247  H   1.0    0.10    1.08    1.44    -3.92171   130.88687    25.64732
   248  H   1.0    0.05    1.04    1.43    -4.38199   130.76639    19.46957

  Z AO/shell   Hii/eV     exponent
  1     Wed Apr 25 08:07:45 CEST 2018   EN: 2.200 GM2: 0.406  GM3: 0.0800  RAES: 1.40
     1s    -10.707211    1.230000
  6     Wed Apr 25 08:07:45 CEST 2018   EN: 2.550 GM2: 0.538  GM3: 0.1500  RAES: 3.00
     2s    -13.970922    2.096432
     2p    -10.063292    1.800000
  7     Wed Apr 25 08:07:45 CEST 2018   EN: 3.040 GM2: 0.461  GM3:-0.0640  RAES: 1.90
     2s    -16.686243    2.339881
     2p    -12.523956    2.014332
  8     Wed Apr 25 08:07:45 CEST 2018   EN: 3.440 GM2: 0.452  GM3:-0.0517  RAES: 1.80
     2s    -20.229985    2.439742
     2p    -15.503117    2.137023
 no old-style atom pair restraining (fixing) potential

molecular fragmentation (1/2 indicates fragments):
111111111111111111111111222222222222222222222222222222222222222222222222
222222222222222222222222222222222222222222222222222222222222222222222222
222222222222222222222222222222222222222222222222222222222222222222222222
22222222222222222222221122222222
# atoms in fragment 1/2:    26   222
 fragment masses (1/2) :      159.21     1618.70
CMA distance (Bohr)    :  20.167
constraining FC (au)   :  0.0500
           ------------------------------------------------- 
          |        Self-Consistent Charge Iterations        |
           ------------------------------------------------- 

 Ncao       : 620
 Nao        : 620
 Nshell     : 372
 Nel        : 704
 T(el)      :   500.0
 intcut     :    35.0
 scfconv/Eh :  0.100E-06
   qconv/e  :  0.100E-04
 intneglect :  0.100E-08
 broydamp   :      0.400
 iter      E             dE          RMSdq      gap      omega  full diag
   1   -406.9989521 -0.406999E+03  0.504E+00    3.36       0.0  T
   2   -408.1903277 -0.119138E+01  0.229E+00    1.84       1.0  T
   3   -408.2757884 -0.854607E-01  0.136E+00    2.15       1.0  T
   4   -408.3527986 -0.770102E-01  0.284E-01    1.24       1.0  T
   5   -408.3568378 -0.403917E-02  0.150E-01    1.44       1.0  T
   6   -408.3574630 -0.625266E-03  0.595E-02    1.43       1.0  T
   7   -408.3576779 -0.214911E-03  0.252E-02    1.48       1.0  T
   8   -408.3576969 -0.190187E-04  0.110E-02    1.49       1.0  T
   9   -408.3577038 -0.687078E-05  0.473E-03    1.50       1.3  T
  10   -408.3577046 -0.799860E-06  0.176E-03    1.50       3.6  T
  11   -408.3577048 -0.201611E-06  0.739E-04    1.50       8.6  T
  12   -408.3577048 -0.243729E-07  0.283E-04    1.50      22.4  T
  13   -408.3577048 -0.261531E-08  0.137E-04    1.50      46.4  T
  14   -408.3577048 -0.804903E-09  0.418E-05    1.50     151.7  T
  15   -408.3577048 -0.842988E-10  0.182E-05    1.50     349.8  T
speedup  1.66
cpu  time for SCC    3.92 s
wall time for SCC    2.35 s

   *** convergence criteria satisfied after 15 iterations ***

          eigenvalues
 #    :         340        341        342        343        344        345        346        347
 occ. :        2.000      2.000      2.000      2.000      2.000      2.000      2.000      2.000
 eps  :       -10.357    -10.334    -10.302    -10.278    -10.244    -10.159    -10.146     -9.940
 #    :         348        349        350        351        352        353        354        355
 occ. :        2.000      2.000      2.000      2.000      2.000      0.000      0.000      0.000
 eps  :        -9.816     -9.789     -9.787     -9.783     -9.755     -8.255     -7.748     -7.585
 #    :         356        357        358        359        360        361        362        363
 occ. :        0.000      0.000      0.000      0.000      0.000      0.000      0.000      0.000
 eps  :        -7.532     -7.525     -6.806     -6.655     -6.583     -6.563     -6.456     -6.392


   #   Z            q   n(s)   n(p)   n(d)      C6AA      α(0)
   1   7 N     -0.389  1.320  4.069  0.000    30.059     8.143
   2   6 C      0.037  1.059  2.904  0.000    19.971     6.366
   3   6 C      0.202  1.091  2.707  0.000    23.709     7.975
   4   8 O     -0.392  1.764  4.628  0.000    21.523     6.220
   5   6 C     -0.065  1.057  3.008  0.000    21.733     6.636
   6   6 C     -0.075  1.052  3.023  0.000    21.944     6.670
   7   6 C     -0.024  1.060  2.964  0.000    21.090     6.555
   8   7 N     -0.127  1.215  3.913  0.000    23.769     7.241
   9   6 C      0.244  1.031  2.724  0.000    22.903     7.835
  10   7 N     -0.250  1.243  4.007  0.000    26.509     7.647
  11   7 N     -0.251  1.234  4.017  0.000    26.525     7.649
  12   1 H      0.174  0.826  0.000  0.000     1.249     1.751
  13   1 H      0.047  0.953  0.000  0.000     2.361     2.403
  14   1 H      0.067  0.933  0.000  0.000     2.119     2.277
  15   1 H      0.034  0.966  0.000  0.000     2.530     2.488
  16   1 H      0.073  0.927  0.000  0.000     2.057     2.243
  17   1 H      0.058  0.942  0.000  0.000     2.221     2.331
  18   1 H      0.100  0.900  0.000  0.000     1.784     2.089
  19   1 H      0.077  0.923  0.000  0.000     2.008     2.216
  20   1 H      0.236  0.764  0.000  0.000     0.940     1.518
  21   1 H      0.228  0.772  0.000  0.000     0.976     1.547
  22   1 H      0.231  0.769  0.000  0.000     0.960     1.535
  23   1 H      0.252  0.748  0.000  0.000     0.875     1.465
  24   1 H      0.237  0.763  0.000  0.000     0.937     1.516
  25   7 N     -0.392  1.308  4.084  0.000    30.144     8.154
  26   6 C      0.035  1.051  2.915  0.000    19.999     6.368
  27   6 C      0.276  1.039  2.685  0.000    22.330     7.740
  28   8 O     -0.530  1.762  4.768  0.000    24.462     6.631
  29   6 C     -0.018  1.066  2.952  0.000    20.862     6.495
  30   6 C     -0.124  1.041  3.082  0.000    22.928     6.828
  31   6 C     -0.101  1.038  3.062  0.000    22.482     6.762
  32   1 H      0.181  0.819  0.000  0.000     1.210     1.723
  33   1 H      0.012  0.988  0.000  0.000     2.851     2.641
  34   1 H      0.039  0.961  0.000  0.000     2.467     2.456
  35   1 H      0.060  0.940  0.000  0.000     2.195     2.317
  36   1 H      0.062  0.938  0.000  0.000     2.170     2.304
  37   1 H      0.056  0.944  0.000  0.000     2.247     2.344
  38   1 H      0.044  0.956  0.000  0.000     2.395     2.420
  39   1 H      0.034  0.966  0.000  0.000     2.527     2.486
  40   1 H      0.017  0.983  0.000  0.000     2.780     2.608
  41   7 N     -0.166  1.247  3.920  0.000    24.600     7.366
  42   6 C      0.030  1.050  2.920  0.000    20.056     6.373
  43   6 C      0.214  1.076  2.710  0.000    23.474     7.936
  44   8 O     -0.402  1.752  4.650  0.000    21.714     6.248
  45   6 C     -0.017  1.060  2.957  0.000    20.834     6.490
  46   6 C     -0.120  1.037  3.084  0.000    22.854     6.816
  47   6 C     -0.121  1.042  3.079  0.000    22.863     6.816
  48   1 H      0.235  0.765  0.000  0.000     0.943     1.521
  49   1 H      0.085  0.915  0.000  0.000     1.925     2.170
  50   1 H      0.064  0.936  0.000  0.000     2.152     2.294
  51   1 H      0.069  0.931  0.000  0.000     2.097     2.265
  52   1 H      0.047  0.953  0.000  0.000     2.356     2.400
  53   1 H      0.044  0.956  0.000  0.000     2.395     2.420
  54   1 H      0.064  0.936  0.000  0.000     2.149     2.293
  55   1 H      0.054  0.946  0.000  0.000     2.273     2.358
  56   1 H      0.048  0.952  0.000  0.000     2.339     2.392
  57   7 N     -0.417  1.302  4.115  0.000    30.847     8.249
  58   6 C      0.064  1.040  2.896  0.000    19.451     6.268
  59   6 C      0.272  1.036  2.692  0.000    22.407     7.754
  60   8 O     -0.543  1.760  4.783  0.000    24.746     6.670
  61   6 C     -0.085  1.054  3.031  0.000    22.091     6.688
  62   6 C      0.287  1.037  2.675  0.000    22.144     7.714
  63   8 O     -0.464  1.727  4.737  0.000    22.997     6.430
  64   7 N     -0.284  1.263  4.020  0.000    27.323     7.763
  65   1 H      0.202  0.798  0.000  0.000     1.094     1.639
  66   1 H      0.036  0.964  0.000  0.000     2.503     2.474
  67   1 H      0.065  0.935  0.000  0.000     2.139     2.287
  68   1 H      0.011  0.989  0.000  0.000     2.868     2.648
  69   1 H      0.238  0.762  0.000  0.000     0.930     1.511
  70   1 H      0.184  0.816  0.000  0.000     1.193     1.711
  71   7 N     -0.180  1.250  3.930  0.000    24.887     7.409
  72   6 C      0.040  1.059  2.901  0.000    19.875     6.343
  73   6 C      0.299  1.035  2.665  0.000    21.922     7.667
  74   8 O     -0.512  1.759  4.753  0.000    24.044     6.574
  75   6 C     -0.056  1.048  3.008  0.000    21.578     6.612
  76   6 C     -0.088  1.062  3.026  0.000    22.183     6.705
  77   6 C      0.366  1.022  2.613  0.000    20.794     7.463
  78   8 O     -0.605  1.765  4.840  0.000    26.252     6.869
  79   8 O     -0.615  1.752  4.864  0.000    26.495     6.901
  80   1 H      0.244  0.756  0.000  0.000     0.905     1.490
  81   1 H      0.020  0.980  0.000  0.000     2.729     2.584
  82   1 H      0.076  0.924  0.000  0.000     2.019     2.222
  83   1 H      0.026  0.974  0.000  0.000     2.649     2.545
  84   1 H      0.006  0.994  0.000  0.000     2.961     2.691
  85   1 H      0.028  0.972  0.000  0.000     2.613     2.528
  86   7 N     -0.197  1.246  3.951  0.000    25.271     7.466
  87   6 C      0.032  1.048  2.919  0.000    20.030     6.372
  88   6 C      0.277  1.042  2.681  0.000    22.316     7.736
  89   8 O     -0.505  1.755  4.750  0.000    23.900     6.555
  90   6 C     -0.090  1.061  3.030  0.000    22.214     6.708
  91   6 C     -0.088  1.059  3.028  0.000    22.170     6.703
  92   6 C     -0.015  1.052  2.963  0.000    20.937     6.532
  93   7 N     -0.151  1.230  3.922  0.000    24.272     7.317
  94   6 C      0.239  1.019  2.742  0.000    22.999     7.852
  95   7 N     -0.236  1.234  4.003  0.000    26.189     7.601
  96   7 N     -0.252  1.236  4.016  0.000    26.562     7.654
  97   1 H      0.225  0.775  0.000  0.000     0.987     1.557
  98   1 H      0.061  0.939  0.000  0.000     2.193     2.316
  99   1 H      0.076  0.924  0.000  0.000     2.024     2.225
 100   1 H      0.083  0.917  0.000  0.000     1.951     2.184
 101   1 H      0.060  0.940  0.000  0.000     2.203     2.321
 102   1 H      0.102  0.898  0.000  0.000     1.767     2.079
 103   1 H      0.063  0.937  0.000  0.000     2.166     2.301
 104   1 H      0.071  0.929  0.000  0.000     2.076     2.253
 105   1 H      0.238  0.762  0.000  0.000     0.932     1.512
 106   1 H      0.225  0.775  0.000  0.000     0.986     1.555
 107   1 H      0.247  0.753  0.000  0.000     0.895     1.482
 108   1 H      0.261  0.739  0.000  0.000     0.842     1.438
 109   1 H      0.262  0.738  0.000  0.000     0.837     1.433
 110   7 N     -0.175  1.244  3.931  0.000    24.790     7.395
 111   6 C      0.013  1.069  2.918  0.000    20.370     6.427
 112   6 C      0.285  1.043  2.672  0.000    22.181     7.713
 113   8 O     -0.497  1.737  4.760  0.000    23.715     6.529
 114   6 C     -0.077  1.055  3.021  0.000    21.976     6.675
 115   6 C     -0.084  1.059  3.025  0.000    22.118     6.698
 116   6 C     -0.031  1.061  2.970  0.000    21.243     6.581
 117   7 N     -0.145  1.212  3.933  0.000    24.135     7.296
 118   6 C      0.232  1.025  2.742  0.000    23.123     7.873
 119   7 N     -0.240  1.238  4.002  0.000    26.262     7.611
 120   7 N     -0.256  1.236  4.020  0.000    26.657     7.668
 121   1 H      0.216  0.784  0.000  0.000     1.028     1.589
 122   1 H      0.094  0.906  0.000  0.000     1.845     2.124
 123   1 H      0.036  0.964  0.000  0.000     2.504     2.474
 124   1 H      0.070  0.930  0.000  0.000     2.081     2.256
 125   1 H      0.082  0.918  0.000  0.000     1.956     2.187
 126   1 H      0.084  0.916  0.000  0.000     1.938     2.177
 127   1 H      0.089  0.911  0.000  0.000     1.884     2.147
 128   1 H      0.113  0.887  0.000  0.000     1.670     2.021
 129   1 H      0.207  0.793  0.000  0.000     1.069     1.620
 130   1 H      0.255  0.745  0.000  0.000     0.865     1.457
 131   1 H      0.264  0.736  0.000  0.000     0.831     1.428
 132   1 H      0.236  0.764  0.000  0.000     0.940     1.519
 133   1 H      0.263  0.737  0.000  0.000     0.836     1.432
 134   7 N     -0.190  1.257  3.933  0.000    25.118     7.443
 135   6 C      0.038  1.064  2.898  0.000    19.936     6.356
 136   6 C      0.277  1.048  2.675  0.000    22.321     7.736
 137   8 O     -0.481  1.730  4.751  0.000    23.358     6.480
 138   6 C     -0.042  1.049  2.993  0.000    21.335     6.576
 139   6 C     -0.090  1.072  3.019  0.000    22.228     6.714
 140   6 C      0.370  1.029  2.601  0.000    20.721     7.449
 141   8 O     -0.661  1.778  4.883  0.000    27.660     7.051
 142   8 O     -0.637  1.772  4.865  0.000    27.057     6.974
 143   1 H      0.212  0.788  0.000  0.000     1.047     1.603
 144   1 H      0.073  0.927  0.000  0.000     2.054     2.241
 145   1 H      0.021  0.979  0.000  0.000     2.713     2.576
 146   1 H      0.031  0.969  0.000  0.000     2.576     2.510
 147   1 H      0.020  0.980  0.000  0.000     2.737     2.587
 148   1 H      0.028  0.972  0.000  0.000     2.617     2.530
 149   7 N     -0.176  1.246  3.929  0.000    24.810     7.398
 150   6 C      0.027  1.068  2.905  0.000    20.130     6.390
 151   6 C      0.283  1.040  2.677  0.000    22.206     7.717
 152   8 O     -0.492  1.736  4.755  0.000    23.601     6.513
 153   6 C     -0.044  1.053  2.991  0.000    21.364     6.580
 154   6 C     -0.091  1.066  3.025  0.000    22.241     6.716
 155   6 C      0.374  1.027  2.599  0.000    20.663     7.439
 156   8 O     -0.624  1.756  4.868  0.000    26.728     6.931
 157   8 O     -0.649  1.772  4.877  0.000    27.358     7.013
 158   1 H      0.200  0.800  0.000  0.000     1.104     1.646
 159   1 H      0.060  0.940  0.000  0.000     2.195     2.317
 160   1 H      0.044  0.956  0.000  0.000     2.395     2.420
 161   1 H      0.047  0.953  0.000  0.000     2.355     2.400
 162   1 H      0.023  0.977  0.000  0.000     2.686     2.563
 163   1 H      0.014  0.986  0.000  0.000     2.828     2.630
 164   7 N     -0.186  1.251  3.934  0.000    25.022     7.429
 165   6 C      0.025  1.071  2.904  0.000    20.176     6.398
 166   6 C      0.272  1.051  2.677  0.000    22.401     7.751
 167   8 O     -0.486  1.757  4.729  0.000    23.487     6.498
 168   6 C     -0.055  1.054  3.001  0.000    21.564     6.612
 169   6 C     -0.099  1.074  3.025  0.000    22.410     6.743
 170   6 C      0.366  1.033  2.601  0.000    20.801     7.463
 171   8 O     -0.616  1.769  4.846  0.000    26.505     6.902
 172   8 O     -0.616  1.754  4.862  0.000    26.522     6.905
 173   1 H      0.211  0.789  0.000  0.000     1.050     1.606
 174   1 H      0.072  0.928  0.000  0.000     2.065     2.248
 175   1 H      0.049  0.951  0.000  0.000     2.333     2.389
 176   1 H      0.039  0.961  0.000  0.000     2.461     2.453
 177   1 H      0.018  0.982  0.000  0.000     2.771     2.603
 178   1 H      0.019  0.981  0.000  0.000     2.755     2.596
 179   7 N     -0.184  1.256  3.928  0.000    24.996     7.425
 180   6 C      0.022  1.061  2.917  0.000    20.195     6.397
 181   6 C      0.297  1.038  2.665  0.000    21.960     7.674
 182   8 O     -0.479  1.747  4.732  0.000    23.325     6.475
 183   6 C      0.075  1.038  2.887  0.000    19.523     6.327
 184   8 O     -0.479  1.725  4.754  0.000    22.437     6.394
 185   1 H      0.220  0.780  0.000  0.000     1.011     1.575
 186   1 H      0.091  0.909  0.000  0.000     1.870     2.139
 187   1 H      0.064  0.936  0.000  0.000     2.149     2.292
 188   1 H      0.026  0.974  0.000  0.000     2.640     2.541
 189   1 H      0.361  0.639  0.000  0.000     0.564     1.179
 190   7 N     -0.203  1.264  3.939  0.000    25.415     7.487
 191   6 C      0.033  1.056  2.911  0.000    20.035     6.374
 192   6 C      0.285  1.043  2.672  0.000    22.178     7.713
 193   8 O     -0.481  1.746  4.735  0.000    23.365     6.481
 194   6 C     -0.134  1.045  3.089  0.000    23.125     6.855
 195   1 H      0.212  0.788  0.000  0.000     1.047     1.603
 196   1 H      0.066  0.934  0.000  0.000     2.125     2.280
 197   1 H      0.065  0.935  0.000  0.000     2.141     2.288
 198   1 H      0.052  0.948  0.000  0.000     2.295     2.369
 199   1 H      0.068  0.932  0.000  0.000     2.105     2.269
 200   7 N     -0.172  1.245  3.928  0.000    24.725     7.385
 201   6 C      0.035  1.061  2.904  0.000    19.974     6.362
 202   6 C      0.217  1.085  2.698  0.000    23.423     7.926
 203   8 O     -0.370  1.746  4.624  0.000    21.093     6.158
 204   6 C     -0.129  1.042  3.087  0.000    23.027     6.842
 205   1 H      0.208  0.792  0.000  0.000     1.065     1.616
 206   1 H      0.086  0.914  0.000  0.000     1.920     2.167
 207   1 H      0.089  0.911  0.000  0.000     1.891     2.150
 208   1 H      0.078  0.922  0.000  0.000     1.999     2.211
 209   1 H      0.064  0.936  0.000  0.000     2.156     2.296
 210   7 N     -0.387  1.312  4.075  0.000    30.012     8.136
 211   6 C      0.050  1.046  2.904  0.000    19.753     6.331
 212   6 C      0.209  1.087  2.704  0.000    23.565     7.950
 213   8 O     -0.378  1.755  4.624  0.000    21.253     6.181
 214   6 C     -0.059  1.058  3.001  0.000    21.632     6.622
 215   6 C     -0.095  1.078  3.017  0.000    22.324     6.730
 216   6 C      0.365  1.038  2.597  0.000    20.815     7.465
 217   8 O     -0.644  1.787  4.858  0.000    27.238     6.997
 218   8 O     -0.651  1.775  4.876  0.000    27.403     7.018
 219   1 H      0.184  0.816  0.000  0.000     1.189     1.708
 220   1 H      0.030  0.970  0.000  0.000     2.588     2.516
 221   1 H      0.064  0.936  0.000  0.000     2.157     2.297
 222   1 H      0.033  0.967  0.000  0.000     2.547     2.496
 223   1 H      0.023  0.977  0.000  0.000     2.695     2.567
 224   1 H      0.001  0.999  0.000  0.000     3.044     2.728
 225   7 N     -0.372  1.284  4.088  0.000    29.604     8.081
 226   6 C      0.058  1.046  2.896  0.000    19.621     6.308
 227   6 C      0.186  1.103  2.711  0.000    24.009     8.024
 228   8 O     -0.363  1.754  4.610  0.000    20.963     6.139
 229   6 C     -0.085  1.062  3.023  0.000    22.126     6.697
 230   6 C      0.288  1.051  2.661  0.000    22.120     7.701
 231   8 O     -0.482  1.758  4.724  0.000    23.389     6.484
 232   7 N     -0.308  1.302  4.007  0.000    27.944     7.851
 233   1 H      0.170  0.830  0.000  0.000     1.270     1.766
 234   1 H      0.036  0.964  0.000  0.000     2.504     2.475
 235   1 H      0.059  0.941  0.000  0.000     2.217     2.328
 236   1 H      0.062  0.938  0.000  0.000     2.176     2.307
 237   1 H      0.248  0.752  0.000  0.000     0.891     1.479
 238   1 H      0.223  0.777  0.000  0.000     0.997     1.564
 239   1 H      0.177  0.823  0.000  0.000     1.229     1.736
 240   1 H      0.084  0.916  0.000  0.000     1.935     2.175
 241   1 H      0.186  0.814  0.000  0.000     1.180     1.701
 242   1 H      0.070  0.930  0.000  0.000     2.089     2.260
 243   1 H      0.208  0.792  0.000  0.000     1.065     1.617
 244   1 H      0.065  0.935  0.000  0.000     2.144     2.290
 245   1 H      0.199  0.801  0.000  0.000     1.113     1.652
 246   1 H      0.070  0.930  0.000  0.000     2.083     2.257
 247   1 H      0.177  0.823  0.000  0.000     1.230     1.737
 248   1 H      0.100  0.900  0.000  0.000     1.787     2.091

 Mol. C6AA /au·bohr⁶  :     580446.114534
 Mol. C8AA /au·bohr⁸  :   12738395.539861
 Mol. α(0) /au        :       1133.014096

 
molecular dipole:
                 x           y           z       tot (Debye)
 q only:       44.114    -277.713     -74.058
   full:       46.460    -278.822     -71.990     741.417
molecular quadrupole (traceless):
                xx          xy          yy          xz          yz          zz
 q only:    19187.291    9612.308  -36736.508    2152.131  -15459.116   17549.217
  q+dip:    19215.018   10113.283  -37096.432    2200.423  -15041.959   17881.414
   full:    19214.782   10108.255  -37094.441    2202.419  -15042.207   17879.660
speedup  1.70
cpu  time for grad    4.57 s
wall time for grad    2.68 s

SCC energy    :    -408.3702517
rep           :       4.5860394
ES            :       2.0873817
AES           :      -0.1266672
AXC           :       0.1160662
disp          :      -0.3047773
XB            :       0.0000000
fix           :       0.0000000
Gborn         :       0.0000000
Gsasa         :       0.0000000
Ghb           :       0.0000000
Gshift        :       0.0000000
Gsolv         :      -0.7820195     -490.72
Etot ala COSMO:    -408.3702517
grad norm     :       0.5132631
total E       :    -403.7644384
atomizationE  :      70.1312277    44008.01
(atE without considering molecular charge,
 total energy contains solvation terms)
H-L gap (eV)  :          1.5002

------------------------------------------------------------------------
 * finished run on 2019/05/08 at 09:27:39.657     
------------------------------------------------------------------------
 total:
 * wall-time:     0 d,  0 h,  0 min,  2.901 sec
 *  cpu-time:     0 d,  0 h,  0 min,  4.961 sec
 * ratio c/w:     1.710 speedup
 SCF:
 * wall-time:     0 d,  0 h,  0 min,  2.797 sec
 *  cpu-time:     0 d,  0 h,  0 min,  4.800 sec
 * ratio c/w:     1.716 speedup

