      -----------------------------------------------------------      
     |                   =====================                   |     
     |                           x T B                           |     
     |                   =====================                   |     
     |                         S. Grimme                         |     
     |          Mulliken Center for Theoretical Chemistry        |     
     |                    University of Bonn                     |     
     |                 Version 6.0.1 (SAW181210)                 |     
      -----------------------------------------------------------      

   This program is distributed in the hope that it will be useful,
   but WITHOUT ANY WARRANTY; without even the implied warranty of
   MERCHANTABILITY or FITNESS FOR A PARTICULAR PURPOSE.
   
   FOR NON-COMMERCIAL, ACADEMIA USE ONLY.
   
   Cite this work as:
   S. Grimme, C. Bannwarth, P. Shushkov, J. Comput. Theory Chem., 2017,
   13, 1989-2009.
   C. Bannwarth, S. Ehlert and S. Grimme., ChemRxiv, 2018, preprint.
   http://doi.org/10.26434/chemrxiv.7246238.v1
   
   for sTDA-xTB:
   S. Grimme and C. Bannwarth, J. Chem. Phys., 2016, 145, 054103.
   
   in the mass-spec context:
   V. Asgeirsson, C. Bauer and S. Grimme, Chem. Sci., 2017, 8, 4879.
   
   if GBSA is used:
   P. Shushkov, F. März and S. Grimme, unpublished.
   
   for ANC optimizer:
   S. Grimme, unpublished.
   Rational Function algorithm used in ANCopt:
   F. Eckert, P. Pulay, H.-J. Werner, J. Comput. Chem., 1997, 18, 1473.
   
   with help from (in alphabetical order)
   C. Bannwarth, F. Bohle, G. Brandenburg, E. Caldeweyher, M. Checinski,
   S. Dohm, S. Ehlert, S. Ehrlich, F. März, H. Neugebauer, J. Pisarek,
   P. Pracht, P. Shushkov, and S. Spicher.
   
 * started run on 2019/05/09 at 17:00:54.707     
========================================================================
 # omp threads = 2
========================================================================
number of atoms            : 306
number of electrons        : 786
charge                     : 3
spin                       : .0
first test random number   : .6591

########################################################################
# WARNING! Please study the warnings concerning your input carefully
#  - Process number higher than OMP_NUM_THREADS, I hope you know what you are doing.
########################################################################

           ------------------------------------------------- 
          |                 G F N 2 - x T B                 |
          | Geometry, Frequencies, Noncovalent interactions |
          |            JCTC 2018 parametrisation            |
           ------------------------------------------------- 
 
      method parameters     
 k(s)        :  1.8500
 k(p)        :  2.2300
 k(d)        :  2.2300
 k(f)        :  2.0000
 kEN (H0ij)  : -2.0000
 D4 a1       :  0.5200
 D4 a2       :  5.0000
 D4 s6       :  1.0000
 D4 s8       :  2.7000
 D4 s9       :  5.0000
 alphaj      :  2.0000

 Solvent             : h2o
 Using internal parameter file: .param_gbsa2_h2o
 Gsolv ref. state (COSMO-RS): gsolv [1 M gas/solution]
 temperature (mdtemp)       :    298.150000000000     
 dielectric constant        :    80.2000000000000     
 rho                        :    1.00000000000000     
 mass                       :    18.0000000000000     
 surface tension            :    15.5689454083859     
 probe radius               :   0.975313790000000     
 vdW radii scaling          :    1.00000000000000     
 Gshift (Eh)                :   1.857443126794793E-003
 c1                         :    1.55243817000000     
 soset                      :   0.130326360000000     
 HB correction              :  T

            Z     q(EN)     CN     RAES       Cart. coordinates
     1  N   5.0   -0.20    3.24    1.96    84.92727    31.43698    17.41568
     2  C   4.0    0.03    4.30    4.20    83.24272    33.42890    18.22439
     3  C   4.0    0.15    3.48    3.10    84.14586    36.10633    17.47890
     4  O   6.0   -0.31    1.33    1.80    82.79320    37.35590    16.06095
     5  C   4.0   -0.03    4.37    4.32    82.78464    32.88687    21.01551
     6  C   4.0   -0.01    3.59    3.16    82.11194    35.14213    22.55132
     7  C   4.0   -0.03    3.45    3.10    79.66566    35.38457    23.46720
     8  C   4.0   -0.03    3.50    3.11    84.00391    36.82943    23.29872
     9  C   4.0   -0.02    3.36    3.07    79.14580    37.20920    25.27341
    10  C   4.0   -0.03    3.37    3.07    83.47126    38.67726    25.07040
    11  C   4.0   -0.03    3.42    3.08    81.05045    38.81549    26.11872
    12  H   1.0    0.09    1.04    1.43    85.83764    30.43968    18.76574
    13  H   1.0    0.05    1.06    1.44    81.47068    33.23396    17.15372
    14  H   1.0    0.05    1.03    1.43    81.34159    31.42575    21.17702
    15  H   1.0    0.05    1.05    1.44    84.55643    32.15086    21.77875
    16  H   1.0    0.06    1.03    1.43    78.22812    34.06642    22.87082
    17  H   1.0    0.06    1.05    1.44    85.92218    36.52960    22.71202
    18  H   1.0    0.07    1.03    1.43    77.28694    37.30770    26.10430
    19  H   1.0    0.06    1.03    1.43    84.97302    39.85971    25.77895
    20  H   1.0    0.07    1.03    1.43    80.68449    40.01520    27.73016
    21  N   5.0   -0.15    3.46    2.05    86.32244    37.02110    18.41493
    22  C   4.0    0.03    4.49    4.52    87.10526    39.44365    17.37116
    23  C   4.0    0.16    3.62    3.18    87.07290    39.42388    14.46739
    24  O   6.0   -0.32    1.33    1.80    86.59022    41.35492    13.28151
    25  C   4.0   -0.03    4.28    4.16    89.64471    40.64737    18.29157
    26  C   4.0   -0.04    4.26    4.11    91.29154    41.51550    16.03809
    27  C   4.0   -0.06    4.15    3.90    91.08998    38.91011    20.03550
    28  C   4.0   -0.07    4.04    3.69    93.89600    42.39238    16.80543
    29  H   1.0    0.08    1.06    1.44    87.60607    35.79222    19.12570
    30  H   1.0    0.05    1.06    1.44    85.57941    40.76984    17.85308
    31  H   1.0    0.04    1.06    1.44    89.16756    42.34218    19.37413
    32  H   1.0    0.05    1.04    1.43    91.50253    39.98790    14.66563
    33  H   1.0    0.05    1.04    1.43    90.31727    43.05993    15.08902
    34  H   1.0    0.05    1.01    1.43    92.73483    39.86407    20.79739
    35  H   1.0    0.05    1.00    1.43    89.95743    38.25869    21.61477
    36  H   1.0    0.05    1.00    1.43    91.78532    37.25563    19.01112
    37  H   1.0    0.05    1.00    1.43    94.78308    43.35958    15.21976
    38  H   1.0    0.05    1.00    1.43    93.79927    43.70670    18.37945
    39  H   1.0    0.06    1.00    1.43    95.11500    40.82368    17.32407
    40  N   5.0   -0.14    3.49    2.07    87.64586    37.29526    13.24570
    41  C   4.0    0.04    4.47    4.49    87.51693    37.39989    10.51981
    42  C   4.0    0.16    3.60    3.17    84.77910    37.85639     9.66600
    43  O   6.0   -0.31    1.30    1.80    84.42031    39.27812     7.85941
    44  C   4.0   -0.04    4.30    4.20    88.59106    35.02213     9.25563
    45  C   4.0   -0.00    3.59    3.16    87.96574    34.93359     6.46253
    46  C   4.0   -0.03    3.45    3.09    89.87641    34.93344     4.66769
    47  C   4.0   -0.02    3.59    3.16    85.45854    34.74021     5.66563
    48  C   4.0   -0.02    3.39    3.08    89.23879    34.81576     2.14602
    49  C   4.0   -0.03    3.37    3.07    84.81917    34.75527     3.15496
    50  C   4.0   -0.03    3.40    3.08    86.72863    34.78164     1.39675
    51  H   1.0    0.08    1.06    1.44    88.23728    35.67072    14.06023
    52  H   1.0    0.06    1.06    1.44    88.57272    39.06790     9.86793
    53  H   1.0    0.05    1.03    1.43    90.62669    34.94507     9.55380
    54  H   1.0    0.05    1.03    1.43    87.73424    33.38784    10.18581
    55  H   1.0    0.06    1.03    1.43    91.83455    35.02449     5.23760
    56  H   1.0    0.05    1.06    1.44    83.99532    34.46742     7.05250
    57  H   1.0    0.07    1.03    1.43    90.70549    34.76451     0.72937
    58  H   1.0    0.05    1.03    1.43    82.86951    34.68301     2.56183
    59  H   1.0    0.06    1.03    1.43    86.28810    34.74184    -0.59602
    60  N   5.0   -0.13    3.46    2.05    82.86838    36.69908    10.90779
    61  C   4.0    0.04    4.55    4.61    80.36353    36.98619     9.78623
    62  C   4.0    0.16    3.55    3.14    79.44525    39.69089    10.13096
    63  O   6.0   -0.30    1.28    1.80    78.34760    40.81342     8.42724
    64  C   4.0   -0.02    4.26    4.12    78.23496    35.23224    10.61733
    65  C   4.0   -0.06    4.17    3.94    76.04163    35.63321     8.76805
    66  C   4.0   -0.07    4.11    3.83    78.99435    32.46130    10.52739
    67  H   1.0    0.09    1.06    1.44    83.24978    35.27914    12.13437
    68  H   1.0    0.06    1.07    1.44    80.58088    36.76865     7.72713
    69  H   1.0    0.05    1.05    1.44    77.66777    35.73039    12.54220
    70  H   1.0    0.05    1.00    1.43    74.52025    34.33109     9.22959
    71  H   1.0    0.06    1.01    1.43    75.32403    37.55292     8.85034
    72  H   1.0    0.05    1.00    1.43    76.63488    35.29384     6.83248
    73  H   1.0    0.06    1.00    1.43    77.47767    31.28856    11.25807
    74  H   1.0    0.05    1.00    1.43    79.37360    31.90215     8.58494
    75  H   1.0    0.05    1.00    1.43    80.69172    32.09664    11.62506
    76  N   5.0   -0.14    3.46    2.05    79.84168    40.74286    12.40481
    77  C   4.0    0.04    4.44    4.45    79.16723    43.38989    12.62557
    78  C   4.0    0.16    3.43    3.09    80.81714    45.14872    10.97434
    79  O   6.0   -0.30    1.38    1.80    79.63501    46.30134     9.32664
    80  C   4.0   -0.04    4.25    4.10    78.66054    44.12122    15.34450
    81  C   4.0   -0.04    4.19    3.98    80.96937    43.94993    17.04147
    82  C   4.0   -0.04    4.18    3.97    80.12868    43.60000    19.79852
    83  C   4.0   -0.03    4.13    3.86    82.37856    43.87910    21.58106
    84  N   5.0   -0.11    4.04    2.98    81.45978    44.14618    24.21304
    85  H   1.0    0.11    1.08    1.44    80.90785    39.86306    13.72898
    86  H   1.0    0.07    1.09    1.44    77.34967    43.56552    11.63036
    87  H   1.0    0.05    1.03    1.43    77.87092    46.02319    15.38442
    88  H   1.0    0.05    1.04    1.43    77.21087    42.82184    16.03191
    89  H   1.0    0.06    1.03    1.43    82.12966    42.34469    16.47763
    90  H   1.0    0.05    1.03    1.43    82.10046    45.65885    16.84316
    91  H   1.0    0.05    1.03    1.43    78.72037    45.04388    20.22057
    92  H   1.0    0.05    1.02    1.43    79.26054    41.74553    20.01581
    93  H   1.0    0.04    1.02    1.43    83.59850    42.22107    21.47066
    94  H   1.0    0.05    1.02    1.43    83.45680    45.56501    21.08044
    95  H   1.0    0.07    1.02    1.43    82.94775    44.48098    25.42893
    96  H   1.0    0.07    1.02    1.43    80.21400    45.63806    24.34451
    97  H   1.0    0.06    1.06    1.44    80.54030    42.50616    24.77041
    98  N   5.0   -0.14    3.37    2.01    83.32070    45.43743    11.20865
    99  C   4.0    0.04    4.44    4.45    84.66094    47.07313     9.38801
   100  C   4.0    0.16    3.51    3.12    83.61805    46.89592     6.64695
   101  O   6.0   -0.30    1.24    1.80    83.47515    48.75581     5.26338
   102  C   4.0   -0.02    4.28    4.17    87.56238    46.58219     9.34810
   103  C   4.0   -0.04    4.17    3.93    88.79192    47.51842    11.81662
   104  C   4.0   -0.06    4.14    3.88    88.84569    47.82523     7.05593
   105  C   4.0   -0.07    4.02    3.65    91.67067    47.25631    11.88745
   106  H   1.0    0.10    1.08    1.44    84.38900    44.19228    12.20764
   107  H   1.0    0.06    1.05    1.44    84.33670    49.04620     9.94429
   108  H   1.0    0.06    1.05    1.44    87.79511    44.52828     9.21033
   109  H   1.0    0.05    1.03    1.43    88.29291    49.49918    12.09855
   110  H   1.0    0.05    1.03    1.43    87.99517    46.43588    13.38059
   111  H   1.0    0.05    1.00    1.43    90.83467    47.33962     7.02262
   112  H   1.0    0.06    1.01    1.43    88.00029    47.19748     5.29274
   113  H   1.0    0.05    1.00    1.43    88.65973    49.86766     7.16822
   114  H   1.0    0.05    1.00    1.43    92.34548    47.58225    13.79873
   115  H   1.0    0.05    1.00    1.43    92.24298    45.37252    11.29720
   116  H   1.0    0.05    1.00    1.43    92.57248    48.63278    10.66197
   117  N   5.0   -0.13    3.52    2.09    83.01947    44.59255     5.80371
   118  C   4.0    0.05    4.37    4.33    82.44997    44.19954     3.18516
   119  C   4.0    0.16    3.40    3.08    79.67489    44.52683     2.43787
   120  O   6.0   -0.30    1.23    1.80    79.09302    44.23056     0.21039
   121  C   4.0   -0.05    4.15    3.90    83.25582    41.53798     2.46433
   122  H   1.0    0.11    1.08    1.44    83.25002    43.01905     6.86886
   123  H   1.0    0.07    1.06    1.44    83.47964    45.61306     2.06294
   124  H   1.0    0.06    1.00    1.43    82.85570    41.22723     0.47729
   125  H   1.0    0.06    1.00    1.43    85.25685    41.26221     2.82675
   126  H   1.0    0.06    1.00    1.43    82.19997    40.19900     3.60785
   127  N   5.0   -0.13    3.48    2.06    78.02255    45.08704     4.27453
   128  C   4.0    0.04    4.36    4.30    75.30230    45.23826     3.81700
   129  C   4.0    0.15    3.41    3.08    74.52575    48.04619     3.54088
   130  O   6.0   -0.28    1.25    1.80    73.13420    48.90676     1.90061
   131  C   4.0   -0.03    4.25    4.10    73.78010    43.89541     5.92148
   132  C   4.0    0.16    3.17    3.03    72.39696    41.42666     5.19174
   133  O   6.0   -0.29    1.19    1.80    72.24877    40.52053     3.08141
   134  N   5.0   -0.18    3.18    1.95    71.32146    40.28499     7.20476
   135  H   1.0    0.12    1.11    1.44    78.64091    45.15057     6.08946
   136  H   1.0    0.08    1.06    1.44    74.92661    44.29401     2.00682
   137  H   1.0    0.07    1.04    1.43    75.09783    43.38761     7.42277
   138  H   1.0    0.05    1.03    1.43    72.35047    45.18050     6.66962
   139  H   1.0    0.11    1.03    1.43    70.32319    38.68881     6.91154
   140  H   1.0    0.09    1.03    1.43    71.32061    41.05694     8.93934
   141  N   5.0   -0.13    3.51    2.08    75.56903    49.50729     5.33131
   142  C   4.0    0.04    4.44    4.45    75.20801    52.21819     5.25909
   143  C   4.0    0.16    3.41    3.08    76.19229    53.17633     2.65971
   144  O   6.0   -0.27    1.20    1.80    74.73846    54.08391     1.10462
   145  C   4.0    0.05    4.18    3.97    76.36529    53.43619     7.68010
   146  O   6.0   -0.23    2.09    1.84    74.95018    52.77540     9.85647
   147  C   4.0   -0.06    4.07    3.74    76.63249    56.29400     7.33934
   148  H   1.0    0.10    1.07    1.44    76.70056    48.75661     6.67714
   149  H   1.0    0.07    1.05    1.44    73.16805    52.61888     5.19999
   150  H   1.0    0.06    1.04    1.43    78.23064    52.59910     8.01240
   151  H   1.0    0.13    1.02    1.43    73.32207    53.59500     9.78541
   152  H   1.0    0.06    1.00    1.43    77.37640    57.14551     9.05025
   153  H   1.0    0.05    1.00    1.43    77.88731    56.69609     5.76983
   154  H   1.0    0.06    1.00    1.43    74.79988    57.13723     6.91809
   155  N   5.0   -0.14    3.44    2.04    78.71639    52.93797     2.35526
   156  C   4.0    0.03    4.38    4.34    80.18010    53.78752     0.17797
   157  C   4.0    0.15    3.38    3.07    80.17053    51.86045    -2.00378
   158  O   6.0   -0.29    1.24    1.80    81.95621    50.45325    -2.34493
   159  C   4.0   -0.04    4.42    4.42    82.91019    54.18987     1.00149
   160  C   4.0   -0.02    4.19    3.97    83.37743    56.76157     2.19999
   161  C   4.0   -0.06    4.11    3.82    85.49738    56.48921     4.12627
   162  C   4.0   -0.07    4.10    3.79    84.00187    58.71480     0.16238
   163  H   1.0    0.09    1.07    1.44    79.67462    51.82555     3.57966
   164  H   1.0    0.05    1.05    1.44    79.27175    55.52098    -0.50022
   165  H   1.0    0.06    1.04    1.43    83.38384    52.66760     2.31263
   166  H   1.0    0.06    1.04    1.43    84.13145    53.93469    -0.63687
   167  H   1.0    0.05    1.05    1.44    81.66754    57.36073     3.20406
   168  H   1.0    0.06    1.00    1.43    85.89417    58.28750     5.04180
   169  H   1.0    0.05    1.00    1.43    84.97063    55.13491     5.57707
   170  H   1.0    0.05    1.00    1.43    87.21064    55.81332     3.21580
   171  H   1.0    0.06    1.00    1.43    84.32966    60.54108     1.04331
   172  H   1.0    0.05    1.00    1.43    85.69741    58.11715    -0.82777
   173  H   1.0    0.05    1.00    1.43    82.42727    58.86359    -1.14773
   174  N   5.0   -0.13    3.41    2.02    78.16277    52.00248    -3.56572
   175  C   4.0    0.04    4.37    4.32    77.79483    50.37937    -5.77409
   176  C   4.0    0.15    3.40    3.08    77.78646    51.92392    -8.27333
   177  O   6.0   -0.27    1.25    1.80    75.83068    52.94002    -8.99830
   178  C   4.0   -0.02    4.46    4.48    75.21866    49.09291    -5.76782
   179  C   4.0   -0.03    4.08    3.77    74.86020    47.30702    -3.59063
   180  S   6.0    0.00    2.58    3.10    72.39428    45.16235    -4.45317
   181  C   4.0   -0.06    3.89    3.44    74.06843    43.16406    -6.71396
   182  H   1.0    0.10    1.07    1.44    76.64228    53.02504    -3.01938
   183  H   1.0    0.06    1.05    1.44    79.33400    48.99950    -5.74885
   184  H   1.0    0.07    1.04    1.43    73.73630    50.53112    -5.73114
   185  H   1.0    0.06    1.06    1.44    75.02714    48.09441    -7.56592
   186  H   1.0    0.07    1.07    1.44    76.55920    46.23347    -3.12807
   187  H   1.0    0.08    1.09    1.44    74.20506    48.26260    -1.88975
   188  H   1.0    0.06    1.05    1.44    72.84085    41.54427    -6.97532
   189  H   1.0    0.06    1.03    1.43    74.30406    44.14307    -8.50251
   190  H   1.0    0.05    1.04    1.43    75.86239    42.63941    -5.88165
   191  N   5.0   -0.13    3.42    2.03    80.02061    52.14205    -9.50380
   192  C   4.0    0.04    4.38    4.34    80.21183    53.46021   -11.93139
   193  C   4.0    0.16    3.34    3.06    79.33422    51.64652   -14.07398
   194  O   6.0   -0.27    1.23    1.80    79.26048    49.36220   -13.78546
   195  C   4.0   -0.04    4.17    3.93    82.81296    54.83242   -12.06717
   196  C   4.0   -0.04    4.23    4.05    82.45530    57.36995   -10.70200
   197  C   4.0   -0.04    4.11    3.83    84.73174    58.62999    -9.44868
   198  C   4.0   -0.03    4.15    3.89    83.64943    60.17223    -7.22953
   199  N   5.0   -0.11    3.99    2.84    85.56918    61.57645    -5.72335
   200  H   1.0    0.09    1.06    1.44    81.49975    51.07211    -8.95374
   201  H   1.0    0.06    1.07    1.44    78.71196    54.89697   -11.88288
   202  H   1.0    0.05    1.02    1.43    84.23987    53.67838   -11.13882
   203  H   1.0    0.06    1.02    1.43    83.37957    55.10008   -14.02779
   204  H   1.0    0.06    1.03    1.43    81.55454    58.69566   -11.99532
   205  H   1.0    0.05    1.06    1.44    81.09529    56.98132    -9.19342
   206  H   1.0    0.05    1.02    1.43    86.02653    57.18738    -8.75355
   207  H   1.0    0.06    1.02    1.43    85.73203    59.83457   -10.78114
   208  H   1.0    0.06    1.02    1.43    82.27389    61.52818    -7.94796
   209  H   1.0    0.04    1.02    1.43    82.67832    58.87864    -5.94997
   210  H   1.0    0.07    1.02    1.43    84.72167    62.51077    -4.24228
   211  H   1.0    0.06    1.02    1.43    86.90823    60.36161    -4.99751
   212  H   1.0    0.08    1.02    1.43    86.47548    62.87925    -6.85675
   213  N   5.0   -0.13    3.44    2.04    78.49827    52.79564   -16.21467
   214  C   4.0    0.04    4.29    4.19    78.53162    51.41581   -18.60843
   215  C   4.0    0.09    3.20    3.04    80.29648    53.00132   -20.31150
   216  O   6.0   -0.25    1.14    1.80    80.12435    55.32694   -20.30637
   217  C   4.0   -0.03    4.20    4.00    75.88559    50.85749   -19.70400
   218  C   4.0   -0.04    4.14    3.88    75.77932    48.56081   -21.48186
   219  C   4.0   -0.04    4.19    3.98    76.08785    46.10530   -19.98552
   220  C   4.0   -0.03    4.10    3.81    76.05231    43.71703   -21.60752
   221  N   5.0   -0.11    4.02    2.91    76.51411    41.48968   -19.92749
   222  H   1.0    0.10    1.08    1.44    78.72057    54.68531   -16.42451
   223  H   1.0    0.06    1.07    1.44    79.47252    49.61960   -18.18586
   224  H   1.0    0.07    1.03    1.43    74.63440    50.50070   -18.10095
   225  H   1.0    0.07    1.02    1.43    75.21215    52.54567   -20.67854
   226  H   1.0    0.06    1.03    1.43    73.94727    48.58073   -22.42131
   227  H   1.0    0.06    1.02    1.43    77.25455    48.72860   -22.91782
   228  H   1.0    0.06    1.03    1.43    77.88989    46.18344   -18.98364
   229  H   1.0    0.07    1.05    1.44    74.62331    46.02911   -18.53737
   230  H   1.0    0.05    1.02    1.43    74.21478    43.50644   -22.51598
   231  H   1.0    0.06    1.02    1.43    77.52195    43.80286   -23.04821
   232  H   1.0    0.07    1.02    1.43    76.16281    39.81807   -20.86231
   233  H   1.0    0.07    1.02    1.43    78.34354    41.50451   -19.27741
   234  H   1.0    0.07    1.03    1.43    75.34121    41.65146   -18.37632
   235  N   5.0   -0.18    3.20    1.96    67.91485    40.49422   -21.09979
   236  C   4.0    0.03    4.19    3.99    67.63365    41.33275   -18.46644
   237  C   4.0    0.09    3.23    3.04    64.84108    40.99114   -17.76390
   238  O   6.0   -0.24    1.14    1.80    63.23687    42.12452   -18.98461
   239  C   4.0   -0.03    4.22    4.04    68.29723    44.16911   -18.18391
   240  C   4.0   -0.02    4.13    3.85    68.10592    45.17646   -15.46202
   241  C   4.0    0.26    3.05    3.02    70.66273    45.87028   -14.07568
   242  O   6.0   -0.30    1.19    1.80    72.68218    45.63745   -15.26202
   243  O   6.0   -0.27    1.16    1.80    70.46955    46.60425   -11.84783
   244  H   1.0    0.12    1.03    1.43    66.34582    40.74362   -22.16001
   245  H   1.0    0.05    1.04    1.43    68.87881    40.18313   -17.28290
   246  H   1.0    0.06    1.03    1.43    70.23174    44.45471   -18.84615
   247  H   1.0    0.07    1.03    1.43    67.02148    45.22398   -19.41473
   248  H   1.0    0.07    1.02    1.43    66.99389    46.91205   -15.42828
   249  H   1.0    0.05    1.02    1.43    67.10994    43.83668   -14.24265
   250  N   5.0   -0.19    3.13    1.94    61.89415    41.40718   -11.29256
   251  C   4.0    0.04    4.20    4.00    61.17538    43.45526    -9.52171
   252  C   4.0    0.14    3.32    3.06    62.93300    43.91142    -7.20414
   253  O   6.0   -0.28    1.21    1.80    63.01780    46.07258    -6.40035
   254  C   4.0   -0.05    4.10    3.80    58.51114    43.18140    -8.40975
   255  H   1.0    0.09    1.02    1.43    63.77962    41.32379   -11.59343
   256  H   1.0    0.07    1.05    1.44    61.26132    45.22781   -10.59880
   257  H   1.0    0.07    1.01    1.43    58.16612    44.78036    -7.17172
   258  H   1.0    0.07    1.00    1.43    57.13484    43.14950    -9.92494
   259  H   1.0    0.06    1.00    1.43    58.36623    41.44406    -7.32125
   260  N   5.0   -0.13    3.37    2.01    64.02602    41.86217    -6.10904
   261  C   4.0    0.03    4.25    4.09    65.80121    41.67485    -3.94678
   262  C   4.0    0.14    3.30    3.05    67.43840    39.17944    -4.25617
   263  O   6.0   -0.29    1.22    1.80    68.02927    38.40322    -6.35870
   264  C   4.0   -0.04    4.31    4.23    64.45138    41.82178    -1.35784
   265  C   4.0   -0.01    4.16    3.92    62.97988    44.26114    -0.77046
   266  C   4.0   -0.06    4.10    3.80    61.65957    43.92699     1.78463
   267  C   4.0   -0.05    4.09    3.79    64.69535    46.58725    -0.74923
   268  H   1.0    0.09    1.08    1.44    63.90158    40.22875    -7.09955
   269  H   1.0    0.06    1.05    1.44    67.13712    43.25637    -4.09431
   270  H   1.0    0.05    1.03    1.43    63.15141    40.22710    -1.19510
   271  H   1.0    0.05    1.04    1.43    65.89281    41.65184     0.10858
   272  H   1.0    0.06    1.05    1.44    61.53386    44.55618    -2.21654
   273  H   1.0    0.06    1.00    1.43    60.52182    45.58367     2.20848
   274  H   1.0    0.06    1.00    1.43    60.42320    42.28660     1.76925
   275  H   1.0    0.06    1.00    1.43    63.05333    43.69645     3.27835
   276  H   1.0    0.06    1.00    1.43    63.65407    48.21896    -0.06338
   277  H   1.0    0.05    1.00    1.43    66.33136    46.29026     0.46134
   278  H   1.0    0.07    1.00    1.43    65.33364    47.01688    -2.65147
   279  N   5.0   -0.14    3.43    2.03    68.10454    37.90815    -2.14032
   280  C   4.0    0.04    4.29    4.17    69.26538    35.38626    -2.08731
   281  C   4.0    0.09    3.18    3.03    67.72450    33.76739    -0.18526
   282  O   6.0   -0.26    1.13    1.80    68.34365    33.60131     2.01345
   283  C   4.0   -0.03    4.25    4.09    72.05792    35.47147    -1.35549
   284  C   4.0   -0.04    4.20    4.00    73.57496    36.88351    -3.38973
   285  C   4.0   -0.05    4.17    3.94    75.94850    35.45634    -4.18630
   286  C   4.0   -0.03    4.13    3.86    77.15898    36.77293    -6.44358
   287  N   5.0   -0.11    4.01    2.89    79.31655    35.25835    -7.43710
   288  H   1.0    0.09    1.07    1.44    67.95241    38.75426    -0.43969
   289  H   1.0    0.06    1.05    1.44    69.07680    34.60479    -3.99436
   290  H   1.0    0.07    1.03    1.43    72.24462    36.38540     0.47778
   291  H   1.0    0.06    1.03    1.43    72.69521    33.52214    -1.16519
   292  H   1.0    0.06    1.04    1.43    72.38266    37.13766    -5.05240
   293  H   1.0    0.05    1.03    1.43    74.06639    38.75581    -2.69341
   294  H   1.0    0.05    1.02    1.43    77.25864    35.35709    -2.59999
   295  H   1.0    0.05    1.03    1.43    75.41046    33.53525    -4.71115
   296  H   1.0    0.05    1.02    1.43    75.76571    37.00022    -7.94476
   297  H   1.0    0.04    1.02    1.43    77.85122    38.63014    -5.89320
   298  H   1.0    0.07    1.02    1.43    80.14804    36.14818    -8.95706
   299  H   1.0    0.06    1.02    1.43    80.65270    34.98920    -6.04458
   300  H   1.0    0.07    1.02    1.43    78.68585    33.50487    -8.00924
   301  H   1.0    0.10    1.07    1.44    84.05409    30.28278    16.52241
   302  H   1.0    0.07    1.04    1.43    81.57077    52.14216   -21.41110
   303  H   1.0    0.10    1.07    1.44    69.16996    41.36871   -21.84312
   304  H   1.0    0.07    1.04    1.43    64.35917    39.85801   -16.33043
   305  H   1.0    0.11    1.07    1.44    61.40042    39.90856   -10.65779
   306  H   1.0    0.07    1.04    1.43    66.18687    32.83519    -0.76645

  Z AO/shell   Hii/eV     exponent
  1     Wed Apr 25 08:07:45 CEST 2018   EN: 2.200 GM2: 0.406  GM3: 0.0800  RAES: 1.40
     1s    -10.707211    1.230000
  6     Wed Apr 25 08:07:45 CEST 2018   EN: 2.550 GM2: 0.538  GM3: 0.1500  RAES: 3.00
     2s    -13.970922    2.096432
     2p    -10.063292    1.800000
  7     Wed Apr 25 08:07:45 CEST 2018   EN: 3.040 GM2: 0.461  GM3:-0.0640  RAES: 1.90
     2s    -16.686243    2.339881
     2p    -12.523956    2.014332
  8     Wed Apr 25 08:07:45 CEST 2018   EN: 3.440 GM2: 0.452  GM3:-0.0517  RAES: 1.80
     2s    -20.229985    2.439742
     2p    -15.503117    2.137023
 16     Tue Apr 24 11:44:34 CEST 2018   EN: 2.580 GM2: 0.340  GM3:-0.0502  RAES: 3.10
     3s    -20.029654    1.981333
     3p    -11.377694    2.025643
     3d     -0.420282    1.702555
 no old-style atom pair restraining (fixing) potential

molecular fragmentation (1/2 indicates fragments):
111111111111111111111111111111111111111111111111111111111111111111111111
111111111111111111111111111111111111111111111111111111111111111111111111
111111111111111111111111111111111111111111111111111111111111111111111111
111111111111111111222222222222222222222222222222222222222222222222222222
222222222222112222
# atoms in fragment 1/2:   236    70
 fragment masses (1/2) :     1540.00      445.56
CMA distance (Bohr)    :  18.755
constraining FC (au)   :  0.0500
           ------------------------------------------------- 
          |        Self-Consistent Charge Iterations        |
           ------------------------------------------------- 

 Ncao       : 729
 Nao        : 728
 Nshell     : 446
 Nel        : 786
 T(el)      :   500.0
 intcut     :    35.0
 scfconv/Eh :  0.100E-06
   qconv/e  :  0.100E-04
 intneglect :  0.100E-08
 broydamp   :      0.400
 iter      E             dE          RMSdq      gap      omega  full diag
   1   -445.2197618 -0.445220E+03  0.431E+00    2.92       0.0  T
   2   -446.1348207 -0.915059E+00  0.209E+00    1.29       1.0  T
   3   -446.1887163 -0.538956E-01  0.116E+00    1.51       1.0  T
   4   -446.2573100 -0.685937E-01  0.250E-01    0.99       1.0  T
   5   -446.2614974 -0.418742E-02  0.119E-01    1.15       1.0  T
   6   -446.2622722 -0.774727E-03  0.526E-02    1.13       1.0  T
   7   -446.2625148 -0.242661E-03  0.228E-02    1.14       1.0  T
   8   -446.2625412 -0.263762E-04  0.115E-02    1.14       1.0  T
   9   -446.2625487 -0.750672E-05  0.525E-03    1.14       1.1  T
  10   -446.2625501 -0.140982E-05  0.274E-03    1.14       2.1  T
  11   -446.2625505 -0.356599E-06  0.116E-03    1.14       4.9  T
  12   -446.2625505 -0.671377E-07  0.517E-04    1.14      11.1  T
  13   -446.2625506 -0.197622E-07  0.243E-04    1.14      23.5  T
  14   -446.2625506 -0.180586E-08  0.103E-04    1.14      55.6  T
  15   -446.2625506 -0.581906E-09  0.402E-05    1.14     142.3  T
  16   -446.2625506 -0.750333E-10  0.182E-05    1.14     314.4  T
speedup  1.74
cpu  time for SCC    5.04 s
wall time for SCC    2.90 s

   *** convergence criteria satisfied after 16 iterations ***

          eigenvalues
 #    :         381        382        383        384        385        386        387        388
 occ. :        2.000      2.000      2.000      2.000      2.000      2.000      2.000      2.000
 eps  :       -10.888    -10.849    -10.839    -10.801    -10.755    -10.595    -10.531    -10.425
 #    :         389        390        391        392        393        394        395        396
 occ. :        2.000      2.000      2.000      2.000      2.000      0.000      0.000      0.000
 eps  :       -10.235    -10.139    -10.039     -9.593     -9.344     -8.205     -8.000     -7.745
 #    :         397        398        399        400        401        402        403        404
 occ. :        0.000      0.000      0.000      0.000      0.000      0.000      0.000      0.000
 eps  :        -6.879     -6.576     -6.567     -6.546     -6.506     -6.447     -6.424     -6.327


   #   Z            q   n(s)   n(p)   n(d)      C6AA      α(0)
   1   7 N     -0.399  1.307  4.092  0.000    30.335     8.180
   2   6 C      0.033  1.059  2.908  0.000    20.044     6.377
   3   6 C      0.259  1.056  2.686  0.000    22.644     7.793
   4   8 O     -0.482  1.745  4.737  0.000    23.391     6.484
   5   6 C     -0.074  1.056  3.017  0.000    21.887     6.657
   6   6 C      0.007  1.084  2.909  0.000    27.868     8.659
   7   6 C     -0.037  1.083  2.954  0.000    28.915     8.818
   8   6 C     -0.050  1.084  2.965  0.000    29.236     8.867
   9   6 C     -0.033  1.084  2.949  0.000    28.828     8.805
  10   6 C     -0.047  1.086  2.961  0.000    29.169     8.856
  11   6 C     -0.062  1.082  2.980  0.000    29.547     8.914
  12   1 H      0.164  0.836  0.000  0.000     1.309     1.792
  13   1 H      0.046  0.954  0.000  0.000     2.376     2.411
  14   1 H      0.047  0.953  0.000  0.000     2.357     2.401
  15   1 H      0.053  0.947  0.000  0.000     2.281     2.362
  16   1 H      0.030  0.970  0.000  0.000     2.582     2.513
  17   1 H      0.053  0.947  0.000  0.000     2.288     2.365
  18   1 H      0.040  0.960  0.000  0.000     2.454     2.450
  19   1 H      0.068  0.932  0.000  0.000     2.110     2.272
  20   1 H      0.062  0.938  0.000  0.000     2.179     2.308
  21   7 N     -0.165  1.255  3.910  0.000    24.576     7.363
  22   6 C      0.002  1.071  2.927  0.000    20.541     6.452
  23   6 C      0.281  1.045  2.674  0.000    22.246     7.725
  24   8 O     -0.487  1.739  4.748  0.000    23.503     6.500
  25   6 C     -0.029  1.070  2.959  0.000    21.062     6.528
  26   6 C     -0.062  1.049  3.013  0.000    21.695     6.631
  27   6 C     -0.123  1.036  3.087  0.000    22.916     6.826
  28   6 C     -0.112  1.035  3.077  0.000    22.705     6.795
  29   1 H      0.216  0.784  0.000  0.000     1.028     1.588
  30   1 H      0.095  0.905  0.000  0.000     1.836     2.119
  31   1 H      0.073  0.927  0.000  0.000     2.055     2.242
  32   1 H      0.026  0.974  0.000  0.000     2.646     2.544
  33   1 H      0.053  0.947  0.000  0.000     2.278     2.360
  34   1 H      0.063  0.937  0.000  0.000     2.160     2.299
  35   1 H      0.056  0.944  0.000  0.000     2.244     2.343
  36   1 H      0.038  0.962  0.000  0.000     2.478     2.462
  37   1 H      0.037  0.963  0.000  0.000     2.486     2.466
  38   1 H      0.045  0.955  0.000  0.000     2.379     2.412
  39   1 H      0.040  0.960  0.000  0.000     2.452     2.449
  40   7 N     -0.185  1.241  3.944  0.000    25.005     7.427
  41   6 C      0.029  1.060  2.910  0.000    20.072     6.377
  42   6 C      0.280  1.047  2.673  0.000    22.259     7.727
  43   8 O     -0.486  1.750  4.736  0.000    23.487     6.498
  44   6 C     -0.080  1.057  3.023  0.000    22.022     6.680
  45   6 C      0.006  1.081  2.912  0.000    27.872     8.660
  46   6 C     -0.040  1.081  2.959  0.000    28.998     8.831
  47   6 C     -0.036  1.078  2.958  0.000    28.890     8.815
  48   6 C     -0.035  1.080  2.954  0.000    28.868     8.811
  49   6 C     -0.032  1.076  2.956  0.000    28.805     8.801
  50   6 C     -0.037  1.081  2.956  0.000    28.932     8.821
  51   1 H      0.206  0.794  0.000  0.000     1.075     1.624
  52   1 H      0.077  0.923  0.000  0.000     2.011     2.218
  53   1 H      0.067  0.933  0.000  0.000     2.124     2.279
  54   1 H      0.059  0.941  0.000  0.000     2.213     2.326
  55   1 H      0.037  0.963  0.000  0.000     2.490     2.468
  56   1 H      0.027  0.973  0.000  0.000     2.632     2.537
  57   1 H      0.038  0.962  0.000  0.000     2.469     2.457
  58   1 H      0.044  0.956  0.000  0.000     2.396     2.421
  59   1 H      0.050  0.950  0.000  0.000     2.322     2.383
  60   7 N     -0.181  1.252  3.929  0.000    24.917     7.414
  61   6 C      0.024  1.061  2.915  0.000    20.156     6.390
  62   6 C      0.276  1.043  2.681  0.000    22.328     7.739
  63   8 O     -0.494  1.751  4.743  0.000    23.656     6.521
  64   6 C     -0.017  1.059  2.959  0.000    20.847     6.494
  65   6 C     -0.122  1.042  3.080  0.000    22.890     6.820
  66   6 C     -0.117  1.039  3.078  0.000    22.799     6.807
  67   1 H      0.203  0.797  0.000  0.000     1.089     1.635
  68   1 H      0.068  0.932  0.000  0.000     2.105     2.269
  69   1 H      0.051  0.949  0.000  0.000     2.311     2.377
  70   1 H      0.057  0.943  0.000  0.000     2.237     2.339
  71   1 H      0.044  0.956  0.000  0.000     2.390     2.418
  72   1 H      0.048  0.952  0.000  0.000     2.342     2.393
  73   1 H      0.056  0.944  0.000  0.000     2.241     2.341
  74   1 H      0.051  0.949  0.000  0.000     2.309     2.376
  75   1 H      0.039  0.961  0.000  0.000     2.464     2.455
  76   7 N     -0.187  1.252  3.935  0.000    25.049     7.433
  77   6 C      0.020  1.062  2.918  0.000    20.230     6.402
  78   6 C      0.268  1.052  2.679  0.000    22.474     7.763
  79   8 O     -0.511  1.751  4.760  0.000    24.023     6.571
  80   6 C     -0.085  1.054  3.031  0.000    22.121     6.695
  81   6 C     -0.080  1.051  3.030  0.000    22.033     6.682
  82   6 C     -0.097  1.057  3.040  0.000    22.344     6.729
  83   6 C     -0.052  1.059  2.992  0.000    21.599     6.634
  84   7 N     -0.144  1.229  3.915  0.000    24.114     7.293
  85   1 H      0.229  0.771  0.000  0.000     0.968     1.542
  86   1 H      0.079  0.921  0.000  0.000     1.993     2.208
  87   1 H      0.068  0.932  0.000  0.000     2.103     2.268
  88   1 H      0.077  0.923  0.000  0.000     2.008     2.216
  89   1 H      0.056  0.944  0.000  0.000     2.246     2.344
  90   1 H      0.063  0.937  0.000  0.000     2.161     2.299
  91   1 H      0.083  0.917  0.000  0.000     1.948     2.183
  92   1 H      0.076  0.924  0.000  0.000     2.020     2.222
  93   1 H      0.109  0.891  0.000  0.000     1.704     2.042
  94   1 H      0.124  0.876  0.000  0.000     1.584     1.968
  95   1 H      0.295  0.705  0.000  0.000     0.727     1.336
  96   1 H      0.297  0.703  0.000  0.000     0.721     1.330
  97   1 H      0.273  0.727  0.000  0.000     0.798     1.400
  98   7 N     -0.177  1.261  3.916  0.000    24.831     7.401
  99   6 C      0.013  1.076  2.911  0.000    20.368     6.427
 100   6 C      0.284  1.045  2.671  0.000    22.191     7.714
 101   8 O     -0.504  1.746  4.758  0.000    23.882     6.552
 102   6 C     -0.021  1.070  2.951  0.000    20.913     6.505
 103   6 C     -0.066  1.054  3.012  0.000    21.767     6.642
 104   6 C     -0.114  1.038  3.076  0.000    22.744     6.801
 105   6 C     -0.112  1.037  3.074  0.000    22.699     6.795
 106   1 H      0.234  0.766  0.000  0.000     0.949     1.526
 107   1 H      0.072  0.928  0.000  0.000     2.065     2.247
 108   1 H      0.045  0.955  0.000  0.000     2.379     2.412
 109   1 H      0.044  0.956  0.000  0.000     2.394     2.420
 110   1 H      0.052  0.948  0.000  0.000     2.300     2.372
 111   1 H      0.060  0.940  0.000  0.000     2.194     2.316
 112   1 H      0.030  0.970  0.000  0.000     2.587     2.515
 113   1 H      0.049  0.951  0.000  0.000     2.326     2.385
 114   1 H      0.051  0.949  0.000  0.000     2.313     2.378
 115   1 H      0.039  0.961  0.000  0.000     2.467     2.456
 116   1 H      0.041  0.959  0.000  0.000     2.437     2.441
 117   7 N     -0.178  1.242  3.936  0.000    24.848     7.403
 118   6 C      0.034  1.051  2.915  0.000    20.006     6.368
 119   6 C      0.274  1.045  2.681  0.000    22.373     7.746
 120   8 O     -0.498  1.746  4.752  0.000    23.751     6.534
 121   6 C     -0.122  1.041  3.081  0.000    22.888     6.819
 122   1 H      0.209  0.791  0.000  0.000     1.061     1.614
 123   1 H      0.071  0.929  0.000  0.000     2.070     2.250
 124   1 H      0.077  0.923  0.000  0.000     2.007     2.215
 125   1 H      0.067  0.933  0.000  0.000     2.122     2.278
 126   1 H      0.061  0.939  0.000  0.000     2.187     2.312
 127   7 N     -0.192  1.255  3.937  0.000    25.161     7.450
 128   6 C      0.026  1.061  2.914  0.000    20.155     6.394
 129   6 C      0.272  1.046  2.682  0.000    22.404     7.751
 130   8 O     -0.490  1.762  4.728  0.000    23.557     6.507
 131   6 C     -0.112  1.068  3.045  0.000    22.645     6.775
 132   6 C      0.290  1.040  2.670  0.000    22.085     7.694
 133   8 O     -0.471  1.744  4.727  0.000    23.157     6.452
 134   7 N     -0.288  1.262  4.025  0.000    27.425     7.778
 135   1 H      0.225  0.775  0.000  0.000     0.985     1.555
 136   1 H      0.088  0.912  0.000  0.000     1.899     2.155
 137   1 H      0.106  0.894  0.000  0.000     1.730     2.057
 138   1 H      0.068  0.932  0.000  0.000     2.104     2.268
 139   1 H      0.232  0.768  0.000  0.000     0.958     1.533
 140   1 H      0.224  0.776  0.000  0.000     0.992     1.560
 141   7 N     -0.183  1.247  3.936  0.000    24.968     7.421
 142   6 C      0.005  1.076  2.919  0.000    20.507     6.449
 143   6 C      0.277  1.045  2.678  0.000    22.316     7.735
 144   8 O     -0.480  1.755  4.725  0.000    23.355     6.479
 145   6 C      0.106  1.052  2.843  0.000    18.950     6.217
 146   8 O     -0.468  1.721  4.747  0.000    22.223     6.364
 147   6 C     -0.138  1.044  3.094  0.000    23.221     6.872
 148   1 H      0.221  0.779  0.000  0.000     1.003     1.569
 149   1 H      0.069  0.931  0.000  0.000     2.097     2.265
 150   1 H      0.061  0.939  0.000  0.000     2.183     2.310
 151   1 H      0.334  0.666  0.000  0.000     0.627     1.244
 152   1 H      0.082  0.918  0.000  0.000     1.961     2.190
 153   1 H      0.055  0.945  0.000  0.000     2.264     2.353
 154   1 H      0.050  0.950  0.000  0.000     2.315     2.379
 155   7 N     -0.181  1.251  3.930  0.000    24.926     7.415
 156   6 C      0.018  1.066  2.916  0.000    20.290     6.415
 157   6 C      0.270  1.046  2.684  0.000    22.439     7.757
 158   8 O     -0.456  1.737  4.719  0.000    22.835     6.407
 159   6 C     -0.083  1.058  3.025  0.000    22.073     6.686
 160   6 C     -0.014  1.055  2.959  0.000    20.794     6.486
 161   6 C     -0.119  1.042  3.077  0.000    22.833     6.812
 162   6 C     -0.139  1.048  3.091  0.000    23.239     6.874
 163   1 H      0.204  0.796  0.000  0.000     1.088     1.634
 164   1 H      0.071  0.929  0.000  0.000     2.072     2.251
 165   1 H      0.069  0.931  0.000  0.000     2.096     2.264
 166   1 H      0.079  0.921  0.000  0.000     1.985     2.203
 167   1 H      0.026  0.974  0.000  0.000     2.641     2.541
 168   1 H      0.047  0.953  0.000  0.000     2.357     2.401
 169   1 H      0.034  0.966  0.000  0.000     2.536     2.490
 170   1 H      0.049  0.951  0.000  0.000     2.328     2.386
 171   1 H      0.060  0.940  0.000  0.000     2.202     2.321
 172   1 H      0.063  0.937  0.000  0.000     2.166     2.302
 173   1 H      0.047  0.953  0.000  0.000     2.359     2.402
 174   7 N     -0.183  1.251  3.932  0.000    24.965     7.421
 175   6 C      0.019  1.067  2.914  0.000    20.274     6.413
 176   6 C      0.272  1.049  2.679  0.000    22.402     7.751
 177   8 O     -0.492  1.763  4.728  0.000    23.604     6.514
 178   6 C     -0.040  1.042  2.998  0.000    21.238     6.550
 179   6 C     -0.000  1.054  2.946  0.000    20.583     6.460
 180  16 S     -0.253  1.921  4.275  0.057   151.940    20.746
 181   6 C     -0.061  1.055  3.006  0.000    21.753     6.653
 182   1 H      0.196  0.804  0.000  0.000     1.129     1.664
 183   1 H      0.076  0.924  0.000  0.000     2.021     2.223
 184   1 H      0.036  0.964  0.000  0.000     2.506     2.475
 185   1 H      0.045  0.955  0.000  0.000     2.379     2.412
 186   1 H      0.059  0.941  0.000  0.000     2.213     2.326
 187   1 H      0.047  0.953  0.000  0.000     2.363     2.404
 188   1 H      0.077  0.923  0.000  0.000     2.009     2.217
 189   1 H      0.048  0.952  0.000  0.000     2.342     2.393
 190   1 H      0.081  0.919  0.000  0.000     1.964     2.192
 191   7 N     -0.167  1.248  3.919  0.000    24.612     7.368
 192   6 C      0.004  1.078  2.918  0.000    20.522     6.452
 193   6 C      0.271  1.050  2.679  0.000    22.420     7.753
 194   8 O     -0.460  1.746  4.714  0.000    22.926     6.420
 195   6 C     -0.077  1.061  3.017  0.000    21.980     6.676
 196   6 C     -0.081  1.055  3.026  0.000    22.031     6.681
 197   6 C     -0.091  1.055  3.036  0.000    22.245     6.716
 198   6 C     -0.053  1.064  2.989  0.000    21.609     6.634
 199   7 N     -0.138  1.226  3.912  0.000    23.982     7.273
 200   1 H      0.221  0.779  0.000  0.000     1.006     1.571
 201   1 H      0.080  0.920  0.000  0.000     1.976     2.198
 202   1 H      0.081  0.919  0.000  0.000     1.969     2.194
 203   1 H      0.064  0.936  0.000  0.000     2.153     2.295
 204   1 H      0.059  0.941  0.000  0.000     2.211     2.325
 205   1 H      0.053  0.947  0.000  0.000     2.278     2.360
 206   1 H      0.086  0.914  0.000  0.000     1.922     2.168
 207   1 H      0.086  0.914  0.000  0.000     1.921     2.167
 208   1 H      0.116  0.884  0.000  0.000     1.643     2.004
 209   1 H      0.106  0.894  0.000  0.000     1.728     2.056
 210   1 H      0.296  0.704  0.000  0.000     0.726     1.335
 211   1 H      0.294  0.706  0.000  0.000     0.731     1.339
 212   1 H      0.302  0.698  0.000  0.000     0.707     1.317
 213   7 N     -0.192  1.271  3.921  0.000    25.169     7.451
 214   6 C      0.024  1.067  2.910  0.000    20.191     6.400
 215   6 C      0.194  1.094  2.712  0.000    23.866     8.001
 216   8 O     -0.362  1.764  4.597  0.000    20.931     6.134
 217   6 C     -0.065  1.055  3.010  0.000    21.750     6.640
 218   6 C     -0.072  1.052  3.020  0.000    21.884     6.661
 219   6 C     -0.100  1.055  3.045  0.000    22.407     6.739
 220   6 C     -0.045  1.060  2.985  0.000    21.484     6.617
 221   7 N     -0.147  1.230  3.916  0.000    24.162     7.301
 222   1 H      0.208  0.792  0.000  0.000     1.064     1.616
 223   1 H      0.095  0.905  0.000  0.000     1.834     2.118
 224   1 H      0.063  0.937  0.000  0.000     2.165     2.301
 225   1 H      0.051  0.949  0.000  0.000     2.311     2.377
 226   1 H      0.057  0.943  0.000  0.000     2.232     2.336
 227   1 H      0.061  0.939  0.000  0.000     2.186     2.312
 228   1 H      0.071  0.929  0.000  0.000     2.076     2.253
 229   1 H      0.090  0.910  0.000  0.000     1.883     2.146
 230   1 H      0.103  0.897  0.000  0.000     1.758     2.074
 231   1 H      0.124  0.876  0.000  0.000     1.580     1.966
 232   1 H      0.309  0.691  0.000  0.000     0.687     1.299
 233   1 H      0.304  0.696  0.000  0.000     0.701     1.311
 234   1 H      0.285  0.715  0.000  0.000     0.759     1.365
 235   7 N     -0.379  1.324  4.055  0.000    29.801     8.108
 236   6 C      0.031  1.064  2.905  0.000    20.080     6.384
 237   6 C      0.208  1.086  2.706  0.000    23.583     7.953
 238   8 O     -0.377  1.760  4.616  0.000    21.218     6.176
 239   6 C     -0.060  1.059  3.001  0.000    21.654     6.625
 240   6 C     -0.090  1.067  3.023  0.000    22.222     6.713
 241   6 C      0.365  1.030  2.605  0.000    20.809     7.465
 242   8 O     -0.601  1.740  4.861  0.000    26.144     6.855
 243   8 O     -0.659  1.788  4.870  0.000    27.604     7.044
 244   1 H      0.156  0.844  0.000  0.000     1.361     1.827
 245   1 H      0.061  0.939  0.000  0.000     2.189     2.314
 246   1 H      0.068  0.932  0.000  0.000     2.109     2.271
 247   1 H      0.033  0.967  0.000  0.000     2.542     2.493
 248   1 H     -0.002  1.002  0.000  0.000     3.091     2.750
 249   1 H     -0.002  1.002  0.000  0.000     3.095     2.751
 250   7 N     -0.387  1.341  4.046  0.000    30.003     8.135
 251   6 C      0.030  1.066  2.904  0.000    20.099     6.387
 252   6 C      0.267  1.058  2.675  0.000    22.501     7.767
 253   8 O     -0.498  1.758  4.740  0.000    23.747     6.533
 254   6 C     -0.118  1.042  3.076  0.000    22.809     6.809
 255   1 H      0.141  0.859  0.000  0.000     1.464     1.895
 256   1 H      0.041  0.959  0.000  0.000     2.435     2.440
 257   1 H      0.052  0.948  0.000  0.000     2.293     2.368
 258   1 H      0.069  0.931  0.000  0.000     2.098     2.265
 259   1 H      0.054  0.946  0.000  0.000     2.266     2.354
 260   7 N     -0.184  1.247  3.936  0.000    24.977     7.423
 261   6 C      0.019  1.075  2.906  0.000    20.283     6.418
 262   6 C      0.267  1.057  2.676  0.000    22.498     7.766
 263   8 O     -0.470  1.742  4.728  0.000    23.128     6.448
 264   6 C     -0.078  1.063  3.014  0.000    21.979     6.674
 265   6 C     -0.003  1.055  2.948  0.000    20.592     6.455
 266   6 C     -0.118  1.045  3.074  0.000    22.823     6.811
 267   6 C     -0.107  1.037  3.069  0.000    22.594     6.778
 268   1 H      0.195  0.805  0.000  0.000     1.131     1.666
 269   1 H      0.070  0.930  0.000  0.000     2.082     2.256
 270   1 H      0.055  0.945  0.000  0.000     2.258     2.350
 271   1 H      0.056  0.944  0.000  0.000     2.248     2.345
 272   1 H      0.029  0.971  0.000  0.000     2.606     2.525
 273   1 H      0.040  0.960  0.000  0.000     2.448     2.447
 274   1 H      0.043  0.957  0.000  0.000     2.405     2.425
 275   1 H      0.047  0.953  0.000  0.000     2.357     2.401
 276   1 H      0.033  0.967  0.000  0.000     2.541     2.493
 277   1 H      0.034  0.966  0.000  0.000     2.531     2.488
 278   1 H      0.036  0.964  0.000  0.000     2.500     2.473
 279   7 N     -0.159  1.238  3.921  0.000    24.433     7.341
 280   6 C      0.017  1.071  2.912  0.000    20.313     6.420
 281   6 C      0.198  1.089  2.713  0.000    23.778     7.986
 282   8 O     -0.336  1.748  4.589  0.000    20.448     6.063
 283   6 C     -0.078  1.054  3.024  0.000    21.985     6.675
 284   6 C     -0.076  1.050  3.025  0.000    21.940     6.668
 285   6 C     -0.094  1.056  3.038  0.000    22.286     6.721
 286   6 C     -0.049  1.061  2.988  0.000    21.541     6.624
 287   7 N     -0.149  1.232  3.918  0.000    24.219     7.309
 288   1 H      0.199  0.801  0.000  0.000     1.112     1.652
 289   1 H      0.097  0.903  0.000  0.000     1.817     2.108
 290   1 H      0.076  0.924  0.000  0.000     2.024     2.225
 291   1 H      0.073  0.927  0.000  0.000     2.049     2.238
 292   1 H      0.054  0.946  0.000  0.000     2.266     2.354
 293   1 H      0.053  0.947  0.000  0.000     2.277     2.360
 294   1 H      0.079  0.921  0.000  0.000     1.985     2.203
 295   1 H      0.082  0.918  0.000  0.000     1.958     2.188
 296   1 H      0.113  0.887  0.000  0.000     1.674     2.023
 297   1 H      0.107  0.893  0.000  0.000     1.723     2.053
 298   1 H      0.306  0.694  0.000  0.000     0.694     1.305
 299   1 H      0.300  0.700  0.000  0.000     0.714     1.324
 300   1 H      0.302  0.698  0.000  0.000     0.709     1.319
 301   1 H      0.176  0.824  0.000  0.000     1.237     1.742
 302   1 H      0.096  0.904  0.000  0.000     1.822     2.111
 303   1 H      0.197  0.803  0.000  0.000     1.121     1.658
 304   1 H      0.061  0.939  0.000  0.000     2.183     2.311
 305   1 H      0.189  0.811  0.000  0.000     1.164     1.690
 306   1 H      0.077  0.923  0.000  0.000     2.005     2.214

 Mol. C6AA /au·bohr⁶  :     817085.906576
 Mol. C8AA /au·bohr⁸  :   18324942.192463
 Mol. α(0) /au        :       1357.305972

 
molecular dipole:
                 x           y           z       tot (Debye)
 q only:      260.203     128.919      15.873
   full:      259.994     127.888      17.888     737.875
molecular quadrupole (traceless):
                xx          xy          yy          xz          yz          zz
 q only:    18861.316   17046.558   -5764.503    1859.636    1008.808  -13096.813
  q+dip:    18875.576   16884.824   -5835.590    2105.168    1093.163  -13039.987
   full:    18872.712   16885.649   -5832.533    2103.196    1095.242  -13040.178
speedup  1.78
cpu  time for grad    5.99 s
wall time for grad    3.37 s

SCC energy    :    -446.2804095
rep           :       5.4969950
ES            :       1.5637870
AES           :      -0.0865889
AXC           :       0.1766393
disp          :      -0.3578769
XB            :       0.0000000
fix           :       0.0000000
Gborn         :       0.0000000
Gsasa         :       0.0000000
Ghb           :       0.0000000
Gshift        :       0.0000000
Gsolv         :      -0.6674009     -418.80
Etot ala COSMO:    -446.2804095
grad norm     :       0.4010685
total E       :    -440.7580327
atomizationE  :      82.9716892    52065.52
(atE without considering molecular charge,
 total energy contains solvation terms)
H-L gap (eV)  :          1.1390

------------------------------------------------------------------------
 * finished run on 2019/05/09 at 17:00:58.406     
------------------------------------------------------------------------
 total:
 * wall-time:     0 d,  0 h,  0 min,  3.698 sec
 *  cpu-time:     0 d,  0 h,  0 min,  6.500 sec
 * ratio c/w:     1.758 speedup
 SCF:
 * wall-time:     0 d,  0 h,  0 min,  3.537 sec
 *  cpu-time:     0 d,  0 h,  0 min,  6.317 sec
 * ratio c/w:     1.786 speedup

