      -----------------------------------------------------------      
     |                   =====================                   |     
     |                           x T B                           |     
     |                   =====================                   |     
     |                         S. Grimme                         |     
     |          Mulliken Center for Theoretical Chemistry        |     
     |                    University of Bonn                     |     
     |                 Version 6.0.1 (SAW181210)                 |     
      -----------------------------------------------------------      

   This program is distributed in the hope that it will be useful,
   but WITHOUT ANY WARRANTY; without even the implied warranty of
   MERCHANTABILITY or FITNESS FOR A PARTICULAR PURPOSE.
   
   FOR NON-COMMERCIAL, ACADEMIA USE ONLY.
   
   Cite this work as:
   S. Grimme, C. Bannwarth, P. Shushkov, J. Comput. Theory Chem., 2017,
   13, 1989-2009.
   C. Bannwarth, S. Ehlert and S. Grimme., ChemRxiv, 2018, preprint.
   http://doi.org/10.26434/chemrxiv.7246238.v1
   
   for sTDA-xTB:
   S. Grimme and C. Bannwarth, J. Chem. Phys., 2016, 145, 054103.
   
   in the mass-spec context:
   V. Asgeirsson, C. Bauer and S. Grimme, Chem. Sci., 2017, 8, 4879.
   
   if GBSA is used:
   P. Shushkov, F. März and S. Grimme, unpublished.
   
   for ANC optimizer:
   S. Grimme, unpublished.
   Rational Function algorithm used in ANCopt:
   F. Eckert, P. Pulay, H.-J. Werner, J. Comput. Chem., 1997, 18, 1473.
   
   with help from (in alphabetical order)
   C. Bannwarth, F. Bohle, G. Brandenburg, E. Caldeweyher, M. Checinski,
   S. Dohm, S. Ehlert, S. Ehrlich, F. März, H. Neugebauer, J. Pisarek,
   P. Pracht, P. Shushkov, and S. Spicher.
   
 * started run on 2019/05/07 at 11:22:38.314     
========================================================================
 # omp threads = 2
========================================================================
number of atoms            : 105
number of electrons        : 288
charge                     : -1
spin                       : .0
first test random number   : .4308

########################################################################
# WARNING! Please study the warnings concerning your input carefully
#  - Process number higher than OMP_NUM_THREADS, I hope you know what you are doing.
########################################################################

           ------------------------------------------------- 
          |                 G F N 2 - x T B                 |
          | Geometry, Frequencies, Noncovalent interactions |
          |            JCTC 2018 parametrisation            |
           ------------------------------------------------- 
 
      method parameters     
 k(s)        :  1.8500
 k(p)        :  2.2300
 k(d)        :  2.2300
 k(f)        :  2.0000
 kEN (H0ij)  : -2.0000
 D4 a1       :  0.5200
 D4 a2       :  5.0000
 D4 s6       :  1.0000
 D4 s8       :  2.7000
 D4 s9       :  5.0000
 alphaj      :  2.0000

 Solvent             : h2o
 Using internal parameter file: .param_gbsa2_h2o
 Gsolv ref. state (COSMO-RS): gsolv [1 M gas/solution]
 temperature (mdtemp)       :    298.150000000000     
 dielectric constant        :    80.2000000000000     
 rho                        :    1.00000000000000     
 mass                       :    18.0000000000000     
 surface tension            :    15.5689454083859     
 probe radius               :   0.975313790000000     
 vdW radii scaling          :    1.00000000000000     
 Gshift (Eh)                :   1.857443126794793E-003
 c1                         :    1.55243817000000     
 soset                      :   0.130326360000000     
 HB correction              :  T

            Z     q(EN)     CN     RAES       Cart. coordinates
     1  N   5.0   -0.21    3.24    1.97    48.64999    59.57746   175.87478
     2  C   4.0    0.02    4.32    4.23    49.07762    62.21339   175.23137
     3  C   4.0    0.15    3.45    3.09    49.52127    63.64133   177.68897
     4  O   6.0   -0.31    1.34    1.80    48.64586    62.80740   179.66386
     5  C   4.0   -0.05    4.27    4.14    46.77336    63.42660   173.94050
     6  C   4.0   -0.03    4.21    4.01    47.37531    66.06014   172.99734
     7  C   4.0    0.24    3.08    3.02    45.40327    67.24547   171.12833
     8  O   6.0   -0.32    1.16    1.80    43.26615    66.31207   170.99589
     9  O   6.0   -0.30    1.17    1.80    46.26166    69.12582   169.97196
    10  H   1.0    0.13    1.08    1.44    48.56385    59.15100   177.75660
    11  H   1.0    0.03    1.05    1.44    50.71077    62.34445   173.96880
    12  H   1.0    0.04    1.03    1.43    46.19588    62.27015   172.33823
    13  H   1.0    0.05    1.03    1.43    45.18857    63.49864   175.26153
    14  H   1.0    0.06    1.03    1.43    47.47785    67.42543   174.54556
    15  H   1.0    0.04    1.03    1.43    49.17614    66.09686   171.99650
    16  N   5.0   -0.14    3.51    2.09    50.83921    65.78397   177.58321
    17  C   4.0    0.04    4.46    4.48    51.39628    67.38543   179.73577
    18  C   4.0    0.14    3.48    3.11    50.80480    70.09917   179.01959
    19  O   6.0   -0.30    1.28    1.80    50.96776    70.72695   176.79478
    20  C   4.0    0.06    4.26    4.11    54.24841    67.08912   180.32862
    21  O   6.0   -0.25    2.11    1.84    54.79027    64.56281   180.94731
    22  C   4.0   -0.07    4.10    3.80    55.08687    68.90465   182.38771
    23  H   1.0    0.08    1.08    1.44    51.37699    66.50578   175.90132
    24  H   1.0    0.07    1.06    1.44    50.25962    66.77359   181.34339
    25  H   1.0    0.05    1.04    1.43    55.28144    67.46125   178.56838
    26  H   1.0    0.13    1.04    1.43    54.22266    64.28587   182.67539
    27  H   1.0    0.04    1.00    1.43    57.06594    68.56179   182.81612
    28  H   1.0    0.05    1.01    1.43    54.85331    70.85006   181.78213
    29  H   1.0    0.06    1.00    1.43    53.95789    68.55059   184.06944
    30  N   5.0   -0.14    3.50    2.07    50.32565    71.75091   180.85581
    31  C   4.0    0.04    4.36    4.30    49.53482    74.30304   180.25995
    32  C   4.0    0.24    3.14    3.03    51.03523    76.35940   181.86949
    33  O   6.0   -0.32    1.17    1.80    49.98955    78.39143   182.35430
    34  C   4.0   -0.03    4.32    4.23    46.67119    74.63006   180.60048
    35  C   4.0   -0.01    3.56    3.14    45.13159    72.61572   179.35462
    36  C   4.0   -0.04    3.47    3.10    43.55874    73.15028   177.33290
    37  C   4.0   -0.03    3.54    3.13    45.18967    70.14399   180.22256
    38  C   4.0   -0.04    3.39    3.08    42.11596    71.27199   176.22730
    39  C   4.0   -0.04    3.38    3.07    43.80888    68.24865   179.06908
    40  C   4.0   -0.04    3.37    3.07    42.23942    68.80060   177.07295
    41  O   6.0   -0.33    1.38    1.80    53.23376    75.71495   182.53400
    42  H   1.0    0.10    1.08    1.44    50.00996    71.10366   182.62680
    43  H   1.0    0.06    1.06    1.44    50.03286    74.61871   178.27269
    44  H   1.0    0.04    1.03    1.43    46.27327    74.61267   182.62914
    45  H   1.0    0.04    1.03    1.43    46.17987    76.49282   179.87694
    46  H   1.0    0.04    1.03    1.43    43.49096    75.04434   176.56615
    47  H   1.0    0.06    1.04    1.43    46.28385    69.66066   181.87282
    48  H   1.0    0.05    1.03    1.43    40.95892    71.71019   174.60024
    49  H   1.0    0.05    1.03    1.43    43.96469    66.33433   179.76493
    50  H   1.0    0.05    1.03    1.43    41.17337    67.34957   176.12284
    51  N   5.0   -0.23    3.24    1.96    46.52554    68.46151   191.41096
    52  C   4.0    0.02    4.31    4.22    47.33869    69.55789   189.04800
    53  C   4.0    0.14    3.41    3.08    48.29708    67.59734   187.18116
    54  O   6.0   -0.33    1.30    1.80    49.00017    68.30843   185.09797
    55  C   4.0   -0.05    4.25    4.10    49.26232    71.71591   189.39594
    56  C   4.0   -0.05    4.18    3.96    51.67956    70.79849   190.70768
    57  C   4.0   -0.06    4.13    3.85    53.82201    72.75185   190.72908
    58  C   4.0   -0.04    4.10    3.80    54.84813    73.31800   188.05440
    59  N   5.0   -0.12    4.01    2.88    54.46868    75.98996   187.24467
    60  H   1.0    0.07    1.03    1.43    47.68281    67.19494   192.25799
    61  H   1.0    0.04    1.06    1.44    45.64564    70.38288   188.16921
    62  H   1.0    0.05    1.03    1.43    49.65869    72.46493   187.51482
    63  H   1.0    0.03    1.02    1.43    48.35306    73.18706   190.51757
    64  H   1.0    0.03    1.03    1.43    51.20165    70.33786   192.65452
    65  H   1.0    0.04    1.03    1.43    52.33456    69.08015   189.77025
    66  H   1.0    0.03    1.03    1.43    53.12191    74.47616   191.61124
    67  H   1.0    0.02    1.03    1.43    55.33068    72.01412   191.91491
    68  H   1.0    0.03    1.02    1.43    56.85961    72.90831   187.94719
    69  H   1.0    0.05    1.03    1.43    53.88885    72.11633   186.68598
    70  H   1.0    0.10    1.15    1.45    54.18783    76.07931   185.20093
    71  H   1.0    0.05    1.03    1.43    52.83713    76.70016   188.00946
    72  H   1.0    0.04    1.02    1.43    55.94947    77.11336   187.77819
    73  N   5.0   -0.14    3.45    2.05    48.23906    65.15202   187.80600
    74  C   4.0    0.04    4.38    4.34    49.10100    63.19970   186.07577
    75  C   4.0    0.14    3.38    3.07    47.14306    61.02650   185.89041
    76  O   6.0   -0.32    1.22    1.80    46.75688    59.60013   187.69288
    77  C   4.0    0.03    4.14    3.88    51.67328    62.15014   186.94532
    78  O   6.0   -0.27    2.07    1.83    53.50543    64.04855   186.62502
    79  H   1.0    0.07    1.07    1.44    48.04520    64.61062   189.63074
    80  H   1.0    0.07    1.07    1.44    49.32052    64.07073   184.21684
    81  H   1.0    0.04    1.01    1.43    51.51715    61.59936   188.93466
    82  H   1.0    0.04    1.01    1.43    52.12741    60.47903   185.80285
    83  H   1.0    0.10    1.02    1.43    55.00437    63.59111   187.56049
    84  N   5.0   -0.14    3.50    2.08    45.91139    60.82316   183.68895
    85  C   4.0    0.03    4.36    4.31    44.45651    58.56906   183.04393
    86  C   4.0    0.07    3.26    3.05    46.37981    56.62531   182.15836
    87  O   6.0   -0.31    1.20    1.80    47.98354    57.19158   180.59826
    88  C   4.0   -0.05    4.40    4.37    42.65745    59.11832   180.89234
    89  C   4.0   -0.03    4.22    4.03    40.75487    61.15048   181.64053
    90  C   4.0   -0.09    4.10    3.81    39.56166    62.26530   179.25489
    91  C   4.0   -0.09    4.12    3.85    38.75988    60.03654   183.36033
    92  H   1.0    0.11    1.12    1.45    46.58954    61.78701   182.17213
    93  H   1.0    0.04    1.05    1.44    43.47976    57.93078   184.74713
    94  H   1.0    0.05    1.03    1.43    43.77687    59.75901   179.27754
    95  H   1.0    0.03    1.03    1.43    41.66836    57.39671   180.34776
    96  H   1.0    0.04    1.06    1.44    41.75935    62.67000   182.62926
    97  H   1.0    0.03    1.00    1.43    38.40495    63.89334   179.71782
    98  H   1.0    0.04    1.00    1.43    41.02373    62.89310   177.94978
    99  H   1.0    0.03    1.00    1.43    38.41522    60.84338   178.31123
   100  H   1.0    0.03    1.00    1.43    37.47551    61.49277   184.01772
   101  H   1.0    0.03    1.00    1.43    37.68163    58.62413   182.33467
   102  H   1.0    0.03    1.00    1.43    39.60390    59.15788   185.01522
   103  H   1.0    0.09    1.08    1.44    47.16827    59.06530   175.21543
   104  H   1.0    0.08    1.08    1.44    46.30202    69.69392   192.56151
   105  H   1.0    0.04    1.04    1.44    46.33710    54.86885   182.85414

  Z AO/shell   Hii/eV     exponent
  1     Wed Apr 25 08:07:45 CEST 2018   EN: 2.200 GM2: 0.406  GM3: 0.0800  RAES: 1.40
     1s    -10.707211    1.230000
  6     Wed Apr 25 08:07:45 CEST 2018   EN: 2.550 GM2: 0.538  GM3: 0.1500  RAES: 3.00
     2s    -13.970922    2.096432
     2p    -10.063292    1.800000
  7     Wed Apr 25 08:07:45 CEST 2018   EN: 3.040 GM2: 0.461  GM3:-0.0640  RAES: 1.90
     2s    -16.686243    2.339881
     2p    -12.523956    2.014332
  8     Wed Apr 25 08:07:45 CEST 2018   EN: 3.440 GM2: 0.452  GM3:-0.0517  RAES: 1.80
     2s    -20.229985    2.439742
     2p    -15.503117    2.137023
 no old-style atom pair restraining (fixing) potential

molecular fragmentation (1/2 indicates fragments):
111111111111111111111111111111111111111111111111112222222222222222222222
222222222222222222222222222222122
# atoms in fragment 1/2:    51    54
 fragment masses (1/2) :      393.40      331.43
CMA distance (Bohr)    :   8.937
constraining FC (au)   :  0.0500
           ------------------------------------------------- 
          |        Self-Consistent Charge Iterations        |
           ------------------------------------------------- 

 Ncao       : 258
 Nao        : 258
 Nshell     : 156
 Nel        : 288
 T(el)      :   500.0
 intcut     :    35.0
 scfconv/Eh :  0.100E-06
   qconv/e  :  0.100E-04
 intneglect :  0.100E-08
 broydamp   :      0.400
 iter      E             dE          RMSdq      gap      omega  full diag
   1   -165.3084522 -0.165308E+03  0.466E+00    3.89       0.0  T
   2   -165.7102513 -0.401799E+00  0.220E+00    2.13       1.0  T
   3   -165.7326191 -0.223678E-01  0.120E+00    2.09       1.0  T
   4   -165.7545921 -0.219730E-01  0.260E-01    1.26       1.0  T
   5   -165.7560381 -0.144598E-02  0.130E-01    1.44       1.0  T
   6   -165.7562527 -0.214630E-03  0.525E-02    1.45       1.0  T
   7   -165.7563152 -0.624849E-04  0.223E-02    1.48       1.0  T
   8   -165.7563223 -0.703583E-05  0.102E-02    1.50       1.0  T
   9   -165.7563250 -0.269134E-05  0.473E-03    1.50       2.1  T
  10   -165.7563254 -0.415752E-06  0.203E-03    1.50       4.8  T
  11   -165.7563255 -0.100413E-06  0.751E-04    1.50      13.0  T
  12   -165.7563255 -0.909387E-08  0.305E-04    1.50      31.9  T
  13   -165.7563255 -0.205029E-08  0.151E-04    1.50      64.6  T
  14   -165.7563255 -0.505452E-09  0.579E-05    1.50     168.4  T
  15   -165.7563255 -0.890736E-10  0.253E-05    1.50     386.5  T
speedup  1.99
cpu  time for SCC    0.63 s
wall time for SCC    0.32 s

   *** convergence criteria satisfied after 15 iterations ***

          eigenvalues
 #    :         132        133        134        135        136        137        138        139
 occ. :        2.000      2.000      2.000      2.000      2.000      2.000      2.000      2.000
 eps  :       -11.070    -10.999    -10.984    -10.943    -10.893    -10.783    -10.716    -10.632
 #    :         140        141        142        143        144        145        146        147
 occ. :        2.000      2.000      2.000      2.000      2.000      0.000      0.000      0.000
 eps  :       -10.236    -10.169    -10.161     -9.854     -9.511     -8.008     -6.416     -6.077
 #    :         148        149        150        151        152        153        154        155
 occ. :        0.000      0.000      0.000      0.000      0.000      0.000      0.000      0.000
 eps  :        -6.067     -6.013     -5.917     -5.848     -5.376     -4.414     -2.501     -1.356


   #   Z            q   n(s)   n(p)   n(d)      C6AA      α(0)
   1   7 N     -0.409  1.324  4.085  0.000    30.616     8.218
   2   6 C      0.039  1.057  2.904  0.000    19.928     6.358
   3   6 C      0.277  1.048  2.676  0.000    22.319     7.737
   4   8 O     -0.487  1.718  4.769  0.000    23.489     6.498
   5   6 C     -0.040  1.049  2.991  0.000    21.291     6.568
   6   6 C     -0.086  1.063  3.022  0.000    22.133     6.699
   7   6 C      0.373  1.024  2.602  0.000    20.675     7.441
   8   8 O     -0.628  1.763  4.865  0.000    26.818     6.943
   9   8 O     -0.666  1.779  4.887  0.000    27.795     7.069
  10   1 H      0.197  0.803  0.000  0.000     1.122     1.659
  11   1 H      0.023  0.977  0.000  0.000     2.686     2.563
  12   1 H      0.033  0.967  0.000  0.000     2.542     2.493
  13   1 H      0.020  0.980  0.000  0.000     2.733     2.585
  14   1 H      0.006  0.994  0.000  0.000     2.959     2.690
  15   1 H      0.007  0.993  0.000  0.000     2.935     2.679
  16   7 N     -0.173  1.242  3.931  0.000    24.740     7.387
  17   6 C      0.012  1.066  2.922  0.000    20.375     6.428
  18   6 C      0.278  1.041  2.681  0.000    22.288     7.731
  19   8 O     -0.531  1.761  4.769  0.000    24.471     6.632
  20   6 C      0.120  1.045  2.835  0.000    18.713     6.175
  21   8 O     -0.475  1.727  4.748  0.000    22.366     6.384
  22   6 C     -0.150  1.047  3.103  0.000    23.453     6.906
  23   1 H      0.186  0.814  0.000  0.000     1.179     1.701
  24   1 H      0.085  0.915  0.000  0.000     1.928     2.171
  25   1 H      0.029  0.971  0.000  0.000     2.600     2.522
  26   1 H      0.333  0.667  0.000  0.000     0.629     1.245
  27   1 H      0.084  0.916  0.000  0.000     1.942     2.179
  28   1 H      0.058  0.942  0.000  0.000     2.227     2.334
  29   1 H      0.073  0.927  0.000  0.000     2.052     2.240
  30   7 N     -0.170  1.251  3.920  0.000    24.688     7.379
  31   6 C      0.015  1.072  2.913  0.000    20.337     6.423
  32   6 C      0.359  1.030  2.611  0.000    20.904     7.482
  33   8 O     -0.573  1.766  4.807  0.000    25.465     6.766
  34   6 C     -0.066  1.051  3.015  0.000    21.762     6.640
  35   6 C      0.014  1.081  2.905  0.000    27.696     8.632
  36   6 C     -0.040  1.080  2.960  0.000    28.995     8.831
  37   6 C     -0.049  1.081  2.967  0.000    29.209     8.864
  38   6 C     -0.028  1.079  2.949  0.000    28.701     8.786
  39   6 C     -0.032  1.076  2.956  0.000    28.793     8.800
  40   6 C     -0.029  1.076  2.953  0.000    28.714     8.787
  41   8 O     -0.574  1.743  4.831  0.000    25.485     6.769
  42   1 H      0.223  0.777  0.000  0.000     0.996     1.563
  43   1 H      0.036  0.964  0.000  0.000     2.501     2.473
  44   1 H      0.054  0.946  0.000  0.000     2.265     2.354
  45   1 H      0.052  0.948  0.000  0.000     2.299     2.371
  46   1 H      0.026  0.974  0.000  0.000     2.646     2.544
  47   1 H      0.046  0.954  0.000  0.000     2.371     2.408
  48   1 H      0.014  0.986  0.000  0.000     2.820     2.626
  49   1 H      0.025  0.975  0.000  0.000     2.651     2.546
  50   1 H      0.020  0.980  0.000  0.000     2.728     2.583
  51   7 N     -0.399  1.323  4.075  0.000    30.339     8.180
  52   6 C      0.029  1.057  2.914  0.000    20.101     6.386
  53   6 C      0.276  1.044  2.680  0.000    22.336     7.739
  54   8 O     -0.506  1.742  4.764  0.000    23.920     6.557
  55   6 C     -0.077  1.057  3.020  0.000    21.967     6.673
  56   6 C     -0.070  1.051  3.019  0.000    21.844     6.654
  57   6 C     -0.089  1.057  3.032  0.000    22.198     6.709
  58   6 C     -0.037  1.055  2.982  0.000    21.332     6.594
  59   7 N     -0.183  1.254  3.930  0.000    24.963     7.421
  60   1 H      0.158  0.842  0.000  0.000     1.346     1.818
  61   1 H      0.057  0.943  0.000  0.000     2.237     2.339
  62   1 H      0.042  0.958  0.000  0.000     2.428     2.437
  63   1 H      0.053  0.947  0.000  0.000     2.287     2.365
  64   1 H      0.058  0.942  0.000  0.000     2.220     2.330
  65   1 H      0.042  0.958  0.000  0.000     2.425     2.435
  66   1 H      0.076  0.924  0.000  0.000     2.018     2.221
  67   1 H      0.083  0.917  0.000  0.000     1.944     2.180
  68   1 H      0.109  0.891  0.000  0.000     1.708     2.044
  69   1 H      0.090  0.910  0.000  0.000     1.881     2.145
  70   1 H      0.302  0.698  0.000  0.000     0.707     1.317
  71   1 H      0.258  0.742  0.000  0.000     0.851     1.445
  72   1 H      0.279  0.721  0.000  0.000     0.778     1.382
  73   7 N     -0.167  1.244  3.922  0.000    24.607     7.367
  74   6 C      0.014  1.065  2.921  0.000    20.343     6.423
  75   6 C      0.261  1.051  2.688  0.000    22.598     7.784
  76   8 O     -0.486  1.746  4.740  0.000    23.484     6.497
  77   6 C      0.079  1.036  2.885  0.000    19.479     6.323
  78   8 O     -0.478  1.720  4.758  0.000    22.422     6.392
  79   1 H      0.215  0.785  0.000  0.000     1.035     1.594
  80   1 H      0.079  0.921  0.000  0.000     1.986     2.204
  81   1 H      0.053  0.947  0.000  0.000     2.285     2.364
  82   1 H      0.030  0.970  0.000  0.000     2.586     2.515
  83   1 H      0.359  0.641  0.000  0.000     0.566     1.182
  84   7 N     -0.174  1.265  3.909  0.000    24.774     7.392
  85   6 C      0.030  1.057  2.912  0.000    20.068     6.379
  86   6 C      0.199  1.085  2.716  0.000    23.757     7.983
  87   8 O     -0.353  1.755  4.599  0.000    20.770     6.110
  88   6 C     -0.066  1.055  3.011  0.000    21.752     6.638
  89   6 C     -0.009  1.054  2.954  0.000    20.695     6.470
  90   6 C     -0.106  1.040  3.066  0.000    22.575     6.774
  91   6 C     -0.122  1.040  3.081  0.000    22.882     6.820
  92   1 H      0.231  0.769  0.000  0.000     0.962     1.537
  93   1 H      0.091  0.909  0.000  0.000     1.867     2.137
  94   1 H      0.046  0.954  0.000  0.000     2.366     2.405
  95   1 H      0.066  0.934  0.000  0.000     2.132     2.283
  96   1 H      0.035  0.965  0.000  0.000     2.520     2.482
  97   1 H      0.043  0.957  0.000  0.000     2.409     2.427
  98   1 H      0.016  0.984  0.000  0.000     2.798     2.616
  99   1 H      0.046  0.954  0.000  0.000     2.373     2.409
 100   1 H      0.051  0.949  0.000  0.000     2.313     2.378
 101   1 H      0.051  0.949  0.000  0.000     2.305     2.374
 102   1 H      0.048  0.952  0.000  0.000     2.344     2.394
 103   1 H      0.170  0.830  0.000  0.000     1.274     1.768
 104   1 H      0.195  0.805  0.000  0.000     1.133     1.667
 105   1 H      0.086  0.914  0.000  0.000     1.919     2.166

 Mol. C6AA /au·bohr⁶  :     103407.359369
 Mol. C8AA /au·bohr⁸  :    2293867.303860
 Mol. α(0) /au        :        481.489708

 
molecular dipole:
                 x           y           z       tot (Debye)
 q only:      -43.024     -67.950    -162.773
   full:      -43.132     -67.778    -163.078     462.082
molecular quadrupole (traceless):
                xx          xy          yy          xz          yz          zz
 q only:    13626.547   -4344.942    9378.715  -10347.358  -16534.985  -23005.262
  q+dip:    13652.060   -4345.494    9460.041  -10394.110  -16521.863  -23112.101
   full:    13654.030   -4346.105    9459.159  -10394.876  -16521.617  -23113.189
speedup  1.99
cpu  time for grad    0.86 s
wall time for grad    0.43 s

SCC energy    :    -165.7592560
rep           :       1.9569043
ES            :       0.6857017
AES           :      -0.0267150
AXC           :       0.0458523
disp          :      -0.1279045
XB            :       0.0000000
fix           :       0.0000000
Gborn         :       0.0000000
Gsasa         :       0.0000000
Ghb           :       0.0000000
Gshift        :       0.0000000
Gsolv         :      -0.2208675     -138.60
Etot ala COSMO:    -165.7592560
grad norm     :       0.2943105
total E       :    -163.7934715
atomizationE  :      29.8519241    18732.37
(atE without considering molecular charge,
 total energy contains solvation terms)
H-L gap (eV)  :          1.5030

------------------------------------------------------------------------
 * finished run on 2019/05/07 at 11:22:38.999     
------------------------------------------------------------------------
 total:
 * wall-time:     0 d,  0 h,  0 min,  0.683 sec
 *  cpu-time:     0 d,  0 h,  0 min,  1.114 sec
 * ratio c/w:     1.631 speedup
 SCF:
 * wall-time:     0 d,  0 h,  0 min,  0.483 sec
 *  cpu-time:     0 d,  0 h,  0 min,  0.963 sec
 * ratio c/w:     1.994 speedup

