      -----------------------------------------------------------      
     |                   =====================                   |     
     |                           x T B                           |     
     |                   =====================                   |     
     |                         S. Grimme                         |     
     |          Mulliken Center for Theoretical Chemistry        |     
     |                    University of Bonn                     |     
     |                 Version 6.0.1 (SAW181210)                 |     
      -----------------------------------------------------------      

   This program is distributed in the hope that it will be useful,
   but WITHOUT ANY WARRANTY; without even the implied warranty of
   MERCHANTABILITY or FITNESS FOR A PARTICULAR PURPOSE.
   
   FOR NON-COMMERCIAL, ACADEMIA USE ONLY.
   
   Cite this work as:
   S. Grimme, C. Bannwarth, P. Shushkov, J. Comput. Theory Chem., 2017,
   13, 1989-2009.
   C. Bannwarth, S. Ehlert and S. Grimme., ChemRxiv, 2018, preprint.
   http://doi.org/10.26434/chemrxiv.7246238.v1
   
   for sTDA-xTB:
   S. Grimme and C. Bannwarth, J. Chem. Phys., 2016, 145, 054103.
   
   in the mass-spec context:
   V. Asgeirsson, C. Bauer and S. Grimme, Chem. Sci., 2017, 8, 4879.
   
   if GBSA is used:
   P. Shushkov, F. März and S. Grimme, unpublished.
   
   for ANC optimizer:
   S. Grimme, unpublished.
   Rational Function algorithm used in ANCopt:
   F. Eckert, P. Pulay, H.-J. Werner, J. Comput. Chem., 1997, 18, 1473.
   
   with help from (in alphabetical order)
   C. Bannwarth, F. Bohle, G. Brandenburg, E. Caldeweyher, M. Checinski,
   S. Dohm, S. Ehlert, S. Ehrlich, F. März, H. Neugebauer, J. Pisarek,
   P. Pracht, P. Shushkov, and S. Spicher.
   
 * started run on 2019/05/06 at 14:40:12.036     
========================================================================
 # omp threads = 2
========================================================================
number of atoms            : 564
number of electrons        : 1502
charge                     : -6
spin                       : .0
first test random number   : .5221

########################################################################
# WARNING! Please study the warnings concerning your input carefully
#  - Process number higher than OMP_NUM_THREADS, I hope you know what you are doing.
########################################################################

           ------------------------------------------------- 
          |                 G F N 2 - x T B                 |
          | Geometry, Frequencies, Noncovalent interactions |
          |            JCTC 2018 parametrisation            |
           ------------------------------------------------- 
 
      method parameters     
 k(s)        :  1.8500
 k(p)        :  2.2300
 k(d)        :  2.2300
 k(f)        :  2.0000
 kEN (H0ij)  : -2.0000
 D4 a1       :  0.5200
 D4 a2       :  5.0000
 D4 s6       :  1.0000
 D4 s8       :  2.7000
 D4 s9       :  5.0000
 alphaj      :  2.0000

 Solvent             : h2o
 Using internal parameter file: .param_gbsa2_h2o
 Gsolv ref. state (COSMO-RS): gsolv [1 M gas/solution]
 temperature (mdtemp)       :    298.150000000000     
 dielectric constant        :    80.2000000000000     
 rho                        :    1.00000000000000     
 mass                       :    18.0000000000000     
 surface tension            :    15.5689454083859     
 probe radius               :   0.975313790000000     
 vdW radii scaling          :    1.00000000000000     
 Gshift (Eh)                :   1.857443126794793E-003
 c1                         :    1.55243817000000     
 soset                      :   0.130326360000000     
 HB correction              :  T

            Z     q(EN)     CN     RAES       Cart. coordinates
     1  N   5.0   -0.24    3.19    1.95   117.18612    98.84965   377.88307
     2  C   4.0    0.02    4.23    4.06   116.31449   101.45228   377.67212
     3  C   4.0    0.06    3.23    3.04   118.56271   103.24299   378.15994
     4  O   6.0   -0.33    1.15    1.80   119.28962   104.75118   376.53906
     5  C   4.0   -0.06    4.34    4.26   114.13113   101.99305   379.44596
     6  C   4.0   -0.04    4.12    3.83   113.37004   104.74328   379.18348
     7  S   6.0   -0.06    2.52    3.10   111.23211   105.73413   381.68548
     8  C   4.0   -0.08    3.90    3.46   113.62551   106.06619   384.11297
     9  H   1.0    0.06    1.03    1.43   116.24542    97.73062   379.12225
    10  H   1.0    0.04    1.05    1.44   115.71863   101.81194   375.71199
    11  H   1.0    0.03    1.03    1.43   112.52671   100.77803   379.00556
    12  H   1.0    0.03    1.04    1.43   114.72801   101.59606   381.38085
    13  H   1.0    0.04    1.08    1.44   115.00525   105.99020   379.27402
    14  H   1.0    0.04    1.07    1.44   112.37623   105.07792   377.41332
    15  H   1.0    0.03    1.04    1.44   112.67268   106.71813   385.81103
    16  H   1.0    0.02    1.04    1.43   114.51966   104.25574   384.48402
    17  H   1.0    0.03    1.04    1.43   115.01228   107.45609   383.52198
    18  N   5.0   -0.23    3.21    1.96   123.86161   102.45590   372.54793
    19  C   4.0    0.02    4.32    4.23   122.74165   103.65749   370.37388
    20  C   4.0    0.14    3.46    3.10   122.79982   106.56391   370.61091
    21  O   6.0   -0.33    1.25    1.80   123.52005   107.87292   368.85256
    22  C   4.0   -0.05    4.34    4.28   120.04977   102.73673   369.99999
    23  C   4.0   -0.02    4.22    4.05   118.65145   104.36641   368.02774
    24  C   4.0   -0.08    4.11    3.82   119.74681   104.18741   365.37098
    25  C   4.0   -0.08    4.13    3.87   115.87352   103.63364   367.93274
    26  H   1.0    0.07    1.03    1.43   122.69619   101.29916   373.54958
    27  H   1.0    0.02    1.05    1.44   123.88802   103.24778   368.69262
    28  H   1.0    0.03    1.02    1.43   120.04313   100.75161   369.44974
    29  H   1.0    0.05    1.03    1.43   119.06742   102.91512   371.80581
    30  H   1.0    0.05    1.07    1.44   118.77130   106.33963   368.64025
    31  H   1.0    0.03    1.00    1.43   118.71513   105.42718   364.10289
    32  H   1.0    0.03    1.00    1.43   121.70593   104.78653   365.31432
    33  H   1.0    0.03    1.00    1.43   119.61833   102.24982   364.69649
    34  H   1.0    0.04    1.00    1.43   114.86831   104.88546   366.65941
    35  H   1.0    0.05    1.00    1.43   115.64516   101.70298   367.28372
    36  H   1.0    0.03    1.01    1.43   115.03044   103.84741   369.78486
    37  N   5.0   -0.15    3.44    2.04   122.07554   107.63235   372.79488
    38  C   4.0    0.03    4.32    4.24   122.18138   110.36381   373.05014
    39  C   4.0    0.07    3.19    3.03   124.92942   111.36155   373.13212
    40  O   6.0   -0.32    1.13    1.80   125.38443   113.41418   372.17372
    41  C   4.0   -0.05    4.33    4.26   120.59978   111.18692   375.31424
    42  C   4.0   -0.02    4.17    3.94   117.73262   110.70850   375.17103
    43  C   4.0   -0.08    4.14    3.88   116.67102   111.00569   377.82377
    44  C   4.0   -0.08    4.11    3.81   116.30847   112.55436   373.48925
    45  H   1.0    0.10    1.09    1.44   121.37404   106.61342   374.25705
    46  H   1.0    0.06    1.06    1.44   121.41367   111.20161   371.30743
    47  H   1.0    0.04    1.03    1.43   121.33872   110.17411   376.95677
    48  H   1.0    0.04    1.03    1.43   120.92067   113.20203   375.62181
    49  H   1.0    0.05    1.05    1.44   117.40504   108.77449   374.51241
    50  H   1.0    0.03    1.00    1.43   114.63530   110.72569   377.84821
    51  H   1.0    0.04    1.00    1.43   117.54222   109.66832   379.11960
    52  H   1.0    0.03    1.00    1.43   117.05724   112.90546   378.51340
    53  H   1.0    0.03    1.00    1.43   114.29834   112.13406   373.51565
    54  H   1.0    0.03    1.00    1.43   116.58738   114.47841   374.15513
    55  H   1.0    0.04    1.00    1.43   116.94633   112.45864   371.53319
    56  N   5.0   -0.22    3.19    1.95   125.59994   119.04715   369.95848
    57  C   4.0    0.03    4.38    4.34   123.77136   120.44011   371.43428
    58  C   4.0    0.14    3.44    3.09   124.66643   121.06419   374.07960
    59  O   6.0   -0.33    1.21    1.80   124.77678   123.30494   374.64013
    60  C   4.0   -0.05    4.45    4.45   121.24211   119.16166   371.76010
    61  C   4.0   -0.03    4.22    4.05   119.40982   120.10559   369.78229
    62  C   4.0   -0.09    4.12    3.84   119.79780   118.59689   367.35688
    63  C   4.0   -0.08    4.12    3.85   116.74091   119.85351   370.76579
    64  H   1.0    0.09    1.03    1.43   125.51677   117.13678   369.91708
    65  H   1.0    0.03    1.07    1.44   123.56694   122.26817   370.48126
    66  H   1.0    0.05    1.03    1.43   121.46933   117.11348   371.63932
    67  H   1.0    0.04    1.05    1.44   120.53716   119.61091   373.64781
    68  H   1.0    0.03    1.06    1.44   119.78722   122.10106   369.39511
    69  H   1.0    0.02    1.00    1.43   118.54102   119.25330   365.87260
    70  H   1.0    0.02    1.00    1.43   121.73127   118.79152   366.68135
    71  H   1.0    0.03    1.00    1.43   119.42591   116.60468   367.68830
    72  H   1.0    0.04    1.00    1.43   115.39262   120.63785   369.43159
    73  H   1.0    0.03    1.00    1.43   116.29468   117.87244   371.07539
    74  H   1.0    0.04    1.00    1.43   116.54428   120.86756   372.54527
    75  N   5.0   -0.14    3.43    2.03   125.00682   119.06800   375.68703
    76  C   4.0    0.03    4.30    4.20   126.13208   119.37654   378.20082
    77  C   4.0    0.05    3.27    3.05   128.99441   119.43905   378.16779
    78  O   6.0   -0.33    1.15    1.80   130.09506   117.53612   377.22291
    79  C   4.0   -0.04    4.49    4.53   125.64037   116.95829   379.69315
    80  C   4.0   -0.03    4.17    3.93   122.96695   116.31786   380.47736
    81  C   4.0   -0.09    4.12    3.84   123.12869   113.91581   382.05826
    82  C   4.0   -0.08    4.11    3.82   121.82504   118.49815   381.95380
    83  H   1.0    0.09    1.07    1.44   125.57945   117.44477   374.83309
    84  H   1.0    0.03    1.03    1.43   125.42276   121.11994   379.13142
    85  H   1.0    0.05    1.04    1.43   126.46079   115.44883   378.53718
    86  H   1.0    0.02    1.04    1.43   126.81997   117.12989   381.40140
    87  H   1.0    0.04    1.05    1.44   121.80967   116.01924   378.78034
    88  H   1.0    0.03    1.00    1.43   121.25865   113.29140   382.62517
    89  H   1.0    0.03    1.00    1.43   124.09713   112.45636   380.98140
    90  H   1.0    0.02    1.00    1.43   124.22722   114.32665   383.75232
    91  H   1.0    0.03    1.00    1.43   119.91623   118.11367   382.61872
    92  H   1.0    0.02    0.99    1.43   122.98271   118.99061   383.61858
    93  H   1.0    0.04    0.99    1.43   121.75548   120.25204   380.85189
    94  N   5.0   -0.24    3.21    1.96   121.26817   119.70783   388.46768
    95  C   4.0    0.02    4.25    4.10   118.73914   118.74981   388.06046
    96  C   4.0    0.06    3.26    3.04   117.04808   119.47323   390.21881
    97  O   6.0   -0.32    1.15    1.80   114.71066   119.28732   390.02777
    98  C   4.0   -0.06    4.41    4.40   118.80283   115.90269   387.69687
    99  C   4.0   -0.02    4.25    4.11   116.25348   114.71977   387.23256
   100  C   4.0   -0.09    4.22    4.03   116.58187   112.40507   385.63038
   101  C   4.0   -0.08    4.23    4.05   115.16821   113.66910   389.60148
   102  H   1.0    0.05    1.02    1.43   122.55482   118.51713   389.26944
   103  H   1.0    0.05    1.05    1.44   117.95639   119.74161   386.40356
   104  H   1.0    0.03    1.04    1.43   120.08115   115.59450   386.10744
   105  H   1.0    0.02    1.03    1.43   119.72392   115.11405   389.37069
   106  H   1.0    0.05    1.05    1.44   115.00576   116.12388   386.36654
   107  H   1.0    0.03    1.01    1.43   114.76636   111.46950   385.41489
   108  H   1.0    0.03    1.00    1.43   117.29179   112.87871   383.75653
   109  H   1.0    0.02    1.01    1.43   117.91357   111.15036   386.55630
   110  H   1.0    0.03    1.00    1.43   113.34759   112.78390   389.24290
   111  H   1.0    0.02    1.01    1.43   116.46540   112.27018   390.36962
   112  H   1.0    0.05    1.01    1.43   114.89635   115.10646   391.05135
   113  N   5.0   -0.18    3.49    2.07   112.33119   129.58540   391.75000
   114  C   4.0    0.03    4.50    4.54   110.15084   129.45642   390.08930
   115  C   4.0    0.13    3.42    3.08   110.49071   130.89127   387.58396
   116  O   6.0   -0.31    1.29    1.80   109.15923   130.36110   385.75898
   117  C   4.0   -0.05    4.31    4.22   107.92606   130.49207   391.61974
   118  C   4.0   -0.06    4.30    4.19   109.08646   130.96673   394.21140
   119  C   4.0   -0.03    4.28    4.16   111.87723   131.44159   393.68151
   120  H   1.0    0.05    1.08    1.44   109.93028   127.47764   389.55370
   121  H   1.0    0.03    1.03    1.43   107.32459   132.26760   390.76464
   122  H   1.0    0.04    1.04    1.43   106.37477   129.14326   391.67998
   123  H   1.0    0.00    1.02    1.43   108.27938   132.55145   395.23924
   124  H   1.0    0.02    1.03    1.43   108.99483   129.27765   395.38979
   125  H   1.0    0.01    1.01    1.43   112.26119   133.36148   392.96659
   126  H   1.0    0.00    1.01    1.43   113.10319   131.16573   395.32589
   127  N   5.0   -0.16    3.29    1.98   112.36211   132.74980   387.51721
   128  C   4.0   -0.00    4.21    4.02   113.44157   133.42048   385.06392
   129  C   4.0    0.16    3.35    3.07   113.15247   131.47900   382.85880
   130  O   6.0   -0.31    1.21    1.80   112.49799   131.98185   380.70354
   131  H   1.0    0.06    1.08    1.44   113.68599   132.57475   388.88694
   132  H   1.0    0.04    1.02    1.43   112.59871   135.19812   384.41572
   133  H   1.0    0.03    1.03    1.43   115.47888   133.69343   385.26154
   134  N   5.0   -0.14    3.58    2.14   113.82188   129.10655   383.55754
   135  C   4.0    0.04    4.43    4.42   114.28116   127.26800   381.62776
   136  C   4.0    0.16    3.43    3.09   111.88962   125.76229   380.95669
   137  O   6.0   -0.33    1.31    1.80   111.78084   124.42348   379.16008
   138  C   4.0    0.02    4.18    3.97   116.42468   125.59124   382.58746
   139  O   6.0   -0.26    2.07    1.83   115.62582   124.17002   384.66338
   140  H   1.0    0.07    1.08    1.44   114.59741   128.80339   385.27450
   141  H   1.0    0.05    1.07    1.44   114.91359   128.23204   379.89546
   142  H   1.0    0.04    1.02    1.43   117.00005   124.22493   381.13716
   143  H   1.0    0.03    1.00    1.43   118.09178   126.77915   383.04862
   144  H   1.0    0.11    1.02    1.43   115.67105   125.16095   386.19973
   145  N   5.0   -0.14    3.54    2.11   109.89442   126.14383   382.49779
   146  C   4.0    0.04    4.50    4.53   107.75680   124.44999   382.22581
   147  C   4.0    0.16    3.44    3.09   106.44476   124.88133   379.68973
   148  O   6.0   -0.32    1.28    1.80   105.73127   123.01337   378.52721
   149  C   4.0   -0.04    4.27    4.15   105.88243   124.58661   384.40303
   150  C   4.0   -0.02    3.69    3.23   107.16901   124.08993   386.85789
   151  C   4.0   -0.01    3.64    3.19   109.51053   123.05933   387.24060
   152  C   4.0   -0.00    3.91    3.48   106.18668   124.63783   389.32559
   153  N   5.0   -0.13    3.50    2.08   110.00879   122.85873   389.78643
   154  C   4.0    0.02    3.91    3.47   107.98506   123.73777   391.10772
   155  C   4.0   -0.06    3.43    3.09   103.94012   125.70972   390.21418
   156  C   4.0   -0.06    3.41    3.08   107.36842   123.43339   393.61224
   157  C   4.0   -0.06    3.37    3.07   103.35474   125.50522   392.71874
   158  C   4.0   -0.06    3.40    3.08   104.99621   124.24091   394.36087
   159  H   1.0    0.11    1.11    1.45   109.98075   127.37677   383.96032
   160  H   1.0    0.05    1.07    1.44   108.52082   122.52094   382.12365
   161  H   1.0    0.05    1.03    1.43   105.03722   126.46926   384.47001
   162  H   1.0    0.04    1.03    1.43   104.39870   123.18479   384.06257
   163  H   1.0    0.06    1.02    1.43   110.94821   122.45740   385.93245
   164  H   1.0    0.09    1.05    1.44   111.67396   122.26975   390.49335
   165  H   1.0    0.04    1.03    1.43   102.69458   126.61248   388.86872
   166  H   1.0    0.04    1.02    1.43   108.73868   122.61680   394.89426
   167  H   1.0    0.03    1.03    1.43   101.61923   126.26273   393.46884
   168  H   1.0    0.04    1.03    1.43   104.46160   123.93555   396.30451
   169  N   5.0   -0.14    3.43    2.04   106.07099   127.27035   378.89740
   170  C   4.0    0.04    4.41    4.40   104.62513   127.81188   376.56621
   171  C   4.0    0.14    3.47    3.10   106.06190   126.71962   374.28411
   172  O   6.0   -0.31    1.28    1.80   105.09737   124.93606   373.13944
   173  C   4.0   -0.05    4.17    3.94   103.67802   130.53183   376.46916
   174  C   4.0    0.24    3.06    3.02   100.91365   130.73551   377.72309
   175  O   6.0   -0.31    1.19    1.80    99.88843   128.71701   378.40120
   176  O   6.0   -0.34    1.15    1.80   100.03730   132.90886   377.90903
   177  H   1.0    0.08    1.06    1.44   106.51086   128.72178   380.05199
   178  H   1.0    0.08    1.09    1.44   102.90451   126.63794   376.66984
   179  H   1.0    0.04    1.02    1.43   104.90868   131.83925   377.48026
   180  H   1.0    0.03    1.02    1.43   103.48538   131.18313   374.52393
   181  N   5.0   -0.10    3.65    2.21   108.36329   127.60655   373.75852
   182  C   4.0    0.03    4.62    4.69   110.23905   126.37973   372.17379
   183  C   4.0    0.16    3.47    3.10   110.10431   123.53901   371.94033
   184  O   6.0   -0.33    1.33    1.80   110.05096   122.46932   369.87550
   185  C   4.0   -0.05    4.42    4.41   112.70861   127.20278   373.42043
   186  C   4.0   -0.05    4.29    4.17   112.16806   129.96401   373.91314
   187  C   4.0   -0.01    4.43    4.43   109.46468   129.85339   374.89221
   188  H   1.0    0.03    1.05    1.44   110.12376   127.15855   370.24983
   189  H   1.0    0.06    1.03    1.43   113.01379   126.20026   375.19563
   190  H   1.0    0.03    1.02    1.43   114.32986   126.87463   372.20121
   191  H   1.0    0.04    1.02    1.43   113.41913   130.81705   375.30258
   192  H   1.0    0.02    1.03    1.43   112.27264   131.03958   372.15986
   193  H   1.0    0.06    1.03    1.43   109.48955   129.68857   376.95216
   194  H   1.0    0.02    1.02    1.43   108.36474   131.51936   374.38012
   195  N   5.0   -0.14    3.55    2.11   110.32546   122.26745   374.07374
   196  C   4.0    0.03    4.59    4.65   110.31596   119.53186   374.06823
   197  C   4.0    0.16    3.55    3.14   107.90744   118.61854   372.83279
   198  O   6.0   -0.32    1.33    1.80   107.97118   117.08194   371.09531
   199  C   4.0   -0.02    4.38    4.35   110.62515   118.47975   376.74629
   200  C   4.0   -0.05    4.25    4.10   113.32890   119.06525   377.50940
   201  C   4.0   -0.08    4.15    3.91   110.07565   115.66534   376.74985
   202  C   4.0   -0.07    4.05    3.70   113.57304   119.12428   380.34483
   203  H   1.0    0.11    1.08    1.44   110.41127   123.13714   375.78373
   204  H   1.0    0.05    1.06    1.44   111.87803   118.85875   372.87886
   205  H   1.0    0.06    1.06    1.44   109.29689   119.45499   377.99429
   206  H   1.0    0.03    1.03    1.43   114.58522   117.64063   376.70746
   207  H   1.0    0.05    1.04    1.43   113.89525   120.90483   376.77142
   208  H   1.0    0.04    1.00    1.43   110.40827   114.86180   378.61067
   209  H   1.0    0.05    1.01    1.43   108.11831   115.29404   376.25537
   210  H   1.0    0.04    1.00    1.43   111.28291   114.71255   375.39001
   211  H   1.0    0.04    1.00    1.43   115.51930   119.46136   380.90806
   212  H   1.0    0.06    1.01    1.43   112.42530   120.63609   381.11538
   213  H   1.0    0.04    1.00    1.43   112.93606   117.35434   381.17490
   214  N   5.0   -0.13    3.51    2.08   105.75420   119.53048   373.79168
   215  C   4.0    0.04    4.50    4.54   103.35499   118.59857   372.87975
   216  C   4.0    0.16    3.48    3.11   103.15902   118.86475   369.95303
   217  O   6.0   -0.32    1.33    1.80   102.69323   117.09675   368.48705
   218  C   4.0    0.05    4.27    4.13   101.18320   119.99770   374.16811
   219  O   6.0   -0.27    2.17    1.85   101.38255   119.97498   376.80111
   220  C   4.0   -0.07    4.17    3.94    98.81230   118.54342   373.53453
   221  H   1.0    0.11    1.08    1.44   105.78168   120.90217   375.12433
   222  H   1.0    0.05    1.05    1.44   103.21925   116.57115   373.31637
   223  H   1.0    0.05    1.04    1.43   101.10560   121.94781   373.45915
   224  H   1.0    0.14    1.04    1.43   102.64937   121.18056   377.36627
   225  H   1.0    0.04    1.00    1.43    97.17501   119.53984   374.25767
   226  H   1.0    0.04    1.01    1.43    98.60008   118.29423   371.50927
   227  H   1.0    0.05    1.05    1.44    98.90743   116.69631   374.43036
   228  N   5.0   -0.14    3.49    2.07   103.54008   121.23289   369.16334
   229  C   4.0    0.03    4.33    4.26   104.05592   121.88490   366.56101
   230  C   4.0    0.16    3.50    3.12   105.47434   119.74594   365.21307
   231  O   6.0   -0.32    1.26    1.80   104.58440   118.67189   363.33930
   232  C   4.0   -0.08    4.15    3.91   105.65676   124.28104   366.53052
   233  H   1.0    0.10    1.11    1.44   104.05258   122.53925   370.47636
   234  H   1.0    0.04    1.05    1.44   102.27063   122.16655   365.53937
   235  H   1.0    0.02    1.00    1.43   105.99505   124.88006   364.59710
   236  H   1.0    0.04    1.00    1.43   104.64361   125.76682   367.52760
   237  H   1.0    0.07    1.03    1.43   107.45048   123.97087   367.47010
   238  N   5.0   -0.14    3.57    2.13   107.81790   119.36772   366.04426
   239  C   4.0    0.03    4.35    4.30   109.61377   117.98553   364.53835
   240  C   4.0    0.15    3.45    3.10   108.91762   115.18323   364.59601
   241  O   6.0   -0.32    1.29    1.80   108.83008   113.94928   362.61688
   242  C   4.0   -0.08    4.10    3.80   112.23152   118.81774   365.32463
   243  H   1.0    0.12    1.11    1.45   108.46499   120.21015   367.63566
   244  H   1.0    0.05    1.07    1.44   109.30291   118.52178   362.55206
   245  H   1.0    0.03    1.00    1.43   113.67965   117.91107   364.19209
   246  H   1.0    0.04    1.00    1.43   112.36285   120.85621   365.10710
   247  H   1.0    0.05    1.00    1.43   112.53317   118.36051   367.30602
   248  N   5.0   -0.14    3.51    2.08   108.23964   114.12972   366.77475
   249  C   4.0    0.04    4.50    4.53   107.32373   111.56446   366.70184
   250  C   4.0    0.15    3.44    3.09   104.82370   111.22895   365.28259
   251  O   6.0   -0.32    1.25    1.80   104.40513   109.17354   364.30553
   252  C   4.0   -0.05    4.41    4.40   107.03397   110.49725   369.33140
   253  C   4.0   -0.02    4.21    4.01   109.55307   110.29945   370.69012
   254  C   4.0   -0.08    4.10    3.80   109.04313   109.77369   373.49424
   255  C   4.0   -0.08    4.11    3.83   111.16246   108.26663   369.44406
   256  H   1.0    0.12    1.12    1.45   108.07797   115.14237   368.38909
   257  H   1.0    0.05    1.07    1.44   108.68294   110.44345   365.60643
   258  H   1.0    0.05    1.03    1.43   105.75990   111.74082   370.38234
   259  H   1.0    0.04    1.03    1.43   106.14502   108.63902   369.22874
   260  H   1.0    0.04    1.06    1.44   110.52037   112.12281   370.55263
   261  H   1.0    0.03    1.00    1.43   110.79130   109.68420   374.56887
   262  H   1.0    0.04    1.00    1.43   107.86892   111.25790   374.29293
   263  H   1.0    0.04    1.00    1.43   108.04880   107.98761   373.72494
   264  H   1.0    0.03    1.00    1.43   112.90158   107.99878   370.50388
   265  H   1.0    0.04    1.00    1.43   110.13671   106.48704   369.41153
   266  H   1.0    0.04    1.00    1.43   111.65727   108.79829   367.52789
   267  N   5.0   -0.13    3.46    2.05   103.21542   113.19156   365.16046
   268  C   4.0    0.04    4.39    4.36   101.01484   113.08848   363.51617
   269  C   4.0    0.14    3.48    3.10   101.72739   112.80654   360.75742
   270  O   6.0   -0.30    1.25    1.80   100.94452   110.96545   359.46256
   271  C   4.0    0.03    4.20    4.00    99.38029   115.45231   363.75921
   272  O   6.0   -0.25    2.05    1.83    98.10576   115.45397   366.07290
   273  H   1.0    0.12    1.11    1.45   103.53711   114.82794   366.09655
   274  H   1.0    0.05    1.05    1.44    99.83008   111.44489   364.00886
   275  H   1.0    0.06    1.02    1.43   100.55537   117.14845   363.55097
   276  H   1.0    0.05    1.02    1.43    97.92865   115.42573   362.28294
   277  H   1.0    0.14    1.06    1.44    99.42196   115.71367   367.34175
   278  N   5.0   -0.15    3.44    2.04   103.16919   114.67470   359.71655
   279  C   4.0    0.04    4.45    4.45   104.26049   114.23152   357.20612
   280  C   4.0    0.16    3.52    3.12   105.18145   111.53709   356.80378
   281  O   6.0   -0.30    1.27    1.80   104.45096   110.26749   354.98808
   282  C   4.0   -0.05    4.31    4.21   106.39654   116.09094   356.74215
   283  C   4.0   -0.04    4.24    4.08   105.26945   118.72749   356.45845
   284  C   4.0    0.13    3.22    3.04   104.52224   119.15484   353.69055
   285  O   6.0   -0.35    1.19    1.80   106.15616   119.37960   352.06532
   286  N   5.0   -0.22    3.16    1.95   102.00742   119.30549   353.24312
   287  H   1.0    0.11    1.09    1.44   104.05565   115.89407   360.89774
   288  H   1.0    0.05    1.06    1.44   102.73884   114.50248   355.81357
   289  H   1.0    0.05    1.03    1.43   107.70740   115.97771   358.32848
   290  H   1.0    0.04    1.03    1.43   107.39876   115.57816   355.01439
   291  H   1.0    0.04    1.03    1.43   103.67417   118.95352   357.73759
   292  H   1.0    0.03    1.03    1.43   106.70493   120.13289   356.90933
   293  H   1.0    0.06    1.03    1.43   100.75298   119.16740   354.66094
   294  H   1.0    0.06    1.02    1.43   101.35105   119.65605   351.48910
   295  N   5.0   -0.14    3.47    2.06   106.98974   110.66506   358.35934
   296  C   4.0    0.04    4.45    4.46   107.87173   108.10645   358.05362
   297  C   4.0    0.16    3.50    3.11   105.71337   106.20217   357.73580
   298  O   6.0   -0.32    1.25    1.80   105.80064   104.63224   356.01780
   299  C   4.0   -0.05    4.31    4.21   109.58961   107.45422   360.24704
   300  C   4.0   -0.05    4.24    4.08   110.86196   104.90600   359.85977
   301  C   4.0   -0.01    4.27    4.14   111.59850   103.84140   362.43330
   302  N   5.0   -0.15    3.40    2.02   113.03734   101.54052   362.32165
   303  C   4.0    0.08    3.38    3.07   115.22213   101.45784   361.08370
   304  N   5.0   -0.21    3.28    1.98   116.19140   103.50412   359.92716
   305  N   5.0   -0.21    3.23    1.96   116.30251    99.19617   360.76195
   306  H   1.0    0.11    1.09    1.44   107.43260   111.62521   359.95019
   307  H   1.0    0.04    1.06    1.44   108.91860   108.00706   356.25638
   308  H   1.0    0.04    1.03    1.43   110.97822   108.97097   360.44707
   309  H   1.0    0.05    1.03    1.43   108.41695   107.43966   361.94816
   310  H   1.0    0.05    1.04    1.43   109.52524   103.62801   358.95457
   311  H   1.0    0.03    1.04    1.43   112.46602   105.15229   358.59969
   312  H   1.0    0.03    1.02    1.43   112.62899   105.31031   363.48223
   313  H   1.0    0.05    1.04    1.43   109.87697   103.44373   363.48124
   314  H   1.0    0.11    1.09    1.44   112.49654   100.15035   363.57008
   315  H   1.0    0.07    1.04    1.43   115.74544   105.25631   360.50328
   316  H   1.0    0.05    1.03    1.43   117.86756   103.34108   359.02625
   317  H   1.0    0.07    1.04    1.43   115.61404    97.75793   361.80989
   318  H   1.0    0.05    1.03    1.43   118.07700    99.05902   360.07821
   319  N   5.0   -0.13    3.41    2.03   103.81615   106.17879   359.41701
   320  C   4.0    0.04    4.24    4.08   101.61433   104.61206   358.92504
   321  C   4.0    0.08    3.19    3.03   100.33860   104.91462   356.29173
   322  O   6.0   -0.34    1.10    1.80    99.39761   103.07086   355.19988
   323  C   4.0   -0.08    4.10    3.79    99.64377   105.00524   360.99902
   324  H   1.0    0.11    1.08    1.44   103.59865   107.58131   360.69178
   325  H   1.0    0.05    1.06    1.44   102.23892   102.63434   358.95351
   326  H   1.0    0.03    1.00    1.43    97.97661   103.84032   360.66866
   327  H   1.0    0.04    1.00    1.43   100.42809   104.56825   362.84461
   328  H   1.0    0.05    1.00    1.43    99.01176   106.96578   361.01407
   329  N   5.0   -0.22    3.25    1.97   107.40515    98.25527   371.34063
   330  C   4.0    0.03    4.30    4.19   108.52291   100.34585   372.70734
   331  C   4.0    0.14    3.41    3.08   106.45366   102.28930   373.38366
   332  O   6.0   -0.33    1.34    1.80   106.00079   102.81234   375.58635
   333  C   4.0   -0.05    4.22    4.05   110.76716   101.34308   371.14494
   334  C   4.0   -0.04    4.20    4.00   112.76726    99.28607   370.83201
   335  C   4.0    0.23    3.09    3.02   112.67312    97.70955   368.35000
   336  O   6.0   -0.33    1.21    1.80   111.51296    98.46188   366.41535
   337  O   6.0   -0.35    1.18    1.80   113.88697    95.69557   368.53277
   338  H   1.0    0.09    1.04    1.43   108.00608    98.03448   369.53943
   339  H   1.0    0.04    1.05    1.44   109.21382    99.65226   374.54160
   340  H   1.0    0.06    1.03    1.43   110.10256   101.92781   369.28106
   341  H   1.0    0.03    1.02    1.43   111.55378   102.98054   372.12001
   342  H   1.0    0.03    1.03    1.43   114.67641   100.04399   370.93657
   343  H   1.0    0.04    1.03    1.43   112.62863    97.89522   372.35145
   344  N   5.0   -0.15    3.44    2.04   105.10640   103.31809   371.51335
   345  C   4.0    0.04    4.37    4.33   102.87535   104.75328   372.12025
   346  C   4.0    0.08    3.28    3.05   101.23138   103.57334   374.17844
   347  O   6.0   -0.31    1.15    1.80   100.43753   105.04424   375.83660
   348  C   4.0   -0.05    4.39    4.36   101.35463   105.18152   369.72115
   349  C   4.0   -0.02    4.20    3.99    99.25910   107.13431   369.95030
   350  C   4.0   -0.07    4.12    3.84   100.19441   109.79535   370.45562
   351  C   4.0   -0.08    4.15    3.90    97.86861   107.15306   367.44618
   352  H   1.0    0.09    1.09    1.44   105.36306   102.75311   369.69594
   353  H   1.0    0.05    1.06    1.44   103.43763   106.58730   372.92383
   354  H   1.0    0.05    1.03    1.43   102.62385   105.81297   368.21262
   355  H   1.0    0.03    1.03    1.43   100.51584   103.38024   369.14475
   356  H   1.0    0.04    1.05    1.44    97.92178   106.58331   371.45048
   357  H   1.0    0.04    1.00    1.43    98.58401   111.08177   370.47378
   358  H   1.0    0.04    1.00    1.43   101.13944   109.94260   372.27480
   359  H   1.0    0.05    1.01    1.43   101.45646   110.39545   368.94929
   360  H   1.0    0.04    1.00    1.43    96.30201   108.49663   367.43862
   361  H   1.0    0.04    1.00    1.43    99.14784   107.66367   365.91669
   362  H   1.0    0.03    1.00    1.43    97.04625   105.30944   367.01910
   363  N   5.0   -0.20    3.21    1.96   102.40845    99.61245   378.92558
   364  C   4.0    0.03    4.34    4.27   104.01040    99.68602   381.14959
   365  C   4.0    0.14    3.49    3.11   104.02571   102.42287   382.22353
   366  O   6.0   -0.34    1.30    1.80   103.60001   102.96102   384.44967
   367  C   4.0    0.05    4.22    4.05   106.80671    98.93684   380.66788
   368  O   6.0   -0.29    2.09    1.84   107.12640    96.45495   379.69011
   369  C   4.0   -0.09    4.13    3.86   108.18482    99.07082   383.19041
   370  H   1.0    0.09    1.02    1.43   103.21525    99.00181   377.29107
   371  H   1.0    0.03    1.05    1.44   103.23716    98.43144   382.61299
   372  H   1.0    0.05    1.04    1.43   107.59747   100.30882   379.31755
   373  H   1.0    0.09    1.03    1.43   108.91767    96.10869   379.70885
   374  H   1.0    0.02    1.00    1.43   110.18163    98.66179   382.91700
   375  H   1.0    0.04    1.01    1.43   107.99968   100.92146   384.05540
   376  H   1.0    0.02    1.00    1.43   107.40319    97.65112   384.45580
   377  N   5.0   -0.14    3.54    2.10   104.61354   104.17096   380.52373
   378  C   4.0    0.04    4.51    4.55   104.75577   106.77646   381.30567
   379  C   4.0    0.16    3.58    3.15   102.27300   107.72478   382.34237
   380  O   6.0   -0.31    1.32    1.80   102.24273   109.33192   384.00607
   381  C   4.0   -0.04    4.34    4.28   105.38556   108.54211   379.13292
   382  C   4.0   -0.01    3.75    3.28   104.90745   111.25935   379.73810
   383  C   4.0   -0.01    3.62    3.18   103.51582   112.89213   378.28764
   384  C   4.0    0.01    3.89    3.46   106.14558   112.77321   381.59057
   385  N   5.0   -0.13    3.48    2.07   103.91958   115.33892   379.00715
   386  C   4.0    0.03    3.92    3.49   105.45280   115.31416   381.08536
   387  C   4.0   -0.05    3.40    3.08   107.89342   112.27610   383.48643
   388  C   4.0   -0.05    3.40    3.08   106.31043   117.31499   382.55820
   389  C   4.0   -0.05    3.38    3.07   108.78352   114.27651   384.89814
   390  C   4.0   -0.05    3.37    3.07   107.94250   116.75846   384.50422
   391  H   1.0    0.12    1.11    1.45   104.75755   103.71572   378.67431
   392  H   1.0    0.05    1.07    1.44   106.16555   106.93369   382.81468
   393  H   1.0    0.04    1.03    1.43   107.37002   108.30016   378.60617
   394  H   1.0    0.05    1.04    1.43   104.21585   108.00601   377.51477
   395  H   1.0    0.05    1.02    1.43   102.28834   112.46115   376.72973
   396  H   1.0    0.09    1.07    1.44   102.92625   116.84220   378.37009
   397  H   1.0    0.05    1.03    1.43   108.54778   110.37212   383.82314
   398  H   1.0    0.05    1.03    1.43   105.72420   119.22193   382.13100
   399  H   1.0    0.04    1.03    1.43   110.14173   113.94391   386.38254
   400  H   1.0    0.05    1.03    1.43   108.64539   118.23709   385.72224
   401  N   5.0   -0.14    3.39    2.02   100.20640   106.73467   381.25832
   402  C   4.0    0.02    4.15    3.90    97.73504   107.55664   382.07786
   403  C   4.0    0.09    3.13    3.03    97.23685   106.93686   384.88571
   404  O   6.0   -0.31    1.13    1.80    96.52575   108.59721   386.36022
   405  H   1.0    0.10    1.08    1.44   100.33217   105.76671   379.61578
   406  H   1.0    0.06    1.02    1.43    97.52465   109.60868   381.87176
   407  H   1.0    0.04    1.02    1.43    96.29858   106.61035   380.93372
   408  N   5.0   -0.20    3.26    1.97   101.97822   105.53510   388.79914
   409  C   4.0    0.03    4.47    4.50   103.80510   106.78759   390.40712
   410  C   4.0    0.14    3.51    3.12   102.95282   109.44293   391.08028
   411  O   6.0   -0.34    1.28    1.80   103.09277   110.22799   393.27287
   412  C   4.0   -0.02    4.30    4.20   106.41626   106.88484   389.23187
   413  C   4.0   -0.08    4.17    3.93   108.08893   108.61475   390.81088
   414  C   4.0   -0.09    4.15    3.90   107.40347   104.20208   389.19774
   415  H   1.0    0.12    1.07    1.44   102.52201   104.77100   387.13445
   416  H   1.0    0.03    1.06    1.44   103.89920   105.75431   392.20690
   417  H   1.0    0.05    1.05    1.44   106.27034   107.65258   387.31498
   418  H   1.0    0.02    1.00    1.43   110.05757   108.44733   390.25215
   419  H   1.0    0.04    1.00    1.43   107.54086   110.58549   390.61341
   420  H   1.0    0.03    1.00    1.43   107.94417   108.12969   392.80512
   421  H   1.0    0.03    1.00    1.43   109.28243   104.13317   388.37213
   422  H   1.0    0.02    1.00    1.43   107.50663   103.48534   391.11966
   423  H   1.0    0.05    1.01    1.43   106.15875   102.99084   388.10934
   424  N   5.0   -0.14    3.53    2.10   102.21447   110.83097   389.09289
   425  C   4.0    0.03    4.42    4.41   101.53041   113.49095   389.33929
   426  C   4.0    0.16    3.52    3.12    99.38305   113.66401   391.22705
   427  O   6.0   -0.32    1.30    1.80    99.29657   115.33922   392.83369
   428  C   4.0   -0.04    4.31    4.22   100.84242   114.83131   386.86887
   429  C   4.0   -0.03    4.19    3.97   100.00741   117.61494   387.19585
   430  C   4.0   -0.07    4.15    3.90   101.91351   119.33592   388.47842
   431  C   4.0   -0.08    4.17    3.94    99.73880   118.79613   384.60005
   432  H   1.0    0.12    1.11    1.45   102.14221   110.02021   387.36454
   433  H   1.0    0.05    1.06    1.44   103.15141   114.48361   390.18229
   434  H   1.0    0.05    1.03    1.43   102.48712   114.74968   385.62799
   435  H   1.0    0.05    1.03    1.43    99.32861   113.78128   385.93872
   436  H   1.0    0.04    1.05    1.44    98.21715   117.60428   388.21864
   437  H   1.0    0.04    1.01    1.43   101.27630   121.28712   388.40530
   438  H   1.0    0.04    1.00    1.43   102.23641   118.85857   390.44924
   439  H   1.0    0.04    1.00    1.43   103.71278   119.22632   387.48891
   440  H   1.0    0.03    1.00    1.43    99.22422   120.78072   384.72130
   441  H   1.0    0.04    1.01    1.43   101.53312   118.67323   383.61014
   442  H   1.0    0.04    1.00    1.43    98.34939   117.82496   383.43190
   443  N   5.0   -0.14    3.44    2.04    97.71574   111.78880   391.01509
   444  C   4.0    0.00    4.27    4.14    95.61215   111.53425   392.73270
   445  C   4.0    0.15    3.33    3.06    96.33023   112.04792   395.51361
   446  O   6.0   -0.32    1.17    1.80    95.24433   113.63979   396.82851
   447  H   1.0    0.10    1.09    1.44    97.76116   110.56424   389.53587
   448  H   1.0    0.04    1.02    1.43    94.10098   112.85317   392.22012
   449  H   1.0    0.03    1.03    1.43    94.91357   109.60099   392.60818
   450  N   5.0   -0.14    3.48    2.07    98.16289   110.41443   396.21328
   451  C   4.0    0.03    4.31    4.22    99.44572   110.25566   398.64083
   452  C   4.0    0.15    3.56    3.15   100.71376   112.75256   399.13947
   453  O   6.0   -0.31    1.35    1.80    99.99435   114.06846   400.90943
   454  C   4.0   -0.10    4.12    3.84   101.38452   108.13840   398.69702
   455  H   1.0    0.08    1.08    1.44    98.81394   109.22390   394.86070
   456  H   1.0    0.03    1.05    1.44    98.03192   109.98998   400.13805
   457  H   1.0    0.01    1.00    1.43   102.29365   108.09894   400.54243
   458  H   1.0    0.01    1.00    1.43   100.45663   106.33202   398.37479
   459  H   1.0    0.05    1.01    1.43   102.80250   108.43264   397.24150
   460  N   5.0   -0.15    3.50    2.08   102.52976   113.51367   397.57896
   461  C   4.0    0.04    4.48    4.50   103.59485   115.94767   398.17591
   462  C   4.0    0.17    3.51    3.12   101.53724   117.94248   398.90141
   463  O   6.0   -0.32    1.23    1.80   101.89125   119.37854   400.70852
   464  C   4.0   -0.05    4.42    4.41   105.12647   116.99510   396.00973
   465  C   4.0   -0.02    4.23    4.05   107.05366   115.13949   395.00823
   466  C   4.0   -0.08    4.12    3.84   108.16613   116.28726   392.60567
   467  C   4.0   -0.09    4.13    3.86   109.06371   114.65972   396.97074
   468  H   1.0    0.11    1.09    1.44   102.89347   112.58538   395.94785
   469  H   1.0    0.04    1.05    1.44   104.78131   115.78089   399.87524
   470  H   1.0    0.05    1.03    1.43   103.84307   117.51926   394.47559
   471  H   1.0    0.03    1.03    1.43   106.09518   118.71717   396.60406
   472  H   1.0    0.05    1.06    1.44   106.17013   113.33889   394.50572
   473  H   1.0    0.04    1.00    1.43   109.60355   115.07194   391.77059
   474  H   1.0    0.04    1.00    1.43   106.70792   116.61621   391.19270
   475  H   1.0    0.04    1.00    1.43   109.08198   118.09470   392.98105
   476  H   1.0    0.02    1.00    1.43   110.55250   113.44299   396.23591
   477  H   1.0    0.02    1.00    1.43   109.96867   116.43860   397.52088
   478  H   1.0    0.02    1.00    1.43   108.26374   113.79316   398.65205
   479  N   5.0   -0.13    3.44    2.04    99.54622   118.21255   397.34672
   480  C   4.0    0.04    4.29    4.18    97.82702   120.36312   397.61526
   481  C   4.0    0.08    3.22    3.04    96.48657   120.13832   400.18887
   482  O   6.0   -0.34    1.11    1.80    96.32925   121.95774   401.61850
   483  C   4.0   -0.06    4.19    3.99    95.95834   120.63992   395.39611
   484  C   4.0   -0.05    4.13    3.86    97.21453   121.43141   392.90550
   485  C   4.0   -0.06    4.12    3.83    95.45523   121.53437   390.55571
   486  C   4.0   -0.06    4.09    3.78    94.49869   124.20798   389.91224
   487  N   5.0   -0.14    4.00    2.86    93.49103   124.34122   387.26901
   488  H   1.0    0.12    1.10    1.44    99.26412   116.99747   395.88189
   489  H   1.0    0.05    1.06    1.44    98.99634   122.06725   397.79081
   490  H   1.0    0.05    1.03    1.43    94.99860   118.82873   395.16954
   491  H   1.0    0.02    1.03    1.43    94.56107   122.03469   395.99717
   492  H   1.0    0.03    1.03    1.43    98.15862   123.23890   393.17175
   493  H   1.0    0.05    1.04    1.43    98.67374   120.03095   392.53721
   494  H   1.0    0.03    1.03    1.43    96.54800   120.86417   388.95157
   495  H   1.0    0.03    1.02    1.43    93.87239   120.25855   390.86550
   496  H   1.0    0.01    1.02    1.43    93.02476   124.78151   391.22946
   497  H   1.0    0.02    1.02    1.43    96.07764   125.52279   390.06185
   498  H   1.0    0.03    1.02    1.43    92.95707   126.17507   386.87740
   499  H   1.0    0.04    1.02    1.43    94.87663   123.81230   386.00390
   500  H   1.0    0.03    1.02    1.43    91.95133   123.17016   387.05342
   501  O   6.0   -0.32    1.95    1.82   106.50516   102.52634   366.11695
   502  H   1.0    0.12    0.97    1.43   106.64717   104.33280   366.01484
   503  H   1.0    0.12    0.96    1.43   106.00145   101.98864   364.42248
   504  N   5.0   -0.30    2.17    1.90   124.30171   133.20459   379.14158
   505  C   4.0    0.06    4.14    3.89   121.58189   133.74232   379.22433
   506  C   4.0    0.00    2.20    3.00   120.61735   135.65318   381.10451
   507  O   6.0   -0.32    1.07    1.80   118.87874   137.20410   380.60567
   508  C   4.0   -0.04    4.32    4.24   120.11130   131.26146   379.46194
   509  C   4.0   -0.05    4.11    3.82   119.72927   130.22337   376.85010
   510  S   6.0   -0.05    2.47    3.10   119.03641   126.89422   376.72044
   511  C   4.0   -0.08    3.88    3.43   119.91619   126.59211   373.27854
   512  H   1.0    0.09    1.01    1.43   125.02431   132.27041   380.66707
   513  H   1.0    0.03    1.07    1.44   121.17949   134.53640   377.33428
   514  H   1.0    0.03    1.01    1.43   121.17498   129.93863   380.73533
   515  H   1.0    0.05    1.02    1.43   118.30328   131.58479   380.45703
   516  H   1.0    0.03    1.07    1.44   118.17697   131.23690   375.93918
   517  H   1.0    0.03    1.09    1.44   121.49829   130.48672   375.81065
   518  H   1.0    0.04    1.04    1.44   119.53542   124.62816   372.86672
   519  H   1.0    0.02    1.03    1.43   118.75142   127.87986   372.20610
   520  H   1.0    0.04    1.03    1.43   121.92737   126.96552   373.12877
   521  N   5.0   -0.29    2.19    1.90    87.81319   113.19156   364.92712
   522  C   4.0    0.07    4.10    3.81    90.01377   113.08848   366.57141
   523  C   4.0    0.01    2.23    3.00    89.30122   112.80654   369.33016
   524  O   6.0   -0.31    1.10    1.80    90.08409   110.96545   370.62502
   525  C   4.0    0.02    4.18    3.96    91.64832   115.45231   366.32837
   526  O   6.0   -0.26    2.05    1.83    92.92285   115.45397   364.01468
   527  H   1.0    0.08    1.01    1.43    87.49150   114.82794   363.99103
   528  H   1.0    0.05    1.05    1.44    91.19853   111.44489   366.07872
   529  H   1.0    0.02    1.01    1.43    90.47325   117.14845   366.53661
   530  H   1.0    0.05    1.02    1.43    93.09996   115.42573   367.80464
   531  H   1.0    0.09    1.03    1.43    91.60665   115.71367   362.74583
   532  N   5.0   -0.26    2.26    1.90    90.72461   107.20261   374.83329
   533  C   4.0    0.07    4.22    4.05    91.91198   107.52071   377.24827
   534  C   4.0    0.02    2.24    3.00    90.19085   106.75538   379.39809
   535  O   6.0   -0.31    1.09    1.80    90.81934   104.99697   380.77443
   536  C   4.0   -0.04    4.50    4.54    92.73118   110.19568   377.58348
   537  C   4.0   -0.04    4.18    3.96    94.95334   110.53681   375.83963
   538  S   6.0   -0.05    2.65    3.10    96.55931   113.28663   376.81762
   539  C   4.0   -0.08    3.94    3.52    93.86953   115.38172   376.15885
   540  H   1.0    0.13    1.03    1.43    90.12617   108.72773   373.84332
   541  H   1.0    0.05    1.06    1.44    93.55380   106.24103   377.34591
   542  H   1.0    0.03    1.04    1.43    91.17736   111.44200   377.07186
   543  H   1.0    0.04    1.06    1.44    93.32054   110.55481   379.52844
   544  H   1.0    0.05    1.08    1.44    96.29204   108.95954   375.97897
   545  H   1.0    0.05    1.06    1.44    94.41232   110.69522   373.84405
   546  H   1.0    0.03    1.05    1.44    94.61434   117.28226   376.24529
   547  H   1.0    0.04    1.04    1.43    93.22722   114.94695   374.25324
   548  H   1.0    0.03    1.04    1.43    92.41410   115.09590   377.56222
   549  H   1.0    0.08    1.07    1.44   117.05307    98.08208   376.37122
   550  H   1.0    0.03    1.04    1.43   119.46477   103.19654   379.81982
   551  H   1.0    0.06    1.07    1.44   125.17617   101.49725   372.05245
   552  H   1.0    0.04    1.04    1.43   126.28396   110.33284   373.95554
   553  H   1.0    0.07    1.07    1.44   125.48026   119.50689   368.32542
   554  H   1.0    0.02    1.04    1.43   129.91504   120.93254   378.86992
   555  H   1.0    0.08    1.07    1.44   121.94881   120.16511   386.97765
   556  H   1.0    0.03    1.05    1.44   117.79620   120.11255   391.83209
   557  H   1.0    0.07    1.10    1.44   112.91251   128.01487   392.04675
   558  H   1.0    0.06    1.04    1.43   100.27245   106.61178   355.46328
   559  H   1.0    0.08    1.07    1.44   107.75650    96.79849   372.14494
   560  H   1.0    0.04    1.04    1.43   100.85208   101.72248   374.13945
   561  H   1.0    0.08    1.07    1.44   101.09569    98.56808   379.20579
   562  H   1.0    0.05    1.04    1.43    97.49019   105.17636   385.52409
   563  H   1.0    0.08    1.07    1.44   101.28544   104.22788   389.63806
   564  H   1.0    0.05    1.04    1.43    95.72727   118.49074   400.71802

  Z AO/shell   Hii/eV     exponent
  1     Wed Apr 25 08:07:45 CEST 2018   EN: 2.200 GM2: 0.406  GM3: 0.0800  RAES: 1.40
     1s    -10.707211    1.230000
  6     Wed Apr 25 08:07:45 CEST 2018   EN: 2.550 GM2: 0.538  GM3: 0.1500  RAES: 3.00
     2s    -13.970922    2.096432
     2p    -10.063292    1.800000
  7     Wed Apr 25 08:07:45 CEST 2018   EN: 3.040 GM2: 0.461  GM3:-0.0640  RAES: 1.90
     2s    -16.686243    2.339881
     2p    -12.523956    2.014332
  8     Wed Apr 25 08:07:45 CEST 2018   EN: 3.440 GM2: 0.452  GM3:-0.0517  RAES: 1.80
     2s    -20.229985    2.439742
     2p    -15.503117    2.137023
 16     Tue Apr 24 11:44:34 CEST 2018   EN: 2.580 GM2: 0.340  GM3:-0.0502  RAES: 3.10
     3s    -20.029654    1.981333
     3p    -11.377694    2.025643
     3d     -0.420282    1.702555
 no old-style atom pair restraining (fixing) potential

molecular fragmentation (1/2 indicates fragments):
111111111111111112222222222222222222222222222222222222222222222222222222
222222222222222222222222222222222222222222222222222222222222222222222222
222222222222222222222222222222222222222222222222222222222222222222222222
222222222222222222222222222222222222222222222222222222222222222222222222
222222222222222222222222222222222222222222222222222222222222222222222222
222222222222222222222222222222222222222222222222222222222222222222222222
222222222222222222222222222222222222222222222222222222222222222222222222
222222222222222222222222222222222222222222221122222222222222
# atoms in fragment 1/2:    19   545
 fragment masses (1/2) :      133.21     3667.50
CMA distance (Bohr)    :  13.983
constraining FC (au)   :  0.0500
           ------------------------------------------------- 
          |        Self-Consistent Charge Iterations        |
           ------------------------------------------------- 

 Ncao       : 1374
 Nao        : 1371
 Nshell     : 831
 Nel        : 1502
 T(el)      :   500.0
 intcut     :    35.0
 scfconv/Eh :  0.100E-06
   qconv/e  :  0.100E-04
 intneglect :  0.100E-08
 broydamp   :      0.400
 iter      E             dE          RMSdq      gap      omega  full diag
   1   -852.2649443 -0.852265E+03  0.459E+00    0.98       0.0  T
   2   -848.0335926  0.423135E+01  0.352E+00    0.00       1.0  T
   3   -851.6466660 -0.361307E+01  0.255E+00    0.08       1.0  T
   4   -853.4696270 -0.182296E+01  0.179E+00    0.46       1.0  T
   5   -854.3252641 -0.855637E+00  0.131E+00    0.45       1.0  T
   6   -854.5401519 -0.214888E+00  0.101E+00    0.59       1.0  T
   7   -854.6868483 -0.146696E+00  0.735E-01    0.04       1.0  T
   8   -854.7747106 -0.878623E-01  0.626E-01    0.02       1.0  T
   9   -854.5322795  0.242431E+00  0.833E-01    0.11       1.0  T
  10   -854.2467980  0.285482E+00  0.106E+00    0.10       1.0  T
  11   -854.3000972 -0.532992E-01  0.101E+00    0.09       1.0  T
  12   -854.5802717 -0.280175E+00  0.805E-01    0.04       1.0  T
  13   -854.6080862 -0.278145E-01  0.739E-01    0.13       1.0  T
  14   -854.6121223 -0.403613E-02  0.752E-01    0.10       1.0  T
  15   -854.3152088  0.296914E+00  0.982E-01    0.05       1.0  T
  16   -854.3872811 -0.720723E-01  0.938E-01    0.02       1.0  T
  17   -854.4972330 -0.109952E+00  0.835E-01    0.02       1.0  T
  18   -854.7269077 -0.229675E+00  0.630E-01    0.05       1.0  T
  19   -854.8335454 -0.106638E+00  0.443E-01    0.11       1.0  T
  20   -854.8969501 -0.634047E-01  0.346E-01    0.08       1.0  T
  21   -854.9154929 -0.185428E-01  0.310E-01    0.03       1.0  T
  22   -854.9294058 -0.139129E-01  0.271E-01    0.03       1.0  T
  23   -854.9476694 -0.182636E-01  0.212E-01    0.04       1.0  T
  24   -854.9249518  0.227176E-01  0.272E-01    0.12       1.0  T
  25   -854.9625616 -0.376098E-01  0.152E-01    0.09       1.0  T
  26   -854.9760062 -0.134445E-01  0.641E-02    0.06       1.0  T
  27   -854.9767695 -0.763393E-03  0.562E-02    0.06       1.0  T
  28   -854.9773608 -0.591292E-03  0.495E-02    0.07       1.0  T
  29   -854.9785067 -0.114583E-02  0.242E-02    0.07       1.0  T
  30   -854.9787208 -0.214140E-03  0.139E-02    0.07       1.0  T
  31   -854.9787937 -0.728731E-04  0.930E-03    0.07       1.0  T
  32   -854.9788091 -0.154261E-04  0.774E-03    0.07       1.0  T
  33   -854.9788365 -0.273668E-04  0.457E-03    0.07       1.0  T
  34   -854.9788346  0.184588E-05  0.479E-03    0.07       1.0  T
  35   -854.9788483 -0.136308E-04  0.186E-03    0.07       2.3  T
  36   -854.9788498 -0.151642E-05  0.105E-03    0.07       4.0  T
  37   -854.9788502 -0.456963E-06  0.622E-04    0.07       6.8  T
  38   -854.9788504 -0.208071E-06  0.325E-04    0.07      13.0  T
  39   -854.9788505 -0.506991E-07  0.175E-04    0.07      24.1  T
  40   -854.9788505 -0.199013E-07  0.681E-05    0.07      61.9  T
  41   -854.9788505 -0.160912E-08  0.448E-05    0.07      94.0  T
speedup  2.00
cpu  time for SCC    1 m 31.4 s
wall time for SCC    0 m 45.7 s

   *** convergence criteria satisfied after 41 iterations ***

          eigenvalues
 #    :         739        740        741        742        743        744        745        746
 occ. :        2.000      2.000      2.000      2.000      2.000      2.000      2.000      2.000
 eps  :        -9.649     -9.586     -9.564     -9.438     -8.524     -8.461     -8.308     -7.990
 #    :         747        748        749        750        751        752        753        754
 occ. :        2.000      2.000      1.224      1.208      1.166      0.447      0.395      0.358
 eps  :        -7.911     -7.706     -6.959     -6.958     -6.954     -6.886     -6.879     -6.874
 #    :         755        756        757        758        759        760        761        762
 occ. :        0.259      0.232      0.207      0.198      0.141      0.073      0.060      0.022
 eps  :        -6.857     -6.852     -6.846     -6.844     -6.828     -6.798     -6.790     -6.745


   #   Z            q   n(s)   n(p)   n(d)      C6AA      α(0)
   1   7 N     -0.393  1.319  4.074  0.000    30.169     8.158
   2   6 C      0.048  1.056  2.897  0.000    19.789     6.336
   3   6 C      0.143  1.064  2.793  0.000    24.875     8.168
   4   8 O     -0.479  1.753  4.726  0.000    23.316     6.474
   5   6 C     -0.054  1.050  3.004  0.000    21.524     6.600
   6   6 C      0.003  1.061  2.936  0.000    20.525     6.450
   7  16 S     -0.247  1.930  4.261  0.057   151.671    20.728
   8   6 C     -0.058  1.053  3.004  0.000    21.683     6.643
   9   1 H      0.161  0.839  0.000  0.000     1.327     1.805
  10   1 H      0.006  0.994  0.000  0.000     2.963     2.692
  11   1 H      0.023  0.977  0.000  0.000     2.688     2.564
  12   1 H      0.051  0.949  0.000  0.000     2.313     2.378
  13   1 H      0.051  0.949  0.000  0.000     2.302     2.373
  14   1 H      0.022  0.978  0.000  0.000     2.709     2.574
  15   1 H      0.067  0.933  0.000  0.000     2.118     2.276
  16   1 H      0.065  0.935  0.000  0.000     2.138     2.287
  17   1 H      0.066  0.934  0.000  0.000     2.131     2.283
  18   7 N     -0.397  1.323  4.075  0.000    30.300     8.175
  19   6 C      0.037  1.057  2.906  0.000    19.963     6.364
  20   6 C      0.272  1.052  2.676  0.000    22.408     7.752
  21   8 O     -0.517  1.747  4.770  0.000    24.164     6.591
  22   6 C     -0.063  1.057  3.006  0.000    21.703     6.631
  23   6 C     -0.010  1.056  2.954  0.000    20.718     6.474
  24   6 C     -0.124  1.042  3.082  0.000    22.922     6.826
  25   6 C     -0.112  1.041  3.070  0.000    22.685     6.790
  26   1 H      0.152  0.848  0.000  0.000     1.388     1.846
  27   1 H      0.038  0.962  0.000  0.000     2.472     2.459
  28   1 H      0.036  0.964  0.000  0.000     2.504     2.474
  29   1 H      0.029  0.971  0.000  0.000     2.605     2.524
  30   1 H      0.018  0.982  0.000  0.000     2.765     2.600
  31   1 H      0.050  0.950  0.000  0.000     2.324     2.384
  32   1 H      0.050  0.950  0.000  0.000     2.314     2.379
  33   1 H      0.048  0.952  0.000  0.000     2.346     2.395
  34   1 H      0.043  0.957  0.000  0.000     2.409     2.427
  35   1 H      0.037  0.963  0.000  0.000     2.484     2.465
  36   1 H      0.024  0.976  0.000  0.000     2.679     2.559
  37   7 N     -0.190  1.256  3.935  0.000    25.125     7.445
  38   6 C      0.036  1.062  2.902  0.000    19.969     6.364
  39   6 C      0.169  1.063  2.768  0.000    24.357     8.082
  40   8 O     -0.457  1.752  4.704  0.000    22.848     6.409
  41   6 C     -0.065  1.058  3.007  0.000    21.742     6.637
  42   6 C     -0.004  1.053  2.951  0.000    20.618     6.459
  43   6 C     -0.101  1.040  3.061  0.000    22.462     6.755
  44   6 C     -0.105  1.038  3.067  0.000    22.549     6.769
  45   1 H      0.224  0.776  0.000  0.000     0.989     1.558
  46   1 H      0.056  0.944  0.000  0.000     2.247     2.344
  47   1 H      0.049  0.951  0.000  0.000     2.326     2.385
  48   1 H      0.045  0.955  0.000  0.000     2.389     2.417
  49   1 H      0.032  0.968  0.000  0.000     2.554     2.499
  50   1 H      0.031  0.969  0.000  0.000     2.567     2.505
  51   1 H      0.031  0.969  0.000  0.000     2.567     2.505
  52   1 H      0.042  0.958  0.000  0.000     2.422     2.434
  53   1 H      0.035  0.965  0.000  0.000     2.517     2.481
  54   1 H      0.037  0.963  0.000  0.000     2.488     2.466
  55   1 H      0.032  0.968  0.000  0.000     2.557     2.501
  56   7 N     -0.402  1.318  4.084  0.000    30.435     8.193
  57   6 C      0.040  1.055  2.905  0.000    19.904     6.353
  58   6 C      0.274  1.053  2.673  0.000    22.366     7.745
  59   8 O     -0.504  1.753  4.751  0.000    23.868     6.550
  60   6 C     -0.068  1.055  3.013  0.000    21.784     6.641
  61   6 C     -0.009  1.054  2.954  0.000    20.694     6.470
  62   6 C     -0.114  1.042  3.073  0.000    22.740     6.798
  63   6 C     -0.111  1.039  3.072  0.000    22.678     6.789
  64   1 H      0.167  0.833  0.000  0.000     1.289     1.778
  65   1 H      0.040  0.960  0.000  0.000     2.444     2.445
  66   1 H      0.053  0.947  0.000  0.000     2.288     2.366
  67   1 H      0.023  0.977  0.000  0.000     2.692     2.566
  68   1 H      0.027  0.973  0.000  0.000     2.629     2.536
  69   1 H      0.047  0.953  0.000  0.000     2.358     2.401
  70   1 H      0.043  0.957  0.000  0.000     2.414     2.430
  71   1 H      0.040  0.960  0.000  0.000     2.449     2.447
  72   1 H      0.043  0.957  0.000  0.000     2.405     2.425
  73   1 H      0.038  0.962  0.000  0.000     2.470     2.458
  74   1 H      0.024  0.976  0.000  0.000     2.668     2.554
  75   7 N     -0.196  1.288  3.907  0.000    25.249     7.463
  76   6 C      0.041  1.057  2.902  0.000    19.896     6.353
  77   6 C      0.136  1.059  2.806  0.000    25.024     8.195
  78   8 O     -0.507  1.777  4.729  0.000    23.935     6.559
  79   6 C     -0.059  1.061  2.998  0.000    21.604     6.611
  80   6 C     -0.004  1.052  2.953  0.000    20.620     6.459
  81   6 C     -0.113  1.043  3.070  0.000    22.713     6.793
  82   6 C     -0.100  1.040  3.060  0.000    22.459     6.758
  83   1 H      0.203  0.797  0.000  0.000     1.093     1.637
  84   1 H      0.032  0.968  0.000  0.000     2.560     2.502
  85   1 H      0.052  0.948  0.000  0.000     2.296     2.370
  86   1 H      0.040  0.960  0.000  0.000     2.454     2.450
  87   1 H      0.025  0.975  0.000  0.000     2.657     2.549
  88   1 H      0.049  0.951  0.000  0.000     2.326     2.385
  89   1 H      0.040  0.960  0.000  0.000     2.443     2.444
  90   1 H      0.047  0.953  0.000  0.000     2.355     2.400
  91   1 H      0.042  0.958  0.000  0.000     2.424     2.435
  92   1 H      0.031  0.969  0.000  0.000     2.567     2.505
  93   1 H      0.019  0.981  0.000  0.000     2.750     2.593
  94   7 N     -0.400  1.321  4.079  0.000    30.369     8.185
  95   6 C      0.045  1.052  2.904  0.000    19.843     6.345
  96   6 C      0.161  1.073  2.767  0.000    24.513     8.109
  97   8 O     -0.457  1.764  4.693  0.000    22.844     6.408
  98   6 C     -0.069  1.058  3.010  0.000    21.793     6.643
  99   6 C     -0.002  1.041  2.961  0.000    20.574     6.451
 100   6 C     -0.110  1.043  3.067  0.000    22.610     6.770
 101   6 C     -0.101  1.038  3.063  0.000    22.428     6.743
 102   1 H      0.159  0.841  0.000  0.000     1.341     1.814
 103   1 H      0.041  0.959  0.000  0.000     2.432     2.439
 104   1 H      0.046  0.954  0.000  0.000     2.373     2.409
 105   1 H      0.039  0.961  0.000  0.000     2.460     2.453
 106   1 H      0.032  0.968  0.000  0.000     2.557     2.501
 107   1 H      0.036  0.964  0.000  0.000     2.498     2.472
 108   1 H      0.023  0.977  0.000  0.000     2.684     2.562
 109   1 H      0.045  0.955  0.000  0.000     2.389     2.417
 110   1 H      0.026  0.974  0.000  0.000     2.638     2.540
 111   1 H      0.037  0.963  0.000  0.000     2.484     2.465
 112   1 H      0.036  0.964  0.000  0.000     2.506     2.476
 113   7 N     -0.294  1.247  4.047  0.000    27.572     7.799
 114   6 C      0.016  1.065  2.919  0.000    20.283     6.408
 115   6 C      0.257  1.065  2.678  0.000    22.675     7.797
 116   8 O     -0.491  1.759  4.732  0.000    23.594     6.512
 117   6 C     -0.066  1.053  3.013  0.000    21.741     6.635
 118   6 C     -0.067  1.054  3.013  0.000    21.751     6.633
 119   6 C      0.005  1.049  2.946  0.000    20.521     6.455
 120   1 H      0.048  0.952  0.000  0.000     2.349     2.397
 121   1 H      0.038  0.962  0.000  0.000     2.474     2.460
 122   1 H      0.061  0.939  0.000  0.000     2.192     2.315
 123   1 H      0.051  0.949  0.000  0.000     2.303     2.373
 124   1 H      0.049  0.951  0.000  0.000     2.337     2.391
 125   1 H      0.036  0.964  0.000  0.000     2.510     2.477
 126   1 H      0.049  0.951  0.000  0.000     2.329     2.387
 127   7 N     -0.202  1.297  3.905  0.000    25.389     7.483
 128   6 C     -0.024  1.052  2.972  0.000    21.089     6.553
 129   6 C      0.283  1.045  2.672  0.000    22.214     7.718
 130   8 O     -0.485  1.755  4.730  0.000    23.447     6.492
 131   1 H      0.223  0.777  0.000  0.000     0.996     1.563
 132   1 H      0.079  0.921  0.000  0.000     1.990     2.206
 133   1 H      0.068  0.932  0.000  0.000     2.112     2.273
 134   7 N     -0.198  1.250  3.948  0.000    25.297     7.470
 135   6 C      0.024  1.057  2.919  0.000    20.171     6.394
 136   6 C      0.288  1.034  2.677  0.000    22.112     7.701
 137   8 O     -0.458  1.718  4.740  0.000    22.876     6.413
 138   6 C      0.083  1.037  2.880  0.000    19.400     6.307
 139   8 O     -0.447  1.707  4.740  0.000    21.787     6.301
 140   1 H      0.197  0.803  0.000  0.000     1.121     1.659
 141   1 H      0.061  0.939  0.000  0.000     2.185     2.312
 142   1 H      0.068  0.932  0.000  0.000     2.106     2.270
 143   1 H      0.027  0.973  0.000  0.000     2.626     2.534
 144   1 H      0.325  0.675  0.000  0.000     0.651     1.267
 145   7 N     -0.202  1.253  3.948  0.000    25.380     7.482
 146   6 C      0.037  1.057  2.906  0.000    19.940     6.356
 147   6 C      0.280  1.045  2.674  0.000    22.256     7.725
 148   8 O     -0.503  1.735  4.768  0.000    23.848     6.547
 149   6 C     -0.062  1.046  3.017  0.000    21.694     6.630
 150   6 C     -0.033  1.063  2.969  0.000    28.770     8.797
 151   6 C     -0.011  1.069  2.941  0.000    28.251     8.718
 152   6 C     -0.023  1.075  2.947  0.000    28.388     8.726
 153   7 N     -0.111  1.225  3.886  0.000    23.412     7.186
 154   6 C      0.048  1.058  2.894  0.000    26.835     8.493
 155   6 C     -0.040  1.075  2.965  0.000    28.987     8.829
 156   6 C     -0.050  1.069  2.981  0.000    29.253     8.869
 157   6 C     -0.044  1.074  2.970  0.000    29.083     8.843
 158   6 C     -0.038  1.077  2.961  0.000    28.951     8.824
 159   1 H      0.219  0.781  0.000  0.000     1.014     1.577
 160   1 H      0.070  0.930  0.000  0.000     2.086     2.259
 161   1 H      0.056  0.944  0.000  0.000     2.245     2.343
 162   1 H      0.065  0.935  0.000  0.000     2.136     2.286
 163   1 H      0.029  0.971  0.000  0.000     2.594     2.519
 164   1 H      0.190  0.810  0.000  0.000     1.160     1.687
 165   1 H      0.034  0.966  0.000  0.000     2.533     2.489
 166   1 H      0.031  0.969  0.000  0.000     2.576     2.510
 167   1 H      0.048  0.952  0.000  0.000     2.341     2.393
 168   1 H      0.031  0.969  0.000  0.000     2.570     2.507
 169   7 N     -0.186  1.256  3.930  0.000    25.021     7.429
 170   6 C      0.035  1.064  2.901  0.000    19.994     6.369
 171   6 C      0.258  1.050  2.692  0.000    22.657     7.795
 172   8 O     -0.516  1.743  4.773  0.000    24.145     6.588
 173   6 C     -0.108  1.074  3.034  0.000    22.576     6.767
 174   6 C      0.370  1.027  2.603  0.000    20.735     7.451
 175   8 O     -0.620  1.772  4.848  0.000    26.622     6.918
 176   8 O     -0.620  1.767  4.853  0.000    26.604     6.915
 177   1 H      0.196  0.804  0.000  0.000     1.127     1.663
 178   1 H      0.078  0.922  0.000  0.000     1.998     2.210
 179   1 H      0.036  0.964  0.000  0.000     2.505     2.475
 180   1 H      0.032  0.968  0.000  0.000     2.565     2.504
 181   7 N     -0.086  1.233  3.853  0.000    22.911     7.109
 182   6 C      0.018  1.064  2.918  0.000    20.240     6.399
 183   6 C      0.276  1.035  2.689  0.000    22.325     7.738
 184   8 O     -0.492  1.730  4.762  0.000    23.610     6.515
 185   6 C     -0.069  1.053  3.016  0.000    21.779     6.637
 186   6 C     -0.061  1.046  3.015  0.000    21.643     6.618
 187   6 C     -0.005  1.050  2.955  0.000    20.669     6.474
 188   1 H      0.078  0.922  0.000  0.000     1.995     2.209
 189   1 H      0.063  0.937  0.000  0.000     2.161     2.299
 190   1 H      0.070  0.930  0.000  0.000     2.088     2.260
 191   1 H      0.055  0.945  0.000  0.000     2.262     2.352
 192   1 H      0.068  0.932  0.000  0.000     2.104     2.269
 193   1 H      0.054  0.946  0.000  0.000     2.269     2.356
 194   1 H      0.067  0.933  0.000  0.000     2.119     2.276
 195   7 N     -0.172  1.246  3.926  0.000    24.731     7.386
 196   6 C      0.024  1.062  2.914  0.000    20.165     6.391
 197   6 C      0.283  1.040  2.677  0.000    22.207     7.717
 198   8 O     -0.490  1.729  4.761  0.000    23.574     6.510
 199   6 C     -0.017  1.062  2.955  0.000    20.841     6.492
 200   6 C     -0.061  1.048  3.013  0.000    21.656     6.624
 201   6 C     -0.109  1.035  3.073  0.000    22.630     6.782
 202   6 C     -0.098  1.032  3.066  0.000    22.425     6.752
 203   1 H      0.219  0.781  0.000  0.000     1.015     1.578
 204   1 H      0.079  0.921  0.000  0.000     1.990     2.206
 205   1 H      0.048  0.952  0.000  0.000     2.350     2.397
 206   1 H      0.045  0.955  0.000  0.000     2.381     2.413
 207   1 H      0.043  0.957  0.000  0.000     2.411     2.428
 208   1 H      0.058  0.942  0.000  0.000     2.218     2.329
 209   1 H      0.021  0.979  0.000  0.000     2.713     2.576
 210   1 H      0.052  0.948  0.000  0.000     2.293     2.368
 211   1 H      0.038  0.962  0.000  0.000     2.470     2.458
 212   1 H      0.034  0.966  0.000  0.000     2.528     2.486
 213   1 H      0.042  0.958  0.000  0.000     2.423     2.434
 214   7 N     -0.183  1.245  3.938  0.000    24.972     7.422
 215   6 C      0.021  1.066  2.913  0.000    20.212     6.400
 216   6 C      0.269  1.048  2.683  0.000    22.460     7.760
 217   8 O     -0.514  1.744  4.770  0.000    24.107     6.583
 218   6 C      0.121  1.038  2.842  0.000    18.701     6.173
 219   8 O     -0.448  1.705  4.743  0.000    21.805     6.304
 220   6 C     -0.126  1.040  3.086  0.000    22.953     6.829
 221   1 H      0.223  0.777  0.000  0.000     0.998     1.565
 222   1 H      0.054  0.946  0.000  0.000     2.272     2.357
 223   1 H      0.030  0.970  0.000  0.000     2.586     2.515
 224   1 H      0.329  0.671  0.000  0.000     0.640     1.256
 225   1 H      0.066  0.934  0.000  0.000     2.127     2.281
 226   1 H      0.031  0.969  0.000  0.000     2.566     2.505
 227   1 H      0.069  0.931  0.000  0.000     2.101     2.267
 228   7 N     -0.188  1.262  3.926  0.000    25.076     7.437
 229   6 C      0.026  1.060  2.914  0.000    20.136     6.390
 230   6 C      0.275  1.043  2.682  0.000    22.352     7.742
 231   8 O     -0.508  1.742  4.766  0.000    23.954     6.562
 232   6 C     -0.145  1.047  3.098  0.000    23.341     6.888
 233   1 H      0.227  0.773  0.000  0.000     0.977     1.548
 234   1 H      0.066  0.934  0.000  0.000     2.127     2.281
 235   1 H      0.080  0.920  0.000  0.000     1.981     2.201
 236   1 H      0.064  0.936  0.000  0.000     2.150     2.293
 237   1 H      0.083  0.917  0.000  0.000     1.952     2.185
 238   7 N     -0.183  1.249  3.934  0.000    24.958     7.420
 239   6 C      0.027  1.057  2.916  0.000    20.117     6.386
 240   6 C      0.270  1.047  2.684  0.000    22.447     7.759
 241   8 O     -0.508  1.737  4.771  0.000    23.956     6.562
 242   6 C     -0.132  1.042  3.090  0.000    23.096     6.851
 243   1 H      0.232  0.768  0.000  0.000     0.957     1.532
 244   1 H      0.079  0.921  0.000  0.000     1.992     2.207
 245   1 H      0.083  0.917  0.000  0.000     1.950     2.184
 246   1 H      0.080  0.920  0.000  0.000     1.974     2.197
 247   1 H      0.065  0.935  0.000  0.000     2.140     2.288
 248   7 N     -0.186  1.252  3.934  0.000    25.035     7.431
 249   6 C      0.031  1.055  2.914  0.000    20.043     6.372
 250   6 C      0.274  1.046  2.680  0.000    22.373     7.746
 251   8 O     -0.500  1.736  4.764  0.000    23.784     6.539
 252   6 C     -0.062  1.051  3.011  0.000    21.676     6.626
 253   6 C     -0.011  1.055  2.956  0.000    20.745     6.478
 254   6 C     -0.099  1.037  3.062  0.000    22.448     6.755
 255   6 C     -0.119  1.040  3.079  0.000    22.837     6.813
 256   1 H      0.234  0.766  0.000  0.000     0.947     1.525
 257   1 H      0.085  0.915  0.000  0.000     1.933     2.174
 258   1 H      0.031  0.969  0.000  0.000     2.576     2.510
 259   1 H      0.044  0.956  0.000  0.000     2.391     2.418
 260   1 H      0.047  0.953  0.000  0.000     2.353     2.399
 261   1 H      0.042  0.958  0.000  0.000     2.422     2.434
 262   1 H      0.029  0.971  0.000  0.000     2.601     2.522
 263   1 H      0.023  0.977  0.000  0.000     2.692     2.566
 264   1 H      0.054  0.946  0.000  0.000     2.274     2.358
 265   1 H      0.041  0.959  0.000  0.000     2.429     2.437
 266   1 H      0.052  0.948  0.000  0.000     2.301     2.372
 267   7 N     -0.200  1.255  3.945  0.000    25.349     7.478
 268   6 C      0.034  1.055  2.911  0.000    20.005     6.369
 269   6 C      0.257  1.054  2.689  0.000    22.674     7.798
 270   8 O     -0.506  1.769  4.738  0.000    23.922     6.558
 271   6 C      0.078  1.037  2.885  0.000    19.469     6.318
 272   8 O     -0.467  1.730  4.737  0.000    22.198     6.360
 273   1 H      0.227  0.773  0.000  0.000     0.977     1.548
 274   1 H      0.054  0.946  0.000  0.000     2.270     2.356
 275   1 H      0.056  0.944  0.000  0.000     2.241     2.341
 276   1 H      0.055  0.945  0.000  0.000     2.259     2.351
 277   1 H      0.313  0.687  0.000  0.000     0.683     1.298
 278   7 N     -0.197  1.275  3.921  0.000    25.273     7.466
 279   6 C      0.026  1.062  2.911  0.000    20.130     6.388
 280   6 C      0.280  1.043  2.677  0.000    22.262     7.727
 281   8 O     -0.499  1.755  4.744  0.000    23.758     6.535
 282   6 C     -0.070  1.053  3.017  0.000    21.826     6.650
 283   6 C     -0.105  1.060  3.044  0.000    22.493     6.751
 284   6 C      0.289  1.042  2.670  0.000    22.105     7.698
 285   8 O     -0.484  1.747  4.736  0.000    23.427     6.489
 286   7 N     -0.291  1.267  4.024  0.000    27.495     7.788
 287   1 H      0.227  0.773  0.000  0.000     0.978     1.549
 288   1 H      0.073  0.927  0.000  0.000     2.057     2.243
 289   1 H      0.072  0.928  0.000  0.000     2.068     2.249
 290   1 H      0.076  0.924  0.000  0.000     2.018     2.221
 291   1 H      0.059  0.941  0.000  0.000     2.206     2.323
 292   1 H      0.087  0.913  0.000  0.000     1.913     2.163
 293   1 H      0.216  0.784  0.000  0.000     1.027     1.587
 294   1 H      0.240  0.760  0.000  0.000     0.925     1.507
 295   7 N     -0.189  1.250  3.939  0.000    25.100     7.441
 296   6 C      0.025  1.060  2.914  0.000    20.149     6.391
 297   6 C      0.283  1.044  2.674  0.000    22.213     7.718
 298   8 O     -0.496  1.747  4.749  0.000    23.687     6.525
 299   6 C     -0.081  1.055  3.026  0.000    22.032     6.681
 300   6 C     -0.092  1.052  3.041  0.000    22.260     6.717
 301   6 C     -0.018  1.046  2.972  0.000    20.950     6.527
 302   7 N     -0.140  1.226  3.914  0.000    24.022     7.279
 303   6 C      0.231  1.024  2.745  0.000    23.151     7.878
 304   7 N     -0.247  1.238  4.009  0.000    26.446     7.638
 305   7 N     -0.255  1.247  4.009  0.000    26.636     7.665
 306   1 H      0.212  0.788  0.000  0.000     1.045     1.601
 307   1 H      0.086  0.914  0.000  0.000     1.915     2.164
 308   1 H      0.075  0.925  0.000  0.000     2.028     2.227
 309   1 H      0.044  0.956  0.000  0.000     2.395     2.420
 310   1 H      0.065  0.935  0.000  0.000     2.142     2.289
 311   1 H      0.095  0.905  0.000  0.000     1.835     2.118
 312   1 H      0.058  0.942  0.000  0.000     2.228     2.334
 313   1 H      0.076  0.924  0.000  0.000     2.023     2.224
 314   1 H      0.241  0.759  0.000  0.000     0.917     1.500
 315   1 H      0.233  0.767  0.000  0.000     0.952     1.528
 316   1 H      0.259  0.741  0.000  0.000     0.851     1.445
 317   1 H      0.233  0.767  0.000  0.000     0.952     1.528
 318   1 H      0.263  0.737  0.000  0.000     0.835     1.432
 319   7 N     -0.178  1.251  3.927  0.000    24.863     7.406
 320   6 C      0.040  1.060  2.901  0.000    19.917     6.356
 321   6 C      0.175  1.067  2.758  0.000    24.225     8.060
 322   8 O     -0.454  1.755  4.699  0.000    22.792     6.401
 323   6 C     -0.112  1.040  3.072  0.000    22.699     6.793
 324   1 H      0.198  0.802  0.000  0.000     1.116     1.655
 325   1 H      0.071  0.929  0.000  0.000     2.078     2.255
 326   1 H      0.053  0.947  0.000  0.000     2.278     2.360
 327   1 H      0.056  0.944  0.000  0.000     2.248     2.345
 328   1 H      0.042  0.958  0.000  0.000     2.428     2.437
 329   7 N     -0.400  1.318  4.083  0.000    30.383     8.186
 330   6 C      0.048  1.060  2.892  0.000    19.790     6.337
 331   6 C      0.267  1.050  2.682  0.000    22.489     7.766
 332   8 O     -0.503  1.740  4.763  0.000    23.858     6.549
 333   6 C     -0.056  1.054  3.003  0.000    21.588     6.615
 334   6 C     -0.084  1.062  3.022  0.000    22.098     6.693
 335   6 C      0.366  1.028  2.606  0.000    20.787     7.461
 336   8 O     -0.618  1.761  4.857  0.000    26.556     6.909
 337   8 O     -0.642  1.773  4.869  0.000    27.173     6.989
 338   1 H      0.169  0.831  0.000  0.000     1.278     1.771
 339   1 H      0.017  0.983  0.000  0.000     2.779     2.607
 340   1 H      0.058  0.942  0.000  0.000     2.228     2.334
 341   1 H      0.015  0.985  0.000  0.000     2.811     2.622
 342   1 H      0.036  0.964  0.000  0.000     2.506     2.476
 343   1 H      0.010  0.990  0.000  0.000     2.896     2.661
 344   7 N     -0.192  1.261  3.931  0.000    25.175     7.452
 345   6 C      0.049  1.053  2.898  0.000    19.751     6.327
 346   6 C      0.155  1.049  2.796  0.000    24.635     8.128
 347   8 O     -0.523  1.769  4.753  0.000    24.291     6.608
 348   6 C     -0.069  1.060  3.008  0.000    21.796     6.644
 349   6 C      0.014  1.044  2.942  0.000    20.307     6.409
 350   6 C     -0.085  1.032  3.053  0.000    22.175     6.713
 351   6 C     -0.095  1.040  3.055  0.000    22.343     6.737
 352   1 H      0.226  0.774  0.000  0.000     0.984     1.554
 353   1 H      0.042  0.958  0.000  0.000     2.423     2.434
 354   1 H      0.056  0.944  0.000  0.000     2.247     2.344
 355   1 H      0.043  0.957  0.000  0.000     2.406     2.426
 356   1 H     -0.003  1.003  0.000  0.000     3.106     2.756
 357   1 H      0.015  0.985  0.000  0.000     2.805     2.619
 358   1 H      0.025  0.975  0.000  0.000     2.653     2.547
 359   1 H      0.040  0.960  0.000  0.000     2.444     2.445
 360   1 H      0.009  0.991  0.000  0.000     2.903     2.664
 361   1 H      0.046  0.954  0.000  0.000     2.375     2.410
 362   1 H      0.035  0.965  0.000  0.000     2.518     2.481
 363   7 N     -0.393  1.324  4.070  0.000    30.190     8.160
 364   6 C      0.033  1.065  2.901  0.000    20.034     6.376
 365   6 C      0.268  1.054  2.678  0.000    22.473     7.764
 366   8 O     -0.502  1.737  4.765  0.000    23.826     6.544
 367   6 C      0.119  1.046  2.834  0.000    18.731     6.180
 368   8 O     -0.491  1.729  4.762  0.000    22.690     6.430
 369   6 C     -0.128  1.046  3.082  0.000    23.004     6.839
 370   1 H      0.152  0.848  0.000  0.000     1.390     1.847
 371   1 H      0.039  0.961  0.000  0.000     2.463     2.454
 372   1 H      0.011  0.989  0.000  0.000     2.873     2.651
 373   1 H      0.336  0.664  0.000  0.000     0.622     1.239
 374   1 H      0.057  0.943  0.000  0.000     2.238     2.339
 375   1 H      0.047  0.953  0.000  0.000     2.354     2.399
 376   1 H      0.065  0.935  0.000  0.000     2.146     2.291
 377   7 N     -0.182  1.254  3.928  0.000    24.941     7.417
 378   6 C      0.048  1.048  2.904  0.000    19.759     6.327
 379   6 C      0.295  1.036  2.669  0.000    21.996     7.681
 380   8 O     -0.470  1.724  4.746  0.000    23.122     6.447
 381   6 C     -0.053  1.046  3.007  0.000    21.509     6.600
 382   6 C     -0.032  1.066  2.966  0.000    28.741     8.792
 383   6 C     -0.002  1.063  2.939  0.000    28.018     8.681
 384   6 C     -0.010  1.071  2.939  0.000    28.096     8.683
 385   7 N     -0.121  1.235  3.886  0.000    23.637     7.221
 386   6 C      0.051  1.061  2.889  0.000    26.731     8.471
 387   6 C     -0.035  1.075  2.960  0.000    28.877     8.812
 388   6 C     -0.054  1.068  2.986  0.000    29.352     8.884
 389   6 C     -0.044  1.075  2.969  0.000    29.102     8.847
 390   6 C     -0.041  1.075  2.965  0.000    29.017     8.834
 391   1 H      0.228  0.772  0.000  0.000     0.972     1.545
 392   1 H      0.072  0.928  0.000  0.000     2.058     2.244
 393   1 H      0.054  0.946  0.000  0.000     2.276     2.359
 394   1 H      0.023  0.977  0.000  0.000     2.687     2.563
 395   1 H     -0.005  1.005  0.000  0.000     3.143     2.772
 396   1 H      0.195  0.805  0.000  0.000     1.130     1.665
 397   1 H      0.021  0.979  0.000  0.000     2.718     2.578
 398   1 H      0.031  0.969  0.000  0.000     2.575     2.509
 399   1 H      0.038  0.962  0.000  0.000     2.476     2.461
 400   1 H      0.043  0.957  0.000  0.000     2.411     2.428
 401   7 N     -0.190  1.251  3.939  0.000    25.119     7.444
 402   6 C      0.014  1.041  2.945  0.000    20.415     6.446
 403   6 C      0.160  1.057  2.783  0.000    24.531     8.111
 404   8 O     -0.461  1.737  4.724  0.000    22.936     6.421
 405   1 H      0.198  0.802  0.000  0.000     1.119     1.657
 406   1 H      0.049  0.951  0.000  0.000     2.332     2.388
 407   1 H      0.025  0.975  0.000  0.000     2.664     2.552
 408   7 N     -0.420  1.316  4.104  0.000    30.943     8.262
 409   6 C      0.041  1.058  2.901  0.000    19.883     6.348
 410   6 C      0.266  1.053  2.681  0.000    22.506     7.769
 411   8 O     -0.504  1.728  4.776  0.000    23.873     6.551
 412   6 C     -0.006  1.054  2.952  0.000    20.649     6.463
 413   6 C     -0.110  1.039  3.070  0.000    22.645     6.784
 414   6 C     -0.111  1.038  3.073  0.000    22.669     6.786
 415   1 H      0.169  0.831  0.000  0.000     1.276     1.769
 416   1 H      0.033  0.967  0.000  0.000     2.547     2.496
 417   1 H      0.019  0.981  0.000  0.000     2.753     2.595
 418   1 H      0.044  0.956  0.000  0.000     2.392     2.419
 419   1 H      0.033  0.967  0.000  0.000     2.550     2.497
 420   1 H      0.051  0.949  0.000  0.000     2.307     2.375
 421   1 H      0.038  0.962  0.000  0.000     2.470     2.458
 422   1 H      0.051  0.949  0.000  0.000     2.309     2.376
 423   1 H      0.042  0.958  0.000  0.000     2.426     2.436
 424   7 N     -0.189  1.257  3.932  0.000    25.102     7.441
 425   6 C      0.028  1.058  2.914  0.000    20.098     6.383
 426   6 C      0.282  1.038  2.680  0.000    22.227     7.721
 427   8 O     -0.474  1.726  4.748  0.000    23.208     6.459
 428   6 C     -0.069  1.056  3.013  0.000    21.813     6.649
 429   6 C     -0.012  1.055  2.957  0.000    20.762     6.481
 430   6 C     -0.116  1.041  3.075  0.000    22.742     6.795
 431   6 C     -0.118  1.043  3.075  0.000    22.778     6.799
 432   1 H      0.224  0.776  0.000  0.000     0.993     1.561
 433   1 H      0.071  0.929  0.000  0.000     2.076     2.253
 434   1 H      0.048  0.952  0.000  0.000     2.341     2.393
 435   1 H      0.036  0.964  0.000  0.000     2.508     2.477
 436   1 H      0.048  0.952  0.000  0.000     2.351     2.398
 437   1 H      0.064  0.936  0.000  0.000     2.154     2.295
 438   1 H      0.039  0.961  0.000  0.000     2.460     2.453
 439   1 H      0.038  0.962  0.000  0.000     2.477     2.461
 440   1 H      0.055  0.945  0.000  0.000     2.255     2.348
 441   1 H      0.035  0.965  0.000  0.000     2.521     2.483
 442   1 H      0.030  0.970  0.000  0.000     2.589     2.516
 443   7 N     -0.172  1.240  3.932  0.000    24.719     7.384
 444   6 C     -0.031  1.053  2.978  0.000    21.185     6.564
 445   6 C      0.282  1.039  2.679  0.000    22.226     7.719
 446   8 O     -0.469  1.750  4.720  0.000    23.120     6.447
 447   1 H      0.212  0.788  0.000  0.000     1.046     1.602
 448   1 H      0.086  0.914  0.000  0.000     1.923     2.169
 449   1 H      0.076  0.924  0.000  0.000     2.016     2.221
 450   7 N     -0.183  1.248  3.935  0.000    24.955     7.419
 451   6 C      0.025  1.057  2.918  0.000    20.159     6.394
 452   6 C      0.280  1.035  2.685  0.000    22.266     7.730
 453   8 O     -0.504  1.754  4.750  0.000    23.870     6.550
 454   6 C     -0.139  1.045  3.095  0.000    23.232     6.872
 455   1 H      0.202  0.798  0.000  0.000     1.095     1.639
 456   1 H      0.074  0.926  0.000  0.000     2.042     2.235
 457   1 H      0.075  0.925  0.000  0.000     2.035     2.231
 458   1 H      0.071  0.929  0.000  0.000     2.080     2.255
 459   1 H      0.075  0.925  0.000  0.000     2.030     2.228
 460   7 N     -0.183  1.250  3.933  0.000    24.965     7.421
 461   6 C      0.033  1.060  2.907  0.000    20.003     6.365
 462   6 C      0.286  1.050  2.664  0.000    22.151     7.707
 463   8 O     -0.521  1.753  4.768  0.000    24.251     6.603
 464   6 C     -0.068  1.053  3.015  0.000    21.785     6.642
 465   6 C     -0.010  1.051  2.959  0.000    20.722     6.474
 466   6 C     -0.106  1.040  3.066  0.000    22.570     6.772
 467   6 C     -0.115  1.040  3.075  0.000    22.756     6.801
 468   1 H      0.230  0.770  0.000  0.000     0.964     1.538
 469   1 H      0.061  0.939  0.000  0.000     2.192     2.315
 470   1 H      0.041  0.959  0.000  0.000     2.431     2.438
 471   1 H      0.056  0.944  0.000  0.000     2.245     2.343
 472   1 H      0.037  0.963  0.000  0.000     2.487     2.466
 473   1 H      0.036  0.964  0.000  0.000     2.500     2.473
 474   1 H      0.026  0.974  0.000  0.000     2.647     2.544
 475   1 H      0.045  0.955  0.000  0.000     2.388     2.417
 476   1 H      0.045  0.955  0.000  0.000     2.385     2.415
 477   1 H      0.043  0.957  0.000  0.000     2.412     2.429
 478   1 H      0.041  0.959  0.000  0.000     2.438     2.442
 479   7 N     -0.191  1.253  3.938  0.000    25.139     7.447
 480   6 C      0.032  1.066  2.902  0.000    20.051     6.378
 481   6 C      0.194  1.073  2.732  0.000    23.851     7.998
 482   8 O     -0.418  1.750  4.668  0.000    22.044     6.295
 483   6 C     -0.073  1.058  3.016  0.000    21.902     6.663
 484   6 C     -0.077  1.053  3.024  0.000    21.975     6.675
 485   6 C     -0.093  1.057  3.036  0.000    22.282     6.721
 486   6 C     -0.052  1.064  2.988  0.000    21.612     6.637
 487   7 N     -0.145  1.231  3.915  0.000    24.135     7.296
 488   1 H      0.219  0.781  0.000  0.000     1.012     1.576
 489   1 H      0.072  0.928  0.000  0.000     2.066     2.248
 490   1 H      0.057  0.943  0.000  0.000     2.230     2.335
 491   1 H      0.068  0.932  0.000  0.000     2.103     2.268
 492   1 H      0.064  0.936  0.000  0.000     2.151     2.294
 493   1 H      0.061  0.939  0.000  0.000     2.186     2.312
 494   1 H      0.071  0.929  0.000  0.000     2.078     2.254
 495   1 H      0.074  0.926  0.000  0.000     2.038     2.232
 496   1 H      0.130  0.870  0.000  0.000     1.534     1.937
 497   1 H      0.117  0.883  0.000  0.000     1.634     1.999
 498   1 H      0.306  0.694  0.000  0.000     0.696     1.307
 499   1 H      0.279  0.721  0.000  0.000     0.780     1.384
 500   1 H      0.299  0.701  0.000  0.000     0.716     1.326
 501   8 O     -0.603  1.759  4.843  0.000    25.250     6.782
 502   1 H      0.297  0.703  0.000  0.000     0.729     1.341
 503   1 H      0.327  0.673  0.000  0.000     0.646     1.263
 504   7 N     -0.643  1.566  4.077  0.000    39.269     9.279
 505   6 C      0.089  1.068  2.843  0.000    19.117     6.227
 506   6 C     -0.034  1.370  2.664  0.000    32.084     9.151
 507   8 O     -0.535  1.807  4.728  0.000    24.583     6.648
 508   6 C     -0.006  1.051  2.955  0.000    20.667     6.469
 509   6 C      0.020  1.063  2.916  0.000    20.234     6.404
 510  16 S     -0.261  1.921  4.292  0.048   152.304    20.771
 511   6 C     -0.057  1.065  2.992  0.000    21.691     6.646
 512   1 H      0.032  0.968  0.000  0.000     2.578     2.515
 513   1 H     -0.049  1.049  0.000  0.000     4.064     3.152
 514   1 H     -0.003  1.003  0.000  0.000     3.106     2.756
 515   1 H     -0.033  1.033  0.000  0.000     3.695     3.006
 516   1 H      0.016  0.984  0.000  0.000     2.797     2.615
 517   1 H      0.042  0.958  0.000  0.000     2.421     2.433
 518   1 H      0.072  0.928  0.000  0.000     2.062     2.246
 519   1 H      0.062  0.938  0.000  0.000     2.176     2.307
 520   1 H      0.063  0.937  0.000  0.000     2.162     2.299
 521   7 N     -0.646  1.554  4.092  0.000    39.397     9.294
 522   6 C      0.090  1.062  2.849  0.000    19.115     6.228
 523   6 C     -0.035  1.381  2.654  0.000    32.088     9.151
 524   8 O     -0.542  1.820  4.723  0.000    24.743     6.669
 525   6 C      0.110  1.036  2.854  0.000    18.962     6.235
 526   8 O     -0.481  1.731  4.750  0.000    22.482     6.401
 527   1 H      0.058  0.942  0.000  0.000     2.237     2.343
 528   1 H     -0.059  1.059  0.000  0.000     4.317     3.249
 529   1 H      0.000  1.000  0.000  0.000     3.054     2.733
 530   1 H     -0.017  1.017  0.000  0.000     3.374     2.873
 531   1 H      0.329  0.671  0.000  0.000     0.639     1.256
 532   7 N     -0.627  1.538  4.089  0.000    38.688     9.211
 533   6 C      0.113  1.053  2.835  0.000    18.738     6.162
 534   6 C     -0.022  1.376  2.646  0.000    31.745     9.102
 535   8 O     -0.497  1.784  4.713  0.000    23.722     6.530
 536   6 C     -0.012  1.042  2.970  0.000    20.725     6.470
 537   6 C      0.054  1.049  2.897  0.000    19.655     6.310
 538  16 S     -0.228  1.896  4.278  0.053   150.785    20.667
 539   6 C     -0.055  1.057  2.998  0.000    21.642     6.637
 540   1 H      0.067  0.933  0.000  0.000     2.134     2.288
 541   1 H     -0.061  1.061  0.000  0.000     4.371     3.269
 542   1 H      0.015  0.985  0.000  0.000     2.811     2.622
 543   1 H     -0.004  1.004  0.000  0.000     3.124     2.764
 544   1 H     -0.002  1.002  0.000  0.000     3.101     2.754
 545   1 H     -0.005  1.005  0.000  0.000     3.154     2.777
 546   1 H      0.093  0.907  0.000  0.000     1.854     2.129
 547   1 H      0.026  0.974  0.000  0.000     2.650     2.545
 548   1 H      0.065  0.935  0.000  0.000     2.141     2.288
 549   1 H      0.171  0.829  0.000  0.000     1.267     1.763
 550   1 H      0.026  0.974  0.000  0.000     2.650     2.546
 551   1 H      0.191  0.809  0.000  0.000     1.153     1.682
 552   1 H      0.025  0.975  0.000  0.000     2.662     2.551
 553   1 H      0.184  0.816  0.000  0.000     1.193     1.711
 554   1 H      0.013  0.987  0.000  0.000     2.838     2.634
 555   1 H      0.167  0.833  0.000  0.000     1.290     1.779
 556   1 H      0.040  0.960  0.000  0.000     2.447     2.446
 557   1 H      0.171  0.829  0.000  0.000     1.268     1.764
 558   1 H      0.024  0.976  0.000  0.000     2.679     2.559
 559   1 H      0.176  0.824  0.000  0.000     1.237     1.742
 560   1 H      0.004  0.996  0.000  0.000     2.980     2.699
 561   1 H      0.183  0.817  0.000  0.000     1.197     1.714
 562   1 H      0.020  0.980  0.000  0.000     2.730     2.584
 563   1 H      0.172  0.828  0.000  0.000     1.263     1.760
 564   1 H      0.038  0.962  0.000  0.000     2.477     2.461

 Mol. C6AA /au·bohr⁶  :    2978085.649343
 Mol. C8AA /au·bohr⁸  :   66778276.970004
 Mol. α(0) /au        :       2587.337141

 
molecular dipole:
                 x           y           z       tot (Debye)
 q only:     -626.282    -688.497   -2247.112
   full:     -625.642    -689.599   -2248.231    6185.260
molecular quadrupole (traceless):
                xx          xy          yy          xz          yz          zz
 q only:   394571.175 -108760.052  374451.233 -352178.575 -387004.313 -769022.408
  q+dip:   395276.108 -108809.551  374675.227 -351927.692 -387899.302 -769951.336
   full:   395280.822 -108807.148  374672.398 -351929.767 -387900.106 -769953.220
speedup  2.00
cpu  time for grad    1 m 46.3 s
wall time for grad    0 m 53.2 s

SCC energy    :    -855.0001163
rep           :      10.1678727
ES            :       3.5682138
AES           :      -0.1131407
AXC           :       0.2914902
disp          :      -0.8072679
XB            :       0.0000000
fix           :       0.0000000
Gborn         :       0.0000000
Gsasa         :       0.0000000
Ghb           :       0.0000000
Gshift        :       0.0000000
Gsolv         :      -1.4931732     -936.98
Etot ala COSMO:    -855.0001163
grad norm     :       0.6563358
total E       :    -844.7402204
atomizationE  :     156.9884371    98511.73
(atE without considering molecular charge,
 total energy contains solvation terms)
H-L gap (eV)  :          0.0680

------------------------------------------------------------------------
 * finished run on 2019/05/06 at 14:41:06.278     
------------------------------------------------------------------------
 total:
 * wall-time:     0 d,  0 h,  0 min, 54.240 sec
 *  cpu-time:     0 d,  0 h,  1 min, 48.202 sec
 * ratio c/w:     1.995 speedup
 SCF:
 * wall-time:     0 d,  0 h,  0 min, 53.908 sec
 *  cpu-time:     0 d,  0 h,  1 min, 47.629 sec
 * ratio c/w:     1.997 speedup

