      -----------------------------------------------------------      
     |                   =====================                   |     
     |                           x T B                           |     
     |                   =====================                   |     
     |                         S. Grimme                         |     
     |          Mulliken Center for Theoretical Chemistry        |     
     |                    University of Bonn                     |     
     |                 Version 6.0.1 (SAW181210)                 |     
      -----------------------------------------------------------      

   This program is distributed in the hope that it will be useful,
   but WITHOUT ANY WARRANTY; without even the implied warranty of
   MERCHANTABILITY or FITNESS FOR A PARTICULAR PURPOSE.
   
   FOR NON-COMMERCIAL, ACADEMIA USE ONLY.
   
   Cite this work as:
   S. Grimme, C. Bannwarth, P. Shushkov, J. Comput. Theory Chem., 2017,
   13, 1989-2009.
   C. Bannwarth, S. Ehlert and S. Grimme., ChemRxiv, 2018, preprint.
   http://doi.org/10.26434/chemrxiv.7246238.v1
   
   for sTDA-xTB:
   S. Grimme and C. Bannwarth, J. Chem. Phys., 2016, 145, 054103.
   
   in the mass-spec context:
   V. Asgeirsson, C. Bauer and S. Grimme, Chem. Sci., 2017, 8, 4879.
   
   if GBSA is used:
   P. Shushkov, F. März and S. Grimme, unpublished.
   
   for ANC optimizer:
   S. Grimme, unpublished.
   Rational Function algorithm used in ANCopt:
   F. Eckert, P. Pulay, H.-J. Werner, J. Comput. Chem., 1997, 18, 1473.
   
   with help from (in alphabetical order)
   C. Bannwarth, F. Bohle, G. Brandenburg, E. Caldeweyher, M. Checinski,
   S. Dohm, S. Ehlert, S. Ehrlich, F. März, H. Neugebauer, J. Pisarek,
   P. Pracht, P. Shushkov, and S. Spicher.
   
 * started run on 2019/05/04 at 20:22:30.197     
========================================================================
 # omp threads = 2
========================================================================
number of atoms            : 847
number of electrons        : 2312
charge                     : 0
spin                       : .0
first test random number   : .3845

########################################################################
# WARNING! Please study the warnings concerning your input carefully
#  - Process number higher than OMP_NUM_THREADS, I hope you know what you are doing.
########################################################################

           ------------------------------------------------- 
          |                 G F N 2 - x T B                 |
          | Geometry, Frequencies, Noncovalent interactions |
          |            JCTC 2018 parametrisation            |
           ------------------------------------------------- 
 
      method parameters     
 k(s)        :  1.8500
 k(p)        :  2.2300
 k(d)        :  2.2300
 k(f)        :  2.0000
 kEN (H0ij)  : -2.0000
 D4 a1       :  0.5200
 D4 a2       :  5.0000
 D4 s6       :  1.0000
 D4 s8       :  2.7000
 D4 s9       :  5.0000
 alphaj      :  2.0000

 Solvent             : h2o
 Using internal parameter file: .param_gbsa2_h2o
 Gsolv ref. state (COSMO-RS): gsolv [1 M gas/solution]
 temperature (mdtemp)       :    298.150000000000     
 dielectric constant        :    80.2000000000000     
 rho                        :    1.00000000000000     
 mass                       :    18.0000000000000     
 surface tension            :    15.5689454083859     
 probe radius               :   0.975313790000000     
 vdW radii scaling          :    1.00000000000000     
 Gshift (Eh)                :   1.857443126794793E-003
 c1                         :    1.55243817000000     
 soset                      :   0.130326360000000     
 HB correction              :  T

            Z     q(EN)     CN     RAES       Cart. coordinates
     1  N   5.0   -0.21    3.23    1.96   -48.29195   133.15576    34.09255
     2  C   4.0    0.03    4.34    4.27   -50.67678   133.94755    35.19615
     3  C   4.0    0.14    3.43    3.09   -52.79327   132.83451    33.61256
     4  O   6.0   -0.32    1.26    1.80   -54.30128   131.34540    34.56120
     5  C   4.0   -0.05    4.29    4.18   -50.88276   136.81805    35.39268
     6  C   4.0   -0.05    4.21    4.01   -51.91455   137.64764    37.91924
     7  C   4.0   -0.01    4.21    4.02   -51.72369   140.48034    38.29719
     8  N   5.0   -0.14    3.37    2.01   -52.54194   141.22489    40.84076
     9  C   4.0    0.09    3.33    3.06   -54.86630   142.01857    41.46248
    10  N   5.0   -0.19    3.27    1.97   -56.66721   142.20944    39.72393
    11  N   5.0   -0.19    3.24    1.96   -55.41054   142.63840    43.84542
    12  H   1.0    0.08    1.03    1.43   -47.15244   134.59384    33.50106
    13  H   1.0    0.04    1.07    1.44   -50.80528   133.27670    37.13878
    14  H   1.0    0.04    1.04    1.43   -49.01193   137.64764    35.15646
    15  H   1.0    0.04    1.04    1.43   -52.14888   137.50780    33.92247
    16  H   1.0    0.04    1.03    1.43   -53.90065   137.11851    38.04396
    17  H   1.0    0.04    1.03    1.43   -50.84497   136.72923    39.41968
    18  H   1.0    0.04    1.03    1.43   -49.76593   141.07182    38.04774
    19  H   1.0    0.04    1.03    1.43   -52.92744   141.43465    36.92525
    20  H   1.0    0.08    1.06    1.44   -51.23425   141.13040    42.25238
    21  H   1.0    0.08    1.03    1.43   -56.28927   141.75023    37.89090
    22  H   1.0    0.07    1.03    1.43   -58.42844   142.81604    40.22282
    23  H   1.0    0.08    1.02    1.43   -54.05372   142.50990    45.20791
    24  H   1.0    0.07    1.04    1.44   -57.18311   143.24123    44.30462
    25  N   5.0   -0.14    3.51    2.08   -52.79516   133.43355    31.17292
    26  C   4.0    0.04    4.49    4.52   -54.73969   132.52081    29.43815
    27  C   4.0    0.15    3.44    3.09   -54.99858   129.65032    29.37957
    28  O   6.0   -0.31    1.24    1.80   -57.05083   128.68089    28.89769
    29  C   4.0    0.05    4.26    4.12   -54.24647   133.42221    26.76041
    30  O   6.0   -0.26    2.14    1.85   -52.90666   135.76547    26.85679
    31  C   4.0   -0.07    4.08    3.77   -56.72390   133.78693    25.35067
    32  H   1.0    0.09    1.08    1.44   -51.47236   134.55227    30.32821
    33  H   1.0    0.05    1.07    1.44   -56.51036   133.31828    30.12412
    34  H   1.0    0.04    1.05    1.44   -53.12965   132.02381    25.73996
    35  H   1.0    0.11    1.01    1.43   -52.56840   136.37396    25.14091
    36  H   1.0    0.04    1.00    1.43   -56.35352   134.43510    23.43071
    37  H   1.0    0.05    1.00    1.43   -57.75569   132.00681    25.26753
    38  H   1.0    0.05    1.00    1.43   -57.88420   135.18721    26.31632
    39  N   5.0   -0.14    3.48    2.07   -52.93311   128.30672    29.88413
    40  C   4.0    0.03    4.45    4.45   -52.92744   125.54016    29.81610
    41  C   4.0    0.15    3.48    3.10   -54.58284   124.35531    31.82298
    42  O   6.0   -0.33    1.30    1.80   -55.54660   122.28039    31.48850
    43  C   4.0   -0.05    4.30    4.20   -50.25348   124.51026    30.12601
    44  C   4.0   -0.05    4.19    3.98   -49.97947   121.73426    29.43248
    45  C   4.0   -0.01    4.24    4.08   -50.74481   121.29395    26.69049
    46  N   5.0   -0.14    3.38    2.01   -49.33508   119.20013    25.55287
    47  C   4.0    0.09    3.33    3.06   -47.07874   119.43257    24.44361
    48  N   5.0   -0.18    3.25    1.97   -45.93546   121.67756    24.31888
    49  N   5.0   -0.18    3.22    1.96   -45.95625   117.40678    23.46095
    50  H   1.0    0.08    1.06    1.44   -51.22669   129.07206    30.34900
    51  H   1.0    0.05    1.07    1.44   -53.65877   125.00537    27.96605
    52  H   1.0    0.04    1.03    1.43   -48.98737   125.58741    28.91092
    53  H   1.0    0.04    1.03    1.43   -49.68845   124.72191    32.09511
    54  H   1.0    0.04    1.03    1.43   -48.01605   121.15600    29.66681
    55  H   1.0    0.05    1.03    1.43   -51.19835   120.59664    30.64380
    56  H   1.0    0.04    1.02    1.43   -52.75170   120.83853    26.60923
    57  H   1.0    0.04    1.04    1.43   -50.36498   122.99659    25.59634
    58  H   1.0    0.08    1.06    1.44   -50.13065   117.44458    25.61146
    59  H   1.0    0.08    1.03    1.43   -46.78395   123.23470    25.07477
    60  H   1.0    0.08    1.02    1.43   -44.21392   121.83630    23.46851
    61  H   1.0    0.08    1.02    1.43   -46.81796   115.68524    23.55732
    62  H   1.0    0.08    1.02    1.43   -44.23471   117.57497    22.61246
    63  N   5.0   -0.14    3.59    2.15   -54.87386   125.65355    33.93759
    64  C   4.0    0.03    4.50    4.53   -56.37808   124.62932    35.97471
    65  C   4.0    0.15    3.50    3.11   -59.14275   125.07151    35.40213
    66  O   6.0   -0.32    1.32    1.80   -60.76792   123.57296    36.09755
    67  C   4.0   -0.05    4.28    4.15   -55.57306   125.78961    38.48238
    68  C   4.0   -0.05    4.20    4.00   -52.70824   125.66300    38.90190
    69  C   4.0   -0.05    4.19    3.98   -51.71991   122.95313    38.71859
    70  C   4.0   -0.04    4.13    3.85   -49.02516   122.87376    37.71515
    71  N   5.0   -0.12    3.99    2.84   -48.11998   120.23570    37.29374
    72  H   1.0    0.10    1.08    1.44   -54.10474   127.38643    34.28719
    73  H   1.0    0.05    1.07    1.44   -56.07573   122.60353    36.19770
    74  H   1.0    0.05    1.03    1.43   -56.13620   127.77004    38.51639
    75  H   1.0    0.04    1.03    1.43   -56.48958   124.76916    40.01873
    76  H   1.0    0.04    1.03    1.43   -51.75959   126.79494    37.46571
    77  H   1.0    0.04    1.03    1.43   -52.26226   126.38676    40.77840
    78  H   1.0    0.05    1.03    1.43   -51.73881   122.09330    40.58942
    79  H   1.0    0.04    1.04    1.43   -52.91989   121.87599    37.43547
    80  H   1.0    0.04    1.02    1.43   -48.94390   123.87532    35.91613
    81  H   1.0    0.04    1.02    1.43   -47.77038   123.77138    39.07764
    82  H   1.0    0.05    1.01    1.43   -46.27750   120.25838    36.60966
    83  H   1.0    0.06    1.01    1.43   -48.16156   119.23226    38.98316
    84  H   1.0    0.06    1.01    1.43   -49.27460   119.33052    35.98605
    85  N   5.0   -0.14    3.59    2.15   -59.64920   127.10864    34.03963
    86  C   4.0    0.04    4.48    4.50   -62.15876   127.58485    33.07209
    87  C   4.0    0.16    3.47    3.10   -62.90520   125.52316    31.23717
    88  O   6.0   -0.30    1.24    1.80   -65.06893   125.37954    30.43215
    89  C   4.0   -0.04    4.38    4.35   -62.24757   130.14921    31.79086
    90  C   4.0   -0.02    4.18    3.97   -62.88252   132.39609    33.49917
    91  C   4.0   -0.07    4.09    3.79   -61.84506   132.18633    36.22038
    92  C   4.0   -0.07    4.11    3.82   -61.96600   134.78848    32.21038
    93  H   1.0    0.09    1.07    1.44   -58.35663   128.46168    33.57665
    94  H   1.0    0.05    1.06    1.44   -63.52692   127.65099    34.61033
    95  H   1.0    0.06    1.05    1.44   -60.39942   130.51770    30.96127
    96  H   1.0    0.05    1.04    1.43   -63.68187   130.08118    30.31498
    97  H   1.0    0.04    1.07    1.44   -64.92531   132.44711    33.75806
    98  H   1.0    0.04    1.00    1.43   -62.39497   133.86630    37.27862
    99  H   1.0    0.04    1.00    1.43   -62.63497   130.50447    37.11044
   100  H   1.0    0.05    1.00    1.43   -59.79093   132.04271    36.14668
   101  H   1.0    0.05    1.00    1.43   -62.40631   136.40609    33.40658
   102  H   1.0    0.04    1.00    1.43   -59.93077   134.65998    31.92503
   103  H   1.0    0.05    1.00    1.43   -62.91843   134.97935    30.39435
   104  N   5.0   -0.13    3.57    2.13   -61.08539   123.93579    30.57577
   105  C   4.0    0.05    4.43    4.44   -61.64664   121.60198    29.26997
   106  C   4.0    0.16    3.47    3.10   -62.46867   119.65934    31.21260
   107  O   6.0   -0.30    1.28    1.80   -64.55871   118.65022    31.02930
   108  C   4.0   -0.04    4.28    4.16   -59.35629   120.65711    27.77519
   109  C   4.0   -0.03    4.22    4.05   -59.46212   117.87544    26.94938
   110  C   4.0    0.16    3.21    3.04   -61.31783   117.38978    24.80832
   111  O   6.0   -0.28    1.20    1.80   -63.62329   117.40678    25.18816
   112  N   5.0   -0.18    3.17    1.95   -60.31249   116.91734    22.54443
   113  H   1.0    0.10    1.10    1.44   -59.20889   124.21736    30.91970
   114  H   1.0    0.07    1.06    1.44   -63.14141   121.91000    27.88669
   115  H   1.0    0.05    1.03    1.43   -59.18244   121.79662    26.06877
   116  H   1.0    0.07    1.06    1.44   -57.67822   120.88388    28.94871
   117  H   1.0    0.04    1.03    1.43   -57.59129   117.30096    26.30687
   118  H   1.0    0.06    1.04    1.43   -60.03848   116.72459    28.55754
   119  H   1.0    0.08    1.02    1.43   -58.39820   116.89656    22.32522
   120  H   1.0    0.10    1.02    1.43   -61.45956   116.57719    21.03265
   121  N   5.0   -0.14    3.48    2.06   -60.85296   119.18124    33.09288
   122  C   4.0    0.03    4.37    4.33   -61.31972   117.15545    34.94292
   123  C   4.0    0.15    3.42    3.08   -63.71400   117.59198    36.50006
   124  O   6.0   -0.31    1.24    1.80   -64.83650   115.81563    37.51295
   125  C   4.0   -0.03    4.22    4.04   -58.98780   116.63955    36.63423
   126  C   4.0   -0.03    4.19    3.99   -58.59662   118.38944    38.93780
   127  C   4.0    0.15    3.18    3.03   -56.94122   117.23293    41.04863
   128  O   6.0   -0.28    1.20    1.80   -56.50092   114.94447    41.12989
   129  N   5.0   -0.19    3.17    1.95   -56.04360   118.83542    42.77017
   130  H   1.0    0.10    1.06    1.44   -59.21267   120.14878    33.39335
   131  H   1.0    0.06    1.06    1.44   -61.60696   115.40934    33.89035
   132  H   1.0    0.07    1.03    1.43   -59.14653   114.71959    37.36366
   133  H   1.0    0.05    1.03    1.43   -57.30405   116.81152    35.46071
   134  H   1.0    0.04    1.03    1.43   -57.68011   120.12043    38.30286
   135  H   1.0    0.05    1.05    1.44   -60.43722   118.82597    39.75605
   136  H   1.0    0.08    1.03    1.43   -56.46123   120.71380    42.64922
   137  H   1.0    0.10    1.02    1.43   -54.94000   118.18535    44.21014
   138  N   5.0   -0.13    3.54    2.11   -64.49635   119.97303    36.61533
   139  C   4.0    0.03    4.46    4.48   -66.69221   120.70625    38.05908
   140  C   4.0    0.15    3.50    3.11   -69.10539   120.39444    36.55108
   141  O   6.0   -0.33    1.53    1.80   -70.87795   119.20013    37.44681
   142  C   4.0   -0.04    4.34    4.27   -66.38985   123.39721    39.02095
   143  C   4.0   -0.01    3.51    3.12   -64.89130   123.57296    41.45492
   144  C   4.0   -0.05    3.44    3.09   -65.83616   124.89577    43.52039
   145  C   4.0   -0.03    3.46    3.10   -62.52536   122.40511    41.71381
   146  C   4.0   -0.04    3.49    3.11   -64.47178   125.07151    45.78239
   147  C   4.0   -0.05    3.40    3.08   -61.13452   122.57329    43.98337
   148  C   4.0    0.06    3.41    3.08   -62.12852   123.91500    46.01105
   149  O   6.0   -0.24    2.12    1.84   -60.81894   124.12854    48.26360
   150  H   1.0    0.11    1.11    1.45   -63.63085   121.44135    35.71582
   151  H   1.0    0.06    1.07    1.44   -66.84906   119.49304    39.71637
   152  H   1.0    0.05    1.04    1.43   -65.40719   124.50837    37.59232
   153  H   1.0    0.04    1.04    1.43   -68.25690   124.19279    39.37055
   154  H   1.0    0.04    1.03    1.43   -67.65786   125.80473    43.37677
   155  H   1.0    0.06    1.06    1.44   -61.75246   121.35631    40.14345
   156  H   1.0    0.05    1.11    1.44   -65.24657   126.11275    47.35653
   157  H   1.0    0.05    1.04    1.43   -59.31283   121.66623    44.14400
   158  H   1.0    0.12    1.03    1.43   -59.20889   123.22147    48.14833
   159  N   5.0   -0.14    3.56    2.13   -69.18854   121.43379    34.26451
   160  C   4.0    0.03    4.45    4.47   -71.28046   120.86876    32.56565
   161  C   4.0    0.16    3.52    3.12   -71.61872   118.02283    32.60722
   162  O   6.0   -0.32    1.25    1.80   -73.70687   117.08364    33.02107
   163  C   4.0   -0.05    4.29    4.18   -70.70977   121.77583    29.88602
   164  C   4.0   -0.05    4.17    3.95   -72.89807   121.50749    28.03408
   165  C   4.0   -0.01    4.21    4.01   -71.94565   121.46780    25.30154
   166  N   5.0   -0.14    3.38    2.01   -74.01490   121.43001    23.46095
   167  C   4.0    0.10    3.33    3.06   -73.72766   121.23915    20.96462
   168  N   5.0   -0.18    3.25    1.97   -71.43731   121.05584    19.94228
   169  N   5.0   -0.17    3.23    1.96   -75.75344   121.22781    19.48118
   170  H   1.0    0.09    1.08    1.44   -67.86951   122.64510    33.55019
   171  H   1.0    0.04    1.06    1.44   -72.99633   121.84764    33.14768
   172  H   1.0    0.05    1.04    1.43   -70.20521   123.77138    29.96349
   173  H   1.0    0.06    1.04    1.43   -69.13184   120.67790    29.14524
   174  H   1.0    0.05    1.03    1.43   -73.89584   119.74437    28.40258
   175  H   1.0    0.05    1.03    1.43   -74.18308   123.10242    28.25329
   176  H   1.0    0.05    1.03    1.43   -70.81370   123.15533    24.95761
   177  H   1.0    0.05    1.03    1.43   -70.80047   119.78028    25.01052
   178  H   1.0    0.08    1.06    1.44   -75.81392   121.56040    24.14125
   179  H   1.0    0.09    1.03    1.43   -69.87451   121.05962    21.07044
   180  H   1.0    0.09    1.02    1.43   -71.24456   120.91034    18.02988
   181  H   1.0    0.09    1.02    1.43   -77.51467   121.36387    20.25408
   182  H   1.0    0.09    1.02    1.43   -75.54746   121.08230    17.57067
   183  N   5.0   -0.14    3.52    2.09   -69.50790   116.68680    32.27085
   184  C   4.0    0.04    4.41    4.39   -69.43042   113.92969    32.28786
   185  C   4.0    0.16    3.43    3.09   -70.15041   112.76940    34.81064
   186  O   6.0   -0.32    1.35    1.80   -70.93086   110.57731    34.89757
   187  C   4.0   -0.03    4.29    4.17   -66.82449   112.95648    31.51118
   188  C   4.0   -0.02    4.18    3.97   -66.40875   112.82987    28.66525
   189  C   4.0    0.25    3.12    3.03   -64.36596   110.94203    27.92637
   190  O   6.0   -0.27    1.17    1.80   -62.42143   111.75839    26.86434
   191  O   6.0   -0.27    1.17    1.80   -64.69666   108.64412    28.41014
   192  H   1.0    0.11    1.10    1.44   -67.77691   117.48048    31.97416
   193  H   1.0    0.05    1.06    1.44   -70.80425   113.29663    30.88946
   194  H   1.0    0.07    1.03    1.43   -65.39208   114.21126    32.29542
   195  H   1.0    0.07    1.04    1.43   -66.58260   111.05352    32.26329
   196  H   1.0    0.05    1.03    1.43   -68.16619   112.25728    27.75441
   197  H   1.0    0.08    1.03    1.43   -65.83616   114.68747    27.98684
   198  N   5.0   -0.12    3.51    2.09   -69.85561   114.19425    36.86288
   199  C   4.0    0.04    4.51    4.55   -70.66819   113.23427    39.29874
   200  C   4.0    0.16    3.45    3.09   -73.40451   113.94481    39.88834
   201  O   6.0   -0.30    1.35    1.80   -74.81236   112.38578    40.86154
   202  C   4.0   -0.04    4.32    4.23   -68.86539   114.03929    41.40201
   203  C   4.0   -0.04    4.06    3.73   -69.43987   112.89412    43.98715
   204  S   6.0   -0.01    2.62    3.10   -70.70599   109.71371    43.96447
   205  C   4.0   -0.05    3.88    3.43   -70.70410   108.97861    47.28283
   206  H   1.0    0.12    1.10    1.44   -69.08460   115.96114    36.88745
   207  H   1.0    0.06    1.11    1.45   -70.55292   111.17825    39.25906
   208  H   1.0    0.06    1.03    1.43   -66.95677   113.46859    40.88044
   209  H   1.0    0.05    1.03    1.43   -68.95988   116.08775    41.59665
   210  H   1.0    0.04    1.07    1.44   -67.69187   112.84499    45.07374
   211  H   1.0    0.06    1.10    1.44   -70.82315   114.09220    44.93201
   212  H   1.0    0.06    1.04    1.43   -71.43920   107.07187    47.54739
   213  H   1.0    0.05    1.04    1.43   -68.77469   109.09199    47.99337
   214  H   1.0    0.05    1.04    1.43   -71.89840   110.33543    48.27116
   215  N   5.0   -0.14    3.52    2.09   -74.15852   116.27295    39.30630
   216  C   4.0    0.04    4.48    4.50   -76.79090   117.04963    39.61244
   217  C   4.0    0.16    3.54    3.13   -78.49166   115.20903    38.26506
   218  O   6.0   -0.31    1.36    1.80   -79.99210   113.85032    39.42535
   219  C   4.0   -0.05    4.45    4.46   -77.24822   119.63855    38.45403
   220  C   4.0   -0.03    4.20    4.01   -77.52790   121.92323    40.17935
   221  C   4.0   -0.08    4.16    3.92   -79.92974   123.27060    39.45559
   222  C   4.0   -0.08    4.17    3.93   -77.57325   121.23159    42.95536
   223  H   1.0    0.13    1.22    1.47   -73.00200   117.65434    38.62411
   224  H   1.0    0.05    1.08    1.44   -77.21609   117.11766    41.62688
   225  H   1.0    0.06    1.04    1.43   -75.65896   120.04484    37.20870
   226  H   1.0    0.05    1.07    1.44   -78.98865   119.52328    37.35988
   227  H   1.0    0.04    1.06    1.44   -75.89139   123.15155    39.94314
   228  H   1.0    0.04    1.00    1.43   -80.16784   124.91655    40.67068
   229  H   1.0    0.04    1.00    1.43   -79.79935   123.86398    37.48649
   230  H   1.0    0.05    1.02    1.43   -81.51900   121.98370    39.69747
   231  H   1.0    0.04    1.00    1.43   -77.77734   122.95124    44.07219
   232  H   1.0    0.04    1.01    1.43   -79.16440   119.97303    43.30685
   233  H   1.0    0.04    1.01    1.43   -75.80825   120.28484    43.43913
   234  N   5.0   -0.14    3.54    2.11   -78.21954   115.21848    35.77440
   235  C   4.0    0.04    4.47    4.50   -79.43652   113.40434    34.13223
   236  C   4.0    0.16    3.48    3.11   -79.10393   110.72849    35.19615
   237  O   6.0   -0.31    1.33    1.80   -80.95775   109.36600    35.51929
   238  C   4.0   -0.02    4.32    4.24   -78.40473   113.65568    31.39024
   239  C   4.0   -0.04    4.19    3.98   -79.32125   116.14256    30.20916
   240  C   4.0   -0.07    4.12    3.85   -79.15117   111.39179    29.76129
   241  C   4.0   -0.07    4.01    3.64   -78.31024   116.65656    27.56732
   242  H   1.0    0.10    1.09    1.44   -77.13861   116.49594    34.81631
   243  H   1.0    0.06    1.06    1.44   -81.45664   113.79930    34.06609
   244  H   1.0    0.06    1.06    1.44   -76.34682   113.68591    31.48283
   245  H   1.0    0.04    1.03    1.43   -81.37727   116.09153    30.08822
   246  H   1.0    0.05    1.03    1.43   -78.72409   117.70158    31.41669
   247  H   1.0    0.04    1.00    1.43   -78.38961   111.65068    27.86401
   248  H   1.0    0.05    1.00    1.43   -78.37827   109.67780    30.60222
   249  H   1.0    0.05    1.00    1.43   -81.20530   111.27084    29.68193
   250  H   1.0    0.04    1.00    1.43   -79.06424   118.45369    26.89836
   251  H   1.0    0.05    1.00    1.43   -76.25422   116.74160    27.64102
   252  H   1.0    0.04    1.00    1.43   -78.90551   115.13533    26.31443
   253  N   5.0   -0.13    3.46    2.05   -76.76067   110.02551    35.81409
   254  C   4.0    0.04    4.33    4.26   -76.17107   107.48383    36.77785
   255  C   4.0    0.16    3.43    3.09   -77.39373   106.89991    39.31197
   256  O   6.0   -0.28    1.24    1.80   -77.42774   104.72294    40.13400
   257  C   4.0   -0.04    4.16    3.92   -73.31759   107.05298    36.93658
   258  H   1.0    0.10    1.06    1.44   -75.21676   111.17069    35.67236
   259  H   1.0    0.06    1.06    1.44   -76.91185   106.13457    35.40968
   260  H   1.0    0.06    1.00    1.43   -72.96421   105.15569    37.65657
   261  H   1.0    0.08    1.03    1.43   -72.50312   107.25329    35.05442
   262  H   1.0    0.07    1.01    1.43   -72.49745   108.44948    38.21026
   263  N   5.0   -0.13    3.61    2.17   -78.36127   108.84066    40.56864
   264  C   4.0    0.05    4.50    4.53   -79.81635   108.38901    42.82875
   265  C   4.0    0.16    3.42    3.08   -82.50543   109.27907    42.38277
   266  O   6.0   -0.29    1.25    1.80   -83.87360   109.91402    44.14400
   267  C   4.0   -0.02    4.29    4.18   -78.58614   109.62300    45.12477
   268  C   4.0    0.25    3.13    3.03   -78.15907   107.76351    47.27527
   269  O   6.0   -0.26    1.21    1.80   -79.19841   105.63568    47.17323
   270  O   6.0   -0.31    1.22    1.80   -76.76634   108.42114    49.06862
   271  H   1.0    0.13    1.12    1.45   -78.16473   110.69259    40.06786
   272  H   1.0    0.09    1.10    1.44   -79.87494   106.38023    43.27850
   273  H   1.0    0.07    1.04    1.43   -76.75689   110.39590    44.57486
   274  H   1.0    0.06    1.06    1.44   -79.80880   111.12911    45.81641
   275  N   5.0   -0.13    3.46    2.05   -83.22731   109.28474    39.97148
   276  C   4.0    0.03    4.25    4.10   -85.82001   109.76473    39.14756
   277  C   4.0    0.16    3.35    3.06   -86.76110   112.36122    39.86755
   278  O   6.0   -0.29    1.23    1.80   -88.98908   112.69759    40.44769
   279  H   1.0    0.12    1.16    1.45   -82.02922   108.95404    38.49750
   280  H   1.0    0.06    1.03    1.43   -85.92017   109.58899    37.09721
   281  H   1.0    0.07    1.03    1.43   -87.06912   108.36822    40.00172
   282  N   5.0   -0.13    3.51    2.09   -85.06601   114.20559    39.80897
   283  C   4.0    0.04    4.59    4.66   -85.65939   116.64522    40.88233
   284  C   4.0    0.15    3.50    3.12   -86.16205   118.65967    38.92646
   285  O   6.0   -0.31    1.23    1.80   -84.59547   119.16234    37.27673
   286  C   4.0   -0.02    4.40    4.37   -83.59203   117.51639    42.67757
   287  C   4.0   -0.04    4.24    4.08   -83.60337   115.85154    45.03595
   288  C   4.0   -0.08    4.25    4.11   -84.02288   120.22625    43.39567
   289  C   4.0   -0.07    4.04    3.69   -81.04090   115.37533    46.15089
   290  H   1.0    0.12    1.11    1.45   -83.30290   114.05630    39.04174
   291  H   1.0    0.05    1.10    1.44   -87.45463   116.39011    41.85743
   292  H   1.0    0.05    1.07    1.44   -81.76466   117.35387    41.74216
   293  H   1.0    0.04    1.04    1.43   -84.75043   116.76806    46.48159
   294  H   1.0    0.07    1.05    1.44   -84.41784   114.02417    44.54462
   295  H   1.0    0.03    1.01    1.43   -82.53000   120.82530    44.68068
   296  H   1.0    0.06    1.03    1.43   -83.99076   121.38466    41.69302
   297  H   1.0    0.04    1.03    1.43   -85.85592   120.39066    44.32163
   298  H   1.0    0.05    1.00    1.43   -81.24499   114.17724    47.81385
   299  H   1.0    0.06    1.01    1.43   -79.86360   114.43424    44.74682
   300  H   1.0    0.04    1.00    1.43   -80.19619   117.17624    46.68379
   301  N   5.0   -0.14    3.49    2.07   -88.39760   119.77650    39.14378
   302  C   4.0    0.04    4.46    4.47   -88.99664   122.10275    37.85310
   303  C   4.0    0.16    3.58    3.15   -87.36770   124.16066    39.03985
   304  O   6.0   -0.31    1.31    1.80   -87.46786   124.55940    41.32831
   305  C   4.0   -0.03    4.29    4.17   -91.80100   122.73014    38.18002
   306  C   4.0    0.25    3.12    3.03   -92.63248   125.01671    36.63612
   307  O   6.0   -0.30    1.22    1.80   -91.14904   126.83652    36.32431
   308  O   6.0   -0.27    1.17    1.80   -94.81889   124.99025    35.74984
   309  H   1.0    0.08    1.07    1.44   -89.84513   119.09620    40.21904
   310  H   1.0    0.05    1.07    1.44   -88.62815   121.95724    35.83109
   311  H   1.0    0.06    1.03    1.43   -92.92349   121.11254    37.57342
   312  H   1.0    0.06    1.03    1.43   -92.16760   123.13832    40.16613
   313  N   5.0   -0.09    3.69    2.26   -85.81057   125.43434    37.49783
   314  C   4.0    0.03    4.60    4.66   -84.40650   127.56406    38.50695
   315  C   4.0    0.16    3.45    3.09   -86.16394   129.49347    39.72771
   316  O   6.0   -0.30    1.33    1.80   -86.03166   129.87520    42.01806
   317  C   4.0   -0.05    4.39    4.36   -83.10259   128.68278    36.16746
   318  C   4.0   -0.04    4.31    4.22   -84.24776   127.36186    33.92814
   319  C   4.0   -0.01    4.37    4.33   -85.09247   124.87120    34.86922
   320  H   1.0    0.04    1.06    1.44   -82.97787   126.93289    39.85054
   321  H   1.0    0.04    1.03    1.43   -83.45786   130.71045    36.07865
   322  H   1.0    0.04    1.02    1.43   -81.07680   128.32562    36.26762
   323  H   1.0    0.05    1.03    1.43   -85.84269   128.45412    33.21760
   324  H   1.0    0.04    1.03    1.43   -82.83047   127.14265    32.45037
   325  H   1.0    0.05    1.03    1.43   -86.70819   124.18334    33.79208
   326  H   1.0    0.05    1.02    1.43   -83.56179   123.49548    34.79930
   327  N   5.0   -0.13    3.44    2.04   -87.83635   130.59707    38.19514
   328  C   4.0    0.04    4.41    4.39   -89.39916   132.78726    38.87733
   329  C   4.0    0.17    3.45    3.10   -89.74309   133.23891    41.70247
   330  O   6.0   -0.28    1.26    1.80   -88.28422   134.63730    42.85898
   331  C   4.0   -0.03    4.32    4.23   -91.96351   132.66254    37.53563
   332  C   4.0    0.15    3.20    3.04   -92.74964   135.24391    36.44903
   333  O   6.0   -0.28    1.22    1.80   -91.15282   136.87096    35.98227
   334  N   5.0   -0.17    3.15    1.95   -95.21573   135.62185    36.02385
   335  H   1.0    0.09    1.07    1.44   -88.17083   129.99803    36.39423
   336  H   1.0    0.07    1.08    1.44   -88.35792   134.44077    38.22538
   337  H   1.0    0.07    1.03    1.43   -91.85013   131.31706    35.98038
   338  H   1.0    0.05    1.05    1.44   -93.40348   132.06539    38.88111
   339  H   1.0    0.10    1.02    1.43   -95.82233   137.30371    35.30575
   340  H   1.0    0.09    1.02    1.43   -96.48752   134.22723    36.41880
   341  N   5.0   -0.14    3.48    2.06   -91.67250   132.04082    42.78717
   342  C   4.0    0.04    4.37    4.32   -92.20729   132.21279    45.50460
   343  C   4.0    0.16    3.41    3.08   -89.86403   131.73091    47.16756
   344  O   6.0   -0.30    1.24    1.80   -89.34813   133.16710    48.93823
   345  C   4.0   -0.04    4.24    4.07   -94.38614   130.42133    46.25671
   346  C   4.0   -0.03    4.19    3.98   -94.19906   127.73792    45.15122
   347  C   4.0    0.24    3.11    3.03   -95.21951   125.70457    46.91812
   348  O   6.0   -0.29    1.17    1.80   -94.09512   125.29450    48.97225
   349  O   6.0   -0.27    1.17    1.80   -97.13380   124.49137    46.23026
   350  H   1.0    0.08    1.08    1.44   -92.91971   130.92210    41.83475
   351  H   1.0    0.06    1.06    1.44   -92.81389   134.14787    45.86554
   352  H   1.0    0.06    1.03    1.43   -94.40882   130.24558    48.30895
   353  H   1.0    0.05    1.03    1.43   -96.15870   131.23769    45.60098
   354  H   1.0    0.06    1.03    1.43   -95.28565   127.66044    43.40323
   355  H   1.0    0.05    1.04    1.43   -92.22052   127.30895    44.77139
   356  N   5.0   -0.13    3.50    2.08   -88.43728   129.74669    46.55340
   357  C   4.0    0.04    4.44    4.45   -86.37181   128.86041    48.15967
   358  C   4.0    0.14    3.47    3.10   -84.27044   130.78037    48.49604
   359  O   6.0   -0.30    1.63    1.81   -82.86259   130.72368    50.35364
   360  C   4.0   -0.04    4.36    4.31   -85.33813   126.35464    47.17323
   361  C   4.0   -0.02    4.22    4.04   -86.84991   124.12287    48.21636
   362  C   4.0   -0.06    4.13    3.87   -88.79444   123.13454    46.33608
   363  C   4.0   -0.08    4.12    3.85   -85.08491   122.02338    49.03839
   364  H   1.0    0.10    1.07    1.44   -88.66405   128.70545    44.94713
   365  H   1.0    0.05    1.07    1.44   -87.13715   128.51648    50.03994
   366  H   1.0    0.07    1.04    1.43   -85.46475   126.32629    45.11721
   367  H   1.0    0.04    1.04    1.43   -83.37471   126.14677    47.76093
   368  H   1.0    0.05    1.07    1.44   -87.90438   124.78805    49.85664
   369  H   1.0    0.05    1.02    1.43   -89.80545   121.55473    47.18646
   370  H   1.0    0.06    1.00    1.43   -90.11347   124.64821    45.87877
   371  H   1.0    0.06    1.04    1.43   -87.82123   122.51093    44.63155
   372  H   1.0    0.04    1.00    1.43   -86.20174   120.45680    49.77349
   373  H   1.0    0.03    1.03    1.43   -83.98320   121.39788    47.41322
   374  H   1.0    0.04    1.00    1.43   -83.82824   122.73959    50.50482
   375  N   5.0   -0.13    3.55    2.12   -84.09280   132.50380    46.69513
   376  C   4.0    0.03    4.42    4.41   -82.27867   134.54282    46.85953
   377  C   4.0    0.15    3.42    3.08   -82.84748   136.18688    49.18390
   378  O   6.0   -0.31    1.22    1.80   -81.19774   136.63663    50.76371
   379  C   4.0   -0.05    4.33    4.25   -82.29568   136.06594    44.39155
   380  C   4.0   -0.02    4.21    4.02   -82.55268   134.53904    41.91790
   381  C   4.0   -0.07    4.08    3.76   -82.60937   136.23979    39.58598
   382  C   4.0   -0.07    4.09    3.78   -80.52500   132.48869    41.62121
   383  H   1.0    0.11    1.10    1.44   -85.17751   132.53971    45.10209
   384  H   1.0    0.05    1.06    1.44   -80.37193   133.79638    47.07874
   385  H   1.0    0.07    1.03    1.43   -83.88305   137.37552    44.46147
   386  H   1.0    0.03    1.03    1.43   -80.52500   137.11096    44.27628
   387  H   1.0    0.08    1.10    1.44   -84.36682   133.57150    42.04451
   388  H   1.0    0.04    1.00    1.43   -82.79267   135.06627    37.90412
   389  H   1.0    0.06    1.00    1.43   -84.21753   137.51914    39.72771
   390  H   1.0    0.05    1.00    1.43   -80.85759   137.32072    39.50094
   391  H   1.0    0.04    1.00    1.43   -80.82925   131.49847    39.84109
   392  H   1.0    0.04    1.00    1.43   -78.66740   133.37875    41.62121
   393  H   1.0    0.05    1.00    1.43   -80.67240   131.16777    43.19536
   394  N   5.0   -0.13    3.62    2.17   -85.22475   136.96923    49.42200
   395  C   4.0    0.04    4.43    4.43   -86.06001   138.67754    51.43078
   396  C   4.0    0.15    3.44    3.09   -86.00710   137.41898    54.00459
   397  O   6.0   -0.29    1.24    1.80   -85.88804   138.68888    55.95290
   398  C   4.0   -0.03    4.32    4.23   -88.76421   139.59784    50.93567
   399  C   4.0    0.16    3.30    3.05   -89.68828   139.01580    48.26927
   400  O   6.0   -0.28    1.33    1.80   -88.20674   138.85328    46.47781
   401  N   5.0   -0.17    3.17    1.95   -92.16571   138.69455    48.00471
   402  H   1.0    0.13    1.16    1.46   -86.65149   136.44766    48.23525
   403  H   1.0    0.05    1.06    1.44   -84.79767   140.30648    51.43645
   404  H   1.0    0.05    1.04    1.43   -90.03788   138.67187    52.26415
   405  H   1.0    0.05    1.03    1.43   -88.83413   141.63874    51.19835
   406  H   1.0    0.10    1.02    1.43   -92.90649   138.29959    46.26994
   407  H   1.0    0.08    1.03    1.43   -93.32601   138.84194    49.53728
   408  N   5.0   -0.13    3.51    2.09   -86.13560   134.91131    53.97435
   409  C   4.0    0.04    4.40    4.38   -86.30189   133.39198    56.25903
   410  C   4.0    0.17    3.47    3.10   -84.06446   133.90409    57.99002
   411  O   6.0   -0.27    1.22    1.80   -84.37626   134.66376    60.17454
   412  C   4.0    0.03    4.18    3.96   -86.35481   130.59707    55.54660
   413  O   6.0   -0.26    2.17    1.85   -84.03800   129.87897    54.40332
   414  H   1.0    0.10    1.08    1.44   -86.12804   133.85496    52.36242
   415  H   1.0    0.06    1.06    1.44   -88.03855   133.87197    57.25681
   416  H   1.0    0.04    1.01    1.43   -86.64393   129.47268    57.24925
   417  H   1.0    0.05    1.01    1.43   -87.89304   130.27015    54.21624
   418  H   1.0    0.17    1.36    1.52   -83.92462   130.59329    52.69879
   419  N   5.0   -0.14    3.56    2.12   -81.80435   133.49402    56.97902
   420  C   4.0    0.04    4.44    4.45   -79.50455   133.94378    58.39442
   421  C   4.0    0.16    3.41    3.08   -79.06991   136.75947    58.81016
   422  O   6.0   -0.28    1.22    1.80   -77.81514   137.49835    60.63186
   423  C   4.0   -0.05    4.39    4.36   -77.26711   132.75136    57.03760
   424  C   4.0   -0.04    4.06    3.73   -76.83815   130.01126    57.74058
   425  S   6.0   -0.04    2.66    3.10   -75.23944   128.27082    55.29338
   426  C   4.0   -0.07    3.90    3.46   -72.76390   130.40999    54.37875
   427  H   1.0    0.10    1.08    1.44   -81.51144   132.85151    55.18567
   428  H   1.0    0.06    1.07    1.44   -79.63872   133.02537    60.23312
   429  H   1.0    0.05    1.06    1.44   -77.59782   132.83829    55.00614
   430  H   1.0    0.05    1.04    1.43   -75.56069   133.80205    57.51948
   431  H   1.0    0.04    1.07    1.44   -75.68352   129.92622    59.44322
   432  H   1.0    0.04    1.07    1.44   -78.65984   129.10986    58.07884
   433  H   1.0    0.04    1.04    1.43   -71.64896   129.54449    52.87831
   434  H   1.0    0.04    1.04    1.43   -73.60861   132.16365    53.70412
   435  H   1.0    0.05    1.05    1.44   -71.56770   130.78982    56.01148
   436  N   5.0   -0.13    3.45    2.04   -80.14328   138.31282    57.14153
   437  C   4.0    0.05    4.24    4.07   -79.93919   141.06615    57.32862
   438  C   4.0    0.10    3.19    3.04   -81.10326   142.15086    59.75880
   439  O   6.0   -0.27    1.11    1.80   -80.11682   143.97822    60.81705
   440  C   4.0   -0.06    4.10    3.79   -81.08436   142.32282    55.00425
   441  H   1.0    0.10    1.07    1.44   -81.17696   137.72323    55.62408
   442  H   1.0    0.06    1.06    1.44   -77.93041   141.51591    57.39098
   443  H   1.0    0.05    1.00    1.43   -80.90862   144.36561    55.19134
   444  H   1.0    0.05    1.00    1.43   -80.07336   141.68220    53.32807
   445  H   1.0    0.06    1.01    1.43   -83.07235   141.79748    54.86819
   446  N   5.0   -0.21    3.19    1.95   -96.23024   106.85460    61.58270
   447  C   4.0    0.03    4.35    4.29   -95.82742   109.51763    62.10049
   448  C   4.0    0.07    3.26    3.05   -93.29497   110.05648    63.38361
   449  O   6.0   -0.31    1.30    1.80   -91.49464   110.78235    62.07781
   450  C   4.0   -0.03    4.29    4.18   -98.05114   110.72294    63.47432
   451  C   4.0   -0.07    4.16    3.91   -97.35690   113.34647    64.40784
   452  C   4.0   -0.08    4.15    3.90  -100.24529   110.88343    61.67908
   453  H   1.0    0.08    1.02    1.43   -97.36449   105.95583    62.85638
   454  H   1.0    0.05    1.08    1.44   -95.67288   110.42780    60.25801
   455  H   1.0    0.04    1.06    1.44   -98.56415   109.58115    65.11082
   456  H   1.0    0.04    1.00    1.43   -98.97832   114.16258    65.38105
   457  H   1.0    0.04    1.01    1.43   -95.76227   113.19827    65.70231
   458  H   1.0    0.04    1.00    1.43   -96.84375   114.51873    62.79402
   459  H   1.0    0.04    1.00    1.43  -101.84447   111.74562    62.65040
   460  H   1.0    0.04    1.00    1.43   -99.70293   112.03447    60.05959
   461  H   1.0    0.04    1.00    1.43  -100.74199   108.98377    61.05547
   462  N   5.0   -0.18    3.30    1.98   -88.40484   107.78523    64.28312
   463  C   4.0    0.03    4.36    4.30   -86.33652   107.10823    62.62583
   464  C   4.0    0.16    3.48    3.11   -85.79731   109.23647    60.80414
   465  O   6.0   -0.31    1.27    1.80   -83.62099   110.02020    60.53958
   466  C   4.0   -0.04    4.32    4.24   -86.90925   104.66113    61.22744
   467  C   4.0   -0.03    4.19    3.98   -84.77993   103.78743    59.51723
   468  C   4.0    0.25    3.12    3.03   -85.15157   104.70463    56.77902
   469  O   6.0   -0.28    1.20    1.80   -87.27945   105.58840    56.15163
   470  O   6.0   -0.27    1.16    1.80   -83.32597   104.52563    55.26535
   471  H   1.0    0.08    1.03    1.43   -89.75682   106.41863    64.42296
   472  H   1.0    0.04    1.09    1.44   -84.64853   106.76647    63.75589
   473  H   1.0    0.04    1.03    1.43   -87.25763   103.17334    62.60883
   474  H   1.0    0.07    1.05    1.44   -88.58228   104.94188    60.05770
   475  H   1.0    0.05    1.04    1.43   -82.99564   104.54221    60.21454
   476  H   1.0    0.05    1.03    1.43   -84.71807   101.72895    59.50590
   477  N   5.0   -0.12    3.56    2.12   -87.77816   110.18591    59.58148
   478  C   4.0    0.04    4.45    4.47   -87.49102   112.34621    57.92797
   479  C   4.0    0.16    3.54    3.13   -86.06252   114.42362    59.29614
   480  O   6.0   -0.32    1.33    1.80   -83.92327   115.04109    58.61583
   481  C   4.0   -0.05    4.33    4.26   -90.03482   113.31082    57.00579
   482  C   4.0   -0.05    4.23    4.07   -89.87204   115.81131    55.62818
   483  C   4.0   -0.01    4.25    4.11   -91.94491   116.04580    53.70822
   484  N   5.0   -0.14    3.40    2.02   -91.31191   114.81405    51.32149
   485  C   4.0    0.09    3.34    3.06   -91.44168   115.93855    49.07839
   486  N   5.0   -0.18    3.28    1.98   -92.19399   118.32803    48.90075
   487  N   5.0   -0.18    3.23    1.96   -90.82757   114.67407    47.00347
   488  H   1.0    0.11    1.12    1.45   -89.57596   109.50222    59.70432
   489  H   1.0    0.06    1.06    1.44   -86.42517   111.78103    56.25746
   490  H   1.0    0.05    1.04    1.43   -90.84003   111.92750    55.70944
   491  H   1.0    0.06    1.04    1.43   -91.27856   113.56411    58.62906
   492  H   1.0    0.04    1.03    1.43   -90.05714   117.35398    56.98122
   493  H   1.0    0.05    1.04    1.43   -88.06170   115.94225    54.65308
   494  H   1.0    0.04    1.03    1.43   -93.65382   115.16458    54.44899
   495  H   1.0    0.04    1.05    1.44   -92.28833   118.03991    53.32649
   496  H   1.0    0.08    1.06    1.44   -90.73387   112.97688    51.37818
   497  H   1.0    0.09    1.04    1.43   -92.67529   119.30853    50.49001
   498  H   1.0    0.09    1.03    1.43   -92.29004   119.18212    47.17543
   499  H   1.0    0.10    1.03    1.43   -90.25538   112.83809    47.12819
   500  H   1.0    0.09    1.03    1.43   -90.92733   115.53685    45.28382
   501  N   5.0   -0.14    3.53    2.10   -87.19898   115.44852    61.27657
   502  C   4.0    0.04    4.54    4.59   -86.08485   117.62015    62.53324
   503  C   4.0    0.16    3.46    3.10   -83.48347   117.16345    63.67085
   504  O   6.0   -0.30    1.26    1.80   -82.06236   118.94836    64.06769
   505  C   4.0    0.05    4.28    4.15   -87.83619   118.68365    64.49666
   506  O   6.0   -0.25    2.16    1.85   -89.52970   116.73307    65.29224
   507  C   4.0   -0.08    4.11    3.82   -89.34652   120.81469    63.35716
   508  H   1.0    0.10    1.08    1.44   -88.85725   114.83265    62.04191
   509  H   1.0    0.04    1.08    1.44   -85.82653   119.04646    61.07059
   510  H   1.0    0.05    1.05    1.44   -86.77497   119.39547    66.11238
   511  H   1.0    0.11    1.01    1.43   -90.69009   117.38774    66.57914
   512  H   1.0    0.04    1.00    1.43   -90.62584   121.60350    64.76500
   513  H   1.0    0.04    1.00    1.43   -88.08144   122.29910    62.69764
   514  H   1.0    0.04    1.00    1.43   -90.45149   120.12159    61.76412
   515  N   5.0   -0.13    3.51    2.08   -82.82999   114.79175    64.16029
   516  C   4.0    0.04    4.46    4.48   -80.26101   114.21847    64.95209
   517  C   4.0    0.16    3.52    3.12   -78.42008   114.90127    62.86772
   518  O   6.0   -0.30    1.26    1.80   -76.37716   115.88858    63.37038
   519  C   4.0   -0.05    4.30    4.20   -79.93723   111.44579    65.62294
   520  C   4.0   -0.04    4.22    4.04   -77.21158   110.78860    66.28812
   521  C   4.0   -0.01    4.22    4.05   -76.90101   108.04973    67.02323
   522  N   5.0   -0.14    3.40    2.02   -76.93032   106.36246    64.83681
   523  C   4.0    0.09    3.34    3.06   -78.93482   105.05620    64.06202
   524  N   5.0   -0.19    3.28    1.98   -81.12381   105.21807    65.28279
   525  N   5.0   -0.18    3.24    1.96   -78.74265   103.57491    62.05136
   526  H   1.0    0.09    1.06    1.44   -84.00266   113.26709    64.02990
   527  H   1.0    0.06    1.06    1.44   -79.86448   115.30969    66.65284
   528  H   1.0    0.04    1.03    1.43   -81.11937   111.00453    67.25188
   529  H   1.0    0.06    1.03    1.43   -80.49999   110.29344    64.01100
   530  H   1.0    0.05    1.04    1.43   -76.01127   111.15172    64.65351
   531  H   1.0    0.05    1.03    1.43   -76.60683   111.94944    67.87738
   532  H   1.0    0.04    1.03    1.43   -75.09841   107.81200    67.99076
   533  H   1.0    0.04    1.04    1.43   -78.44738   107.50673    68.27044
   534  H   1.0    0.08    1.06    1.44   -75.29674   106.17212    63.83148
   535  H   1.0    0.08    1.04    1.43   -81.28165   106.35441    66.83236
   536  H   1.0    0.08    1.03    1.43   -82.64577   104.20711    64.67052
   537  H   1.0    0.08    1.03    1.43   -77.06662   103.44299    61.10838
   538  H   1.0    0.08    1.03    1.43   -80.27116   102.56773    61.44664
   539  N   5.0   -0.14    3.55    2.12   -79.15200   114.34409    60.53202
   540  C   4.0    0.04    4.47    4.49   -77.64203   115.02813    58.34749
   541  C   4.0    0.16    3.49    3.11   -76.92232   117.79405    58.47033
   542  O   6.0   -0.32    1.34    1.80   -74.74156   118.46830    58.03569
   543  C   4.0   -0.05    4.33    4.25   -79.08314   114.48981    55.90786
   544  C   4.0   -0.04    4.24    4.09   -78.40225   112.01064    54.69087
   545  C   4.0   -0.04    4.22    4.05   -78.84213   109.81633    56.46344
   546  C   4.0   -0.03    4.15    3.90   -76.55764   108.10024    56.51446
   547  N   5.0   -0.10    4.05    2.99   -75.73221   107.33783    53.92364
   548  H   1.0    0.11    1.09    1.44   -80.78399   113.41847    60.09360
   549  H   1.0    0.05    1.06    1.44   -75.93302   113.87996    58.32671
   550  H   1.0    0.07    1.07    1.44   -81.09957   114.45168    56.32549
   551  H   1.0    0.04    1.04    1.43   -78.67238   115.98740    54.55481
   552  H   1.0    0.05    1.03    1.43   -79.56702   111.73174    53.01469
   553  H   1.0    0.04    1.04    1.44   -76.40887   112.03153    54.16931
   554  H   1.0    0.06    1.06    1.44   -79.17557   110.52381    58.36828
   555  H   1.0    0.07    1.03    1.43   -80.46876   108.72614    55.82282
   556  H   1.0    0.05    1.02    1.43   -74.99312   109.08663    57.42153
   557  H   1.0    0.05    1.02    1.43   -77.01996   106.39239    57.56893
   558  H   1.0    0.07    1.01    1.43   -74.84252   105.58693    53.98979
   559  H   1.0    0.09    1.04    1.43   -77.28959   107.21796    52.72934
   560  H   1.0    0.07    1.02    1.43   -74.47487   108.66523    53.20177
   561  N   5.0   -0.13    3.48    2.07   -78.76277   119.37597    59.11472
   562  C   4.0    0.04    4.37    4.33   -78.33185   122.08388    59.32448
   563  C   4.0    0.10    3.26    3.05   -76.19827   122.69154    61.12539
   564  O   6.0   -0.33    1.35    1.80   -74.39556   123.95065    60.39218
   565  C   4.0   -0.05    4.38    4.35   -80.73331   123.43109    60.14840
   566  C   4.0   -0.02    4.19    3.98   -82.38373   124.52579    58.05081
   567  C   4.0   -0.07    4.12    3.83   -82.12108   123.13255    55.51857
   568  C   4.0   -0.08    4.12    3.85   -85.09367   124.49965    58.97299
   569  H   1.0    0.09    1.07    1.44   -80.57279   118.84117    59.50401
   570  H   1.0    0.05    1.07    1.44   -77.80796   122.77207    57.45554
   571  H   1.0    0.06    1.06    1.44   -81.89440   122.08521    61.18964
   572  H   1.0    0.04    1.04    1.43   -80.19661   124.99562    61.37483
   573  H   1.0    0.05    1.06    1.44   -81.77042   126.44978    57.64452
   574  H   1.0    0.04    1.00    1.43   -83.35259   124.02686    54.13151
   575  H   1.0    0.04    1.00    1.43   -80.16129   123.24267    54.89307
   576  H   1.0    0.04    1.00    1.43   -82.66685   121.16303    55.77747
   577  H   1.0    0.04    1.00    1.43   -86.30954   125.27364    57.50279
   578  H   1.0    0.04    1.00    1.43   -85.64283   122.55827    59.38684
   579  H   1.0    0.04    1.00    1.43   -85.23388   125.64763    60.67753
   580  N   5.0   -0.19    3.22    1.96   -71.50086   119.40997    62.87339
   581  C   4.0    0.03    4.32    4.24   -69.15398   118.64852    61.62995
   582  C   4.0    0.15    3.42    3.08   -68.38132   120.40632    59.47566
   583  O   6.0   -0.33    1.52    1.80   -66.15135   121.02597    59.15441
   584  C   4.0   -0.03    4.34    4.28   -69.42372   115.97411    60.60572
   585  C   4.0   -0.03    4.24    4.08   -69.34322   113.94414    62.59371
   586  C   4.0    0.15    3.23    3.04   -68.68205   111.40435    61.46743
   587  O   6.0   -0.29    1.21    1.80   -69.00666   110.98951    59.18086
   588  N   5.0   -0.18    3.16    1.95   -67.73291   109.68459    63.06236
   589  H   1.0    0.11    1.04    1.43   -72.89575   118.08998    62.71087
   590  H   1.0    0.05    1.06    1.44   -67.66574   118.71666    63.05291
   591  H   1.0    0.06    1.04    1.43   -71.23274   115.82278    59.63251
   592  H   1.0    0.06    1.04    1.43   -67.88230   115.61660    59.28669
   593  H   1.0    0.05    1.03    1.43   -67.91504   114.42227    63.99966
   594  H   1.0    0.05    1.03    1.43   -71.19115   113.79345    63.49133
   595  H   1.0    0.08    1.02    1.43   -67.49398   110.12489    64.92374
   596  H   1.0    0.10    1.02    1.43   -67.24871   107.93433    62.41607
   597  N   5.0   -0.13    3.54    2.10   -70.24256   121.16232    57.97333
   598  C   4.0    0.04    4.43    4.43   -69.80201   122.87401    55.87384
   599  C   4.0    0.16    3.49    3.11   -69.08274   125.43508    56.96232
   600  O   6.0   -0.31    1.38    1.80   -67.11522   126.49211    56.28580
   601  C   4.0   -0.04    4.37    4.33   -72.19660   123.08039    54.26380
   602  C   4.0   -0.02    3.49    3.11   -72.60201   120.99492    52.31927
   603  C   4.0   -0.05    3.44    3.09   -73.01985   121.59402    49.78515
   604  C   4.0   -0.03    3.45    3.10   -72.61341   118.43539    53.00713
   605  C   4.0   -0.04    3.41    3.08   -73.41663   119.70868    47.97668
   606  C   4.0   -0.05    3.41    3.08   -73.00114   116.53173    51.20433
   607  C   4.0    0.06    3.42    3.09   -73.39855   117.18886    48.69288
   608  O   6.0   -0.25    2.12    1.84   -73.77946   115.34236    46.89386
   609  H   1.0    0.12    1.11    1.45   -72.08262   120.62086    58.16230
   610  H   1.0    0.05    1.06    1.44   -68.30124   122.17774    54.64741
   611  H   1.0    0.06    1.05    1.44   -73.82433   123.05787    55.52613
   612  H   1.0    0.04    1.07    1.44   -72.12678   124.86429    53.23578
   613  H   1.0    0.05    1.03    1.43   -73.03691   123.55245    49.20878
   614  H   1.0    0.07    1.05    1.44   -72.31919   117.92076    54.95921
   615  H   1.0    0.05    1.03    1.43   -73.73761   120.21476    46.02648
   616  H   1.0    0.05    1.03    1.43   -72.99113   114.56863    51.76369
   617  H   1.0    0.12    1.03    1.43   -73.71239   113.66708    47.68188
   618  N   5.0   -0.14    3.61    2.16   -70.68769   126.37043    58.68197
   619  C   4.0    0.03    4.39    4.37   -70.19874   128.63460    60.20509
   620  C   4.0    0.16    3.51    3.12   -67.41397   128.56736    60.87406
   621  O   6.0   -0.27    1.21    1.80   -66.03597   130.40989    60.46777
   622  C   4.0   -0.05    4.28    4.15   -71.85499   128.63073    62.60316
   623  C   4.0   -0.05    4.15    3.90   -72.28189   131.19456    63.86171
   624  C   4.0   -0.01    4.20    4.00   -74.27235   131.03887    65.95931
   625  N   5.0   -0.14    3.38    2.01   -73.26128   130.06890    68.34792
   626  C   4.0    0.10    3.33    3.06   -74.48342   130.11771    70.55512
   627  N   5.0   -0.18    3.23    1.96   -73.38193   129.18718    72.60926
   628  N   5.0   -0.18    3.25    1.97   -76.79939   131.08388    70.72898
   629  H   1.0    0.12    1.22    1.47   -72.39808   125.57735    59.07693
   630  H   1.0    0.05    1.06    1.44   -70.68773   130.36145    59.19598
   631  H   1.0    0.05    1.04    1.43   -73.70814   127.88517    62.10238
   632  H   1.0    0.05    1.03    1.43   -70.95964   127.41117    63.99966
   633  H   1.0    0.05    1.03    1.43   -70.51564   131.84628    64.69508
   634  H   1.0    0.05    1.03    1.43   -72.93569   132.54523    62.45009
   635  H   1.0    0.05    1.03    1.43   -75.02363   132.92370    66.30891
   636  H   1.0    0.04    1.03    1.43   -75.78559   129.77848    65.35271
   637  H   1.0    0.08    1.06    1.44   -71.49479   129.29996    68.32336
   638  H   1.0    0.09    1.02    1.43   -71.60996   128.43908    72.49776
   639  H   1.0    0.09    1.02    1.43   -74.30951   129.22085    74.29867
   640  H   1.0    0.09    1.03    1.43   -77.66486   131.79959    69.16239
   641  H   1.0    0.09    1.02    1.43   -77.70897   131.10715    72.42784
   642  N   5.0   -0.13    3.51    2.09   -66.59725   126.37636    61.80002
   643  C   4.0    0.04    4.40    4.39   -63.96313   125.95748    62.41229
   644  C   4.0    0.17    3.40    3.08   -62.29873   125.84319    60.03880
   645  O   6.0   -0.27    1.26    1.80   -60.78044   127.55454    59.64385
   646  C   4.0   -0.04    4.26    4.12   -63.64707   123.66277    64.15840
   647  C   4.0   -0.03    4.18    3.96   -64.85878   124.05468    66.76622
   648  C   4.0    0.25    3.11    3.03   -63.85784   122.28101    68.80524
   649  O   6.0   -0.27    1.17    1.80   -64.32046   122.82523    71.06346
   650  O   6.0   -0.27    1.18    1.80   -62.63070   120.35493    68.18163
   651  H   1.0    0.09    1.07    1.44   -67.72912   124.85432    62.14395
   652  H   1.0    0.06    1.07    1.44   -63.26166   127.57309    63.47999
   653  H   1.0    0.06    1.03    1.43   -64.53942   122.02645    63.28157
   654  H   1.0    0.06    1.03    1.43   -61.63826   123.30598    64.43619
   655  H   1.0    0.05    1.03    1.43   -64.49226   125.98586    67.38227
   656  H   1.0    0.05    1.03    1.43   -66.88839   123.74049    66.60560
   657  N   5.0   -0.14    3.48    2.06   -62.63163   123.93624    58.41741
   658  C   4.0    0.04    4.41    4.40   -60.88749   123.57078    56.27257
   659  C   4.0    0.17    3.43    3.09   -60.62850   125.88263    54.53592
   660  O   6.0   -0.29    1.28    1.80   -58.72739   126.18591    53.23012
   661  C   4.0   -0.04    4.24    4.07   -61.49711   121.15807    54.77591
   662  C   4.0   -0.03    4.01    3.64   -59.56062   120.45681    52.66131
   663  S   6.0    0.02    2.52    3.10   -56.16918   120.87722    53.21500
   664  C   4.0   -0.05    3.87    3.43   -54.77774   119.05048    50.69977
   665  H   1.0    0.14    1.29    1.49   -64.05151   122.63722    58.52324
   666  H   1.0    0.06    1.08    1.44   -59.02523   123.25497    57.09461
   667  H   1.0    0.05    1.03    1.43   -61.56579   119.57645    56.09494
   668  H   1.0    0.05    1.03    1.43   -63.33156   121.40110    53.87262
   669  H   1.0    0.04    1.07    1.44   -59.82523   118.46025    52.22856
   670  H   1.0    0.06    1.10    1.44   -60.01586   121.60339    51.01158
   671  H   1.0    0.06    1.04    1.43   -52.72629   119.16440    50.84339
   672  H   1.0    0.04    1.04    1.43   -55.38558   117.09061    50.87930
   673  H   1.0    0.06    1.04    1.43   -55.39805   119.81667    48.89130
   674  N   5.0   -0.13    3.51    2.09   -62.52496   127.51871    54.55292
   675  C   4.0    0.04    4.41    4.39   -62.28761   129.92160    53.26035
   676  C   4.0    0.10    3.24    3.04   -60.48141   131.64783    54.64930
   677  O   6.0   -0.28    1.16    1.80   -58.67647   132.61980    53.55137
   678  C   4.0   -0.04    4.38    4.35   -64.84068   131.22541    52.97689
   679  C   4.0   -0.03    4.21    4.02   -66.33030   130.58418    50.58639
   680  C   4.0   -0.08    4.12    3.84   -67.65779   132.92606    49.57161
   681  C   4.0   -0.08    4.32    4.24   -64.59645   129.53950    48.60974
   682  H   1.0    0.13    1.15    1.45   -64.21806   127.23935    55.42976
   683  H   1.0    0.06    1.10    1.44   -61.56361   129.54287    51.36874
   684  H   1.0    0.06    1.04    1.43   -66.01359   130.69809    54.58694
   685  H   1.0    0.05    1.05    1.44   -64.52550   133.26042    52.97122
   686  H   1.0    0.04    1.06    1.44   -67.75469   129.16775    51.04181
   687  H   1.0    0.03    1.00    1.43   -68.70333   132.41903    47.87085
   688  H   1.0    0.04    1.00    1.43   -68.95269   133.63876    51.00591
   689  H   1.0    0.04    1.01    1.43   -66.24598   134.35848    49.12752
   690  H   1.0    0.04    1.03    1.43   -65.69328   129.09482    46.92410
   691  H   1.0    0.04    1.01    1.43   -63.16155   130.94768    48.16376
   692  H   1.0    0.05    1.04    1.43   -63.70327   127.83242    49.33728
   693  N   5.0   -0.19    3.22    1.96   -53.68244   129.04696    54.74379
   694  C   4.0    0.04    4.25    4.09   -52.37221   129.83104    52.46856
   695  C   4.0    0.09    3.29    3.05   -52.65270   132.69002    52.23234
   696  O   6.0   -0.32    1.32    1.80   -52.89312   133.70601    50.15931
   697  C   4.0   -0.02    4.30    4.19   -53.43704   128.46668    50.14797
   698  C   4.0    0.25    3.14    3.03   -52.85472   125.64292    50.14041
   699  O   6.0   -0.29    1.22    1.80   -51.49151   124.74241    51.84684
   700  O   6.0   -0.30    1.18    1.80   -53.76165   124.31396    48.40753
   701  H   1.0    0.12    1.04    1.43   -55.51677   128.53056    54.45844
   702  H   1.0    0.06    1.06    1.44   -50.38196   129.30604    52.52903
   703  H   1.0    0.06    1.03    1.43   -55.48417   128.69285    50.11774
   704  H   1.0    0.05    1.03    1.43   -52.61205   129.29089    48.44911
   705  N   5.0   -0.17    3.30    1.98   -56.13188   136.67567    51.50291
   706  C   4.0    0.03    4.30    4.21   -58.16753   137.74185    49.98168
   707  C   4.0    0.07    3.25    3.04   -59.97295   139.39956    51.49535
   708  O   6.0   -0.27    1.12    1.80   -60.94940   138.61915    53.46444
   709  C   4.0   -0.02    4.35    4.30   -59.62828   135.63506    48.56816
   710  C   4.0   -0.05    4.23    4.06   -58.16451   134.78777    46.23246
   711  C   4.0   -0.08    4.18    3.96   -62.24597   136.48304    47.79904
   712  C   4.0   -0.07    4.03    3.67   -57.21511   132.12739    46.37230
   713  H   1.0    0.13    1.18    1.46   -55.57150   134.92507    50.91898
   714  H   1.0    0.03    1.06    1.44   -57.27026   139.00874    48.62863
   715  H   1.0    0.07    1.08    1.44   -59.82212   134.05587    49.87774
   716  H   1.0    0.03    1.06    1.44   -59.40243   134.92642    44.59218
   717  H   1.0    0.04    1.04    1.43   -56.53513   136.02257    45.99058
   718  H   1.0    0.03    1.00    1.43   -63.18948   134.93953    46.81639
   719  H   1.0    0.05    1.01    1.43   -63.30831   136.99382    49.48846
   720  H   1.0    0.03    1.02    1.43   -62.08283   138.11486    46.55182
   721  H   1.0    0.04    1.00    1.43   -56.20027   131.68549    44.63564
   722  H   1.0    0.06    1.02    1.43   -55.95158   131.94996    47.98991
   723  H   1.0    0.04    1.00    1.43   -58.81888   130.85381    46.59151
   724  N   5.0   -0.22    3.22    1.96   -67.73968   143.59346    41.50626
   725  C   4.0    0.02    4.34    4.27   -67.18406   141.14298    40.36486
   726  C   4.0    0.13    3.46    3.10   -69.52223   139.59514    39.75637
   727  O   6.0   -0.31    1.69    1.81   -69.58658   138.19867    37.89877
   728  C   4.0   -0.05    4.38    4.34   -65.39439   139.63184    42.04861
   729  C   4.0   -0.03    4.22    4.04   -62.64371   140.43528    41.73302
   730  C   4.0   -0.08    4.12    3.85   -61.76735   142.05901    43.93455
   731  C   4.0   -0.08    4.13    3.87   -60.98557   138.12943    41.44389
   732  H   1.0    0.08    1.03    1.43   -67.06196   143.76952    43.30150
   733  H   1.0    0.04    1.07    1.44   -66.24224   141.51569    38.57151
   734  H   1.0    0.04    1.04    1.43   -65.92332   139.91758    44.01770
   735  H   1.0    0.04    1.04    1.43   -65.53876   137.63568    41.56106
   736  H   1.0    0.04    1.07    1.44   -62.47311   141.58493    40.03227
   737  H   1.0    0.04    1.03    1.43   -59.80006   142.59030    43.63409
   738  H   1.0    0.04    1.00    1.43   -62.94352   143.74837    44.03282
   739  H   1.0    0.03    1.01    1.43   -61.94492   140.97667    45.67877
   740  H   1.0    0.04    1.01    1.43   -59.02826   138.73413    41.22091
   741  H   1.0    0.03    1.02    1.43   -61.17034   136.95524    43.12575
   742  H   1.0    0.04    1.00    1.43   -61.58820   137.07430    39.78094
   743  N   5.0   -0.15    3.55    2.11   -71.44665   139.84865    41.32673
   744  C   4.0    0.03    4.44    4.45   -73.77507   138.49156    40.89398
   745  C   4.0    0.15    3.46    3.10   -74.78812   139.17464    38.28049
   746  O   6.0   -0.31    1.22    1.80   -75.63786   137.52899    36.86698
   747  C   4.0   -0.06    4.35    4.29   -75.68476   139.10316    42.97079
   748  C   4.0   -0.03    4.21    4.02   -74.65515   139.40118    45.67688
   749  C   4.0   -0.07    4.10    3.80   -76.81278   139.97263    47.49102
   750  C   4.0   -0.08    4.10    3.79   -73.18593   137.09312    46.60474
   751  H   1.0    0.07    1.08    1.44   -71.44893   140.96719    42.89709
   752  H   1.0    0.05    1.06    1.44   -73.45597   136.45912    40.97524
   753  H   1.0    0.04    1.03    1.43   -76.60505   140.88045    42.48135
   754  H   1.0    0.04    1.03    1.43   -77.07141   137.58202    43.02182
   755  H   1.0    0.04    1.07    1.44   -73.31986   140.96942    45.64853
   756  H   1.0    0.05    1.00    1.43   -76.05290   140.17762    49.39397
   757  H   1.0    0.04    1.00    1.43   -77.73226   141.72108    46.90898
   758  H   1.0    0.05    1.00    1.43   -78.16255   138.41710    47.43811
   759  H   1.0    0.04    1.00    1.43   -72.52126   137.44691    48.52281
   760  H   1.0    0.04    1.00    1.43   -74.43154   135.45346    46.58395
   761  H   1.0    0.04    1.00    1.43   -71.58129   136.77329    45.35374
   762  N   5.0   -0.15    3.49    2.07   -74.61560   141.59751    37.63232
   763  C   4.0    0.04    4.43    4.43   -75.38835   142.50407    35.14922
   764  C   4.0    0.16    3.47    3.10   -73.69189   141.48534    33.05918
   765  O   6.0   -0.29    1.34    1.80   -74.59088   140.93734    30.98426
   766  C   4.0   -0.04    4.31    4.21   -75.43571   145.39647    35.07363
   767  C   4.0    0.15    3.21    3.04   -77.05542   146.43853    32.92123
   768  O   6.0   -0.27    1.22    1.80   -77.01581   145.49046    30.79340
   769  N   5.0   -0.18    3.17    1.95   -78.47872   148.42549    33.47870
   770  H   1.0    0.07    1.06    1.44   -73.94631   142.98730    38.78883
   771  H   1.0    0.05    1.07    1.44   -77.30331   141.82910    34.80907
   772  H   1.0    0.04    1.03    1.43   -76.20795   146.09981    36.84808
   773  H   1.0    0.05    1.03    1.43   -73.51363   146.09132    34.81663
   774  H   1.0    0.10    1.02    1.43   -79.60569   149.21362    32.12755
   775  H   1.0    0.08    1.03    1.43   -78.44707   149.16440    35.25882
   776  N   5.0   -0.14    3.50    2.08   -71.25325   141.22298    33.61665
   777  C   4.0    0.04    4.41    4.39   -69.41839   140.28145    31.77606
   778  C   4.0    0.17    3.47    3.10   -70.27992   137.77633    30.64600
   779  O   6.0   -0.30    1.21    1.80   -69.85098   137.24938    28.41045
   780  C   4.0    0.03    4.17    3.94   -66.84820   139.92568    33.02328
   781  O   6.0   -0.26    2.14    1.85   -66.88962   137.78280    34.62387
   782  H   1.0    0.09    1.07    1.44   -70.47951   141.64472    35.33063
   783  H   1.0    0.05    1.06    1.44   -69.23405   141.67410    30.26995
   784  H   1.0    0.04    1.01    1.43   -65.41938   139.65281    31.56441
   785  H   1.0    0.04    1.02    1.43   -66.40244   141.59727    34.14199
   786  H   1.0    0.17    1.38    1.53   -68.41919   137.80180    35.66700
   787  N   5.0   -0.14    3.55    2.11   -71.49433   136.24740    32.22581
   788  C   4.0    0.04    4.43    4.44   -72.55785   133.86108    31.40378
   789  C   4.0    0.15    3.39    3.07   -75.37778   134.03373    30.81041
   790  O   6.0   -0.28    1.22    1.80   -76.51580   132.18356    29.96570
   791  C   4.0   -0.04    4.42    4.42   -72.04654   131.82895    33.37099
   792  C   4.0   -0.04    4.07    3.75   -69.68026   130.31876    32.83430
   793  S   6.0   -0.04    2.63    3.10   -69.74482   127.29677    34.37821
   794  C   4.0   -0.07    3.96    3.55   -73.06446   126.57743    34.20813
   795  H   1.0    0.10    1.07    1.44   -71.76901   136.62201    34.09664
   796  H   1.0    0.06    1.07    1.44   -71.60111   133.26943    29.67846
   797  H   1.0    0.05    1.04    1.43   -71.82434   132.72405    35.21347
   798  H   1.0    0.05    1.10    1.44   -73.63874   130.52250    33.41067
   799  H   1.0    0.05    1.07    1.44   -69.51876   130.00513    30.80474
   800  H   1.0    0.04    1.08    1.44   -68.03886   131.35896    33.51838
   801  H   1.0    0.04    1.04    1.43   -73.40029   124.74854    35.09442
   802  H   1.0    0.04    1.05    1.44   -74.11951   128.04194    35.19835
   803  H   1.0    0.05    1.04    1.43   -73.63713   126.51529    32.22959
   804  N   5.0   -0.13    3.51    2.09   -76.47867   136.25787    31.24126
   805  C   4.0    0.04    4.32    4.24   -79.12921   136.72768    30.61765
   806  C   4.0    0.16    3.37    3.07   -79.49794   137.72174    27.90968
   807  O   6.0   -0.27    1.21    1.80   -81.59153   137.56887    26.86466
   808  C   4.0   -0.06    4.10    3.80   -80.31618   138.51928    32.53951
   809  H   1.0    0.12    1.13    1.45   -75.58238   137.77627    32.02172
   810  H   1.0    0.06    1.06    1.44   -80.17523   134.95750    30.74994
   811  H   1.0    0.06    1.00    1.43   -82.28672   138.83652    32.03117
   812  H   1.0    0.05    1.00    1.43   -80.20231   137.66581    34.41033
   813  H   1.0    0.06    1.01    1.43   -79.28791   140.30406    32.51683
   814  N   5.0   -0.13    3.46    2.05   -77.47648   138.73236    26.77962
   815  C   4.0    0.04    4.34    4.26   -77.61806   139.73057    24.19637
   816  C   4.0    0.16    3.37    3.07   -76.31107   138.04860    22.24050
   817  O   6.0   -0.27    1.22    1.80   -76.89387   138.18433    19.98795
   818  C   4.0   -0.06    4.09    3.79   -76.58649   142.41682    24.08298
   819  H   1.0    0.10    1.07    1.44   -75.73684   138.88447    27.59409
   820  H   1.0    0.07    1.07    1.44   -79.59459   139.86360    23.62945
   821  H   1.0    0.06    1.00    1.43   -76.71797   143.10371    22.14601
   822  H   1.0    0.07    1.00    1.43   -77.70225   143.61743    25.33020
   823  H   1.0    0.06    1.00    1.43   -74.61950   142.40712    24.69336
   824  N   5.0   -0.13    3.45    2.05   -74.54535   136.47709    23.10410
   825  C   4.0    0.04    4.31    4.22   -73.17548   134.75664    21.42981
   826  C   4.0    0.26    3.21    3.04   -74.21334   132.07838    21.65468
   827  O   6.0   -0.26    1.19    1.80   -75.46615   131.13678    19.92181
   828  C   4.0   -0.06    4.11    3.82   -70.36416   134.80717    22.02129
   829  O   6.0   -0.27    1.21    1.80   -73.80730   130.83147    23.57654
   830  H   1.0    0.10    1.06    1.44   -74.01876   136.34982    24.95415
   831  H   1.0    0.07    1.07    1.44   -73.41602   135.37557    19.47961
   832  H   1.0    0.05    1.00    1.43   -69.38782   133.51248    20.75140
   833  H   1.0    0.05    1.00    1.43   -69.65737   136.72301    21.75295
   834  H   1.0    0.07    1.00    1.43   -70.07847   134.22108    23.97527
   835  H   1.0    0.09    1.07    1.44   -47.40229   132.26917    35.23930
   836  H   1.0    0.08    1.04    1.43   -82.66507   141.37476    60.48646
   837  H   1.0    0.09    1.07    1.44   -96.96193   106.67710    60.05768
   838  H   1.0    0.05    1.04    1.43   -93.11229   109.82124    65.24972
   839  H   1.0    0.09    1.07    1.44   -87.80700   108.07144    65.84940
   840  H   1.0    0.06    1.05    1.44   -76.25975   122.06735    62.90799
   841  H   1.0    0.10    1.07    1.44   -71.21097   119.65655    64.53101
   842  H   1.0    0.08    1.05    1.44   -60.74593   132.01261    56.48452
   843  H   1.0    0.11    1.07    1.44   -52.88642   127.70676    55.42406
   844  H   1.0    0.07    1.05    1.44   -52.64286   133.77161    53.78189
   845  H   1.0    0.10    1.07    1.44   -54.77322   137.69599    51.42840
   846  H   1.0    0.05    1.04    1.43   -60.38038   141.14487    50.89623
   847  H   1.0    0.09    1.07    1.44   -67.03701   144.82787    40.57081

  Z AO/shell   Hii/eV     exponent
  1     Wed Apr 25 08:07:45 CEST 2018   EN: 2.200 GM2: 0.406  GM3: 0.0800  RAES: 1.40
     1s    -10.707211    1.230000
  6     Wed Apr 25 08:07:45 CEST 2018   EN: 2.550 GM2: 0.538  GM3: 0.1500  RAES: 3.00
     2s    -13.970922    2.096432
     2p    -10.063292    1.800000
  7     Wed Apr 25 08:07:45 CEST 2018   EN: 3.040 GM2: 0.461  GM3:-0.0640  RAES: 1.90
     2s    -16.686243    2.339881
     2p    -12.523956    2.014332
  8     Wed Apr 25 08:07:45 CEST 2018   EN: 3.440 GM2: 0.452  GM3:-0.0517  RAES: 1.80
     2s    -20.229985    2.439742
     2p    -15.503117    2.137023
 16     Tue Apr 24 11:44:34 CEST 2018   EN: 2.580 GM2: 0.340  GM3:-0.0502  RAES: 3.10
     3s    -20.029654    1.981333
     3p    -11.377694    2.025643
     3d     -0.420282    1.702555
 no old-style atom pair restraining (fixing) potential

molecular fragmentation (1/2 indicates fragments):
111111111111111111111111111111111111111111111111111111111111111111111111
111111111111111111111111111111111111111111111111111111111111111111111111
111111111111111111111111111111111111111111111111111111111111111111111111
111111111111111111111111111111111111111111111111111111111111111111111111
111111111111111111111111111111111111111111111111111111111111111111111111
111111111111111111111111111111111111111111111111111111111111111111111111
111111111111122222222222222222222222222222222222222222222222222222222222
222222222222222222222222222222222222222222222222222222222222222222222222
222222222222222222222222222222222222222222222222222222222222222222222222
222222222222222222222222222222222222222222222222222222222222222222222222
222222222222222222222222222222222222222222222222222222222222222222222222
2222222222222222222222222222222222222222221122222222222
# atoms in fragment 1/2:   447   400
 fragment masses (1/2) :     3160.65     2732.29
CMA distance (Bohr)    :  11.482
constraining FC (au)   :  0.0500
           ------------------------------------------------- 
          |        Self-Consistent Charge Iterations        |
           ------------------------------------------------- 

 Ncao       : 2098
 Nao        : 2094
 Nshell     : 1260
 Nel        : 2312
 T(el)      :   500.0
 intcut     :    35.0
 scfconv/Eh :  0.100E-06
   qconv/e  :  0.100E-04
 intneglect :  0.100E-08
 broydamp   :      0.400
 iter      E             dE          RMSdq      gap      omega  full diag
   1  -1323.9623224 -0.132396E+04  0.469E+00    2.70       0.0  T
   2  -1327.2500967 -0.328777E+01  0.218E+00    1.31       1.0  T
   3  -1327.4502059 -0.200109E+00  0.121E+00    1.39       1.0  T
   4  -1327.6560800 -0.205874E+00  0.265E-01    0.86       1.0  T
   5  -1327.6685371 -0.124571E-01  0.134E-01    1.07       1.0  T
   6  -1327.6706216 -0.208457E-02  0.559E-02    1.09       1.0  T
   7  -1327.6713217 -0.700028E-03  0.243E-02    1.12       1.0  T
   8  -1327.6713864 -0.647191E-04  0.129E-02    1.13       1.0  T
   9  -1327.6714170 -0.306302E-04  0.612E-03    1.13       1.0  T
  10  -1327.6714230 -0.598125E-05  0.318E-03    1.13       1.1  T
  11  -1327.6714245 -0.153296E-05  0.151E-03    1.14       2.3  T
  12  -1327.6714249 -0.334374E-06  0.754E-04    1.14       4.6  T
  13  -1327.6714249 -0.913417E-07  0.390E-04    1.14       8.8  T
  14  -1327.6714250 -0.236460E-07  0.177E-04    1.14      19.4  T
  15  -1327.6714250 -0.737577E-08  0.855E-05    1.14      40.2  T
  16  -1327.6714250 -0.155228E-08  0.425E-05    1.14      80.8  T
speedup  1.08
cpu  time for SCC    1 m 19.1 s
wall time for SCC    1 m 13.5 s

   *** convergence criteria satisfied after 16 iterations ***

          eigenvalues
 #    :        1144       1145       1146       1147       1148       1149       1150       1151
 occ. :        2.000      2.000      2.000      2.000      2.000      2.000      2.000      2.000
 eps  :        -9.749     -9.698     -9.675     -9.649     -9.619     -9.587     -9.574     -9.545
 #    :        1152       1153       1154       1155       1156       1157       1158       1159
 occ. :        2.000      2.000      2.000      2.000      2.000      0.000      0.000      0.000
 eps  :        -9.349     -9.285     -9.258     -9.098     -9.004     -7.866     -7.781     -7.696
 #    :        1160       1161       1162       1163       1164       1165       1166       1167
 occ. :        0.000      0.000      0.000      0.000      0.000      0.000      0.000      0.000
 eps  :        -7.490     -7.421     -7.275     -6.882     -6.819     -6.661     -6.639     -6.611


   #   Z            q   n(s)   n(p)   n(d)      C6AA      α(0)
   1   7 N     -0.395  1.320  4.075  0.000    30.235     8.166
   2   6 C      0.016  1.058  2.927  0.000    20.325     6.421
   3   6 C      0.266  1.047  2.688  0.000    22.520     7.771
   4   8 O     -0.502  1.743  4.758  0.000    23.821     6.544
   5   6 C     -0.087  1.058  3.028  0.000    22.145     6.699
   6   6 C     -0.087  1.052  3.035  0.000    22.156     6.701
   7   6 C     -0.028  1.057  2.971  0.000    21.153     6.563
   8   7 N     -0.147  1.216  3.931  0.000    24.176     7.303
   9   6 C      0.225  1.022  2.752  0.000    23.256     7.895
  10   7 N     -0.241  1.229  4.013  0.000    26.299     7.616
  11   7 N     -0.259  1.239  4.020  0.000    26.722     7.677
  12   1 H      0.165  0.835  0.000  0.000     1.305     1.789
  13   1 H      0.061  0.939  0.000  0.000     2.183     2.311
  14   1 H      0.063  0.937  0.000  0.000     2.167     2.302
  15   1 H      0.055  0.945  0.000  0.000     2.262     2.352
  16   1 H      0.065  0.935  0.000  0.000     2.141     2.288
  17   1 H      0.066  0.934  0.000  0.000     2.131     2.283
  18   1 H      0.092  0.908  0.000  0.000     1.864     2.135
  19   1 H      0.085  0.915  0.000  0.000     1.933     2.174
  20   1 H      0.230  0.770  0.000  0.000     0.967     1.540
  21   1 H      0.250  0.750  0.000  0.000     0.881     1.471
  22   1 H      0.242  0.758  0.000  0.000     0.914     1.498
  23   1 H      0.237  0.763  0.000  0.000     0.937     1.517
  24   1 H      0.241  0.759  0.000  0.000     0.920     1.503
  25   7 N     -0.169  1.240  3.928  0.000    24.654     7.374
  26   6 C      0.011  1.062  2.927  0.000    20.394     6.430
  27   6 C      0.268  1.040  2.692  0.000    22.473     7.763
  28   8 O     -0.494  1.760  4.734  0.000    23.644     6.519
  29   6 C      0.112  1.044  2.844  0.000    18.827     6.193
  30   8 O     -0.479  1.721  4.757  0.000    22.438     6.394
  31   6 C     -0.135  1.045  3.090  0.000    23.163     6.863
  32   1 H      0.239  0.761  0.000  0.000     0.928     1.509
  33   1 H      0.075  0.925  0.000  0.000     2.027     2.226
  34   1 H      0.040  0.960  0.000  0.000     2.452     2.449
  35   1 H      0.343  0.657  0.000  0.000     0.605     1.222
  36   1 H      0.056  0.944  0.000  0.000     2.252     2.347
  37   1 H      0.053  0.947  0.000  0.000     2.286     2.364
  38   1 H      0.056  0.944  0.000  0.000     2.241     2.341
  39   7 N     -0.176  1.242  3.935  0.000    24.815     7.398
  40   6 C     -0.005  1.063  2.942  0.000    20.672     6.474
  41   6 C      0.266  1.036  2.697  0.000    22.506     7.769
  42   8 O     -0.487  1.744  4.744  0.000    23.503     6.500
  43   6 C     -0.098  1.060  3.038  0.000    22.366     6.731
  44   6 C     -0.103  1.056  3.048  0.000    22.467     6.748
  45   6 C     -0.038  1.057  2.980  0.000    21.329     6.589
  46   7 N     -0.143  1.211  3.932  0.000    24.104     7.292
  47   6 C      0.228  1.020  2.751  0.000    23.200     7.886
  48   7 N     -0.243  1.230  4.013  0.000    26.342     7.623
  49   7 N     -0.257  1.239  4.018  0.000    26.666     7.669
  50   1 H      0.231  0.769  0.000  0.000     0.962     1.536
  51   1 H      0.099  0.901  0.000  0.000     1.793     2.094
  52   1 H      0.096  0.904  0.000  0.000     1.826     2.113
  53   1 H      0.086  0.914  0.000  0.000     1.917     2.165
  54   1 H      0.105  0.895  0.000  0.000     1.742     2.064
  55   1 H      0.081  0.919  0.000  0.000     1.970     2.195
  56   1 H      0.084  0.916  0.000  0.000     1.941     2.179
  57   1 H      0.091  0.909  0.000  0.000     1.870     2.139
  58   1 H      0.226  0.774  0.000  0.000     0.983     1.553
  59   1 H      0.253  0.747  0.000  0.000     0.873     1.464
  60   1 H      0.251  0.749  0.000  0.000     0.880     1.470
  61   1 H      0.243  0.757  0.000  0.000     0.913     1.497
  62   1 H      0.253  0.747  0.000  0.000     0.871     1.462
  63   7 N     -0.170  1.238  3.932  0.000    24.687     7.379
  64   6 C      0.001  1.060  2.939  0.000    20.556     6.454
  65   6 C      0.263  1.038  2.699  0.000    22.574     7.781
  66   8 O     -0.498  1.749  4.750  0.000    23.744     6.533
  67   6 C     -0.084  1.054  3.030  0.000    22.089     6.690
  68   6 C     -0.085  1.055  3.030  0.000    22.120     6.696
  69   6 C     -0.103  1.054  3.049  0.000    22.462     6.748
  70   6 C     -0.057  1.062  2.995  0.000    21.702     6.650
  71   7 N     -0.148  1.234  3.913  0.000    24.186     7.304
  72   1 H      0.235  0.765  0.000  0.000     0.945     1.523
  73   1 H      0.089  0.911  0.000  0.000     1.889     2.149
  74   1 H      0.074  0.926  0.000  0.000     2.040     2.234
  75   1 H      0.056  0.944  0.000  0.000     2.250     2.346
  76   1 H      0.080  0.920  0.000  0.000     1.976     2.198
  77   1 H      0.070  0.930  0.000  0.000     2.082     2.257
  78   1 H      0.068  0.932  0.000  0.000     2.113     2.273
  79   1 H      0.070  0.930  0.000  0.000     2.082     2.257
  80   1 H      0.125  0.875  0.000  0.000     1.571     1.960
  81   1 H      0.125  0.875  0.000  0.000     1.574     1.962
  82   1 H      0.316  0.684  0.000  0.000     0.668     1.281
  83   1 H      0.290  0.710  0.000  0.000     0.744     1.351
  84   1 H      0.294  0.706  0.000  0.000     0.731     1.339
  85   7 N     -0.171  1.244  3.928  0.000    24.711     7.383
  86   6 C      0.017  1.055  2.928  0.000    20.289     6.413
  87   6 C      0.277  1.035  2.688  0.000    22.317     7.736
  88   8 O     -0.501  1.756  4.746  0.000    23.815     6.543
  89   6 C     -0.080  1.057  3.023  0.000    22.019     6.679
  90   6 C     -0.019  1.058  2.961  0.000    20.880     6.499
  91   6 C     -0.127  1.049  3.079  0.000    23.010     6.841
  92   6 C     -0.118  1.045  3.073  0.000    22.807     6.809
  93   1 H      0.229  0.771  0.000  0.000     0.969     1.542
  94   1 H      0.079  0.921  0.000  0.000     1.992     2.207
  95   1 H      0.077  0.923  0.000  0.000     2.007     2.215
  96   1 H      0.045  0.955  0.000  0.000     2.382     2.414
  97   1 H      0.026  0.974  0.000  0.000     2.648     2.545
  98   1 H      0.059  0.941  0.000  0.000     2.210     2.325
  99   1 H      0.034  0.966  0.000  0.000     2.525     2.485
 100   1 H      0.060  0.940  0.000  0.000     2.205     2.322
 101   1 H      0.068  0.932  0.000  0.000     2.109     2.271
 102   1 H      0.050  0.950  0.000  0.000     2.325     2.385
 103   1 H      0.026  0.974  0.000  0.000     2.644     2.543
 104   7 N     -0.182  1.241  3.941  0.000    24.941     7.417
 105   6 C      0.023  1.054  2.923  0.000    20.185     6.397
 106   6 C      0.281  1.042  2.677  0.000    22.244     7.723
 107   8 O     -0.508  1.756  4.751  0.000    23.951     6.562
 108   6 C     -0.095  1.060  3.035  0.000    22.311     6.724
 109   6 C     -0.096  1.059  3.037  0.000    22.325     6.727
 110   6 C      0.289  1.040  2.671  0.000    22.092     7.696
 111   8 O     -0.529  1.771  4.759  0.000    24.448     6.629
 112   7 N     -0.287  1.273  4.014  0.000    27.415     7.776
 113   1 H      0.218  0.782  0.000  0.000     1.021     1.583
 114   1 H      0.077  0.923  0.000  0.000     2.006     2.215
[...]
 561   7 N     -0.156  1.240  3.916  0.000    24.383     7.334
 562   6 C      0.017  1.055  2.928  0.000    20.297     6.415
 563   6 C      0.204  1.091  2.705  0.000    23.660     7.966
 564   8 O     -0.343  1.727  4.616  0.000    20.579     6.082
 565   6 C     -0.092  1.064  3.029  0.000    22.245     6.713
 566   6 C     -0.022  1.057  2.965  0.000    20.929     6.507
 567   6 C     -0.128  1.047  3.081  0.000    23.023     6.842
 568   6 C     -0.120  1.046  3.074  0.000    22.853     6.815
 569   1 H      0.212  0.788  0.000  0.000     1.046     1.602
 570   1 H      0.092  0.908  0.000  0.000     1.857     2.131
 571   1 H      0.090  0.910  0.000  0.000     1.875     2.141
 572   1 H      0.070  0.930  0.000  0.000     2.081     2.256
 573   1 H      0.050  0.950  0.000  0.000     2.325     2.385
 574   1 H      0.051  0.949  0.000  0.000     2.311     2.377
 575   1 H      0.045  0.955  0.000  0.000     2.386     2.416
 576   1 H      0.045  0.955  0.000  0.000     2.379     2.412
 577   1 H      0.048  0.952  0.000  0.000     2.350     2.398
 578   1 H      0.046  0.954  0.000  0.000     2.377     2.411
 579   1 H      0.046  0.954  0.000  0.000     2.368     2.406
 580   7 N     -0.395  1.322  4.073  0.000    30.224     8.165
 581   6 C      0.032  1.055  2.913  0.000    20.050     6.377
 582   6 C      0.266  1.049  2.686  0.000    22.516     7.770
 583   8 O     -0.513  1.740  4.773  0.000    24.040     6.575
 584   6 C     -0.061  1.046  3.014  0.000    21.657     6.624
 585   6 C     -0.096  1.053  3.043  0.000    22.314     6.724
 586   6 C      0.281  1.041  2.678  0.000    22.246     7.723
 587   8 O     -0.512  1.760  4.752  0.000    24.053     6.576
 588   7 N     -0.288  1.271  4.017  0.000    27.439     7.780
 589   1 H      0.183  0.817  0.000  0.000     1.195     1.712
 590   1 H      0.023  0.977  0.000  0.000     2.684     2.562
 591   1 H      0.075  0.925  0.000  0.000     2.035     2.231
 592   1 H      0.037  0.963  0.000  0.000     2.491     2.468
 593   1 H      0.051  0.949  0.000  0.000     2.303     2.373
 594   1 H      0.087  0.913  0.000  0.000     1.908     2.160
 595   1 H      0.229  0.771  0.000  0.000     0.969     1.542
 596   1 H      0.241  0.759  0.000  0.000     0.919     1.502
 597   7 N     -0.170  1.255  3.915  0.000    24.686     7.379
 598   6 C      0.022  1.058  2.920  0.000    20.204     6.400
 599   6 C      0.279  1.042  2.678  0.000    22.272     7.728
 600   8 O     -0.504  1.745  4.759  0.000    23.875     6.551
 601   6 C     -0.092  1.062  3.030  0.000    22.251     6.715
 602   6 C      0.001  1.083  2.916  0.000    27.999     8.679
 603   6 C     -0.045  1.090  2.956  0.000    29.126     8.850
 604   6 C     -0.050  1.093  2.957  0.000    29.235     8.867
 605   6 C     -0.064  1.077  2.988  0.000    29.604     8.922
 606   6 C     -0.073  1.081  2.992  0.000    29.812     8.953
 607   6 C      0.140  1.049  2.812  0.000    24.947     8.185
 608   8 O     -0.430  1.727  4.703  0.000    21.443     6.251
 609   1 H      0.262  0.738  0.000  0.000     0.839     1.435
 610   1 H      0.066  0.934  0.000  0.000     2.130     2.283
 611   1 H      0.090  0.910  0.000  0.000     1.877     2.143
 612   1 H      0.074  0.926  0.000  0.000     2.046     2.237
 613   1 H      0.057  0.943  0.000  0.000     2.229     2.335
 614   1 H      0.078  0.922  0.000  0.000     2.003     2.213
 615   1 H      0.051  0.949  0.000  0.000     2.306     2.375
 616   1 H      0.039  0.961  0.000  0.000     2.462     2.454
 617   1 H      0.306  0.694  0.000  0.000     0.703     1.317
 618   7 N     -0.214  1.264  3.950  0.000    25.656     7.523
 619   6 C      0.016  1.064  2.920  0.000    20.309     6.418
 620   6 C      0.290  1.033  2.676  0.000    22.079     7.695
 621   8 O     -0.503  1.761  4.742  0.000    23.861     6.549
 622   6 C     -0.096  1.062  3.033  0.000    22.319     6.726
 623   6 C     -0.080  1.051  3.028  0.000    22.024     6.682
 624   6 C     -0.032  1.057  2.975  0.000    21.231     6.575
 625   7 N     -0.144  1.211  3.933  0.000    24.112     7.293
 626   6 C      0.230  1.018  2.752  0.000    23.166     7.880
 627   7 N     -0.255  1.237  4.018  0.000    26.637     7.665
 628   7 N     -0.246  1.232  4.014  0.000    26.418     7.634
 629   1 H      0.280  0.720  0.000  0.000     0.774     1.377
 630   1 H      0.077  0.923  0.000  0.000     2.008     2.216
 631   1 H      0.090  0.910  0.000  0.000     1.877     2.142
 632   1 H      0.058  0.942  0.000  0.000     2.224     2.332
 633   1 H      0.065  0.935  0.000  0.000     2.140     2.288
 634   1 H      0.074  0.926  0.000  0.000     2.039     2.233
 635   1 H      0.099  0.901  0.000  0.000     1.797     2.096
 636   1 H      0.093  0.907  0.000  0.000     1.852     2.128
 637   1 H      0.214  0.786  0.000  0.000     1.038     1.596
 638   1 H      0.240  0.760  0.000  0.000     0.923     1.505
 639   1 H      0.262  0.738  0.000  0.000     0.838     1.434
 640   1 H      0.249  0.751  0.000  0.000     0.886     1.475
 641   1 H      0.261  0.739  0.000  0.000     0.843     1.438
 642   7 N     -0.173  1.239  3.934  0.000    24.741     7.387
 643   6 C      0.031  1.060  2.909  0.000    20.065     6.378
 644   6 C      0.283  1.042  2.675  0.000    22.208     7.717
 645   8 O     -0.531  1.759  4.773  0.000    24.489     6.635
 646   6 C     -0.055  1.051  3.005  0.000    21.567     6.612
 647   6 C     -0.091  1.066  3.025  0.000    22.227     6.712
 648   6 C      0.369  1.024  2.607  0.000    20.742     7.453
 649   8 O     -0.653  1.769  4.883  0.000    27.449     7.024
 650   8 O     -0.658  1.779  4.879  0.000    27.592     7.043
 651   1 H      0.198  0.802  0.000  0.000     1.119     1.657
 652   1 H      0.055  0.945  0.000  0.000     2.257     2.349
 653   1 H      0.047  0.953  0.000  0.000     2.356     2.400
 654   1 H      0.025  0.975  0.000  0.000     2.653     2.547
 655   1 H      0.030  0.970  0.000  0.000     2.583     2.513
 656   1 H      0.039  0.961  0.000  0.000     2.463     2.454
 657   7 N     -0.242  1.285  3.957  0.000    26.311     7.618
 658   6 C      0.044  1.057  2.899  0.000    19.845     6.344
 659   6 C      0.290  1.038  2.673  0.000    22.090     7.697
 660   8 O     -0.516  1.753  4.763  0.000    24.137     6.587
 661   6 C     -0.062  1.058  3.004  0.000    21.690     6.631
 662   6 C     -0.018  1.069  2.949  0.000    20.900     6.511
 663  16 S     -0.254  1.933  4.252  0.069   151.944    20.747
 664   6 C     -0.042  1.049  2.992  0.000    21.389     6.597
 665   1 H      0.272  0.728  0.000  0.000     0.799     1.398
 666   1 H      0.036  0.964  0.000  0.000     2.496     2.471
 667   1 H      0.056  0.944  0.000  0.000     2.251     2.346
 668   1 H      0.054  0.946  0.000  0.000     2.272     2.357
 669   1 H      0.055  0.945  0.000  0.000     2.255     2.348
 670   1 H      0.065  0.935  0.000  0.000     2.136     2.285
 671   1 H      0.068  0.932  0.000  0.000     2.110     2.271
 672   1 H      0.056  0.944  0.000  0.000     2.246     2.344
 673   1 H      0.057  0.943  0.000  0.000     2.238     2.339
 674   7 N     -0.198  1.260  3.938  0.000    25.297     7.470
 675   6 C      0.037  1.050  2.913  0.000    19.950     6.359
 676   6 C      0.207  1.082  2.711  0.000    23.599     7.956
 677   8 O     -0.349  1.746  4.604  0.000    20.697     6.100
 678   6 C     -0.074  1.056  3.018  0.000    21.893     6.660
 679   6 C     -0.010  1.049  2.960  0.000    20.711     6.473
 680   6 C     -0.134  1.049  3.084  0.000    23.117     6.855
 681   6 C     -0.133  1.051  3.082  0.000    23.094     6.850
 682   1 H      0.243  0.757  0.000  0.000     0.910     1.494
 683   1 H      0.094  0.906  0.000  0.000     1.838     2.120
 684   1 H      0.052  0.948  0.000  0.000     2.294     2.369
 685   1 H      0.057  0.943  0.000  0.000     2.231     2.336
 686   1 H      0.025  0.975  0.000  0.000     2.656     2.549
 687   1 H      0.060  0.940  0.000  0.000     2.198     2.319
 688   1 H      0.041  0.959  0.000  0.000     2.442     2.444
 689   1 H      0.063  0.937  0.000  0.000     2.161     2.299
 690   1 H      0.073  0.927  0.000  0.000     2.054     2.241
 691   1 H      0.054  0.946  0.000  0.000     2.275     2.359
 692   1 H      0.050  0.950  0.000  0.000     2.318     2.381
 693   7 N     -0.384  1.309  4.075  0.000    29.929     8.125
 694   6 C      0.055  1.048  2.897  0.000    19.679     6.319
 695   6 C      0.190  1.096  2.714  0.000    23.928     8.011
 696   8 O     -0.352  1.727  4.625  0.000    20.753     6.108
 697   6 C     -0.085  1.065  3.020  0.000    22.112     6.694
 698   6 C      0.375  1.023  2.602  0.000    20.646     7.436
 699   8 O     -0.661  1.780  4.881  0.000    27.669     7.052
 700   8 O     -0.641  1.754  4.887  0.000    27.145     6.985
 701   1 H      0.143  0.857  0.000  0.000     1.447     1.884
 702   1 H      0.056  0.944  0.000  0.000     2.250     2.346
 703   1 H      0.033  0.967  0.000  0.000     2.549     2.497
 704   1 H      0.044  0.956  0.000  0.000     2.395     2.420
 705   7 N     -0.418  1.346  4.072  0.000    30.869     8.252
 706   6 C      0.038  1.062  2.900  0.000    19.952     6.362
 707   6 C      0.194  1.092  2.714  0.000    23.854     7.999
 708   8 O     -0.399  1.779  4.620  0.000    21.653     6.239
 709   6 C     -0.024  1.064  2.960  0.000    20.957     6.511
 710   6 C     -0.081  1.056  3.024  0.000    22.033     6.682
 711   6 C     -0.127  1.048  3.079  0.000    23.000     6.838
 712   6 C     -0.110  1.038  3.072  0.000    22.664     6.789
 713   1 H      0.201  0.799  0.000  0.000     1.103     1.645
 714   1 H      0.036  0.964  0.000  0.000     2.498     2.472
 715   1 H      0.044  0.956  0.000  0.000     2.392     2.419
 716   1 H      0.072  0.928  0.000  0.000     2.064     2.246
 717   1 H      0.056  0.944  0.000  0.000     2.242     2.342
 718   1 H      0.056  0.944  0.000  0.000     2.241     2.341
 719   1 H      0.022  0.978  0.000  0.000     2.703     2.571
 720   1 H      0.074  0.926  0.000  0.000     2.045     2.236
 721   1 H      0.049  0.951  0.000  0.000     2.328     2.386
 722   1 H      0.035  0.965  0.000  0.000     2.520     2.483
 723   1 H      0.014  0.986  0.000  0.000     2.823     2.628
 724   7 N     -0.404  1.329  4.075  0.000    30.478     8.199
 725   6 C      0.018  1.059  2.924  0.000    20.288     6.415
 726   6 C      0.264  1.045  2.691  0.000    22.549     7.777
 727   8 O     -0.492  1.740  4.752  0.000    23.485     6.503
 728   6 C     -0.085  1.060  3.024  0.000    22.103     6.692
 729   6 C     -0.028  1.058  2.970  0.000    21.035     6.523
 730   6 C     -0.138  1.051  3.086  0.000    23.206     6.868
 731   6 C     -0.148  1.051  3.097  0.000    23.410     6.898
 732   1 H      0.172  0.828  0.000  0.000     1.262     1.760
 733   1 H      0.059  0.941  0.000  0.000     2.209     2.324
 734   1 H      0.060  0.940  0.000  0.000     2.195     2.317
 735   1 H      0.058  0.942  0.000  0.000     2.227     2.334
 736   1 H      0.046  0.954  0.000  0.000     2.375     2.410
 737   1 H      0.060  0.940  0.000  0.000     2.196     2.317
 738   1 H      0.053  0.947  0.000  0.000     2.289     2.366
 739   1 H      0.052  0.948  0.000  0.000     2.293     2.368
 740   1 H      0.062  0.938  0.000  0.000     2.173     2.305
 741   1 H      0.061  0.939  0.000  0.000     2.193     2.316
 742   1 H      0.049  0.951  0.000  0.000     2.337     2.391
 743   7 N     -0.161  1.242  3.918  0.000    24.478     7.348
 744   6 C      0.009  1.060  2.931  0.000    20.421     6.433
 745   6 C      0.274  1.040  2.685  0.000    22.362     7.744
 746   8 O     -0.495  1.763  4.732  0.000    23.673     6.523
 747   6 C     -0.087  1.059  3.028  0.000    22.159     6.701
 748   6 C     -0.023  1.062  2.960  0.000    20.942     6.509
 749   6 C     -0.122  1.044  3.078  0.000    22.884     6.821
 750   6 C     -0.128  1.045  3.083  0.000    23.015     6.841
 751   1 H      0.238  0.762  0.000  0.000     0.930     1.510
 752   1 H      0.087  0.913  0.000  0.000     1.904     2.158
 753   1 H      0.056  0.944  0.000  0.000     2.243     2.342
 754   1 H      0.057  0.943  0.000  0.000     2.234     2.337
 755   1 H      0.052  0.948  0.000  0.000     2.298     2.370
 756   1 H      0.057  0.943  0.000  0.000     2.239     2.340
 757   1 H      0.044  0.956  0.000  0.000     2.392     2.419
 758   1 H      0.041  0.959  0.000  0.000     2.441     2.443
 759   1 H      0.056  0.944  0.000  0.000     2.247     2.344
 760   1 H      0.042  0.958  0.000  0.000     2.425     2.435
 761   1 H      0.051  0.949  0.000  0.000     2.310     2.377
 762   7 N     -0.189  1.246  3.943  0.000    25.093     7.440
 763   6 C      0.021  1.056  2.923  0.000    20.226     6.404
 764   6 C      0.278  1.037  2.685  0.000    22.303     7.733
 765   8 O     -0.481  1.762  4.719  0.000    23.372     6.482
 766   6 C     -0.118  1.066  3.052  0.000    22.748     6.789
 767   6 C      0.285  1.032  2.683  0.000    22.166     7.709
 768   8 O     -0.508  1.770  4.738  0.000    23.964     6.563
 769   7 N     -0.279  1.271  4.008  0.000    27.217     7.748
 770   1 H      0.232  0.768  0.000  0.000     0.956     1.532
 771   1 H      0.080  0.920  0.000  0.000     1.976     2.198
 772   1 H      0.099  0.901  0.000  0.000     1.791     2.093
 773   1 H      0.100  0.900  0.000  0.000     1.785     2.090
 774   1 H      0.239  0.761  0.000  0.000     0.928     1.509
 775   1 H      0.245  0.755  0.000  0.000     0.904     1.489
 776   7 N     -0.185  1.246  3.939  0.000    25.012     7.428
 777   6 C      0.006  1.065  2.929  0.000    20.476     6.443
 778   6 C      0.288  1.035  2.677  0.000    22.117     7.701
 779   8 O     -0.507  1.760  4.747  0.000    23.941     6.560
 780   6 C      0.068  1.041  2.891  0.000    19.635     6.346
 781   8 O     -0.531  1.721  4.811  0.000    23.581     6.555
 782   1 H      0.222  0.778  0.000  0.000     1.003     1.569
 783   1 H      0.079  0.921  0.000  0.000     1.993     2.208
 784   1 H      0.070  0.930  0.000  0.000     2.090     2.261
 785   1 H      0.053  0.947  0.000  0.000     2.283     2.363
 786   1 H      0.358  0.642  0.000  0.000     0.558     1.167
 787   7 N     -0.174  1.243  3.931  0.000    24.770     7.392
 788   6 C      0.025  1.056  2.919  0.000    20.153     6.392
 789   6 C      0.270  1.042  2.688  0.000    22.431     7.755
 790   8 O     -0.515  1.763  4.751  0.000    24.112     6.584
 791   6 C     -0.076  1.049  3.026  0.000    21.909     6.658
 792   6 C     -0.012  1.062  2.950  0.000    20.790     6.492
 793  16 S     -0.191  1.898  4.242  0.051   149.175    20.557
 794   6 C     -0.065  1.054  3.010  0.000    21.813     6.662
 795   1 H      0.216  0.784  0.000  0.000     1.027     1.588
 796   1 H      0.077  0.923  0.000  0.000     2.013     2.219
 797   1 H      0.068  0.932  0.000  0.000     2.109     2.271
 798   1 H      0.069  0.931  0.000  0.000     2.094     2.263
 799   1 H      0.037  0.963  0.000  0.000     2.484     2.465
 800   1 H      0.080  0.920  0.000  0.000     1.979     2.200
 801   1 H      0.057  0.943  0.000  0.000     2.237     2.339
 802   1 H      0.062  0.938  0.000  0.000     2.175     2.306
 803   1 H      0.046  0.954  0.000  0.000     2.376     2.411
 804   7 N     -0.193  1.253  3.940  0.000    25.185     7.453
 805   6 C      0.029  1.057  2.914  0.000    20.100     6.385
 806   6 C      0.274  1.048  2.678  0.000    22.363     7.744
 807   8 O     -0.517  1.762  4.755  0.000    24.169     6.591
 808   6 C     -0.124  1.044  3.079  0.000    22.929     6.828
 809   1 H      0.227  0.773  0.000  0.000     0.980     1.551
 810   1 H      0.070  0.930  0.000  0.000     2.091     2.261
 811   1 H      0.065  0.935  0.000  0.000     2.137     2.286
 812   1 H      0.077  0.923  0.000  0.000     2.009     2.217
 813   1 H      0.067  0.933  0.000  0.000     2.121     2.278
 814   7 N     -0.174  1.247  3.927  0.000    24.767     7.391
 815   6 C      0.021  1.059  2.920  0.000    20.229     6.405
 816   6 C      0.273  1.041  2.686  0.000    22.388     7.748
 817   8 O     -0.515  1.753  4.762  0.000    24.122     6.585
 818   6 C     -0.123  1.044  3.079  0.000    22.923     6.827
 819   1 H      0.209  0.791  0.000  0.000     1.059     1.612
 820   1 H      0.078  0.922  0.000  0.000     1.998     2.210
 821   1 H      0.071  0.929  0.000  0.000     2.072     2.251
 822   1 H      0.080  0.920  0.000  0.000     1.981     2.201
 823   1 H      0.062  0.938  0.000  0.000     2.172     2.305
 824   7 N     -0.176  1.251  3.924  0.000    24.810     7.398
 825   6 C      0.017  1.065  2.917  0.000    20.291     6.415
 826   6 C      0.371  1.018  2.611  0.000    20.714     7.449
 827   8 O     -0.649  1.765  4.884  0.000    27.355     7.012
 828   6 C     -0.112  1.043  3.070  0.000    22.705     6.794
 829   8 O     -0.630  1.755  4.874  0.000    26.861     6.949
 830   1 H      0.185  0.815  0.000  0.000     1.187     1.707
 831   1 H      0.039  0.961  0.000  0.000     2.456     2.451
 832   1 H      0.053  0.947  0.000  0.000     2.284     2.363
 833   1 H      0.058  0.942  0.000  0.000     2.225     2.333
 834   1 H      0.054  0.946  0.000  0.000     2.275     2.359
 835   1 H      0.193  0.807  0.000  0.000     1.144     1.675
 836   1 H      0.074  0.926  0.000  0.000     2.041     2.234
 837   1 H      0.181  0.819  0.000  0.000     1.208     1.722
 838   1 H      0.083  0.917  0.000  0.000     1.943     2.180
 839   1 H      0.196  0.804  0.000  0.000     1.127     1.663
 840   1 H      0.102  0.898  0.000  0.000     1.765     2.077
 841   1 H      0.177  0.823  0.000  0.000     1.231     1.738
 842   1 H      0.050  0.950  0.000  0.000     2.322     2.383
 843   1 H      0.166  0.834  0.000  0.000     1.295     1.782
 844   1 H      0.069  0.931  0.000  0.000     2.099     2.265
 845   1 H      0.178  0.822  0.000  0.000     1.225     1.734
 846   1 H      0.079  0.921  0.000  0.000     1.986     2.204
 847   1 H      0.191  0.809  0.000  0.000     1.153     1.682

 Mol. C6AA /au·bohr⁶  :    6658560.735557
 Mol. C8AA /au·bohr⁸  :  149811935.467921
 Mol. α(0) /au        :       3855.490912

 
molecular dipole:
                 x           y           z       tot (Debye)
 q only:       59.597      25.155       3.636
   full:       56.574      23.810       1.492     156.063
molecular quadrupole (traceless):
                xx          xy          yy          xz          yz          zz
 q only:   -11386.450    8866.653    9883.329    1024.776    1840.893    1503.121
  q+dip:   -10590.276    8501.581    9395.848    1070.844    1286.159    1194.428
   full:   -10592.773    8497.539    9402.220    1068.807    1288.862    1190.553
speedup  1.08
cpu  time for grad    1 m 29.4 s
wall time for grad    1 m 22.9 s

SCC energy    :   -1327.7051543
rep           :      15.3400671
ES            :       4.9508663
AES           :      -0.1834070
AXC           :       0.4180006
disp          :      -1.1989112
XB            :       0.0000000
fix           :       0.0000000
Gborn         :       0.0000000
Gsasa         :       0.0000000
Ghb           :       0.0000000
Gshift        :       0.0000000
Gsolv         :      -1.4916526     -936.03
Etot ala COSMO:   -1327.7051543
grad norm     :       0.6866677
total E       :   -1312.2402193
atomizationE  :     236.0531189   148125.57
(atE without considering molecular charge,
 total energy contains solvation terms)
H-L gap (eV)  :          1.1386

------------------------------------------------------------------------
 * finished run on 2019/05/04 at 20:23:56.674     
------------------------------------------------------------------------
 total:
 * wall-time:     0 d,  0 h,  1 min, 26.476 sec
 *  cpu-time:     0 d,  0 h,  1 min, 31.921 sec
 * ratio c/w:     1.063 speedup
 SCF:
 * wall-time:     0 d,  0 h,  1 min, 24.920 sec
 *  cpu-time:     0 d,  0 h,  1 min, 31.062 sec
 * ratio c/w:     1.072 speedup

