      -----------------------------------------------------------      
     |                   =====================                   |     
     |                           x T B                           |     
     |                   =====================                   |     
     |                         S. Grimme                         |     
     |          Mulliken Center for Theoretical Chemistry        |     
     |                    University of Bonn                     |     
     |                 Version 6.0.1 (SAW181210)                 |     
      -----------------------------------------------------------      

   This program is distributed in the hope that it will be useful,
   but WITHOUT ANY WARRANTY; without even the implied warranty of
   MERCHANTABILITY or FITNESS FOR A PARTICULAR PURPOSE.
   
   FOR NON-COMMERCIAL, ACADEMIA USE ONLY.
   
   Cite this work as:
   S. Grimme, C. Bannwarth, P. Shushkov, J. Comput. Theory Chem., 2017,
   13, 1989-2009.
   C. Bannwarth, S. Ehlert and S. Grimme., ChemRxiv, 2018, preprint.
   http://doi.org/10.26434/chemrxiv.7246238.v1
   
   for sTDA-xTB:
   S. Grimme and C. Bannwarth, J. Chem. Phys., 2016, 145, 054103.
   
   in the mass-spec context:
   V. Asgeirsson, C. Bauer and S. Grimme, Chem. Sci., 2017, 8, 4879.
   
   if GBSA is used:
   P. Shushkov, F. März and S. Grimme, unpublished.
   
   for ANC optimizer:
   S. Grimme, unpublished.
   Rational Function algorithm used in ANCopt:
   F. Eckert, P. Pulay, H.-J. Werner, J. Comput. Chem., 1997, 18, 1473.
   
   with help from (in alphabetical order)
   C. Bannwarth, F. Bohle, G. Brandenburg, E. Caldeweyher, M. Checinski,
   S. Dohm, S. Ehlert, S. Ehrlich, F. März, H. Neugebauer, J. Pisarek,
   P. Pracht, P. Shushkov, and S. Spicher.
   
 * started run on 2019/05/04 at 17:34:30.058     
========================================================================
 # omp threads = 2
========================================================================
number of atoms            : 412
number of electrons        : 1086
charge                     : 3
spin                       : .0
first test random number   : .8299

########################################################################
# WARNING! Please study the warnings concerning your input carefully
#  - Process number higher than OMP_NUM_THREADS, I hope you know what you are doing.
########################################################################

           ------------------------------------------------- 
          |                 G F N 2 - x T B                 |
          | Geometry, Frequencies, Noncovalent interactions |
          |            JCTC 2018 parametrisation            |
           ------------------------------------------------- 
 
      method parameters     
 k(s)        :  1.8500
 k(p)        :  2.2300
 k(d)        :  2.2300
 k(f)        :  2.0000
 kEN (H0ij)  : -2.0000
 D4 a1       :  0.5200
 D4 a2       :  5.0000
 D4 s6       :  1.0000
 D4 s8       :  2.7000
 D4 s9       :  5.0000
 alphaj      :  2.0000

 Solvent             : h2o
 Using internal parameter file: .param_gbsa2_h2o
 Gsolv ref. state (COSMO-RS): gsolv [1 M gas/solution]
 temperature (mdtemp)       :    298.150000000000     
 dielectric constant        :    80.2000000000000     
 rho                        :    1.00000000000000     
 mass                       :    18.0000000000000     
 surface tension            :    15.5689454083859     
 probe radius               :   0.975313790000000     
 vdW radii scaling          :    1.00000000000000     
 Gshift (Eh)                :   1.857443126794793E-003
 c1                         :    1.55243817000000     
 soset                      :   0.130326360000000     
 HB correction              :  T

            Z     q(EN)     CN     RAES       Cart. coordinates
     1  N   5.0   -0.10    4.08    3.08    14.81356   183.25428    -5.40273
     2  C   4.0    0.01    4.31    4.22    12.22464   182.15446    -5.60115
     3  C   4.0    0.16    3.42    3.08    10.60136   182.85933    -3.33537
     4  O   6.0   -0.30    1.24    1.80    11.51977   183.11633    -1.20942
     5  C   4.0    0.03    4.14    3.89    12.32857   179.27452    -5.86949
     6  O   6.0   -0.25    2.06    1.83     9.85681   178.29375    -6.18129
     7  H   1.0    0.07    1.02    1.43    16.14204   181.80675    -5.39895
     8  H   1.0    0.08    1.01    1.43    15.14048   184.43914    -6.93529
     9  H   1.0    0.09    1.03    1.43    14.96285   184.28418    -3.73599
    10  H   1.0    0.07    1.06    1.44    11.33458   182.92169    -7.29245
    11  H   1.0    0.05    1.01    1.43    13.46430   178.78886    -7.51733
    12  H   1.0    0.05    1.01    1.43    13.16950   178.46572    -4.17251
    13  H   1.0    0.15    1.04    1.43     9.49020   178.06321    -7.98220
    14  N   5.0   -0.13    3.55    2.12     8.16740   183.14657    -3.82858
    15  C   4.0    0.04    4.41    4.40     6.37405   183.95537    -1.91618
    16  C   4.0    0.15    3.39    3.07     4.92274   181.71038    -0.79935
    17  O   6.0   -0.27    1.22    1.80     4.25755   181.69148     1.44753
    18  C   4.0   -0.03    4.27    4.14     4.55424   185.90557    -3.04435
    19  C   4.0   -0.02    4.24    4.08     4.02323   185.57109    -5.86382
    20  C   4.0    0.26    3.13    3.03     5.72965   187.17925    -7.51733
    21  O   6.0   -0.23    1.17    1.80     4.70164   188.73827    -8.95919
    22  O   6.0   -0.26    1.20    1.80     8.07669   186.89579    -7.37749
    23  H   1.0    0.09    1.09    1.44     7.37182   182.82910    -5.55579
    24  H   1.0    0.07    1.06    1.44     7.33970   184.90024    -0.36094
    25  H   1.0    0.06    1.03    1.43     2.75333   185.76951    -2.05413
    26  H   1.0    0.07    1.03    1.43     5.36304   187.78207    -2.78357
    27  H   1.0    0.05    1.04    1.43     4.31991   183.59821    -6.37216
    28  H   1.0    0.07    1.03    1.43     2.07303   186.11155    -6.24743
    29  N   5.0   -0.14    3.47    2.06     4.46731   179.82065    -2.39428
    30  C   4.0    0.04    4.35    4.29     3.01978   177.58889    -1.67997
    31  C   4.0    0.16    3.42    3.09     4.61849   175.75774    -0.13606
    32  O   6.0   -0.25    1.23    1.80     4.03456   175.17760     2.03523
    33  C   4.0   -0.07    4.12    3.85     2.00311   176.29253    -4.04023
    34  H   1.0    0.08    1.07    1.44     5.08336   179.77908    -4.21976
    35  H   1.0    0.07    1.06    1.44     1.42107   178.17470    -0.51967
    36  H   1.0    0.05    1.00    1.43     0.92597   174.62957    -3.48088
    37  H   1.0    0.05    1.00    1.43     0.78613   177.60778    -5.05691
    38  H   1.0    0.05    1.00    1.43     3.58670   175.73506    -5.23454
    39  N   5.0   -0.14    3.49    2.07     6.64617   174.85445    -1.30202
    40  C   4.0    0.04    4.37    4.33     8.42062   173.11401    -0.10960
    41  C   4.0    0.16    3.44    3.09     9.35036   174.16659     2.43019
    42  O   6.0   -0.24    1.25    1.80     9.51666   172.77575     4.30480
    43  C   4.0   -0.05    4.32    4.23    10.63727   172.60001    -1.92563
    44  C   4.0   -0.02    4.14    3.88    10.46341   170.74430    -4.18196
    45  C   4.0   -0.07    4.07    3.75     7.77811   170.12258    -5.11927
    46  C   4.0   -0.07    4.09    3.79    12.06023   171.75152    -6.37405
    47  H   1.0    0.08    1.07    1.44     7.12994   175.29854    -3.11427
    48  H   1.0    0.06    1.06    1.44     7.49276   171.31500     0.26834
    49  H   1.0    0.05    1.05    1.44    11.14182   174.41604    -2.75522
    50  H   1.0    0.05    1.04    1.43    12.18873   171.89892    -0.76534
    51  H   1.0    0.04    1.06    1.44    11.18340   168.94528    -3.48465
    52  H   1.0    0.05    1.00    1.43     7.90661   168.80733    -6.69908
    53  H   1.0    0.05    1.00    1.43     6.71231   169.26653    -3.57914
    54  H   1.0    0.05    1.00    1.43     6.85971   171.86302    -5.72587
    55  H   1.0    0.06    1.00    1.43    11.92984   170.44005    -7.95575
    56  H   1.0    0.06    1.00    1.43    11.34214   173.59967    -6.93340
    57  H   1.0    0.05    1.00    1.43    14.01799   171.91593    -5.75611
    58  N   5.0   -0.13    3.45    2.05     9.92673   176.62513     2.44908
    59  C   4.0    0.04    4.28    4.16    10.31979   178.11423     4.74699
    60  C   4.0    0.12    3.30    3.05     9.09147   176.81599     7.01466
    61  O   6.0   -0.23    1.11    1.80    10.33302   176.16781     8.88171
    62  C   4.0   -0.03    4.29    4.18     9.10848   180.72772     4.37283
    63  C   4.0   -0.04    4.17    3.94    10.05523   182.82343     6.08870
    64  C   4.0   -0.04    4.18    3.97    12.22464   184.25017     4.83014
    65  C   4.0   -0.02    4.12    3.84    13.19407   186.40824     6.47231
    66  N   5.0   -0.10    3.99    2.83    15.34457   187.79530     5.26478
    67  H   1.0    0.08    1.06    1.44    10.14216   177.67392     0.84660
    68  H   1.0    0.06    1.05    1.44    12.33424   178.31454     5.12305
    69  H   1.0    0.07    1.04    1.44     9.46186   181.32676     2.43397
    70  H   1.0    0.08    1.04    1.43     7.08269   180.54820     4.69786
    71  H   1.0    0.06    1.03    1.43     8.52644   184.15190     6.46664
    72  H   1.0    0.06    1.03    1.43    10.73742   182.01462     7.85559
    73  H   1.0    0.06    1.03    1.43    13.78555   182.95004     4.49188
    74  H   1.0    0.06    1.03    1.43    11.56890   185.04385     3.04624
    75  H   1.0    0.06    1.02    1.43    11.66528   187.75183     6.79356
    76  H   1.0    0.06    1.02    1.43    13.85169   185.64668     8.26944
    77  H   1.0    0.08    1.01    1.43    15.95118   189.24849     6.44019
    78  H   1.0    0.08    1.01    1.43    16.84313   186.56508     4.94730
    79  H   1.0    0.08    1.01    1.43    14.77199   188.56063     3.54702
    80  N   5.0   -0.19    3.24    1.96     4.98321   148.34349   -13.35091
    81  C   4.0    0.03    4.38    4.35     6.91829   150.07448   -14.14082
    82  C   4.0    0.09    3.30    3.05     9.40328   149.29969   -12.92195
    83  O   6.0   -0.29    1.13    1.80    11.20796   148.66474   -14.22208
    84  C   4.0   -0.03    4.34    4.28     6.26444   152.74466   -13.43973
    85  C   4.0   -0.08    4.18    3.97     8.60581   154.38494   -13.50209
    86  C   4.0   -0.08    4.16    3.92     4.32180   153.71598   -15.26332
    87  H   1.0    0.09    1.03    1.43     3.27678   149.12961   -12.91817
    88  H   1.0    0.05    1.07    1.44     7.11104   149.97243   -16.18928
    89  H   1.0    0.05    1.06    1.44     5.49910   152.81080   -11.52922
    90  H   1.0    0.04    1.00    1.43     8.08803   156.31057   -12.98809
    91  H   1.0    0.04    1.02    1.43     9.97964   153.64417   -12.15850
    92  H   1.0    0.04    1.00    1.43     9.39572   154.35282   -15.40316
    93  H   1.0    0.04    1.00    1.43     3.83992   155.65484   -14.76065
    94  H   1.0    0.04    1.00    1.43     5.10226   153.65740   -17.16816
    95  H   1.0    0.04    1.00    1.43     2.64562   152.52545   -15.15371
    96  N   5.0   -0.18    3.26    1.97    16.38392   146.87517   -16.22897
    97  C   4.0    0.04    4.27    4.14    18.95206   147.66697   -15.92661
    98  C   4.0    0.10    3.23    3.04    20.53376   145.49945   -14.96663
    99  O   6.0   -0.24    1.12    1.80    22.37436   144.79836   -16.16661
   100  C   4.0   -0.05    4.31    4.22    19.08812   149.88928   -14.12759
   101  C   4.0   -0.05    4.19    3.99    17.33068   152.03601   -14.82112
   102  C   4.0   -0.01    4.18    3.96    18.32845   153.77078   -16.91116
   103  N   5.0   -0.14    3.38    2.01    20.97407   154.56258   -16.58612
   104  C   4.0    0.10    3.32    3.06    21.78854   156.66962   -15.44473
   105  N   5.0   -0.17    3.24    1.97    20.18416   158.31935   -14.40916
   106  N   5.0   -0.17    3.23    1.96    24.26597   157.12882   -15.33324
   107  H   1.0    0.11    1.04    1.43    15.25198   147.23422   -14.71152
   108  H   1.0    0.06    1.06    1.44    19.70039   148.29246   -17.74075
   109  H   1.0    0.04    1.04    1.43    18.57979   149.24489   -12.23787
   110  H   1.0    0.05    1.04    1.43    21.01186   150.62439   -14.12759
   111  H   1.0    0.05    1.04    1.43    15.54489   151.24044   -15.47308
   112  H   1.0    0.04    1.03    1.43    17.01698   153.19630   -13.14871
   113  H   1.0    0.05    1.03    1.43    18.19428   152.77678   -18.71018
   114  H   1.0    0.04    1.03    1.43    17.17194   155.47531   -16.96029
   115  H   1.0    0.09    1.06    1.44    22.32333   153.38717   -17.30233
   116  H   1.0    0.08    1.03    1.43    18.28688   157.98865   -14.47530
   117  H   1.0    0.13    1.06    1.44    20.85691   159.90861   -13.55122
   118  H   1.0    0.10    1.02    1.43    25.51319   155.88160   -16.11180
   119  H   1.0    0.10    1.02    1.43    24.91226   158.72564   -14.46963
   120  N   5.0   -0.19    3.27    1.97   -11.20041   171.09201   -10.97553
   121  C   4.0    0.04    4.30    4.20    -9.59036   170.44950   -13.10336
   122  C   4.0    0.09    3.34    3.06    -8.49432   167.81522   -12.79344
   123  O   6.0   -0.26    1.11    1.80    -8.23732   166.37336   -14.61703
   124  C   4.0   -0.02    4.31    4.22    -7.42473   172.36379   -13.31123
   125  C   4.0   -0.04    4.21    4.03    -4.94163   171.30933   -12.16795
   126  C   4.0   -0.06    4.15    3.89    -8.28078   174.96217   -12.20196
   127  C   4.0   -0.07    4.02    3.65    -4.09315   172.49418    -9.67351
   128  H   1.0    0.09    1.04    1.43   -10.24987   171.88758    -9.49965
   129  H   1.0    0.06    1.05    1.44   -10.73175   170.52320   -14.81734
   130  H   1.0    0.05    1.06    1.44    -6.97876   172.68883   -15.29544
   131  H   1.0    0.05    1.09    1.44    -5.19486   169.29299   -11.82968
   132  H   1.0    0.05    1.03    1.43    -3.42607   171.60979   -13.53044
   133  H   1.0    0.05    1.00    1.43    -6.72553   176.30387   -12.36070
   134  H   1.0    0.06    1.00    1.43    -9.90783   175.64247   -13.26588
   135  H   1.0    0.05    1.01    1.43    -8.79289   174.71083   -10.22342
   136  H   1.0    0.05    1.00    1.43    -2.33948   171.60034    -9.06879
   137  H   1.0    0.05    1.00    1.43    -3.79079   174.51241    -9.95886
   138  H   1.0    0.05    1.00    1.43    -5.55768   172.19561    -8.25621
   139  N   5.0   -0.21    3.27    1.97    -3.45820   158.81257   -23.82189
   140  C   4.0    0.03    4.37    4.33    -1.95398   160.00310   -25.80799
   141  C   4.0    0.15    3.50    3.11    -0.61605   162.14982   -24.58156
   142  O   6.0   -0.31    1.25    1.80     1.69697   162.32557   -24.59478
   143  C   4.0   -0.05    4.32    4.24    -3.60749   161.08969   -27.90180
   144  C   4.0   -0.04    4.17    3.95    -4.76211   159.18862   -29.69704
   145  C   4.0   -0.01    4.19    3.97    -2.90829   158.13794   -31.66614
   146  N   5.0   -0.13    3.37    2.01    -4.20653   156.40884   -33.42169
   147  C   4.0    0.10    3.32    3.06    -3.15017   155.34870   -35.45693
   148  N   5.0   -0.17    3.23    1.96    -0.72943   155.81546   -36.05786
   149  N   5.0   -0.16    3.22    1.96    -4.53345   153.82180   -36.90635
   150  H   1.0    0.09    1.02    1.43    -5.27611   158.40439   -24.31321
   151  H   1.0    0.04    1.05    1.44    -0.70487   158.61226   -26.67159
   152  H   1.0    0.05    1.04    1.43    -5.16084   162.12148   -27.02686
   153  H   1.0    0.05    1.04    1.43    -2.45664   162.37281   -29.02997
   154  H   1.0    0.05    1.03    1.43    -5.47832   157.59747   -28.60289
   155  H   1.0    0.06    1.03    1.43    -6.30602   160.09569   -30.71561
   156  H   1.0    0.05    1.02    1.43    -2.10515   159.69318   -32.75273
   157  H   1.0    0.04    1.02    1.43    -1.40785   157.09670   -30.71183
   158  H   1.0    0.09    1.06    1.44    -6.05279   155.98932   -33.05509
   159  H   1.0    0.09    1.03    1.43     0.32692   156.99087   -34.95615
   160  H   1.0    0.10    1.02    1.43     0.05291   154.99343   -37.61688
   161  H   1.0    0.10    1.02    1.43    -6.37594   153.47409   -36.45659
   162  H   1.0    0.11    1.02    1.43    -3.74922   153.00166   -38.46537
   163  N   5.0   -0.15    3.67    2.23    -2.16563   163.73530   -23.43449
   164  C   4.0    0.03    4.52    4.57    -1.37761   166.10502   -22.36491
   165  C   4.0    0.17    3.57    3.15     0.21732   165.58346   -20.07645
   166  O   6.0   -0.31    1.31    1.80     1.89728   167.01209   -19.41693
   167  C   4.0    0.05    4.26    4.13    -3.68497   167.61680   -21.52020
   168  O   6.0   -0.23    2.13    1.84    -4.66762   166.53777   -19.23930
   169  C   4.0   -0.06    4.09    3.79    -5.74099   167.61491   -23.57622
   170  H   1.0    0.07    1.09    1.44    -4.05346   163.41216   -23.21150
   171  H   1.0    0.05    1.06    1.44    -0.34393   167.20295   -23.76708
   172  H   1.0    0.05    1.04    1.43    -3.14261   169.57456   -21.18194
   173  H   1.0    0.12    1.02    1.43    -4.93596   164.71985   -19.46229
   174  H   1.0    0.06    1.00    1.43    -7.37182   168.70150   -22.94127
   175  H   1.0    0.05    1.00    1.43    -5.00777   168.45773   -25.30721
   176  H   1.0    0.05    1.01    1.43    -6.33814   165.68361   -23.97495
   177  N   5.0   -0.13    3.60    2.16    -0.34960   163.51610   -18.82545
   178  C   4.0    0.04    4.54    4.60     1.13573   162.81690   -16.68250
   179  C   4.0    0.15    3.63    3.19     3.73410   162.07613   -17.64059
   180  O   6.0   -0.30    1.41    1.80     5.58981   163.39515   -17.20973
   181  C   4.0   -0.05    4.41    4.39    -0.13417   160.66450   -15.26143
   182  C   4.0   -0.03    4.23    4.06     1.12439   160.13727   -12.72164
   183  C   4.0   -0.07    4.16    3.92     1.75745   162.56556   -11.33080
   184  C   4.0   -0.07    4.12    3.84    -0.50267   158.46297   -11.09458
   185  H   1.0    0.08    1.07    1.44    -1.79902   162.31990   -19.25253
   186  H   1.0    0.06    1.08    1.44     1.32470   164.36458   -15.33702
   187  H   1.0    0.05    1.03    1.43    -2.10326   161.15772   -14.91372
   188  H   1.0    0.04    1.04    1.43    -0.02835   158.95052   -16.40093
   189  H   1.0    0.04    1.06    1.44     2.89317   159.14894   -13.09391
   190  H   1.0    0.05    1.00    1.43     2.64940   162.09691    -9.53367
   191  H   1.0    0.05    1.01    1.43     3.04624   163.68239   -12.48542
   192  H   1.0    0.05    1.00    1.43     0.01890   163.62003   -10.99821
   193  H   1.0    0.05    1.00    1.43     0.45731   158.13038    -9.30312
   194  H   1.0    0.05    1.00    1.43    -2.30736   159.40027   -10.76199
   195  H   1.0    0.05    1.00    1.43    -0.80880   156.67529   -12.06968
   196  N   5.0   -0.15    3.59    2.15     3.81158   159.96152   -18.97096
   197  C   4.0    0.03    4.48    4.50     5.97531   159.21319   -20.40715
   198  C   4.0    0.17    3.59    3.16     7.52867   161.53377   -20.99863
   199  O   6.0   -0.32    1.26    1.80     9.83224   161.49220   -20.84179
   200  C   4.0   -0.04    4.38    4.35     5.03234   158.04156   -22.84112
   201  C   4.0   -0.05    4.21    4.02     6.31924   155.63594   -23.54599
   202  C   4.0   -0.01    4.24    4.07     5.17974   154.60604   -25.96294
   203  N   5.0   -0.14    3.39    2.02     3.68686   152.32325   -25.54343
   204  C   4.0    0.10    3.33    3.06     2.51334   151.00611   -27.34244
   205  N   5.0   -0.18    3.24    1.97     2.60215   151.70909   -29.76318
   206  N   5.0   -0.17    3.24    1.96     1.23021   148.95765   -26.69994
   207  H   1.0    0.07    1.07    1.44     2.35271   158.70674   -19.08056
   208  H   1.0    0.04    1.06    1.44     7.14694   157.86204   -19.38670
   209  H   1.0    0.05    1.05    1.44     3.02167   157.63905   -22.64081
   210  H   1.0    0.06    1.05    1.44     5.33281   159.38327   -24.37558
   211  H   1.0    0.05    1.03    1.43     8.32613   155.98365   -23.85401
   212  H   1.0    0.04    1.04    1.43     6.06602   154.24510   -22.04743
   213  H   1.0    0.04    1.04    1.43     3.94386   156.03467   -26.78687
   214  H   1.0    0.05    1.03    1.43     6.69530   154.14306   -27.27819
   215  H   1.0    0.08    1.06    1.44     3.53001   151.68641   -23.73118
   216  H   1.0    0.08    1.03    1.43     3.58481   153.28701   -30.27341
   217  H   1.0    0.10    1.02    1.43     1.68753   150.66785   -31.10300
   218  H   1.0    0.09    1.03    1.43     1.15084   148.40963   -24.85368
   219  H   1.0    0.10    1.03    1.43     0.32125   147.92775   -28.05109
   220  N   5.0   -0.11    3.63    2.18     6.22098   163.58035   -21.61846
   221  C   4.0    0.04    4.33    4.25     7.43607   165.96518   -22.24963
   222  C   4.0    0.15    3.61    3.17     8.73242   167.33334   -20.01598
   223  O   6.0   -0.31    1.43    1.80    11.04923   167.18028   -19.77976
   224  C   4.0   -0.06    4.12    3.84     5.59737   167.69050   -23.62157
   225  H   1.0    0.11    1.10    1.44     4.29724   163.64838   -21.70161
   226  H   1.0    0.06    1.07    1.44     8.99510   165.50409   -23.51386
   227  H   1.0    0.05    1.00    1.43     6.54790   169.46117   -24.07322
   228  H   1.0    0.06    1.00    1.43     4.97565   166.76643   -25.35445
   229  H   1.0    0.07    1.03    1.43     3.97976   168.05333   -22.39892
   230  N   5.0   -0.13    3.48    2.06     7.30568   168.65993   -18.40026
   231  C   4.0    0.04    4.37    4.32     8.47353   170.04888   -16.28188
   232  C   4.0    0.16    3.41    3.08     9.94941   168.15915   -14.65482
   233  O   6.0   -0.31    1.22    1.80    10.76388   168.73363   -12.55156
   234  C   4.0   -0.04    4.19    3.98     6.58947   171.64192   -14.69262
   235  C   4.0   -0.02    4.12    3.84     7.83858   173.63747   -12.86336
   236  C   4.0    0.15    3.15    3.03     5.99421   175.56688   -11.58024
   237  O   6.0   -0.30    1.23    1.80     6.61782   176.72717    -9.66406
   238  N   5.0   -0.18    3.16    1.95     3.73221   175.91459   -12.69896
   239  H   1.0    0.10    1.06    1.44     5.38572   168.81111   -18.49853
   240  H   1.0    0.06    1.06    1.44     9.75288   171.46995   -17.04911
   241  H   1.0    0.05    1.03    1.43     5.36115   172.67560   -15.98330
   242  H   1.0    0.05    1.02    1.43     5.47076   170.35879   -13.53233
   243  H   1.0    0.06    1.03    1.43     8.79289   172.61513   -11.35158
   244  H   1.0    0.07    1.02    1.43     9.20674   174.73351   -13.94429
   245  H   1.0    0.08    1.03    1.43     3.29190   174.94327   -14.30334
   246  H   1.0    0.10    1.02    1.43     2.46231   177.15047   -11.94118
   247  N   5.0   -0.11    3.70    2.26    10.30279   165.90282   -15.71685
   248  C   4.0    0.04    4.35    4.29    11.70685   163.85436   -14.53010
   249  C   4.0    0.15    3.49    3.11    14.42806   163.85625   -15.42961
   250  O   6.0   -0.30    1.33    1.80    16.16283   163.84113   -13.87437
   251  C   4.0   -0.07    4.12    3.84    10.46152   161.31268   -15.06301
   252  H   1.0    0.12    1.29    1.49     9.61493   165.42850   -17.45351
   253  H   1.0    0.06    1.06    1.44    11.67662   164.08301   -12.48353
   254  H   1.0    0.04    1.00    1.43    11.55567   159.82546   -14.15027
   255  H   1.0    0.05    1.00    1.43     8.54345   161.33535   -14.31278
   256  H   1.0    0.07    1.03    1.43    10.41617   161.00276   -17.09824
   257  N   5.0   -0.14    3.55    2.12    14.78333   163.86381   -17.92783
   258  C   4.0    0.04    4.44    4.45    17.29288   164.07168   -19.09379
   259  C   4.0    0.17    3.57    3.15    18.91049   165.77621   -17.49697
   260  O   6.0   -0.25    1.22    1.80    21.19706   165.35858   -17.15493
   261  C   4.0   -0.04    4.37    4.34    17.10202   165.39259   -21.64681
   262  C   4.0   -0.04    4.26    4.13    15.10836   164.40616   -23.37402
   263  C   4.0   -0.01    4.27    4.14    16.29511   163.28744   -25.68516
   264  N   5.0   -0.14    3.42    2.03    14.61136   161.41472   -26.78120
   265  C   4.0    0.10    3.34    3.06    14.60947   160.73064   -29.19627
   266  N   5.0   -0.17    3.24    1.97    16.20818   161.77377   -30.85356
   267  N   5.0   -0.18    3.23    1.96    12.97108   158.99209   -29.95405
   268  H   1.0    0.10    1.09    1.44    13.35469   163.72775   -19.21473
   269  H   1.0    0.06    1.05    1.44    18.08657   162.18195   -19.29410
   270  H   1.0    0.06    1.04    1.43    16.69762   167.38437   -21.31611
   271  H   1.0    0.05    1.05    1.44    18.90860   165.19228   -22.61624
   272  H   1.0    0.06    1.05    1.44    14.02177   162.94162   -22.41593
   273  H   1.0    0.06    1.03    1.43    13.86492   165.94439   -23.94850
   274  H   1.0    0.05    1.03    1.43    16.63715   164.76710   -27.07788
   275  H   1.0    0.05    1.03    1.43    18.06956   162.37092   -25.18060
   276  H   1.0    0.08    1.07    1.44    13.33769   160.56434   -25.60957
   277  H   1.0    0.09    1.03    1.43    17.45729   163.11925   -30.26963
   278  H   1.0    0.09    1.02    1.43    16.17794   161.22197   -32.69982
   279  H   1.0    0.08    1.03    1.43    11.74465   158.20786   -28.68982
   280  H   1.0    0.09    1.02    1.43    12.93706   158.43840   -31.80031
   281  N   5.0   -0.13    3.62    2.18    17.64815   167.73963   -16.56534
   282  C   4.0    0.04    4.42    4.41    18.87080   169.76542   -15.24253
   283  C   4.0    0.17    3.47    3.10    20.39770   168.77898   -13.01832
   284  O   6.0   -0.26    1.25    1.80    22.67671   169.31756   -12.86147
   285  C   4.0   -0.04    4.25    4.10    16.95840   171.80254   -14.47530
   286  C   4.0   -0.02    4.14    3.89    16.24408   173.59778   -16.67872
   287  C   4.0    0.25    3.09    3.02    14.80978   175.99774   -15.85669
   288  O   6.0   -0.24    1.16    1.80    14.44129   177.67392   -17.51209
   289  O   6.0   -0.28    1.17    1.80    14.04633   176.23584   -13.60225
   290  H   1.0    0.09    1.09    1.44    15.73953   167.96451   -16.71085
   291  H   1.0    0.07    1.07    1.44    20.19928   170.68950   -16.51620
   292  H   1.0    0.06    1.03    1.43    15.23497   170.88603   -13.81957
   293  H   1.0    0.06    1.03    1.43    17.76909   172.94394   -12.96352
   294  H   1.0    0.06    1.03    1.43    17.97318   174.19872   -17.62547
   295  H   1.0    0.06    1.03    1.43    15.03844   172.57355   -17.99775
   296  N   5.0   -0.13    3.44    2.04    19.25442   167.23886   -11.38182
   297  C   4.0    0.04    4.45    4.47    20.72462   166.41305    -9.21997
   298  C   4.0    0.16    3.40    3.08    22.14192   163.89404    -9.39761
   299  O   6.0   -0.29    1.27    1.80    21.82822   162.38037   -11.13993
   300  C   4.0    0.03    4.16    3.93    19.21095   166.64170    -6.78979
   301  O   6.0   -0.25    2.15    1.85    20.83423   166.34313    -4.69786
   302  H   1.0    0.10    1.07    1.44    17.44406   166.58690   -11.50654
   303  H   1.0    0.07    1.11    1.45    22.30066   167.73963    -9.18407
   304  H   1.0    0.05    1.02    1.43    18.32845   168.50119    -6.70853
   305  H   1.0    0.04    1.03    1.43    17.76531   165.17528    -6.74632
   306  H   1.0    0.15    1.21    1.47    20.30888   164.88048    -3.69252
   307  N   5.0   -0.13    3.63    2.18    23.76141   163.52932    -7.53434
   308  C   4.0    0.04    4.53    4.58    25.36201   161.34858    -7.39261
   309  C   4.0    0.16    3.60    3.17    23.79543   159.36248    -6.12838
   310  O   6.0   -0.32    1.72    1.81    22.69939   159.85759    -4.15929
   311  C   4.0    0.06    4.28    4.17    27.61079   161.89471    -5.67296
   312  O   6.0   -0.24    2.18    1.85    26.72261   162.22352    -3.13317
   313  C   4.0   -0.06    4.11    3.83    28.95438   164.29655    -6.49877
   314  H   1.0    0.10    1.10    1.44    24.00141   164.75387    -6.06413
   315  H   1.0    0.05    1.05    1.44    26.04798   160.77599    -9.24832
   316  H   1.0    0.05    1.04    1.43    28.94682   160.33002    -5.76366
   317  H   1.0    0.12    1.02    1.43    27.86779   163.34224    -2.20153
   318  H   1.0    0.06    1.00    1.43    30.55687   164.66883    -5.25911
   319  H   1.0    0.06    1.00    1.43    29.63657   164.09246    -8.43196
   320  H   1.0    0.06    1.00    1.43    27.65803   165.89526    -6.41373
   321  N   5.0   -0.15    3.43    2.04    23.67638   157.10048    -7.21308
   322  C   4.0    0.03    4.25    4.09    22.26853   155.09548    -5.95075
   323  C   4.0    0.10    3.36    3.07    23.03009   155.17485    -3.16151
   324  O   6.0   -0.27    1.22    1.80    21.38792   155.29012    -1.54202
   325  C   4.0   -0.05    4.21    4.02    23.48551   152.38561    -7.15261
   326  C   4.0   -0.02    4.19    3.98    22.14381   150.34849    -5.64083
   327  C   4.0   -0.07    4.12    3.84    21.16493   148.41341    -7.54379
   328  C   4.0   -0.05    4.04    3.69    23.91637   148.91796    -3.69252
   329  H   1.0    0.08    1.05    1.44    24.49652   156.61671    -8.88927
   330  H   1.0    0.04    1.04    1.43    20.22763   155.23532    -6.19263
   331  H   1.0    0.04    1.02    1.43    23.05655   152.19853    -9.15761
   332  H   1.0    0.05    1.01    1.43    25.52075   152.28546    -6.85593
   333  H   1.0    0.05    1.07    1.44    20.65470   151.23477    -4.52778
   334  H   1.0    0.06    1.00    1.43    20.18605   146.91107    -6.52900
   335  H   1.0    0.04    1.00    1.43    19.86669   149.34693    -8.84203
   336  H   1.0    0.05    1.00    1.43    22.75986   147.63106    -8.58691
   337  H   1.0    0.06    0.99    1.43    22.80710   147.49689    -2.69475
   338  H   1.0    0.06    0.99    1.43    25.45272   148.01278    -4.72243
   339  H   1.0    0.06    0.99    1.43    24.67793   150.28235    -2.35082
   340  N   5.0   -0.16    3.38    2.01    23.43071   159.09792     0.76912
   341  C   4.0    0.04    4.45    4.46    21.46918   160.49631     2.05224
   342  C   4.0    0.18    3.57    3.15    19.05600   159.15650     1.55902
   343  O   6.0   -0.24    1.31    1.80    17.86358   158.22864     3.28056
   344  C   4.0    0.06    4.31    4.22    21.18005   163.15327     0.96943
   345  O   6.0   -0.27    2.51    1.99    20.78888   162.98697    -1.70264
   346  C   4.0   -0.06    4.09    3.78    23.53465   164.71607     1.48721
   347  H   1.0    0.11    1.08    1.44    24.15826   160.04089    -0.74644
   348  H   1.0    0.06    1.05    1.44    21.94350   160.65316     4.04968
   349  H   1.0    0.06    1.04    1.43    19.57378   164.09246     1.85382
   350  H   1.0    0.17    1.24    1.48    22.14759   162.00054    -2.48121
   351  H   1.0    0.06    1.00    1.43    23.30977   166.60958     0.70676
   352  H   1.0    0.06    1.00    1.43    23.85023   164.86347     3.51678
   353  H   1.0    0.06    1.01    1.43    25.17682   163.82601     0.61794
   354  N   5.0   -0.11    3.70    2.27    18.35491   159.04312    -0.83904
   355  C   4.0    0.04    4.43    4.42    15.97007   157.96219    -1.59304
   356  C   4.0    0.12    3.36    3.07    15.53355   155.64728    -0.03024
   357  O   6.0   -0.23    1.14    1.80    13.88949   155.62082     1.58359
   358  C   4.0   -0.05    4.39    4.36    16.04188   157.34425    -4.37661
   359  C   4.0   -0.02    4.27    4.14    16.82423   159.71964    -5.82980
   360  C   4.0   -0.06    4.08    3.77    17.53288   159.22642    -8.59447
   361  C   4.0   -0.07    4.13    3.85    14.74931   161.70385    -5.62949
   362  H   1.0    0.11    1.16    1.45    19.41504   159.69318    -2.31113
   363  H   1.0    0.06    1.07    1.44    14.40727   159.27177    -1.30391
   364  H   1.0    0.05    1.04    1.43    17.41760   155.85137    -4.72998
   365  H   1.0    0.04    1.03    1.43    14.17672   156.74710    -5.01155
   366  H   1.0    0.06    1.10    1.44    18.54955   160.43395    -4.96053
   367  H   1.0    0.07    1.01    1.43    18.06011   161.01032    -9.48076
   368  H   1.0    0.05    1.00    1.43    19.12025   157.91495    -8.65683
   369  H   1.0    0.04    1.00    1.43    15.90960   158.41195    -9.56768
   370  H   1.0    0.04    1.01    1.43    15.32757   163.38571    -6.66884
   371  H   1.0    0.04    1.00    1.43    13.01265   160.94229    -6.43452
   372  H   1.0    0.05    1.00    1.43    14.45829   162.17061    -3.64528
   373  N   5.0   -0.19    3.19    1.95    13.51739   158.25653   -42.41175
   374  C   4.0    0.03    4.22    4.05    15.94473   159.45613   -41.84672
   375  C   4.0    0.10    3.21    3.04    16.31058   161.86993   -43.33772
   376  O   6.0   -0.28    1.16    1.80    17.00409   163.80434   -42.27002
   377  C   4.0   -0.03    4.27    4.14    18.14874   157.66867   -42.39096
   378  C   4.0   -0.02    4.18    3.96    18.09212   155.21599   -40.87729
   379  C   4.0    0.26    3.11    3.02    19.97084   153.22793   -41.83160
   380  O   6.0   -0.22    1.17    1.80    22.24161   153.85022   -42.07160
   381  O   6.0   -0.22    1.16    1.80    19.18734   151.03562   -42.29837
   382  H   1.0    0.10    1.03    1.43    13.57048   156.33403   -42.28703
   383  H   1.0    0.05    1.06    1.44    15.94538   159.91835   -39.83983
   384  H   1.0    0.07    1.03    1.43    18.11112   157.16888   -44.38840
   385  H   1.0    0.07    1.03    1.43    19.90867   158.63826   -41.93932
   386  H   1.0    0.06    1.03    1.43    18.55831   155.63418   -38.91576
   387  H   1.0    0.06    1.03    1.43    16.20116   154.40497   -40.99445
   388  N   5.0   -0.17    3.19    1.95    11.35402   166.85693   -42.47789
   389  C   4.0    0.04    4.16    3.92    12.17007   167.88487   -40.07038
   390  C   4.0    0.11    3.20    3.04    13.88100   170.16798   -40.41620
   391  O   6.0   -0.23    1.11    1.80    12.97809   172.31929   -40.39730
   392  C   4.0   -0.07    4.11    3.82    13.49081   165.86765   -38.49246
   393  H   1.0    0.10    1.03    1.43    11.85469   165.01424   -42.74434
   394  H   1.0    0.06    1.06    1.44    10.50094   168.51251   -39.04048
   395  H   1.0    0.06    1.00    1.43    14.07814   166.69596   -36.70100
   396  H   1.0    0.05    1.00    1.43    12.17856   164.31665   -38.15231
   397  H   1.0    0.08    1.03    1.43    15.13695   165.18128   -39.52236
   398  H   1.0    0.10    1.07    1.44    12.34201   158.80854   -41.31342
   399  H   1.0    0.08    1.05    1.44    15.98618   161.88899   -45.19929
   400  H   1.0    0.11    1.07    1.44     9.65876   166.94073   -42.58565
   401  H   1.0    0.08    1.04    1.44    15.73957   169.92776   -40.65925
   402  H   1.0    0.09    1.05    1.44     7.23374   176.46975     7.01321
   403  H   1.0    0.11    1.07    1.44     4.68566   147.21959   -14.59224
   404  H   1.0    0.06    1.05    1.44     9.57492   149.30562   -11.04004
   405  H   1.0    0.11    1.08    1.44    15.69486   147.67924   -17.55984
   406  H   1.0    0.07    1.05    1.44    20.07405   144.63833   -13.34854
   407  H   1.0    0.11    1.07    1.44   -12.38417   172.20618   -11.47539
   408  H   1.0    0.06    1.05    1.44    -7.96043   167.20894   -11.08510
   409  H   1.0    0.10    1.07    1.44    -2.73484   157.34237   -23.36601
   410  H   1.0    0.06    1.04    1.44    24.85674   155.13231    -2.67922
   411  H   1.0    0.11    1.07    1.44    24.70857   158.79158     1.84884
   412  H   1.0    0.08    1.05    1.44    16.59378   154.10746    -0.30578

  Z AO/shell   Hii/eV     exponent
  1     Wed Apr 25 08:07:45 CEST 2018   EN: 2.200 GM2: 0.406  GM3: 0.0800  RAES: 1.40
     1s    -10.707211    1.230000
  6     Wed Apr 25 08:07:45 CEST 2018   EN: 2.550 GM2: 0.538  GM3: 0.1500  RAES: 3.00
     2s    -13.970922    2.096432
     2p    -10.063292    1.800000
  7     Wed Apr 25 08:07:45 CEST 2018   EN: 3.040 GM2: 0.461  GM3:-0.0640  RAES: 1.90
     2s    -16.686243    2.339881
     2p    -12.523956    2.014332
  8     Wed Apr 25 08:07:45 CEST 2018   EN: 3.440 GM2: 0.452  GM3:-0.0517  RAES: 1.80
     2s    -20.229985    2.439742
     2p    -15.503117    2.137023
 no old-style atom pair restraining (fixing) potential

molecular fragmentation (1/2 indicates fragments):
111111111111111111111111111111111111111111111111111111111111111111111111
111111122222222222222222222222222222222222222222222222222222222222222222
222222222222222222222222222222222222222222222222222222222222222222222222
222222222222222222222222222222222222222222222222222222222222222222222222
222222222222222222222222222222222222222222222222222222222222222222222222
2222222222222222222222222222222222222222212222222222
# atoms in fragment 1/2:    80   332
 fragment masses (1/2) :      531.63     2182.63
CMA distance (Bohr)    :  24.800
constraining FC (au)   :  0.0500
           ------------------------------------------------- 
          |        Self-Consistent Charge Iterations        |
           ------------------------------------------------- 

 Ncao       : 979
 Nao        : 979
 Nshell     : 601
 Nel        : 1086
 T(el)      :   500.0
 intcut     :    35.0
 scfconv/Eh :  0.100E-06
   qconv/e  :  0.100E-04
 intneglect :  0.100E-08
 broydamp   :      0.400
 iter      E             dE          RMSdq      gap      omega  full diag
   1   -622.1196605 -0.622120E+03  0.464E+00    2.99       0.0  T
   2   -623.6378318 -0.151817E+01  0.216E+00    1.87       1.0  T
   3   -623.7352074 -0.973756E-01  0.120E+00    2.07       1.0  T
   4   -623.8330494 -0.978420E-01  0.259E-01    1.60       1.0  T
   5   -623.8387662 -0.571685E-02  0.125E-01    1.80       1.0  T
   6   -623.8396966 -0.930344E-03  0.500E-02    1.78       1.0  T
   7   -623.8399004 -0.203805E-03  0.226E-02    1.78       1.0  T
   8   -623.8399308 -0.303890E-04  0.944E-03    1.77       1.0  T
   9   -623.8399382 -0.738138E-05  0.446E-03    1.77       1.1  T
  10   -623.8399395 -0.133715E-05  0.183E-03    1.77       2.7  T
  11   -623.8399398 -0.286044E-06  0.798E-04    1.77       6.2  T
  12   -623.8399398 -0.534893E-07  0.312E-04    1.77      15.8  T
  13   -623.8399398 -0.609487E-08  0.153E-04    1.77      32.2  T
  14   -623.8399399 -0.158923E-08  0.504E-05    1.77      97.7  T
  15   -623.8399399 -0.167347E-09  0.192E-05    1.77     256.8  T
speedup  1.25
cpu  time for SCC   22.88 s
wall time for SCC   18.26 s

   *** convergence criteria satisfied after 15 iterations ***

          eigenvalues
 #    :         531        532        533        534        535        536        537        538
 occ. :        2.000      2.000      2.000      2.000      2.000      2.000      2.000      2.000
 eps  :       -10.435    -10.222    -10.100    -10.096    -10.085     -9.971     -9.939     -9.935
 #    :         539        540        541        542        543        544        545        546
 occ. :        2.000      2.000      2.000      2.000      2.000      0.000      0.000      0.000
 eps  :        -9.901     -9.853     -9.747     -9.648     -9.618     -7.846     -7.761     -7.721
 #    :         547        548        549        550        551        552        553        554
 occ. :        0.000      0.000      0.000      0.000      0.000      0.000      0.000      0.000
 eps  :        -7.644     -7.574     -7.448     -7.448     -7.258     -6.699     -6.628     -6.613


   #   Z            q   n(s)   n(p)   n(d)      C6AA      α(0)
   1   7 N     -0.158  1.237  3.921  0.000    24.407     7.338
   2   6 C     -0.026  1.070  2.956  0.000    21.053     6.535
   3   6 C      0.269  1.029  2.702  0.000    22.457     7.760
   4   8 O     -0.456  1.726  4.730  0.000    22.826     6.406
   5   6 C      0.054  1.039  2.906  0.000    19.875     6.386
   6   8 O     -0.463  1.706  4.757  0.000    22.113     6.348
   7   1 H      0.309  0.691  0.000  0.000     0.686     1.297
   8   1 H      0.309  0.691  0.000  0.000     0.686     1.298
   9   1 H      0.324  0.676  0.000  0.000     0.645     1.258
  10   1 H      0.111  0.889  0.000  0.000     1.687     2.031
  11   1 H      0.069  0.931  0.000  0.000     2.097     2.264
  12   1 H      0.089  0.911  0.000  0.000     1.885     2.147
  13   1 H      0.331  0.669  0.000  0.000     0.636     1.253
  14   7 N     -0.144  1.238  3.906  0.000    24.123     7.295
  15   6 C      0.010  1.063  2.927  0.000    20.413     6.433
  16   6 C      0.266  1.042  2.692  0.000    22.513     7.770
  17   8 O     -0.485  1.760  4.725  0.000    23.450     6.492
  18   6 C     -0.059  1.051  3.008  0.000    21.639     6.622
  19   6 C     -0.094  1.064  3.031  0.000    22.298     6.723
  20   6 C      0.366  1.022  2.612  0.000    20.790     7.462
  21   8 O     -0.666  1.787  4.880  0.000    27.811     7.070
  22   8 O     -0.639  1.759  4.880  0.000    27.104     6.980
  23   1 H      0.206  0.794  0.000  0.000     1.077     1.626
  24   1 H      0.107  0.893  0.000  0.000     1.724     2.053
  25   1 H      0.051  0.949  0.000  0.000     2.307     2.375
  26   1 H      0.053  0.947  0.000  0.000     2.288     2.365
  27   1 H      0.034  0.966  0.000  0.000     2.536     2.490
  28   1 H      0.029  0.971  0.000  0.000     2.600     2.521
  29   7 N     -0.172  1.244  3.928  0.000    24.718     7.384
  30   6 C      0.016  1.059  2.925  0.000    20.320     6.419
  31   6 C      0.279  1.037  2.685  0.000    22.287     7.731
  32   8 O     -0.502  1.763  4.739  0.000    23.827     6.545
  33   6 C     -0.138  1.048  3.091  0.000    23.220     6.871
  34   1 H      0.210  0.790  0.000  0.000     1.058     1.611
  35   1 H      0.078  0.922  0.000  0.000     1.996     2.209
  36   1 H      0.075  0.925  0.000  0.000     2.036     2.231
  37   1 H      0.074  0.926  0.000  0.000     2.040     2.234
  38   1 H      0.070  0.930  0.000  0.000     2.083     2.257
  39   7 N     -0.173  1.245  3.928  0.000    24.754     7.389
  40   6 C      0.018  1.063  2.918  0.000    20.278     6.413
  41   6 C      0.283  1.041  2.676  0.000    22.204     7.716
  42   8 O     -0.497  1.769  4.728  0.000    23.719     6.530
  43   6 C     -0.090  1.064  3.027  0.000    22.221     6.711
  44   6 C     -0.017  1.061  2.956  0.000    20.839     6.493
  45   6 C     -0.119  1.045  3.074  0.000    22.849     6.817
  46   6 C     -0.120  1.047  3.073  0.000    22.850     6.816
  47   1 H      0.225  0.775  0.000  0.000     0.985     1.555
  48   1 H      0.077  0.923  0.000  0.000     2.013     2.219
  49   1 H      0.069  0.931  0.000  0.000     2.094     2.263
  50   1 H      0.060  0.940  0.000  0.000     2.199     2.319
  51   1 H      0.039  0.961  0.000  0.000     2.458     2.452
  52   1 H      0.053  0.947  0.000  0.000     2.286     2.365
  53   1 H      0.037  0.963  0.000  0.000     2.484     2.465
  54   1 H      0.040  0.960  0.000  0.000     2.448     2.447
  55   1 H      0.053  0.947  0.000  0.000     2.288     2.365
  56   1 H      0.050  0.950  0.000  0.000     2.321     2.383
  57   1 H      0.039  0.961  0.000  0.000     2.465     2.455
  58   7 N     -0.168  1.245  3.923  0.000    24.640     7.372
  59   6 C      0.022  1.064  2.914  0.000    20.220     6.405
  60   6 C      0.221  1.080  2.699  0.000    23.336     7.911
  61   8 O     -0.385  1.761  4.624  0.000    21.378     6.199
  62   6 C     -0.083  1.057  3.026  0.000    22.077     6.688
  63   6 C     -0.073  1.048  3.024  0.000    21.887     6.661
  64   6 C     -0.101  1.058  3.043  0.000    22.419     6.741
  65   6 C     -0.051  1.061  2.990  0.000    21.595     6.633
  66   7 N     -0.151  1.238  3.913  0.000    24.248     7.314
  67   1 H      0.216  0.784  0.000  0.000     1.030     1.590
  68   1 H      0.098  0.902  0.000  0.000     1.800     2.098
  69   1 H      0.086  0.914  0.000  0.000     1.922     2.168
  70   1 H      0.059  0.941  0.000  0.000     2.211     2.325
  71   1 H      0.061  0.939  0.000  0.000     2.186     2.312
  72   1 H      0.053  0.947  0.000  0.000     2.287     2.365
  73   1 H      0.086  0.914  0.000  0.000     1.920     2.167
  74   1 H      0.089  0.911  0.000  0.000     1.893     2.151
  75   1 H      0.112  0.888  0.000  0.000     1.682     2.028
  76   1 H      0.114  0.886  0.000  0.000     1.660     2.015
  77   1 H      0.302  0.698  0.000  0.000     0.707     1.318
  78   1 H      0.303  0.697  0.000  0.000     0.704     1.315
  79   1 H      0.300  0.700  0.000  0.000     0.714     1.324
  80   7 N     -0.399  1.324  4.075  0.000    30.344     8.181
  81   6 C      0.037  1.051  2.911  0.000    19.948     6.359
  82   6 C      0.201  1.091  2.708  0.000    23.726     7.977
  83   8 O     -0.372  1.746  4.626  0.000    21.122     6.162
  84   6 C     -0.025  1.052  2.973  0.000    20.978     6.513
  85   6 C     -0.129  1.045  3.084  0.000    23.025     6.840
  86   6 C     -0.125  1.044  3.082  0.000    22.946     6.827
  87   1 H      0.164  0.836  0.000  0.000     1.307     1.791
  88   1 H      0.055  0.945  0.000  0.000     2.261     2.352
  89   1 H      0.039  0.961  0.000  0.000     2.462     2.454
  90   1 H      0.053  0.947  0.000  0.000     2.288     2.365
  91   1 H      0.037  0.963  0.000  0.000     2.496     2.471
  92   1 H      0.063  0.937  0.000  0.000     2.160     2.298
  93   1 H      0.050  0.950  0.000  0.000     2.321     2.382
  94   1 H      0.062  0.938  0.000  0.000     2.174     2.306
  95   1 H      0.048  0.952  0.000  0.000     2.349     2.397
  96   7 N     -0.394  1.325  4.069  0.000    30.209     8.163
  97   6 C      0.035  1.046  2.919  0.000    19.994     6.368
  98   6 C      0.205  1.086  2.709  0.000    23.652     7.965
  99   8 O     -0.392  1.764  4.628  0.000    21.523     6.220
 100   6 C     -0.086  1.054  3.032  0.000    22.134     6.696
 101   6 C     -0.088  1.052  3.036  0.000    22.180     6.705
 102   6 C     -0.036  1.059  2.977  0.000    21.306     6.588
 103   7 N     -0.144  1.210  3.934  0.000    24.109     7.292
 104   6 C      0.223  1.023  2.754  0.000    23.297     7.902
 105   7 N     -0.228  1.229  3.998  0.000    25.982     7.570
 106   7 N     -0.256  1.236  4.020  0.000    26.657     7.668
 107   1 H      0.176  0.824  0.000  0.000     1.237     1.743
 108   1 H      0.064  0.936  0.000  0.000     2.155     2.295
 109   1 H      0.053  0.947  0.000  0.000     2.286     2.365
 110   1 H      0.055  0.945  0.000  0.000     2.262     2.352
 111   1 H      0.083  0.917  0.000  0.000     1.950     2.184
 112   1 H      0.068  0.932  0.000  0.000     2.107     2.270
 113   1 H      0.098  0.902  0.000  0.000     1.806     2.102
 114   1 H      0.093  0.907  0.000  0.000     1.846     2.125
 115   1 H      0.224  0.776  0.000  0.000     0.991     1.559
 116   1 H      0.232  0.768  0.000  0.000     0.959     1.534
 117   1 H      0.249  0.751  0.000  0.000     0.888     1.476
 118   1 H      0.249  0.751  0.000  0.000     0.887     1.475
 119   1 H      0.235  0.765  0.000  0.000     0.944     1.522
 120   7 N     -0.395  1.327  4.069  0.000    30.239     8.167
 121   6 C      0.035  1.056  2.910  0.000    20.001     6.370
 122   6 C      0.200  1.090  2.711  0.000    23.751     7.981
 123   8 O     -0.383  1.755  4.628  0.000    21.345     6.194
 124   6 C     -0.030  1.073  2.957  0.000    21.071     6.529
 125   6 C     -0.070  1.056  3.013  0.000    21.838     6.654
 126   6 C     -0.114  1.046  3.068  0.000    22.749     6.803
 127   6 C     -0.115  1.042  3.074  0.000    22.769     6.806
 128   1 H      0.163  0.837  0.000  0.000     1.313     1.795
 129   1 H      0.055  0.945  0.000  0.000     2.263     2.353
 130   1 H      0.040  0.960  0.000  0.000     2.443     2.444
 131   1 H      0.050  0.950  0.000  0.000     2.325     2.384
 132   1 H      0.043  0.957  0.000  0.000     2.416     2.430
 133   1 H      0.046  0.954  0.000  0.000     2.367     2.406
 134   1 H      0.039  0.961  0.000  0.000     2.461     2.453
 135   1 H      0.051  0.949  0.000  0.000     2.305     2.374
 136   1 H      0.047  0.953  0.000  0.000     2.355     2.400
 137   1 H      0.046  0.954  0.000  0.000     2.371     2.408
 138   1 H      0.038  0.962  0.000  0.000     2.471     2.458
 139   7 N     -0.407  1.332  4.075  0.000    30.580     8.213
 140   6 C      0.012  1.057  2.931  0.000    20.369     6.426
 141   6 C      0.270  1.037  2.694  0.000    22.442     7.759
 142   8 O     -0.477  1.741  4.736  0.000    23.279     6.469
 143   6 C     -0.085  1.054  3.031  0.000    22.104     6.692
 144   6 C     -0.084  1.051  3.033  0.000    22.092     6.692
 145   6 C     -0.034  1.060  2.975  0.000    21.276     6.583
 146   7 N     -0.143  1.214  3.930  0.000    24.105     7.292
 147   6 C      0.226  1.022  2.752  0.000    23.239     7.893
 148   7 N     -0.248  1.232  4.015  0.000    26.457     7.639
 149   7 N     -0.256  1.240  4.017  0.000    26.658     7.668
 150   1 H      0.166  0.834  0.000  0.000     1.298     1.785
 151   1 H      0.074  0.926  0.000  0.000     2.046     2.237
 152   1 H      0.052  0.948  0.000  0.000     2.293     2.368
 153   1 H      0.061  0.939  0.000  0.000     2.192     2.315
 154   1 H      0.074  0.926  0.000  0.000     2.047     2.237
 155   1 H      0.065  0.935  0.000  0.000     2.140     2.288
 156   1 H      0.087  0.913  0.000  0.000     1.912     2.163
 157   1 H      0.098  0.902  0.000  0.000     1.801     2.099
 158   1 H      0.225  0.775  0.000  0.000     0.987     1.557
 159   1 H      0.256  0.744  0.000  0.000     0.861     1.454
 160   1 H      0.249  0.751  0.000  0.000     0.886     1.474
 161   1 H      0.244  0.756  0.000  0.000     0.908     1.493
 162   1 H      0.249  0.751  0.000  0.000     0.888     1.476
 163   7 N     -0.184  1.235  3.949  0.000    24.985     7.424
 164   6 C     -0.000  1.058  2.942  0.000    20.581     6.458
 165   6 C      0.285  1.026  2.689  0.000    22.173     7.713
 166   8 O     -0.496  1.743  4.753  0.000    23.689     6.526
 167   6 C      0.105  1.049  2.846  0.000    18.934     6.211
 168   8 O     -0.483  1.747  4.736  0.000    22.535     6.408
 169   6 C     -0.142  1.051  3.091  0.000    23.310     6.886
 170   1 H      0.212  0.788  0.000  0.000     1.047     1.603
 171   1 H      0.081  0.919  0.000  0.000     1.965     2.192
 172   1 H      0.054  0.946  0.000  0.000     2.274     2.358
 173   1 H      0.327  0.673  0.000  0.000     0.646     1.262
 174   1 H      0.064  0.936  0.000  0.000     2.149     2.293
 175   1 H      0.065  0.935  0.000  0.000     2.137     2.286
 176   1 H      0.068  0.932  0.000  0.000     2.105     2.269
 177   7 N     -0.165  1.236  3.929  0.000    24.564     7.361
 178   6 C      0.008  1.054  2.938  0.000    20.425     6.432
 179   6 C      0.269  1.035  2.697  0.000    22.461     7.762
 180   8 O     -0.484  1.758  4.726  0.000    23.439     6.491
 181   6 C     -0.097  1.064  3.033  0.000    22.334     6.726
 182   6 C     -0.013  1.051  2.962  0.000    20.767     6.481
 183   6 C     -0.120  1.042  3.078  0.000    22.856     6.816
 184   6 C     -0.122  1.043  3.079  0.000    22.881     6.819
 185   1 H      0.219  0.781  0.000  0.000     1.012     1.576
 186   1 H      0.083  0.917  0.000  0.000     1.948     2.182
 187   1 H      0.070  0.930  0.000  0.000     2.089     2.260
 188   1 H      0.067  0.933  0.000  0.000     2.121     2.277
 189   1 H      0.037  0.963  0.000  0.000     2.485     2.465
 190   1 H      0.042  0.958  0.000  0.000     2.428     2.437
 191   1 H      0.038  0.962  0.000  0.000     2.481     2.463
 192   1 H      0.038  0.962  0.000  0.000     2.474     2.460
 193   1 H      0.042  0.958  0.000  0.000     2.416     2.431
 194   1 H      0.041  0.959  0.000  0.000     2.441     2.443
 195   1 H      0.056  0.944  0.000  0.000     2.252     2.347
 196   7 N     -0.176  1.239  3.936  0.000    24.799     7.396
 197   6 C      0.002  1.058  2.940  0.000    20.541     6.452
 198   6 C      0.283  1.033  2.684  0.000    22.210     7.718
 199   8 O     -0.487  1.731  4.756  0.000    23.495     6.499
 200   6 C     -0.099  1.059  3.040  0.000    22.375     6.731
 201   6 C     -0.090  1.051  3.040  0.000    22.219     6.710
 202   6 C     -0.040  1.056  2.984  0.000    21.363     6.593
 203   7 N     -0.146  1.214  3.932  0.000    24.150     7.299
 204   6 C      0.225  1.019  2.757  0.000    23.272     7.898
 205   7 N     -0.247  1.230  4.017  0.000    26.426     7.635
 206   7 N     -0.256  1.238  4.018  0.000    26.651     7.667
 207   1 H      0.222  0.778  0.000  0.000     1.001     1.567
 208   1 H      0.097  0.903  0.000  0.000     1.810     2.104
 209   1 H      0.081  0.919  0.000  0.000     1.969     2.195
 210   1 H      0.091  0.909  0.000  0.000     1.866     2.136
 211   1 H      0.083  0.917  0.000  0.000     1.945     2.181
 212   1 H      0.077  0.923  0.000  0.000     2.014     2.219
 213   1 H      0.096  0.904  0.000  0.000     1.822     2.111
 214   1 H      0.100  0.900  0.000  0.000     1.782     2.088
 215   1 H      0.227  0.773  0.000  0.000     0.977     1.548
 216   1 H      0.252  0.748  0.000  0.000     0.876     1.466
 217   1 H      0.252  0.748  0.000  0.000     0.875     1.466
 218   1 H      0.244  0.756  0.000  0.000     0.905     1.491
 219   1 H      0.251  0.749  0.000  0.000     0.879     1.468
 220   7 N     -0.159  1.236  3.923  0.000    24.440     7.342
 221   6 C      0.019  1.058  2.923  0.000    20.264     6.411
 222   6 C      0.266  1.051  2.683  0.000    22.518     7.771
 223   8 O     -0.493  1.751  4.742  0.000    23.630     6.518
 224   6 C     -0.149  1.048  3.101  0.000    23.429     6.902
 225   1 H      0.210  0.790  0.000  0.000     1.057     1.610
 226   1 H      0.091  0.909  0.000  0.000     1.869     2.138
 227   1 H      0.049  0.951  0.000  0.000     2.330     2.387
 228   1 H      0.087  0.913  0.000  0.000     1.909     2.161
 229   1 H      0.075  0.925  0.000  0.000     2.034     2.231
 230   7 N     -0.177  1.254  3.924  0.000    24.844     7.403
 231   6 C      0.024  1.063  2.913  0.000    20.173     6.396
 232   6 C      0.275  1.039  2.687  0.000    22.356     7.742
 233   8 O     -0.516  1.757  4.759  0.000    24.150     6.589
 234   6 C     -0.072  1.060  3.011  0.000    21.879     6.661
 235   6 C     -0.094  1.065  3.029  0.000    22.311     6.727
 236   6 C      0.280  1.053  2.667  0.000    22.259     7.724
 237   8 O     -0.494  1.744  4.750  0.000    23.660     6.522
 238   7 N     -0.280  1.267  4.013  0.000    27.226     7.749
 239   1 H      0.231  0.769  0.000  0.000     0.960     1.535
 240   1 H      0.053  0.947  0.000  0.000     2.279     2.361
 241   1 H      0.057  0.943  0.000  0.000     2.234     2.337
 242   1 H      0.066  0.934  0.000  0.000     2.129     2.282
 243   1 H      0.089  0.911  0.000  0.000     1.887     2.148
 244   1 H      0.056  0.944  0.000  0.000     2.249     2.345
 245   1 H      0.226  0.774  0.000  0.000     0.984     1.554
 246   1 H      0.230  0.770  0.000  0.000     0.966     1.539
 247   7 N     -0.194  1.255  3.940  0.000    25.215     7.458
 248   6 C      0.020  1.055  2.925  0.000    20.244     6.407
 249   6 C      0.263  1.044  2.693  0.000    22.563     7.778
 250   8 O     -0.490  1.753  4.737  0.000    23.574     6.510
 251   6 C     -0.144  1.049  3.095  0.000    23.334     6.888
 252   1 H      0.256  0.744  0.000  0.000     0.859     1.451
 253   1 H      0.067  0.933  0.000  0.000     2.117     2.275
 254   1 H      0.074  0.926  0.000  0.000     2.038     2.233
 255   1 H      0.065  0.935  0.000  0.000     2.139     2.287
 256   1 H      0.092  0.908  0.000  0.000     1.863     2.135
 257   7 N     -0.181  1.248  3.933  0.000    24.916     7.413
 258   6 C      0.006  1.066  2.928  0.000    20.483     6.443
 259   6 C      0.291  1.032  2.677  0.000    22.071     7.694
 260   8 O     -0.496  1.761  4.735  0.000    23.690     6.526
 261   6 C     -0.083  1.050  3.033  0.000    22.064     6.684
 262   6 C     -0.091  1.047  3.044  0.000    22.222     6.710
 263   6 C     -0.031  1.056  2.975  0.000    21.198     6.567
 264   7 N     -0.141  1.213  3.928  0.000    24.047     7.283
 265   6 C      0.226  1.018  2.756  0.000    23.243     7.893
 266   7 N     -0.248  1.231  4.017  0.000    26.469     7.641
 267   7 N     -0.251  1.235  4.017  0.000    26.542     7.652
 268   1 H      0.242  0.758  0.000  0.000     0.914     1.497
 269   1 H      0.107  0.893  0.000  0.000     1.723     2.053
 270   1 H      0.047  0.953  0.000  0.000     2.357     2.401
 271   1 H      0.077  0.923  0.000  0.000     2.006     2.215
 272   1 H      0.099  0.901  0.000  0.000     1.795     2.095
 273   1 H      0.073  0.927  0.000  0.000     2.049     2.239
 274   1 H      0.081  0.919  0.000  0.000     1.971     2.195
 275   1 H      0.091  0.909  0.000  0.000     1.871     2.139
 276   1 H      0.243  0.757  0.000  0.000     0.911     1.496
 277   1 H      0.235  0.765  0.000  0.000     0.943     1.521
 278   1 H      0.240  0.760  0.000  0.000     0.924     1.506
 279   1 H      0.262  0.738  0.000  0.000     0.838     1.434
 280   1 H      0.258  0.742  0.000  0.000     0.854     1.448
 281   7 N     -0.172  1.234  3.938  0.000    24.729     7.386
 282   6 C      0.027  1.054  2.919  0.000    20.125     6.387
 283   6 C      0.282  1.041  2.677  0.000    22.224     7.721
 284   8 O     -0.510  1.757  4.752  0.000    23.999     6.568
 285   6 C     -0.057  1.054  3.003  0.000    21.602     6.617
 286   6 C     -0.088  1.068  3.020  0.000    22.184     6.707
 287   6 C      0.360  1.032  2.608  0.000    20.895     7.481
 288   8 O     -0.665  1.785  4.880  0.000    27.773     7.066
 289   8 O     -0.638  1.772  4.866  0.000    27.079     6.977
 290   1 H      0.195  0.805  0.000  0.000     1.132     1.666
 291   1 H      0.056  0.944  0.000  0.000     2.245     2.343
 292   1 H      0.047  0.953  0.000  0.000     2.357     2.401
 293   1 H      0.041  0.959  0.000  0.000     2.431     2.438
 294   1 H      0.026  0.974  0.000  0.000     2.645     2.544
 295   1 H      0.028  0.972  0.000  0.000     2.617     2.530
 296   7 N     -0.160  1.238  3.921  0.000    24.453     7.344
 297   6 C      0.007  1.056  2.937  0.000    20.452     6.437
 298   6 C      0.270  1.042  2.689  0.000    22.443     7.758
 299   8 O     -0.466  1.721  4.745  0.000    23.047     6.436
 300   6 C      0.065  1.040  2.896  0.000    19.705     6.358
 301   8 O     -0.521  1.722  4.799  0.000    23.342     6.522
 302   1 H      0.218  0.782  0.000  0.000     1.017     1.580
 303   1 H      0.085  0.915  0.000  0.000     1.926     2.170
 304   1 H      0.037  0.963  0.000  0.000     2.491     2.468
 305   1 H      0.051  0.949  0.000  0.000     2.312     2.378
 306   1 H      0.362  0.638  0.000  0.000     0.558     1.171
 307   7 N     -0.159  1.229  3.929  0.000    24.431     7.341
 308   6 C      0.009  1.053  2.937  0.000    20.414     6.432
 309   6 C      0.277  1.033  2.691  0.000    22.321     7.739
 310   8 O     -0.451  1.732  4.719  0.000    22.715     6.391
 311   6 C      0.107  1.047  2.846  0.000    18.897     6.203
 312   8 O     -0.480  1.726  4.755  0.000    22.477     6.400
 313   6 C     -0.144  1.048  3.096  0.000    23.332     6.888
 314   1 H      0.232  0.768  0.000  0.000     0.956     1.531
 315   1 H      0.090  0.910  0.000  0.000     1.884     2.146
 316   1 H      0.054  0.946  0.000  0.000     2.267     2.354
 317   1 H      0.328  0.672  0.000  0.000     0.643     1.260
 318   1 H      0.064  0.936  0.000  0.000     2.147     2.292
 319   1 H      0.067  0.933  0.000  0.000     2.122     2.278
 320   1 H      0.062  0.938  0.000  0.000     2.181     2.309
 321   7 N     -0.156  1.247  3.909  0.000    24.379     7.333
 322   6 C     -0.005  1.099  2.907  0.000    20.724     6.491
 323   6 C      0.209  1.076  2.715  0.000    23.575     7.952
 324   8 O     -0.359  1.765  4.594  0.000    20.872     6.125
 325   6 C     -0.097  1.094  3.003  0.000    22.388     6.744
 326   6 C     -0.023  1.063  2.960  0.000    20.943     6.510
 327   6 C     -0.125  1.049  3.075  0.000    22.939     6.828
 328   6 C     -0.118  1.051  3.067  0.000    22.838     6.817
 329   1 H      0.241  0.759  0.000  0.000     0.917     1.500
 330   1 H      0.106  0.894  0.000  0.000     1.733     2.059
 331   1 H      0.099  0.901  0.000  0.000     1.790     2.092
 332   1 H      0.077  0.923  0.000  0.000     2.010     2.217
 333   1 H      0.038  0.962  0.000  0.000     2.471     2.458
 334   1 H      0.039  0.961  0.000  0.000     2.468     2.457
 335   1 H      0.062  0.938  0.000  0.000     2.181     2.310
 336   1 H      0.050  0.950  0.000  0.000     2.315     2.379
 337   1 H      0.035  0.965  0.000  0.000     2.522     2.484
 338   1 H      0.046  0.954  0.000  0.000     2.367     2.406
 339   1 H      0.027  0.973  0.000  0.000     2.637     2.539
 340   7 N     -0.398  1.330  4.068  0.000    30.327     8.179
 341   6 C      0.028  1.050  2.923  0.000    20.112     6.385
 342   6 C      0.292  1.029  2.678  0.000    22.043     7.690
 343   8 O     -0.535  1.758  4.777  0.000    24.566     6.645
 344   6 C      0.104  1.049  2.847  0.000    18.938     6.209
 345   8 O     -0.507  1.721  4.786  0.000    23.031     6.479
 346   6 C     -0.137  1.045  3.091  0.000    23.187     6.867
 347   1 H      0.195  0.805  0.000  0.000     1.134     1.668
 348   1 H      0.020  0.980  0.000  0.000     2.740     2.589
 349   1 H      0.026  0.974  0.000  0.000     2.642     2.542
 350   1 H      0.378  0.622  0.000  0.000     0.524     1.135
 351   1 H      0.066  0.934  0.000  0.000     2.129     2.282
 352   1 H      0.040  0.960  0.000  0.000     2.454     2.450
 353   1 H      0.067  0.933  0.000  0.000     2.124     2.279
 354   7 N     -0.181  1.249  3.931  0.000    24.911     7.413
 355   6 C      0.033  1.046  2.921  0.000    20.022     6.370
 356   6 C      0.222  1.074  2.704  0.000    23.324     7.910
 357   8 O     -0.394  1.759  4.635  0.000    21.567     6.226
 358   6 C     -0.089  1.059  3.029  0.000    22.175     6.702
 359   6 C     -0.031  1.059  2.972  0.000    21.087     6.531
 360   6 C     -0.137  1.048  3.088  0.000    23.193     6.868
 361   6 C     -0.124  1.044  3.079  0.000    22.928     6.827
 362   1 H      0.260  0.740  0.000  0.000     0.846     1.440
 363   1 H      0.063  0.937  0.000  0.000     2.167     2.302
 364   1 H      0.069  0.931  0.000  0.000     2.098     2.265
 365   1 H      0.069  0.931  0.000  0.000     2.093     2.262
 366   1 H      0.047  0.953  0.000  0.000     2.359     2.402
 367   1 H      0.060  0.940  0.000  0.000     2.204     2.322
 368   1 H      0.055  0.945  0.000  0.000     2.259     2.350
 369   1 H      0.060  0.940  0.000  0.000     2.196     2.317
 370   1 H      0.046  0.954  0.000  0.000     2.366     2.405
 371   1 H      0.055  0.945  0.000  0.000     2.253     2.347
 372   1 H      0.031  0.969  0.000  0.000     2.572     2.508
 373   7 N     -0.399  1.330  4.069  0.000    30.346     8.181
 374   6 C      0.039  1.056  2.905  0.000    19.938     6.360
 375   6 C      0.196  1.086  2.717  0.000    23.813     7.992
 376   8 O     -0.367  1.749  4.618  0.000    21.038     6.150
 377   6 C     -0.044  1.047  2.997  0.000    21.351     6.578
 378   6 C     -0.089  1.068  3.021  0.000    22.205     6.709
 379   6 C      0.368  1.026  2.605  0.000    20.755     7.456
 380   8 O     -0.664  1.784  4.880  0.000    27.738     7.061
 381   8 O     -0.661  1.781  4.880  0.000    27.677     7.053
 382   1 H      0.162  0.838  0.000  0.000     1.320     1.800
 383   1 H      0.056  0.944  0.000  0.000     2.246     2.344
 384   1 H      0.023  0.977  0.000  0.000     2.693     2.566
 385   1 H      0.033  0.967  0.000  0.000     2.545     2.495
 386   1 H      0.044  0.956  0.000  0.000     2.395     2.420
 387   1 H      0.039  0.961  0.000  0.000     2.461     2.453
 388   7 N     -0.393  1.329  4.064  0.000    30.185     8.160
 389   6 C      0.042  1.048  2.909  0.000    19.879     6.351
 390   6 C      0.203  1.094  2.703  0.000    23.678     7.969
 391   8 O     -0.390  1.769  4.621  0.000    21.490     6.215
 392   6 C     -0.147  1.052  3.096  0.000    23.397     6.897
 393   1 H      0.162  0.838  0.000  0.000     1.325     1.803
 394   1 H      0.052  0.948  0.000  0.000     2.297     2.370
 395   1 H      0.058  0.942  0.000  0.000     2.226     2.333
 396   1 H      0.070  0.930  0.000  0.000     2.087     2.259
 397   1 H      0.079  0.921  0.000  0.000     1.987     2.204
 398   1 H      0.201  0.799  0.000  0.000     1.099     1.642
 399   1 H      0.065  0.935  0.000  0.000     2.138     2.286
 400   1 H      0.192  0.808  0.000  0.000     1.146     1.677
 401   1 H      0.070  0.930  0.000  0.000     2.088     2.260
 402   1 H      0.059  0.941  0.000  0.000     2.212     2.325
 403   1 H      0.185  0.815  0.000  0.000     1.183     1.704
 404   1 H      0.060  0.940  0.000  0.000     2.201     2.320
 405   1 H      0.197  0.803  0.000  0.000     1.122     1.659
 406   1 H      0.065  0.935  0.000  0.000     2.145     2.290
 407   1 H      0.180  0.820  0.000  0.000     1.214     1.726
 408   1 H      0.074  0.926  0.000  0.000     2.045     2.236
 409   1 H      0.194  0.806  0.000  0.000     1.137     1.671
 410   1 H      0.070  0.930  0.000  0.000     2.084     2.257
 411   1 H      0.174  0.826  0.000  0.000     1.246     1.749
 412   1 H      0.068  0.932  0.000  0.000     2.102     2.267

 Mol. C6AA /au·bohr⁶  :    1440243.135711
 Mol. C8AA /au·bohr⁸  :   31415186.128206
 Mol. α(0) /au        :       1785.001004

 
molecular dipole:
                 x           y           z       tot (Debye)
 q only:       12.000     473.830     -57.757
   full:       10.295     475.016     -58.769    1216.882
molecular quadrupole (traceless):
                xx          xy          yy          xz          yz          zz
 q only:   -37785.742    3368.102   74303.051     805.029  -12899.615  -36517.309
  q+dip:   -37973.201    2967.690   74681.840     865.421  -13188.394  -36708.639
   full:   -37973.917    2971.831   74683.415     867.905  -13187.862  -36709.498
speedup  1.18
cpu  time for grad   29.15 s
wall time for grad   24.66 s

SCC energy    :    -623.8629378
rep           :       7.3838068
ES            :       2.5956625
AES           :      -0.0839221
AXC           :       0.2244665
disp          :      -0.4714036
XB            :       0.0000000
fix           :       0.0000000
Gborn         :       0.0000000
Gsasa         :       0.0000000
Ghb           :       0.0000000
Gshift        :       0.0000000
Gsolv         :      -1.0712900     -672.24
Etot ala COSMO:    -623.8629378
grad norm     :       0.6614541
total E       :    -616.4455994
atomizationE  :     110.3335598    69235.35
(atE without considering molecular charge,
 total energy contains solvation terms)
H-L gap (eV)  :          1.7710

------------------------------------------------------------------------
 * finished run on 2019/05/04 at 17:34:56.399     
------------------------------------------------------------------------
 total:
 * wall-time:     0 d,  0 h,  0 min, 26.338 sec
 *  cpu-time:     0 d,  0 h,  0 min, 30.982 sec
 * ratio c/w:     1.176 speedup
 SCF:
 * wall-time:     0 d,  0 h,  0 min, 25.926 sec
 *  cpu-time:     0 d,  0 h,  0 min, 30.636 sec
 * ratio c/w:     1.182 speedup

