      -----------------------------------------------------------      
     |                   =====================                   |     
     |                           x T B                           |     
     |                   =====================                   |     
     |                         S. Grimme                         |     
     |          Mulliken Center for Theoretical Chemistry        |     
     |                    University of Bonn                     |     
     |                 Version 6.0.1 (SAW181210)                 |     
      -----------------------------------------------------------      

   This program is distributed in the hope that it will be useful,
   but WITHOUT ANY WARRANTY; without even the implied warranty of
   MERCHANTABILITY or FITNESS FOR A PARTICULAR PURPOSE.
   
   FOR NON-COMMERCIAL, ACADEMIA USE ONLY.
   
   Cite this work as:
   S. Grimme, C. Bannwarth, P. Shushkov, J. Comput. Theory Chem., 2017,
   13, 1989-2009.
   C. Bannwarth, S. Ehlert and S. Grimme., ChemRxiv, 2018, preprint.
   http://doi.org/10.26434/chemrxiv.7246238.v1
   
   for sTDA-xTB:
   S. Grimme and C. Bannwarth, J. Chem. Phys., 2016, 145, 054103.
   
   in the mass-spec context:
   V. Asgeirsson, C. Bauer and S. Grimme, Chem. Sci., 2017, 8, 4879.
   
   if GBSA is used:
   P. Shushkov, F. März and S. Grimme, unpublished.
   
   for ANC optimizer:
   S. Grimme, unpublished.
   Rational Function algorithm used in ANCopt:
   F. Eckert, P. Pulay, H.-J. Werner, J. Comput. Chem., 1997, 18, 1473.
   
   with help from (in alphabetical order)
   C. Bannwarth, F. Bohle, G. Brandenburg, E. Caldeweyher, M. Checinski,
   S. Dohm, S. Ehlert, S. Ehrlich, F. März, H. Neugebauer, J. Pisarek,
   P. Pracht, P. Shushkov, and S. Spicher.
   
 * started run on 2019/05/05 at 17:07:50.067     
========================================================================
 # omp threads = 2
========================================================================
number of atoms            : 120
number of electrons        : 314
charge                     : 0
spin                       : .0
first test random number   : .3517

########################################################################
# WARNING! Please study the warnings concerning your input carefully
#  - Process number higher than OMP_NUM_THREADS, I hope you know what you are doing.
########################################################################

           ------------------------------------------------- 
          |                 G F N 2 - x T B                 |
          | Geometry, Frequencies, Noncovalent interactions |
          |            JCTC 2018 parametrisation            |
           ------------------------------------------------- 
 
      method parameters     
 k(s)        :  1.8500
 k(p)        :  2.2300
 k(d)        :  2.2300
 k(f)        :  2.0000
 kEN (H0ij)  : -2.0000
 D4 a1       :  0.5200
 D4 a2       :  5.0000
 D4 s6       :  1.0000
 D4 s8       :  2.7000
 D4 s9       :  5.0000
 alphaj      :  2.0000

 Solvent             : h2o
 Using internal parameter file: .param_gbsa2_h2o
 Gsolv ref. state (COSMO-RS): gsolv [1 M gas/solution]
 temperature (mdtemp)       :    298.150000000000     
 dielectric constant        :    80.2000000000000     
 rho                        :    1.00000000000000     
 mass                       :    18.0000000000000     
 surface tension            :    15.5689454083859     
 probe radius               :   0.975313790000000     
 vdW radii scaling          :    1.00000000000000     
 Gshift (Eh)                :   1.857443126794793E-003
 c1                         :    1.55243817000000     
 soset                      :   0.130326360000000     
 HB correction              :  T

            Z     q(EN)     CN     RAES       Cart. coordinates
     1  N   5.0   -0.21    3.15    1.95    37.27296    80.78342    34.39500
     2  C   4.0    0.04    4.19    3.99    35.42366    79.23480    35.74836
     3  C   4.0    0.07    3.24    3.04    34.11441    77.31156    34.05818
     4  O   6.0   -0.30    1.22    1.80    32.00171    76.46551    34.64731
     5  C   4.0   -0.02    4.28    4.15    33.28491    80.70430    37.08158
     6  C   4.0    0.25    3.14    3.03    31.90353    79.21603    39.15410
     7  O   6.0   -0.31    1.23    1.80    33.26755    78.22494    40.88191
     8  O   6.0   -0.34    1.34    1.80    29.55489    79.04969    39.13780
     9  H   1.0    0.08    1.01    1.43    39.03180    80.96619    35.17079
    10  H   1.0    0.05    1.06    1.44    36.48494    78.16688    37.17053
    11  H   1.0    0.04    1.03    1.43    34.11035    82.34858    38.02818
    12  H   1.0    0.05    1.03    1.43    31.88207    81.34161    35.71985
    13  N   5.0   -0.20    3.22    1.96    31.31884    70.98853    37.60785
    14  C   4.0    0.03    4.35    4.30    28.90678    71.21485    38.93149
    15  C   4.0    0.15    3.45    3.09    26.77434    72.12215    37.25542
    16  O   6.0   -0.29    1.25    1.80    24.65812    71.13144    37.44597
    17  C   4.0   -0.04    4.27    4.13    29.13351    72.96157    41.23401
    18  C   4.0   -0.04    4.25    4.09    30.88879    71.76462    43.17932
    19  C   4.0   -0.05    4.17    3.94    29.82188    69.41663    44.52055
    20  C   4.0   -0.04    4.12    3.84    31.81828    67.37269    44.82760
    21  N   5.0   -0.12    4.06    3.04    34.24946    68.58787    45.52009
    22  H   1.0    0.09    1.02    1.43    32.77947    72.15100    38.06936
    23  H   1.0    0.05    1.06    1.44    28.36412    69.31089    39.54940
    24  H   1.0    0.07    1.03    1.43    29.86614    74.78213    40.62372
    25  H   1.0    0.06    1.03    1.43    27.25350    73.25768    42.02245
    26  H   1.0    0.04    1.05    1.44    32.58417    71.28778    42.12555
    27  H   1.0    0.05    1.03    1.43    31.36106    73.20404    44.56404
    28  H   1.0    0.04    1.03    1.43    29.12308    69.98178    46.37243
    29  H   1.0    0.04    1.03    1.43    28.21106    68.65702    43.49345
    30  H   1.0    0.04    1.02    1.43    31.26755    66.03427    46.28900
    31  H   1.0    0.04    1.02    1.43    32.08878    66.30180    43.08918
    32  H   1.0    0.05    1.01    1.43    35.65484    67.34643    46.11733
    33  H   1.0    0.05    1.03    1.43    35.02975    69.47958    43.98398
    34  H   1.0    0.06    1.01    1.43    33.96976    70.01585    46.86363
    35  N   5.0   -0.14    3.49    2.07    27.33855    73.97580    35.70890
    36  C   4.0    0.04    4.40    4.37    25.39902    74.97311    34.04065
    37  C   4.0    0.08    3.24    3.04    24.68195    72.99075    32.05966
    38  O   6.0   -0.29    1.12    1.80    22.47634    72.77947    31.31152
    39  C   4.0    0.06    4.21    4.01    26.23366    77.50193    32.88441
    40  O   6.0   -0.27    2.16    1.85    26.35736    79.30361    34.88886
    41  C   4.0   -0.06    4.09    3.78    24.37343    78.43017    30.89779
    42  H   1.0    0.12    1.10    1.44    29.05545    74.81664    35.71350
    43  H   1.0    0.07    1.06    1.44    23.69253    75.31272    35.17611
    44  H   1.0    0.05    1.03    1.43    28.12786    77.25876    32.06274
    45  H   1.0    0.15    1.04    1.43    27.65991    78.91628    36.13828
    46  H   1.0    0.05    1.00    1.43    24.91699    80.31709    30.30999
    47  H   1.0    0.05    1.00    1.43    24.38325    77.15708    29.29300
    48  H   1.0    0.06    1.00    1.43    22.48490    78.49145    31.69737
    49  N   5.0   -0.19    3.18    1.95    19.96321    68.90099    35.04635
    50  C   4.0    0.04    4.27    4.14    17.55614    70.27227    34.99393
    51  C   4.0    0.09    3.21    3.04    16.22653    70.22918    32.41270
    52  O   6.0   -0.28    1.12    1.80    13.94198    69.91207    32.35879
    53  C   4.0    0.06    4.23    4.07    17.93146    72.99592    35.87818
    54  O   6.0   -0.23    2.12    1.84    18.91411    72.91689    38.35929
    55  C   4.0   -0.06    4.08    3.77    15.55126    74.59584    35.65669
    56  H   1.0    0.13    1.04    1.43    21.55535    69.89708    35.42472
    57  H   1.0    0.05    1.05    1.44    16.25845    69.31493    36.30671
    58  H   1.0    0.07    1.04    1.44    19.42289    73.84061    34.70820
    59  H   1.0    0.12    1.01    1.43    17.60474    72.38809    39.54966
    60  H   1.0    0.06    1.00    1.43    15.88465    76.44821    36.47303
    61  H   1.0    0.06    1.00    1.43    15.03306    74.83073    33.68905
    62  H   1.0    0.05    1.00    1.43    13.98790    73.72085    36.66026
    63  O   6.0   -0.29    1.98    1.82    21.36786    76.68864    40.86293
    64  H   1.0    0.15    1.02    1.43    21.33003    77.67906    39.31171
    65  H   1.0    0.15    0.97    1.43    19.73767    76.93831    41.62833
    66  O   6.0   -0.29    1.92    1.82    32.19801    77.88942    45.97367
    67  H   1.0    0.16    1.02    1.43    32.48353    77.90352    44.15254
    68  H   1.0    0.14    0.97    1.43    30.40906    78.12201    46.17262
    69  O   6.0   -0.29    1.92    1.82    25.93355    78.49626    42.95011
    70  H   1.0    0.15    1.01    1.43    27.11515    78.51725    41.55263
    71  H   1.0    0.15    1.01    1.43    24.36507    77.82514    42.26390
    72  O   6.0   -0.32    2.06    1.83    21.58686    80.08746    37.04508
    73  H   1.0    0.16    1.02    1.43    21.55257    81.50639    38.21156
    74  H   1.0    0.15    1.01    1.43    23.25364    80.03158    36.26523
    75  O   6.0   -0.29    1.93    1.82    17.95302    81.14466    33.53006
    76  H   1.0    0.16    1.01    1.43    16.46028    81.71909    34.40899
    77  H   1.0    0.15    1.02    1.43    19.15078    80.61029    34.82702
    78  O   6.0   -0.29    1.92    1.82    15.64819    78.59716    42.48939
    79  H   1.0    0.14    0.97    1.43    16.00459    80.36405    42.30343
    80  H   1.0    0.13    0.97    1.43    14.20643    78.26343    41.42275
    81  N   5.0   -0.22    3.16    1.95    22.50547    89.56042    36.35595
    82  C   4.0    0.03    4.19    3.98    23.18074    87.24314    37.78056
    83  C   4.0    0.08    3.20    3.04    21.03808    86.35373    39.57504
    84  O   6.0   -0.31    1.19    1.80    20.85886    84.12907    40.17455
    85  C   4.0   -0.05    4.35    4.29    25.55264    87.78053    39.34848
    86  C   4.0   -0.02    4.19    3.99    26.38412    85.54975    40.99021
    87  C   4.0   -0.06    4.17    3.94    27.75129    83.65914    39.32031
    88  C   4.0   -0.07    4.07    3.74    28.07060    86.41878    43.22416
    89  H   1.0    0.08    1.02    1.43    23.42320    91.18358    36.80451
    90  H   1.0    0.05    1.05    1.44    23.50851    85.72010    36.42405
    91  H   1.0    0.04    1.03    1.43    27.08310    88.30091    38.07043
    92  H   1.0    0.04    1.03    1.43    25.14704    89.40736    40.55423
    93  H   1.0    0.07    1.07    1.44    24.74111    84.62442    41.82574
    94  H   1.0    0.08    1.05    1.44    28.32217    82.03870    40.44236
    95  H   1.0    0.06    1.00    1.43    26.56000    83.02690    37.77795
    96  H   1.0    0.04    1.00    1.43    29.44501    84.50887    38.52119
    97  H   1.0    0.05    1.00    1.43    28.64270    84.79025    44.33212
    98  H   1.0    0.04    1.00    1.43    29.75540    87.36759    42.52904
    99  H   1.0    0.04    1.00    1.43    27.03521    87.70221    44.44698
   100  N   5.0   -0.18    3.21    1.96    14.91689    87.46911    38.12059
   101  C   4.0    0.03    4.18    3.96    12.63867    87.38029    36.58483
   102  C   4.0    0.09    3.20    3.04    11.98775    84.66451    35.79956
   103  O   6.0   -0.29    1.17    1.80    13.49241    82.90228    35.87513
   104  C   4.0    0.03    4.12    3.85    12.91125    89.10002    34.25380
   105  O   6.0   -0.24    2.06    1.83    14.50653    87.90447    32.48999
   106  H   1.0    0.09    1.02    1.43    16.59033    87.37796    37.19363
   107  H   1.0    0.04    1.05    1.44    11.09647    88.05705    37.78765
   108  H   1.0    0.05    1.01    1.43    11.08214    89.30703    33.32744
   109  H   1.0    0.04    1.01    1.43    13.63024    90.95564    34.83050
   110  H   1.0    0.12    1.01    1.43    16.21411    87.70569    33.17492
   111  H   1.0    0.09    1.08    1.44    37.53499    80.13106    32.84635
   112  H   1.0    0.05    1.04    1.43    34.95233    76.72468    32.46931
   113  H   1.0    0.09    1.07    1.44    31.94843    69.42551    37.83832
   114  H   1.0    0.06    1.04    1.43    26.00449    71.84234    31.35037
   115  H   1.0    0.10    1.07    1.44    19.90253    67.69307    36.24209
   116  H   1.0    0.07    1.04    1.43    17.23105    70.45782    30.82849
   117  H   1.0    0.09    1.07    1.44    22.81194    89.31870    34.70059
   118  H   1.0    0.05    1.04    1.43    19.79130    87.60318    40.24993
   119  H   1.0    0.09    1.07    1.44    14.95597    88.92766    38.99447
   120  H   1.0    0.06    1.05    1.44    10.25039    84.25007    35.18238

  Z AO/shell   Hii/eV     exponent
  1     Wed Apr 25 08:07:45 CEST 2018   EN: 2.200 GM2: 0.406  GM3: 0.0800  RAES: 1.40
     1s    -10.707211    1.230000
  6     Wed Apr 25 08:07:45 CEST 2018   EN: 2.550 GM2: 0.538  GM3: 0.1500  RAES: 3.00
     2s    -13.970922    2.096432
     2p    -10.063292    1.800000
  7     Wed Apr 25 08:07:45 CEST 2018   EN: 3.040 GM2: 0.461  GM3:-0.0640  RAES: 1.90
     2s    -16.686243    2.339881
     2p    -12.523956    2.014332
  8     Wed Apr 25 08:07:45 CEST 2018   EN: 3.440 GM2: 0.452  GM3:-0.0517  RAES: 1.80
     2s    -20.229985    2.439742
     2p    -15.503117    2.137023
 no old-style atom pair restraining (fixing) potential

molecular fragmentation (1/2 indicates fragments):
111111111111222222222222222222222222222222222222222222222222222222222222
222222222222222222222222222222222222221122222222
# atoms in fragment 1/2:    14   106
 fragment masses (1/2) :      116.10      647.78
CMA distance (Bohr)    :  10.779
constraining FC (au)   :  0.0500
           ------------------------------------------------- 
          |        Self-Consistent Charge Iterations        |
           ------------------------------------------------- 

 Ncao       : 273
 Nao        : 273
 Nshell     : 171
 Nel        : 314
 T(el)      :   500.0
 intcut     :    35.0
 scfconv/Eh :  0.100E-06
   qconv/e  :  0.100E-04
 intneglect :  0.100E-08
 broydamp   :      0.400
 iter      E             dE          RMSdq      gap      omega  full diag
   1   -183.7801453 -0.183780E+03  0.500E+00    3.43       0.0  T
   2   -184.2438932 -0.463748E+00  0.238E+00    1.91       1.0  T
   3   -184.2788403 -0.349472E-01  0.131E+00    1.99       1.0  T
   4   -184.3202744 -0.414341E-01  0.321E-01    1.38       1.0  T
   5   -184.3217069 -0.143241E-02  0.128E-01    1.52       1.0  T
   6   -184.3222307 -0.523873E-03  0.441E-02    1.44       1.0  T
   7   -184.3222622 -0.314570E-04  0.216E-02    1.42       1.0  T
   8   -184.3222706 -0.837460E-05  0.789E-03    1.40       1.2  T
   9   -184.3222721 -0.157332E-05  0.321E-03    1.40       2.8  T
  10   -184.3222724 -0.297396E-06  0.112E-03    1.40       8.2  T
  11   -184.3222725 -0.280339E-07  0.500E-04    1.40      18.3  T
  12   -184.3222725 -0.420647E-08  0.171E-04    1.40      53.5  T
  13   -184.3222725 -0.629171E-09  0.745E-05    1.40     122.6  T
  14   -184.3222725 -0.862315E-10  0.296E-05    1.40     308.1  T
speedup  1.67
cpu  time for SCC    0.78 s
wall time for SCC    0.47 s

   *** convergence criteria satisfied after 14 iterations ***

          eigenvalues
 #    :         145        146        147        148        149        150        151        152
 occ. :        2.000      2.000      2.000      2.000      2.000      2.000      2.000      2.000
 eps  :       -11.162    -11.006    -10.905    -10.826    -10.740    -10.657    -10.506    -10.400
 #    :         153        154        155        156        157        158        159        160
 occ. :        2.000      2.000      2.000      2.000      2.000      0.000      0.000      0.000
 eps  :       -10.218    -10.166    -10.147     -9.809     -9.537     -8.139     -7.834     -7.811
 #    :         161        162        163        164        165        166        167        168
 occ. :        0.000      0.000      0.000      0.000      0.000      0.000      0.000      0.000
 eps  :        -7.807     -7.428     -5.565     -5.065     -2.211     -0.193     -0.020      0.160


   #   Z            q   n(s)   n(p)   n(d)      C6AA      α(0)
   1   7 N     -0.393  1.327  4.065  0.000    30.176     8.158
   2   6 C      0.048  1.054  2.899  0.000    19.794     6.338
   3   6 C      0.189  1.092  2.720  0.000    23.960     8.017
   4   8 O     -0.391  1.759  4.632  0.000    21.508     6.218
   5   6 C     -0.087  1.065  3.022  0.000    22.154     6.700
   6   6 C      0.368  1.025  2.607  0.000    20.758     7.456
   7   8 O     -0.636  1.775  4.862  0.000    27.033     6.971
   8   8 O     -0.577  1.760  4.817  0.000    25.566     6.779
   9   1 H      0.176  0.824  0.000  0.000     1.236     1.742
  10   1 H      0.078  0.922  0.000  0.000     1.999     2.211
  11   1 H      0.048  0.952  0.000  0.000     2.349     2.397
  12   1 H      0.039  0.961  0.000  0.000     2.463     2.454
  13   7 N     -0.401  1.320  4.081  0.000    30.407     8.190
  14   6 C      0.028  1.061  2.911  0.000    20.114     6.387
  15   6 C      0.270  1.042  2.688  0.000    22.441     7.758
  16   8 O     -0.519  1.758  4.761  0.000    24.208     6.597
  17   6 C     -0.062  1.049  3.013  0.000    21.695     6.631
  18   6 C     -0.081  1.052  3.028  0.000    22.033     6.682
  19   6 C     -0.092  1.050  3.041  0.000    22.249     6.715
  20   6 C     -0.044  1.057  2.987  0.000    21.446     6.610
  21   7 N     -0.147  1.231  3.916  0.000    24.164     7.301
  22   1 H      0.147  0.853  0.000  0.000     1.424     1.869
  23   1 H      0.053  0.947  0.000  0.000     2.279     2.361
  24   1 H      0.047  0.953  0.000  0.000     2.355     2.400
  25   1 H      0.037  0.963  0.000  0.000     2.485     2.465
  26   1 H      0.053  0.947  0.000  0.000     2.287     2.365
  27   1 H      0.064  0.936  0.000  0.000     2.155     2.296
  28   1 H      0.075  0.925  0.000  0.000     2.029     2.227
  29   1 H      0.075  0.925  0.000  0.000     2.033     2.230
  30   1 H      0.125  0.875  0.000  0.000     1.572     1.960
  31   1 H      0.112  0.888  0.000  0.000     1.681     2.028
  32   1 H      0.308  0.692  0.000  0.000     0.689     1.301
  33   1 H      0.279  0.721  0.000  0.000     0.780     1.384
  34   1 H      0.297  0.703  0.000  0.000     0.724     1.333
  35   7 N     -0.175  1.242  3.933  0.000    24.785     7.394
  36   6 C      0.020  1.063  2.917  0.000    20.241     6.405
  37   6 C      0.195  1.088  2.717  0.000    23.839     7.996
  38   8 O     -0.360  1.760  4.600  0.000    20.904     6.130
  39   6 C      0.123  1.048  2.829  0.000    18.674     6.171
  40   8 O     -0.473  1.709  4.764  0.000    22.325     6.378
  41   6 C     -0.132  1.040  3.091  0.000    23.085     6.851
  42   1 H      0.232  0.768  0.000  0.000     0.956     1.531
  43   1 H      0.096  0.904  0.000  0.000     1.822     2.111
  44   1 H      0.035  0.965  0.000  0.000     2.516     2.480
  45   1 H      0.328  0.672  0.000  0.000     0.644     1.260
  46   1 H      0.075  0.925  0.000  0.000     2.033     2.230
  47   1 H      0.052  0.948  0.000  0.000     2.289     2.366
  48   1 H      0.075  0.925  0.000  0.000     2.030     2.228
  49   7 N     -0.396  1.313  4.083  0.000    30.261     8.170
  50   6 C      0.028  1.066  2.906  0.000    20.122     6.390
  51   6 C      0.200  1.092  2.708  0.000    23.749     7.981
  52   8 O     -0.377  1.749  4.628  0.000    21.228     6.177
  53   6 C      0.120  1.044  2.835  0.000    18.711     6.175
  54   8 O     -0.458  1.729  4.729  0.000    22.016     6.334
  55   6 C     -0.130  1.042  3.088  0.000    23.060     6.848
  56   1 H      0.170  0.830  0.000  0.000     1.272     1.767
  57   1 H      0.047  0.953  0.000  0.000     2.360     2.402
  58   1 H      0.049  0.951  0.000  0.000     2.333     2.389
  59   1 H      0.322  0.678  0.000  0.000     0.659     1.275
  60   1 H      0.067  0.933  0.000  0.000     2.123     2.279
  61   1 H      0.041  0.959  0.000  0.000     2.438     2.442
  62   1 H      0.050  0.950  0.000  0.000     2.323     2.383
  63   8 O     -0.640  1.765  4.876  0.000    26.176     6.905
  64   1 H      0.316  0.684  0.000  0.000     0.676     1.292
  65   1 H      0.309  0.691  0.000  0.000     0.694     1.309
  66   8 O     -0.646  1.756  4.890  0.000    26.320     6.924
  67   1 H      0.313  0.687  0.000  0.000     0.685     1.300
  68   1 H      0.301  0.699  0.000  0.000     0.718     1.331
  69   8 O     -0.662  1.762  4.900  0.000    26.726     6.977
  70   1 H      0.300  0.700  0.000  0.000     0.722     1.335
  71   1 H      0.309  0.691  0.000  0.000     0.694     1.308
  72   8 O     -0.630  1.755  4.875  0.000    25.929     6.872
  73   1 H      0.326  0.674  0.000  0.000     0.647     1.264
  74   1 H      0.322  0.678  0.000  0.000     0.660     1.276
  75   8 O     -0.664  1.768  4.896  0.000    26.762     6.982
  76   1 H      0.304  0.696  0.000  0.000     0.709     1.323
  77   1 H      0.312  0.688  0.000  0.000     0.687     1.302
  78   8 O     -0.640  1.765  4.875  0.000    26.153     6.902
  79   1 H      0.323  0.677  0.000  0.000     0.655     1.271
  80   1 H      0.320  0.680  0.000  0.000     0.664     1.280
  81   7 N     -0.397  1.319  4.078  0.000    30.296     8.175
  82   6 C      0.033  1.064  2.903  0.000    20.045     6.379
  83   6 C      0.196  1.096  2.708  0.000    23.810     7.991
  84   8 O     -0.364  1.754  4.610  0.000    20.970     6.140
  85   6 C     -0.068  1.061  3.006  0.000    21.788     6.644
  86   6 C     -0.015  1.058  2.957  0.000    20.801     6.487
  87   6 C     -0.118  1.042  3.077  0.000    22.814     6.809
  88   6 C     -0.112  1.043  3.069  0.000    22.711     6.796
  89   1 H      0.167  0.833  0.000  0.000     1.292     1.781
  90   1 H      0.062  0.938  0.000  0.000     2.175     2.306
  91   1 H      0.054  0.946  0.000  0.000     2.273     2.358
  92   1 H      0.046  0.954  0.000  0.000     2.376     2.411
  93   1 H      0.034  0.966  0.000  0.000     2.528     2.486
  94   1 H      0.067  0.933  0.000  0.000     2.114     2.274
  95   1 H      0.042  0.958  0.000  0.000     2.419     2.432
  96   1 H      0.016  0.984  0.000  0.000     2.790     2.612
  97   1 H      0.035  0.965  0.000  0.000     2.513     2.479
  98   1 H      0.035  0.965  0.000  0.000     2.520     2.483
  99   1 H      0.036  0.964  0.000  0.000     2.503     2.474
 100   7 N     -0.374  1.312  4.062  0.000    29.662     8.089
 101   6 C      0.023  1.062  2.916  0.000    20.217     6.405
 102   6 C      0.204  1.087  2.708  0.000    23.663     7.966
 103   8 O     -0.365  1.753  4.612  0.000    20.996     6.143
 104   6 C      0.071  1.043  2.886  0.000    19.610     6.344
 105   8 O     -0.477  1.726  4.751  0.000    22.402     6.389
 106   1 H      0.152  0.848  0.000  0.000     1.385     1.844
 107   1 H      0.078  0.922  0.000  0.000     2.001     2.212
 108   1 H      0.061  0.939  0.000  0.000     2.184     2.311
 109   1 H      0.052  0.948  0.000  0.000     2.301     2.372
 110   1 H      0.323  0.677  0.000  0.000     0.656     1.272
 111   1 H      0.186  0.814  0.000  0.000     1.180     1.702
 112   1 H      0.075  0.925  0.000  0.000     2.026     2.226
 113   1 H      0.193  0.807  0.000  0.000     1.140     1.672
 114   1 H      0.079  0.921  0.000  0.000     1.990     2.206
 115   1 H      0.186  0.814  0.000  0.000     1.180     1.701
 116   1 H      0.071  0.929  0.000  0.000     2.071     2.250
 117   1 H      0.182  0.818  0.000  0.000     1.201     1.717
 118   1 H      0.087  0.913  0.000  0.000     1.909     2.161
 119   1 H      0.189  0.811  0.000  0.000     1.166     1.691
 120   1 H      0.076  0.924  0.000  0.000     2.024     2.225

 Mol. C6AA /au·bohr⁶  :     109873.638384
 Mol. C8AA /au·bohr⁸  :    2311151.525427
 Mol. α(0) /au        :        488.643169

 
molecular dipole:
                 x           y           z       tot (Debye)
 q only:        7.260      -4.124       4.952
   full:        8.415      -3.171       4.758      25.860
molecular quadrupole (traceless):
                xx          xy          yy          xz          yz          zz
 q only:      502.231     501.551    -944.248     616.456     225.572     442.017
  q+dip:      507.824     663.496    -814.913     658.425     256.116     307.089
   full:      506.787     662.075    -814.822     659.979     255.800     308.035
speedup  1.71
cpu  time for grad    1.02 s
wall time for grad    0.60 s

SCC energy    :    -184.3275519
rep           :       2.0114627
ES            :       0.7649931
AES           :      -0.0395830
AXC           :       0.0522790
disp          :      -0.1141679
XB            :       0.0000000
fix           :       0.0000000
Gborn         :       0.0000000
Gsasa         :       0.0000000
Ghb           :       0.0000000
Gshift        :       0.0000000
Gsolv         :      -0.1650199     -103.55
Etot ala COSMO:    -184.3275519
grad norm     :       0.5164393
total E       :    -182.3100495
atomizationE  :      29.6087806    18579.79
(atE without considering molecular charge,
 total energy contains solvation terms)
H-L gap (eV)  :          1.3982

------------------------------------------------------------------------
 * finished run on 2019/05/05 at 17:07:51.058     
------------------------------------------------------------------------
 total:
 * wall-time:     0 d,  0 h,  0 min,  0.989 sec
 *  cpu-time:     0 d,  0 h,  0 min,  1.336 sec
 * ratio c/w:     1.350 speedup
 SCF:
 * wall-time:     0 d,  0 h,  0 min,  0.659 sec
 *  cpu-time:     0 d,  0 h,  0 min,  1.132 sec
 * ratio c/w:     1.717 speedup

