      -----------------------------------------------------------      
     |                   =====================                   |     
     |                           x T B                           |     
     |                   =====================                   |     
     |                         S. Grimme                         |     
     |          Mulliken Center for Theoretical Chemistry        |     
     |                    University of Bonn                     |     
     |                 Version 6.0.1 (SAW181210)                 |     
      -----------------------------------------------------------      

   This program is distributed in the hope that it will be useful,
   but WITHOUT ANY WARRANTY; without even the implied warranty of
   MERCHANTABILITY or FITNESS FOR A PARTICULAR PURPOSE.
   
   FOR NON-COMMERCIAL, ACADEMIA USE ONLY.
   
   Cite this work as:
   S. Grimme, C. Bannwarth, P. Shushkov, J. Comput. Theory Chem., 2017,
   13, 1989-2009.
   C. Bannwarth, S. Ehlert and S. Grimme., ChemRxiv, 2018, preprint.
   http://doi.org/10.26434/chemrxiv.7246238.v1
   
   for sTDA-xTB:
   S. Grimme and C. Bannwarth, J. Chem. Phys., 2016, 145, 054103.
   
   in the mass-spec context:
   V. Asgeirsson, C. Bauer and S. Grimme, Chem. Sci., 2017, 8, 4879.
   
   if GBSA is used:
   P. Shushkov, F. März and S. Grimme, unpublished.
   
   for ANC optimizer:
   S. Grimme, unpublished.
   Rational Function algorithm used in ANCopt:
   F. Eckert, P. Pulay, H.-J. Werner, J. Comput. Chem., 1997, 18, 1473.
   
   with help from (in alphabetical order)
   C. Bannwarth, F. Bohle, G. Brandenburg, E. Caldeweyher, M. Checinski,
   S. Dohm, S. Ehlert, S. Ehrlich, F. März, H. Neugebauer, J. Pisarek,
   P. Pracht, P. Shushkov, and S. Spicher.
   
 * started run on 2019/05/05 at 17:07:55.239     
========================================================================
 # omp threads = 2
========================================================================
number of atoms            : 58
number of electrons        : 164
charge                     : -1
spin                       : .0
first test random number   : .3701

########################################################################
# WARNING! Please study the warnings concerning your input carefully
#  - Process number higher than OMP_NUM_THREADS, I hope you know what you are doing.
########################################################################

           ------------------------------------------------- 
          |                 G F N 2 - x T B                 |
          | Geometry, Frequencies, Noncovalent interactions |
          |            JCTC 2018 parametrisation            |
           ------------------------------------------------- 
 
      method parameters     
 k(s)        :  1.8500
 k(p)        :  2.2300
 k(d)        :  2.2300
 k(f)        :  2.0000
 kEN (H0ij)  : -2.0000
 D4 a1       :  0.5200
 D4 a2       :  5.0000
 D4 s6       :  1.0000
 D4 s8       :  2.7000
 D4 s9       :  5.0000
 alphaj      :  2.0000

 Solvent             : h2o
 Using internal parameter file: .param_gbsa2_h2o
 Gsolv ref. state (COSMO-RS): gsolv [1 M gas/solution]
 temperature (mdtemp)       :    298.150000000000     
 dielectric constant        :    80.2000000000000     
 rho                        :    1.00000000000000     
 mass                       :    18.0000000000000     
 surface tension            :    15.5689454083859     
 probe radius               :   0.975313790000000     
 vdW radii scaling          :    1.00000000000000     
 Gshift (Eh)                :   1.857443126794793E-003
 c1                         :    1.55243817000000     
 soset                      :   0.130326360000000     
 HB correction              :  T

            Z     q(EN)     CN     RAES       Cart. coordinates
     1  N   5.0   -0.23    3.18    1.95    32.89998    24.68620    47.90015
     2  C   4.0    0.03    4.17    3.94    31.83486    22.83557    49.66684
     3  C   4.0    0.06    3.22    3.04    28.96471    22.92649    49.61402
     4  O   6.0   -0.31    1.13    1.80    27.68155    21.52982    50.94582
     5  C   4.0   -0.02    4.24    4.08    32.63594    23.32294    52.40924
     6  C   4.0    0.25    3.05    3.02    35.51296    23.85360    53.11454
     7  O   6.0   -0.32    1.19    1.80    35.71708    25.35787    54.95540
     8  O   6.0   -0.29    1.16    1.80    37.24717    22.81895    52.00062
     9  H   1.0    0.08    1.03    1.43    34.05873    26.00341    48.64228
    10  H   1.0    0.04    1.05    1.44    32.45244    20.94417    49.08552
    11  H   1.0    0.05    1.03    1.43    31.59633    24.95585    53.13556
    12  H   1.0    0.06    1.03    1.43    32.09988    21.67065    53.52525
    13  O   6.0   -0.30    1.92    1.82    33.82688    22.07216    59.14764
    14  H   1.0    0.15    0.99    1.43    34.42249    23.18446    57.82126
    15  H   1.0    0.12    0.97    1.43    32.01944    22.01466    58.96879
    16  O   6.0   -0.31    1.93    1.82    30.61273    16.23060    56.27181
    17  H   1.0    0.16    1.03    1.43    32.18452    17.15214    56.25878
    18  H   1.0    0.12    0.97    1.43    31.06009    14.53620    55.76206
    19  O   6.0   -0.32    1.91    1.82    39.37773    25.05752    62.82405
    20  H   1.0    0.11    0.96    1.43    41.11861    24.47211    62.67023
    21  H   1.0    0.13    0.97    1.43    38.57127    24.67246    61.24714
    22  N   5.0   -0.23    3.19    1.95    41.70932    15.44183    55.89003
    23  C   4.0    0.04    4.22    4.04    39.64374    17.04898    56.62329
    24  C   4.0    0.09    3.23    3.04    37.42464    17.08382    54.78621
    25  O   6.0   -0.31    1.20    1.80    35.33246    17.73662    55.52837
    26  C   4.0    0.04    4.16    3.92    40.48771    19.80542    56.97205
    27  O   6.0   -0.24    2.09    1.84    41.26687    20.66726    54.61271
    28  H   1.0    0.07    1.03    1.43    43.42487    16.24900    55.64865
    29  H   1.0    0.04    1.06    1.44    38.85109    16.38010    58.42462
    30  H   1.0    0.06    1.01    1.43    38.86804    20.89228    57.69834
    31  H   1.0    0.03    1.01    1.43    42.01716    19.87871    58.37704
    32  H   1.0    0.11    1.01    1.43    42.63434    21.89977    54.73149
    33  N   5.0   -0.23    3.19    1.95    31.99840     8.43369    60.96176
    34  C   4.0    0.02    4.23    4.06    33.72901    10.03400    62.37329
    35  C   4.0    0.07    3.24    3.04    32.59540    10.90103    64.86769
    36  O   6.0   -0.32    1.12    1.80    33.87384    10.79293    66.81269
    37  C   4.0   -0.04    4.34    4.27    34.45151    12.33945    60.80297
    38  C   4.0   -0.01    3.57    3.15    36.14580    14.18735    62.15073
    39  C   4.0   -0.05    3.47    3.10    38.69213    13.62770    62.53409
    40  C   4.0   -0.03    3.48    3.11    35.29238    16.56094    62.82362
    41  C   4.0   -0.06    3.40    3.08    40.31897    15.52100    63.29414
    42  C   4.0   -0.04    3.38    3.07    36.86831    18.34397    63.88514
    43  C   4.0   -0.05    3.38    3.07    39.44396    17.84920    64.03752
    44  H   1.0    0.07    1.03    1.43    31.47395     9.05839    59.22361
    45  H   1.0    0.04    1.05    1.44    35.41417     8.92411    62.86017
    46  H   1.0    0.03    1.03    1.43    35.42622    11.70368    59.09535
    47  H   1.0    0.04    1.04    1.43    32.72242    13.30623    60.23551
    48  H   1.0    0.04    1.03    1.43    39.42734    11.79607    62.01436
    49  H   1.0    0.05    1.03    1.43    33.32697    17.02510    62.53302
    50  H   1.0    0.03    1.03    1.43    42.32258    15.13214    63.36944
    51  H   1.0    0.05    1.03    1.43    36.15025    20.16475    64.45415
    52  H   1.0    0.04    1.03    1.43    40.72820    19.29525    64.68396
    53  H   1.0    0.08    1.07    1.44    33.81513    23.87883    46.71558
    54  H   1.0    0.04    1.05    1.44    28.07881    24.14595    48.47422
    55  H   1.0    0.08    1.07    1.44    41.94468    14.24395    57.07419
    56  H   1.0    0.05    1.04    1.44    37.68149    16.57504    52.98448
    57  H   1.0    0.08    1.07    1.44    32.71114     6.91012    60.71020
    58  H   1.0    0.04    1.04    1.43    30.82298    11.55404    64.92379

  Z AO/shell   Hii/eV     exponent
  1     Wed Apr 25 08:07:45 CEST 2018   EN: 2.200 GM2: 0.406  GM3: 0.0800  RAES: 1.40
     1s    -10.707211    1.230000
  6     Wed Apr 25 08:07:45 CEST 2018   EN: 2.550 GM2: 0.538  GM3: 0.1500  RAES: 3.00
     2s    -13.970922    2.096432
     2p    -10.063292    1.800000
  7     Wed Apr 25 08:07:45 CEST 2018   EN: 3.040 GM2: 0.461  GM3:-0.0640  RAES: 1.90
     2s    -16.686243    2.339881
     2p    -12.523956    2.014332
  8     Wed Apr 25 08:07:45 CEST 2018   EN: 3.440 GM2: 0.452  GM3:-0.0517  RAES: 1.80
     2s    -20.229985    2.439742
     2p    -15.503117    2.137023
 no old-style atom pair restraining (fixing) potential

molecular fragmentation (1/2 indicates fragments):
1111111111112222222222222222222222222222222222222222112222
# atoms in fragment 1/2:    14    44
 fragment masses (1/2) :      116.10      292.33
CMA distance (Bohr)    :  12.026
constraining FC (au)   :  0.0500
           ------------------------------------------------- 
          |        Self-Consistent Charge Iterations        |
           ------------------------------------------------- 

 Ncao       : 142
 Nao        : 142
 Nshell     : 86
 Nel        : 164
 T(el)      :   500.0
 intcut     :    35.0
 scfconv/Eh :  0.100E-06
   qconv/e  :  0.100E-04
 intneglect :  0.100E-08
 broydamp   :      0.400
 iter      E             dE          RMSdq      gap      omega  full diag
   1    -95.9026188 -0.959026E+02  0.554E+00    3.60       0.0  T
   2    -96.1616941 -0.259075E+00  0.267E+00    2.32       1.0  T
   3    -96.1792655 -0.175714E-01  0.146E+00    2.64       1.0  T
   4    -96.2021669 -0.229014E-01  0.329E-01    1.97       1.0  T
   5    -96.2028752 -0.708341E-03  0.137E-01    2.08       1.0  T
   6    -96.2032238 -0.348589E-03  0.521E-02    2.07       1.0  T
   7    -96.2032680 -0.441739E-04  0.257E-02    2.08       1.0  T
   8    -96.2032752 -0.716045E-05  0.863E-03    2.09       1.5  T
   9    -96.2032762 -0.102885E-05  0.377E-03    2.10       3.5  T
  10    -96.2032764 -0.235962E-06  0.139E-03    2.10       9.4  T
  11    -96.2032765 -0.192360E-07  0.602E-04    2.10      21.8  T
  12    -96.2032765 -0.782930E-08  0.208E-04    2.10      63.1  T
  13    -96.2032765 -0.589282E-09  0.103E-04    2.10     127.9  T
  14    -96.2032765 -0.933653E-10  0.377E-05    2.10     348.4  T
  15    -96.2032765 -0.145803E-10  0.170E-05    2.10     771.3  T
speedup  1.36
cpu  time for SCC    0.28 s
wall time for SCC    0.20 s

   *** convergence criteria satisfied after 15 iterations ***

          eigenvalues
 #    :          70         71         72         73         74         75         76         77
 occ. :        2.000      2.000      2.000      2.000      2.000      2.000      2.000      2.000
 eps  :       -11.623    -11.434    -11.357    -11.322    -11.250    -10.928    -10.864    -10.820
 #    :          78         79         80         81         82         83         84         85
 occ. :        2.000      2.000      2.000      2.000      2.000      0.000      0.000      0.000
 eps  :       -10.392    -10.199    -10.147    -10.070     -9.830     -7.735     -7.710     -7.598
 #    :          86         87         88         89         90         91         92         93
 occ. :        0.000      0.000      0.000      0.000      0.000      0.000      0.000      0.000
 eps  :        -6.097     -5.908     -4.641     -2.523      0.544      0.774      0.982      1.392


   #   Z            q   n(s)   n(p)   n(d)      C6AA      α(0)
   1   7 N     -0.391  1.310  4.080  0.000    30.115     8.150
   2   6 C      0.048  1.056  2.896  0.000    19.786     6.337
   3   6 C      0.198  1.091  2.711  0.000    23.784     7.987
   4   8 O     -0.392  1.757  4.635  0.000    21.519     6.219
   5   6 C     -0.091  1.078  3.014  0.000    22.243     6.715
   6   6 C      0.375  1.024  2.601  0.000    20.651     7.436
   7   8 O     -0.663  1.778  4.885  0.000    27.724     7.059
   8   8 O     -0.584  1.758  4.826  0.000    25.741     6.802
   9   1 H      0.149  0.851  0.000  0.000     1.410     1.860
  10   1 H      0.051  0.949  0.000  0.000     2.304     2.374
  11   1 H      0.017  0.983  0.000  0.000     2.785     2.610
  12   1 H      0.035  0.965  0.000  0.000     2.521     2.483
  13   8 O     -0.614  1.749  4.865  0.000    25.534     6.820
  14   1 H      0.284  0.716  0.000  0.000     0.771     1.379
  15   1 H      0.314  0.686  0.000  0.000     0.680     1.295
  16   8 O     -0.644  1.765  4.879  0.000    26.255     6.916
  17   1 H      0.311  0.689  0.000  0.000     0.689     1.304
  18   1 H      0.314  0.686  0.000  0.000     0.680     1.295
  19   8 O     -0.625  1.763  4.862  0.000    25.787     6.854
  20   1 H      0.326  0.674  0.000  0.000     0.648     1.265
  21   1 H      0.298  0.702  0.000  0.000     0.726     1.338
  22   7 N     -0.385  1.306  4.078  0.000    29.954     8.128
  23   6 C      0.041  1.050  2.909  0.000    19.901     6.355
  24   6 C      0.213  1.089  2.697  0.000    23.485     7.937
  25   8 O     -0.385  1.749  4.637  0.000    21.392     6.201
  26   6 C      0.102  1.032  2.866  0.000    19.105     6.260
  27   8 O     -0.475  1.726  4.749  0.000    22.362     6.384
  28   1 H      0.178  0.822  0.000  0.000     1.227     1.735
  29   1 H      0.057  0.943  0.000  0.000     2.237     2.339
  30   1 H      0.016  0.984  0.000  0.000     2.801     2.617
  31   1 H      0.034  0.966  0.000  0.000     2.525     2.485
  32   1 H      0.344  0.656  0.000  0.000     0.604     1.220
  33   7 N     -0.392  1.319  4.073  0.000    30.157     8.156
  34   6 C      0.045  1.053  2.901  0.000    19.830     6.343
  35   6 C      0.203  1.091  2.705  0.000    23.680     7.969
  36   8 O     -0.382  1.762  4.620  0.000    21.327     6.192
  37   6 C     -0.071  1.056  3.015  0.000    21.849     6.653
  38   6 C      0.005  1.083  2.911  0.000    27.904     8.665
  39   6 C     -0.046  1.080  2.965  0.000    29.134     8.852
  40   6 C     -0.035  1.080  2.955  0.000    28.875     8.813
  41   6 C     -0.038  1.078  2.961  0.000    28.949     8.824
  42   6 C     -0.028  1.083  2.945  0.000    28.712     8.787
  43   6 C     -0.039  1.079  2.959  0.000    28.963     8.825
  44   1 H      0.167  0.833  0.000  0.000     1.292     1.781
  45   1 H      0.054  0.946  0.000  0.000     2.268     2.355
  46   1 H      0.057  0.943  0.000  0.000     2.231     2.336
  47   1 H      0.056  0.944  0.000  0.000     2.247     2.344
  48   1 H      0.042  0.958  0.000  0.000     2.429     2.437
  49   1 H      0.028  0.972  0.000  0.000     2.612     2.528
  50   1 H      0.041  0.959  0.000  0.000     2.438     2.442
  51   1 H      0.036  0.964  0.000  0.000     2.505     2.475
  52   1 H      0.038  0.962  0.000  0.000     2.475     2.460
  53   1 H      0.187  0.813  0.000  0.000     1.175     1.698
  54   1 H      0.080  0.920  0.000  0.000     1.981     2.201
  55   1 H      0.192  0.808  0.000  0.000     1.145     1.676
  56   1 H      0.078  0.922  0.000  0.000     1.995     2.209
  57   1 H      0.192  0.808  0.000  0.000     1.149     1.679
  58   1 H      0.076  0.924  0.000  0.000     2.023     2.224

 Mol. C6AA /au·bohr⁶  :      31385.431976
 Mol. C8AA /au·bohr⁸  :     688053.620108
 Mol. α(0) /au        :        267.082529

 
molecular dipole:
                 x           y           z       tot (Debye)
 q only:      -33.050     -23.985     -56.154
   full:      -32.448     -23.687     -56.596     176.414
molecular quadrupole (traceless):
                xx          xy          yy          xz          yz          zz
 q only:      792.197   -1211.696    1567.354   -2779.656   -2000.168   -2359.550
  q+dip:      860.438   -1181.487    1585.849   -2750.208   -1983.310   -2446.287
   full:      857.484   -1179.535    1587.161   -2751.186   -1985.065   -2444.645
speedup  1.45
cpu  time for grad    0.35 s
wall time for grad    0.24 s

SCC energy    :     -96.2045282
rep           :       1.1562250
ES            :       0.4722886
AES           :      -0.0085360
AXC           :       0.0288653
disp          :      -0.0544281
XB            :       0.0000000
fix           :       0.0000000
Gborn         :       0.0000000
Gsasa         :       0.0000000
Ghb           :       0.0000000
Gshift        :       0.0000000
Gsolv         :      -0.1400871      -87.91
Etot ala COSMO:     -96.2045282
grad norm     :       0.3897660
total E       :     -95.0463198
atomizationE  :      15.7916009     9909.38
(atE without considering molecular charge,
 total energy contains solvation terms)
H-L gap (eV)  :          2.0953

------------------------------------------------------------------------
 * finished run on 2019/05/05 at 17:07:55.789     
------------------------------------------------------------------------
 total:
 * wall-time:     0 d,  0 h,  0 min,  0.547 sec
 *  cpu-time:     0 d,  0 h,  0 min,  0.564 sec
 * ratio c/w:     1.030 speedup
 SCF:
 * wall-time:     0 d,  0 h,  0 min,  0.269 sec
 *  cpu-time:     0 d,  0 h,  0 min,  0.393 sec
 * ratio c/w:     1.460 speedup

