      -----------------------------------------------------------      
     |                   =====================                   |     
     |                           x T B                           |     
     |                   =====================                   |     
     |                         S. Grimme                         |     
     |          Mulliken Center for Theoretical Chemistry        |     
     |                    University of Bonn                     |     
     |                 Version 6.0.1 (SAW181210)                 |     
      -----------------------------------------------------------      

   This program is distributed in the hope that it will be useful,
   but WITHOUT ANY WARRANTY; without even the implied warranty of
   MERCHANTABILITY or FITNESS FOR A PARTICULAR PURPOSE.
   
   FOR NON-COMMERCIAL, ACADEMIA USE ONLY.
   
   Cite this work as:
   S. Grimme, C. Bannwarth, P. Shushkov, J. Comput. Theory Chem., 2017,
   13, 1989-2009.
   C. Bannwarth, S. Ehlert and S. Grimme., ChemRxiv, 2018, preprint.
   http://doi.org/10.26434/chemrxiv.7246238.v1
   
   for sTDA-xTB:
   S. Grimme and C. Bannwarth, J. Chem. Phys., 2016, 145, 054103.
   
   in the mass-spec context:
   V. Asgeirsson, C. Bauer and S. Grimme, Chem. Sci., 2017, 8, 4879.
   
   if GBSA is used:
   P. Shushkov, F. März and S. Grimme, unpublished.
   
   for ANC optimizer:
   S. Grimme, unpublished.
   Rational Function algorithm used in ANCopt:
   F. Eckert, P. Pulay, H.-J. Werner, J. Comput. Chem., 1997, 18, 1473.
   
   with help from (in alphabetical order)
   C. Bannwarth, F. Bohle, G. Brandenburg, E. Caldeweyher, M. Checinski,
   S. Dohm, S. Ehlert, S. Ehrlich, F. März, H. Neugebauer, J. Pisarek,
   P. Pracht, P. Shushkov, and S. Spicher.
   
 * started run on 2019/05/05 at 22:18:06.806     
========================================================================
 # omp threads = 2
========================================================================
number of atoms            : 509
number of electrons        : 1362
charge                     : 1
spin                       : .0
first test random number   : .5535

########################################################################
# WARNING! Please study the warnings concerning your input carefully
#  - Process number higher than OMP_NUM_THREADS, I hope you know what you are doing.
########################################################################

           ------------------------------------------------- 
          |                 G F N 2 - x T B                 |
          | Geometry, Frequencies, Noncovalent interactions |
          |            JCTC 2018 parametrisation            |
           ------------------------------------------------- 
 
      method parameters     
 k(s)        :  1.8500
 k(p)        :  2.2300
 k(d)        :  2.2300
 k(f)        :  2.0000
 kEN (H0ij)  : -2.0000
 D4 a1       :  0.5200
 D4 a2       :  5.0000
 D4 s6       :  1.0000
 D4 s8       :  2.7000
 D4 s9       :  5.0000
 alphaj      :  2.0000

 Solvent             : h2o
 Using internal parameter file: .param_gbsa2_h2o
 Gsolv ref. state (COSMO-RS): gsolv [1 M gas/solution]
 temperature (mdtemp)       :    298.150000000000     
 dielectric constant        :    80.2000000000000     
 rho                        :    1.00000000000000     
 mass                       :    18.0000000000000     
 surface tension            :    15.5689454083859     
 probe radius               :   0.975313790000000     
 vdW radii scaling          :    1.00000000000000     
 Gshift (Eh)                :   1.857443126794793E-003
 c1                         :    1.55243817000000     
 soset                      :   0.130326360000000     
 HB correction              :  T

            Z     q(EN)     CN     RAES       Cart. coordinates
     1  N   5.0   -0.19    3.19    1.95   -36.54541    82.74354    28.58399
     2  C   4.0    0.03    4.31    4.22   -36.28085    85.20018    29.83688
     3  C   4.0    0.15    3.38    3.07   -38.07042    87.22597    28.86367
     4  O   6.0   -0.30    1.22    1.80   -38.77718    87.26376    26.64703
     5  C   4.0   -0.04    4.29    4.18   -33.54642    86.17528    29.82177
     6  C   4.0   -0.03    4.26    4.11   -32.21416    86.09025    27.29520
     7  C   4.0    0.15    3.25    3.04   -29.41358    86.18662    27.70149
     8  O   6.0   -0.28    1.20    1.80   -28.32510    88.20485    28.20038
     9  N   5.0   -0.17    3.18    1.95   -28.20038    83.98887    27.57110
    10  H   1.0    0.09    1.03    1.43   -37.34476    82.85692    26.83411
    11  H   1.0    0.05    1.07    1.44   -36.88556    84.86192    31.77763
    12  H   1.0    0.06    1.03    1.43   -33.55775    88.14060    30.44160
    13  H   1.0    0.05    1.04    1.43   -32.44470    85.03011    31.13324
    14  H   1.0    0.04    1.05    1.44   -32.68470    84.34036    26.31632
    15  H   1.0    0.05    1.03    1.43   -32.77730    87.70974    26.15381
    16  H   1.0    0.08    1.03    1.43   -29.17926    82.36748    27.21205
    17  H   1.0    0.11    1.02    1.43   -26.29176    83.92462    27.82999
    18  N   5.0   -0.12    3.49    2.07   -38.80363    88.90216    30.58899
    19  C   4.0    0.04    4.44    4.45   -40.44580    91.04700    30.09011
    20  C   4.0    0.15    3.43    3.09   -38.68080    93.23152    29.47972
    21  O   6.0   -0.29    1.25    1.80   -37.15579    93.95339    31.09166
    22  C   4.0    0.06    4.22    4.05   -42.10876    91.57045    32.42770
    23  O   6.0   -0.24    2.09    1.84   -43.41267    89.30467    33.12123
    24  C   4.0   -0.06    4.06    3.73   -43.98715    93.71529    32.00818
    25  H   1.0    0.09    1.06    1.44   -38.26128    88.81523    32.43715
    26  H   1.0    0.06    1.06    1.44   -41.73271    90.74086    28.51219
    27  H   1.0    0.06    1.05    1.44   -40.88989    92.17894    33.97160
    28  H   1.0    0.13    1.01    1.43   -44.47659    89.61458    34.60466
    29  H   1.0    0.06    1.00    1.43   -45.11343    94.00820    33.70893
    30  H   1.0    0.06    1.00    1.43   -42.97993    95.45573    31.56409
    31  H   1.0    0.06    1.00    1.43   -45.24571    93.25420    30.44537
    32  N   5.0   -0.13    3.42    2.03   -38.82064    94.23496    27.16103
    33  C   4.0    0.04    4.46    4.48   -37.20681    96.35335    26.45805
    34  C   4.0    0.15    3.36    3.07   -38.77907    98.76842    26.04042
    35  O   6.0   -0.30    1.24    1.80   -40.82942    98.65314    24.96517
    36  C   4.0   -0.02    4.23    4.06   -35.40024    95.71084    24.22251
    37  C   4.0   -0.07    4.10    3.81   -36.82887    94.94550    21.83956
    38  C   4.0   -0.07    4.09    3.79   -33.54075    97.84812    23.67449
    39  H   1.0    0.11    1.09    1.44   -40.00928    93.62458    25.77208
    40  H   1.0    0.06    1.08    1.44   -35.99550    96.78231    28.06810
    41  H   1.0    0.05    1.06    1.44   -34.29664    94.07623    24.81588
    42  H   1.0    0.04    1.00    1.43   -35.47016    94.52031    20.35046
    43  H   1.0    0.06    1.00    1.43   -37.96837    93.27876    22.24774
    44  H   1.0    0.05    1.01    1.43   -38.04585    96.50264    21.25753
    45  H   1.0    0.04    1.00    1.43   -32.32943    97.29632    22.10223
    46  H   1.0    0.06    1.00    1.43   -34.59710    99.54698    23.18505
    47  H   1.0    0.05    1.00    1.43   -32.39746    98.19016    25.35445
    48  N   5.0   -0.13    3.45    2.05   -37.83042   100.92648    26.98151
    49  C   4.0    0.04    4.32    4.24   -38.96426   103.42848    26.66025
    50  C   4.0    0.15    3.41    3.08   -38.15357   104.44893    24.08834
    51  O   6.0   -0.31    1.26    1.80   -36.06164   103.85934    23.23607
    52  C   4.0   -0.07    4.12    3.84   -38.04018   105.18215    28.72761
    53  H   1.0    0.08    1.06    1.44   -36.20715   100.99829    28.01897
    54  H   1.0    0.07    1.05    1.44   -41.02028   103.34722    26.76797
    55  H   1.0    0.05    1.00    1.43   -38.89812   107.03597    28.46683
    56  H   1.0    0.05    1.00    1.43   -38.58442   104.40736    30.55687
    57  H   1.0    0.05    1.00    1.43   -35.98983   105.33332    28.61045
    58  N   5.0   -0.13    3.40    2.02   -39.78440   105.96827    22.84868
    59  C   4.0    0.04    4.42    4.42   -39.23449   107.07565    20.34857
    60  C   4.0    0.16    3.35    3.07   -36.84021   108.72916    20.49597
    61  O   6.0   -0.30    1.20    1.80   -36.53974   110.13134    22.34034
    62  C   4.0   -0.02    4.23    4.05   -41.53618   108.47027    19.14103
    63  C   4.0   -0.06    4.10    3.79   -41.02028   109.17892    16.38770
    64  C   4.0   -0.07    4.11    3.82   -43.93991   106.88668    19.30544
    65  H   1.0    0.09    1.06    1.44   -41.51539   106.47094    23.53087
    66  H   1.0    0.06    1.07    1.44   -38.84899   105.51285    19.06356
    67  H   1.0    0.05    1.06    1.44   -41.82530   110.20315    20.21629
    68  H   1.0    0.05    1.00    1.43   -42.67190   110.14457    15.62236
    69  H   1.0    0.07    1.00    1.43   -39.38000   110.42425    16.31211
    70  H   1.0    0.06    1.00    1.43   -40.64989   107.46305    15.31056
    71  H   1.0    0.04    1.00    1.43   -45.49137   107.93170    18.44373
    72  H   1.0    0.04    1.00    1.43   -43.64322   105.11223    18.30200
    73  H   1.0    0.06    1.01    1.43   -44.36132   106.51062    21.28587
    74  N   5.0   -0.14    3.41    2.03   -35.14701   108.45326    18.55522
    75  C   4.0    0.04    4.33    4.25   -32.70360   109.71749    18.16405
    76  C   4.0    0.15    3.35    3.06   -30.58144   108.68192    19.90637
    77  O   6.0   -0.30    1.22    1.80   -28.39691   109.53230    19.74764
    78  C   4.0   -0.02    4.24    4.08   -32.90391   112.63145    18.27365
    79  C   4.0    0.25    3.11    3.03   -34.37600   113.83520    16.10991
    80  O   6.0   -0.28    1.19    1.80   -34.98639   112.48027    14.25987
    81  O   6.0   -0.27    1.17    1.80   -34.87867   116.13689    16.24219
    82  H   1.0    0.12    1.12    1.45   -35.49283   107.23439    17.10202
    83  H   1.0    0.06    1.06    1.44   -32.03841   109.28663    16.26298
    84  H   1.0    0.06    1.03    1.43   -33.84877   113.15490    20.02732
    85  H   1.0    0.05    1.03    1.43   -31.00095   113.41757    18.23586
    86  N   5.0   -0.12    3.37    2.01   -31.18804   106.75251    21.42382
    87  C   4.0    0.02    4.24    4.08   -29.34744   105.53553    23.08489
    88  C   4.0    0.15    3.30    3.05   -27.67693   103.69682    21.65815
    89  O   6.0   -0.29    1.29    1.80   -27.89047   103.47572    19.34701
    90  H   1.0    0.10    1.08    1.44   -32.95304   105.98906    21.54099
    91  H   1.0    0.06    1.03    1.43   -28.14936   106.96983    23.95039
    92  H   1.0    0.05    1.03    1.43   -30.33766   104.50373    24.56833
    93  N   5.0   -0.13    3.40    2.02   -26.02720   102.31921    23.01308
    94  C   4.0    0.04    4.44    4.45   -24.37180   100.41437    21.84901
    95  C   4.0    0.14    3.40    3.08   -24.72139    97.80655    23.03009
    96  O   6.0   -0.29    1.22    1.80   -24.56266    97.56655    25.34311
    97  C   4.0    0.06    4.21    4.02   -21.59957   101.26663    21.92271
    98  O   6.0   -0.25    2.09    1.84   -21.32367   103.46628    20.38258
    99  C   4.0   -0.07    4.08    3.76   -19.76086    99.20872    21.04588
   100  H   1.0    0.09    1.05    1.44   -25.79854   102.48551    24.91982
   101  H   1.0    0.07    1.08    1.44   -24.93115   100.18949    19.87992
   102  H   1.0    0.05    1.05    1.44   -21.09312   101.68615    23.87480
   103  H   1.0    0.11    1.01    1.43   -19.56244   104.03886    20.40715
   104  H   1.0    0.04    1.00    1.43   -17.82578    99.90792    21.13470
   105  H   1.0    0.05    1.00    1.43   -19.92905    97.55143    22.25719
   106  H   1.0    0.06    1.00    1.43   -20.18605    98.66448    19.10513
   107  N   5.0   -0.14    3.41    2.03   -25.13524    95.85824    21.45028
   108  C   4.0    0.04    4.37    4.34   -25.32800    93.24664    22.31766
   109  C   4.0    0.14    3.37    3.07   -23.35134    91.54588    21.07233
   110  O   6.0   -0.31    1.28    1.80   -22.62569    91.96540    18.87836
   111  C   4.0   -0.03    4.29    4.18   -28.01141    92.16571    22.05877
   112  C   4.0   -0.01    3.51    3.12   -29.06776    91.71785    19.43772
   113  C   4.0   -0.04    3.45    3.10   -30.49073    93.56978    18.22452
   114  C   4.0   -0.04    3.45    3.09   -28.82021    89.38215    18.26798
   115  C   4.0   -0.04    3.36    3.07   -31.59433    93.11436    15.85669
   116  C   4.0   -0.04    3.37    3.07   -29.93137    88.92483    15.90582
   117  C   4.0   -0.04    3.36    3.07   -31.32221    90.79377    14.72285
   118  H   1.0    0.11    1.08    1.44   -25.34500    96.05099    19.54355
   119  H   1.0    0.06    1.08    1.44   -24.89147    93.22018    24.33022
   120  H   1.0    0.05    1.04    1.43   -28.04164    90.34402    23.01875
   121  H   1.0    0.05    1.04    1.43   -29.30020    93.47529    22.99041
   122  H   1.0    0.05    1.03    1.43   -30.74962    95.38581    19.12025
   123  H   1.0    0.06    1.03    1.43   -27.76007    87.90060    19.18828
   124  H   1.0    0.05    1.03    1.43   -32.65635    94.58645    14.92506
   125  H   1.0    0.05    1.03    1.43   -29.70082    87.10692    15.00820
   126  H   1.0    0.06    1.03    1.43   -32.19148    90.43095    12.91250
   127  N   5.0   -0.14    3.42    2.03   -22.44239    89.65238    22.50853
   128  C   4.0    0.03    4.36    4.31   -20.59045    87.80423    21.60146
   129  C   4.0    0.07    3.20    3.04   -21.74697    85.14349    21.81878
   130  O   6.0   -0.28    1.12    1.80   -22.83167    84.51232    23.79354
   131  C   4.0   -0.02    4.24    4.09   -18.02232    87.97808    23.00552
   132  C   4.0   -0.07    4.11    3.81   -16.11180    86.12804    21.89625
   133  C   4.0   -0.07    4.10    3.81   -16.95651    90.65771    22.95828
   134  H   1.0    0.09    1.05    1.44   -22.97151    89.35758    24.33778
   135  H   1.0    0.05    1.06    1.44   -20.21818    88.17839    19.60969
   136  H   1.0    0.06    1.06    1.44   -18.35869    87.47163    24.97273
   137  H   1.0    0.05    1.00    1.43   -14.33546    86.30000    22.92427
   138  H   1.0    0.05    1.00    1.43   -16.84691    84.21375    22.08145
   139  H   1.0    0.04    1.00    1.43   -15.81890    86.57779    19.90826
   140  H   1.0    0.05    1.00    1.43   -15.15938    90.68228    23.96550
   141  H   1.0    0.04    1.01    1.43   -16.67305    91.23219    21.00052
   142  H   1.0    0.05    1.00    1.43   -18.29255    91.92761    23.87669
   143  N   5.0   -0.20    3.16    1.95   -19.34323   102.42315     1.88028
   144  C   4.0    0.03    4.20    4.00   -19.98007   102.09055     4.55424
   145  C   4.0    0.08    3.18    3.03   -19.95362    99.31644     5.41218
   146  O   6.0   -0.29    1.13    1.80   -19.59079    98.84967     7.65906
   147  C   4.0   -0.05    4.25    4.10   -22.47640   103.42092     5.26478
   148  C   4.0   -0.04    4.21    4.01   -24.84801   102.26441     4.15362
   149  C   4.0   -0.01    4.23    4.07   -27.19505   103.76107     4.79235
   150  N   5.0   -0.14    3.40    2.02   -29.45327   102.43637     3.91173
   151  C   4.0    0.10    3.35    3.06   -30.76852   100.82255     5.31013
   152  N   5.0   -0.17    3.29    1.98   -30.09767   100.35768     7.67985
   153  N   5.0   -0.17    3.26    1.97   -32.77919    99.67171     4.35582
   154  H   1.0    0.08    1.02    1.43   -20.85502   102.21528     0.70298
   155  H   1.0    0.04    1.06    1.44   -18.54577   103.05620     5.67296
   156  H   1.0    0.06    1.03    1.43   -22.67482   103.37557     7.31513
   157  H   1.0    0.03    1.03    1.43   -22.38002   105.37112     4.60904
   158  H   1.0    0.04    1.03    1.43   -24.67037   102.20016     2.10326
   159  H   1.0    0.05    1.03    1.43   -25.08233   100.35957     4.90006
   160  H   1.0    0.06    1.04    1.43   -27.32733   103.99918     6.83325
   161  H   1.0    0.04    1.03    1.43   -27.11190   105.60167     3.87205
   162  H   1.0    0.07    1.06    1.44   -30.05609   102.77275     2.11271
   163  H   1.0    0.10    1.04    1.43   -28.56321   101.24207     8.43763
   164  H   1.0    0.11    1.06    1.44   -31.11623    99.11424     8.74376
   165  H   1.0    0.09    1.02    1.43   -33.32154   100.02508     2.53979
   166  H   1.0    0.13    1.11    1.44   -33.78452    98.43205     5.43674
   167  N   5.0   -0.19    3.17    1.95   -16.99431    88.23130    12.85392
   168  C   4.0    0.03    4.29    4.18   -17.65193    90.52732    14.26365
   169  C   4.0    0.14    3.39    3.07   -19.31489    92.29799    12.70085
   170  O   6.0   -0.28    1.22    1.80   -18.73852    92.81200    10.48987
   171  C   4.0   -0.04    4.25    4.10   -15.30678    91.90682    15.29355
   172  C   4.0   -0.03    4.25    4.09   -15.94173    94.18583    16.95840
   173  C   4.0    0.15    3.23    3.04   -13.67028    95.78265    17.54422
   174  O   6.0   -0.28    1.21    1.80   -12.14905    96.43838    15.89448
   175  N   5.0   -0.19    3.19    1.95   -13.45107    96.52153    19.91204
   176  H   1.0    0.10    1.02    1.43   -15.93795    88.53933    11.27222
   177  H   1.0    0.04    1.07    1.44   -18.78766    89.95096    15.88126
   178  H   1.0    0.04    1.03    1.43   -14.20507    90.58590    16.42739
   179  H   1.0    0.07    1.03    1.43   -14.18239    92.58145    13.70429
   180  H   1.0    0.05    1.03    1.43   -17.31745    95.36880    15.98141
   181  H   1.0    0.04    1.04    1.44   -16.72785    93.51687    18.74041
   182  H   1.0    0.08    1.03    1.43   -14.77766    96.00375    21.21028
   183  H   1.0    0.10    1.02    1.43   -11.95441    97.61190    20.44683
   184  N   5.0   -0.15    3.42    2.03   -21.39170    93.20317    13.86492
   185  C   4.0    0.04    4.48    4.51   -23.10001    94.97763    12.64227
   186  C   4.0    0.15    3.40    3.08   -23.26820    97.40214    14.17672
   187  O   6.0   -0.31    1.26    1.80   -24.33967    97.38892    16.24408
   188  C   4.0   -0.02    4.33    4.26   -25.72295    93.84190    11.96763
   189  C   4.0   -0.04    4.26    4.11   -25.49807    91.72541    10.00610
   190  C   4.0   -0.06    4.13    3.86   -27.49740    95.87714    10.96797
   191  C   4.0   -0.07    4.08    3.77   -25.50752    89.24420    11.01521
   192  H   1.0    0.11    1.10    1.44   -21.91704    92.72507    15.65638
   193  H   1.0    0.06    1.08    1.44   -22.22507    95.51809    10.85837
   194  H   1.0    0.06    1.06    1.44   -26.49207    93.05011    13.70807
   195  H   1.0    0.05    1.05    1.44   -27.08922    91.86903     8.70597
   196  H   1.0    0.06    1.05    1.44   -23.72740    91.96918     8.98376
   197  H   1.0    0.05    1.00    1.43   -29.31343    95.01920    10.51444
   198  H   1.0    0.06    1.00    1.43   -27.74496    97.32089    12.41550
   199  H   1.0    0.05    1.00    1.43   -26.67348    96.71239     9.27477
   200  H   1.0    0.05    1.01    1.43   -25.33934    87.89115     9.47131
   201  H   1.0    0.05    1.01    1.43   -23.91448    89.03822    12.30401
   202  H   1.0    0.04    1.02    1.43   -27.27441    88.93806    12.02811
   203  N   5.0   -0.13    3.44    2.04   -22.15704    99.46006    13.17328
   204  C   4.0    0.04    4.37    4.32   -22.22129   101.97717    14.31656
   205  C   4.0    0.15    3.39    3.07   -24.55888   103.36801    13.34524
   206  O   6.0   -0.30    1.24    1.80   -25.56232   102.68582    11.34780
   207  C   4.0   -0.05    4.30    4.20   -19.86291   103.52675    13.60603
   208  C   4.0   -0.05    4.18    3.97   -17.43650   102.80298    14.93261
   209  C   4.0   -0.01    4.25    4.09   -15.51654   104.89491    14.61136
   210  N   5.0   -0.14    3.39    2.02   -12.92384   103.94438    14.51499
   211  C   4.0    0.10    3.34    3.06   -10.88104   105.40702    14.52254
   212  N   5.0   -0.18    3.27    1.97   -11.10592   107.90524    14.65105
   213  N   5.0   -0.17    3.23    1.96    -8.59258   104.38468    14.42050
   214  H   1.0    0.10    1.07    1.44   -21.17060    99.42793    11.51788
   215  H   1.0    0.06    1.06    1.44   -22.27042   101.80143    16.36881
   216  H   1.0    0.05    1.03    1.43   -19.53788   103.31132    11.58402
   217  H   1.0    0.04    1.04    1.43   -20.23330   105.50340    14.05389
   218  H   1.0    0.04    1.03    1.43   -17.79366   102.53086    16.94328
   219  H   1.0    0.05    1.03    1.43   -16.67872   101.07199    14.11058
   220  H   1.0    0.04    1.04    1.43   -15.89637   105.89457    12.85014
   221  H   1.0    0.05    1.03    1.43   -15.66205   106.19315    16.20440
   222  H   1.0    0.09    1.06    1.44   -12.66494   102.03575    14.43751
   223  H   1.0    0.08    1.03    1.43   -12.85392   108.71215    14.74553
   224  H   1.0    0.08    1.03    1.43    -9.52989   109.01640    14.65671
   225  H   1.0    0.10    1.02    1.43    -8.39605   102.46850    14.33546
   226  H   1.0    0.09    1.03    1.43    -7.03167   105.51474    14.42617
   227  N   5.0   -0.13    3.40    2.02   -25.36768   105.35789    14.73986
   228  C   4.0    0.04    4.35    4.28   -27.49740   107.05298    14.16539
   229  C   4.0    0.16    3.36    3.07   -29.79342   105.61111    13.12226
   230  O   6.0   -0.29    1.21    1.80   -30.44160   105.85867    10.89049
   231  C   4.0   -0.03    4.29    4.18   -26.65836   109.26773    12.44762
   232  C   4.0   -0.02    3.53    3.13   -24.29999   110.61133    13.36225
   233  C   4.0   -0.04    3.46    3.10   -24.42471   112.46326    15.22363
   234  C   4.0   -0.05    3.47    3.10   -21.94161   110.01984    12.37393
   235  C   4.0   -0.03    3.42    3.08   -22.25341   113.69347    16.07779
   236  C   4.0   -0.05    3.44    3.09   -19.75708   111.22360    13.22052
   237  C   4.0    0.07    3.44    3.09   -19.91960   113.06608    15.06301
   238  O   6.0   -0.22    2.10    1.84   -17.74831   114.23582    15.86992
   239  H   1.0    0.09    1.06    1.44   -24.51730   105.86812    16.39337
   240  H   1.0    0.06    1.08    1.44   -28.14369   107.91091    15.92283
   241  H   1.0    0.05    1.03    1.43   -26.27097   108.53263    10.56168
   242  H   1.0    0.05    1.03    1.43   -28.17959   110.65479    12.36448
   243  H   1.0    0.06    1.03    1.43   -26.23507   112.95837    16.02299
   244  H   1.0    0.04    1.03    1.43   -21.79799   108.59688    10.91884
   245  H   1.0    0.07    1.03    1.43   -22.38947   115.12777    17.52343
   246  H   1.0    0.04    1.03    1.43   -17.94106   110.71715    12.43818
   247  H   1.0    0.12    1.04    1.43   -16.28755   113.56119    14.95340
   248  N   5.0   -0.13    3.39    2.02   -30.93859   104.01996    14.76443
   249  C   4.0    0.04    4.30    4.19   -33.02674   102.29276    14.17105
   250  C   4.0    0.16    3.35    3.06   -35.52496   103.56454    13.39060
   251  O   6.0   -0.32    1.29    1.80   -36.53596   105.14057    14.76065
   252  C   4.0   -0.07    4.10    3.81   -33.46327   100.47862    16.35369
   253  H   1.0    0.11    1.09    1.44   -30.42459   103.88768    16.61636
   254  H   1.0    0.06    1.07    1.44   -32.42014   101.25908    12.49676
   255  H   1.0    0.05    1.00    1.43   -35.01662    99.21439    15.87370
   256  H   1.0    0.05    1.00    1.43   -31.74551    99.38825    16.67305
   257  H   1.0    0.06    1.00    1.43   -33.93381   101.56143    18.04121
   258  N   5.0   -0.12    3.44    2.04   -36.49061   102.83889    11.15127
   259  C   4.0    0.03    4.35    4.29   -38.87922   103.72328    10.06090
   260  C   4.0    0.14    3.39    3.07   -41.02973   102.05465    11.05301
   261  O   6.0   -0.31    1.26    1.80   -40.56864    99.99107    12.04322
   262  C   4.0   -0.05    4.26    4.11   -38.82442   103.56454     7.14316
   263  C   4.0   -0.04    4.16    3.92   -36.89879   105.28230     5.84303
   264  C   4.0   -0.05    4.16    3.93   -37.16902   105.28986     2.95364
   265  C   4.0   -0.04    4.12    3.85   -39.17969   107.07187     1.95776
   266  N   5.0   -0.12    4.00    2.87   -38.44836   109.77418     2.23555
   267  H   1.0    0.10    1.08    1.44   -35.60811   101.57277     9.99665
   268  H   1.0    0.05    1.05    1.44   -39.19859   105.69048    10.58436
   269  H   1.0    0.05    1.03    1.43   -38.37844   101.62568     6.60837
   270  H   1.0    0.04    1.03    1.43   -40.68769   104.08044     6.43074
   271  H   1.0    0.05    1.03    1.43   -37.16146   107.21360     6.51200
   272  H   1.0    0.05    1.03    1.43   -34.99961   104.63035     6.30224
   273  H   1.0    0.04    1.03    1.43   -35.37000   105.85678     2.12594
   274  H   1.0    0.04    1.03    1.43   -37.66224   103.38880     2.33381
   275  H   1.0    0.05    1.02    1.43   -39.48393   106.69393    -0.04346
   276  H   1.0    0.04    1.02    1.43   -40.92768   106.77141     3.00655
   277  H   1.0    0.06    1.01    1.43   -39.87322   110.93258     1.53257
   278  H   1.0    0.06    1.02    1.43   -38.15735   110.19937     4.13283
   279  H   1.0    0.06    1.02    1.43   -36.79107   110.12756     1.24155
   280  N   5.0   -0.16    3.42    2.03   -43.38055   102.94471    10.73931
   281  C   4.0    0.03    4.30    4.20   -45.67279   101.61245    11.51410
   282  C   4.0    0.08    3.23    3.04   -46.00160    99.22195     9.93618
   283  O   6.0   -0.27    1.12    1.80   -46.86142    97.29632    10.90561
   284  C   4.0   -0.05    4.39    4.36   -47.95558   103.36045    11.17773
   285  C   4.0   -0.02    4.21    4.02   -50.13632   102.96739    12.97297
   286  C   4.0   -0.07    4.11    3.83   -49.51460   103.97839    15.59969
   287  C   4.0   -0.07    4.12    3.84   -52.49281   104.23350    11.96385
   288  H   1.0    0.07    1.07    1.44   -43.76983   104.64735     9.92295
   289  H   1.0    0.05    1.06    1.44   -45.56129   101.08900    13.50209
   290  H   1.0    0.04    1.04    1.43   -47.31307   105.30309    11.42150
   291  H   1.0    0.05    1.04    1.43   -48.68690   103.09400     9.27100
   292  H   1.0    0.06    1.06    1.44   -50.49159   100.94538    13.14115
   293  H   1.0    0.05    1.00    1.43   -51.12843   103.66281    16.83935
   294  H   1.0    0.05    1.00    1.43   -47.86487   102.98440    16.32723
   295  H   1.0    0.04    1.00    1.43   -49.11587   105.99473    15.46552
   296  H   1.0    0.05    1.00    1.43   -54.03860   103.92548    13.28855
   297  H   1.0    0.04    1.00    1.43   -52.13376   106.25173    11.75976
   298  H   1.0    0.05    1.00    1.43   -52.96335   103.41336    10.13271
   299  N   5.0   -0.19    3.19    1.95   -41.73838    95.53132     8.11070
   300  C   4.0    0.04    4.22    4.04   -39.84298    93.62647     8.76833
   301  C   4.0    0.09    3.19    3.04   -41.03162    91.53077    10.35381
   302  O   6.0   -0.27    1.12    1.80   -39.77684    89.65994    10.94340
   303  C   4.0   -0.02    4.27    4.14   -37.58287    94.80377    10.16673
   304  C   4.0    0.24    3.14    3.03   -35.72338    96.22862     8.49999
   305  O   6.0   -0.30    1.25    1.80   -35.51362    95.58234     6.22476
   306  O   6.0   -0.33    1.26    1.80   -34.40246    97.92182     9.48831
   307  H   1.0    0.11    1.04    1.43   -41.71381    97.06577     9.27666
   308  H   1.0    0.07    1.06    1.44   -39.04930    92.81767     7.04868
   309  H   1.0    0.06    1.04    1.43   -38.30286    96.13603    11.56323
   310  H   1.0    0.06    1.03    1.43   -36.53785    93.29577    11.10403
   311  N   5.0   -0.19    3.21    1.96   -40.82564    82.02167    19.49252
   312  C   4.0    0.03    4.35    4.30   -40.04707    84.53878    20.33345
   313  C   4.0    0.15    3.37    3.07   -42.19380    86.38882    19.76653
   314  O   6.0   -0.27    1.22    1.80   -42.95725    86.63638    17.58012
   315  C   4.0   -0.02    4.25    4.10   -37.44492    85.33435    19.17505
   316  C   4.0   -0.05    4.12    3.84   -35.40024    83.24243    19.45095
   317  C   4.0   -0.07    4.07    3.75   -36.49628    87.87604    20.18605
   318  C   4.0   -0.07    3.94    3.53   -34.93347    82.11048    22.18916
   319  H   1.0    0.10    1.02    1.43   -40.96737    81.87238    17.57634
   320  H   1.0    0.05    1.06    1.44   -39.80141    84.55201    22.37813
   321  H   1.0    0.06    1.06    1.44   -37.79830    85.58002    17.16060
   322  H   1.0    0.05    1.02    1.43   -35.94259    81.66640    18.24152
   323  H   1.0    0.04    1.02    1.43   -33.60500    84.02855    18.81978
   324  H   1.0    0.04    1.00    1.43   -34.68592    88.31445    19.30733
   325  H   1.0    0.05    1.00    1.43   -37.87200    89.33679    19.72496
   326  H   1.0    0.05    1.00    1.43   -36.27140    87.74376    22.22885
   327  H   1.0    0.05    0.99    1.43   -33.45760    80.67807    22.07956
   328  H   1.0    0.04    1.00    1.43   -34.34577    83.62793    23.45150
   329  H   1.0    0.05    0.99    1.43   -36.68336    81.26577    22.87324
   330  N   5.0   -0.13    3.41    2.03   -43.22559    87.58124    21.76019
   331  C   4.0    0.04    4.36    4.31   -45.26839    89.43317    21.58256
   332  C   4.0    0.15    3.38    3.07   -44.19502    92.09957    21.99452
   333  O   6.0   -0.31    1.27    1.80   -42.50183    92.46807    23.55921
   334  C   4.0   -0.03    4.22    4.05   -47.38299    88.79255    23.49496
   335  C   4.0   -0.03    4.18    3.96   -49.73759    90.46118    23.39103
   336  C   4.0    0.25    3.10    3.02   -51.72936    89.91127    21.39737
   337  O   6.0   -0.25    1.17    1.80   -52.22258    87.65494    20.87958
   338  O   6.0   -0.26    1.17    1.80   -52.92933    91.73864    20.48652
   339  H   1.0    0.10    1.06    1.44   -42.65489    87.28266    23.57622
   340  H   1.0    0.07    1.06    1.44   -46.12065    89.41805    19.70795
   341  H   1.0    0.07    1.03    1.43   -47.99526    86.85558    23.15103
   342  H   1.0    0.05    1.03    1.43   -46.60442    88.95885    25.39414
   343  H   1.0    0.06    1.03    1.43   -50.68434    90.31567    25.21461
   344  H   1.0    0.06    1.04    1.43   -49.11398    92.39815    23.07166
   345  N   5.0   -0.14    3.42    2.03   -45.17390    93.93450    20.55833
   346  C   4.0    0.04    4.44    4.44   -44.35754    96.56500    20.71896
   347  C   4.0    0.14    3.36    3.07   -46.65544    98.35646    20.86824
   348  O   6.0   -0.29    1.20    1.80   -48.11053    98.57944    19.05978
   349  C   4.0   -0.01    4.23    4.06   -42.39600    97.27742    18.63837
   350  C   4.0   -0.05    4.10    3.81   -43.04607    96.13792    16.07212
   351  C   4.0   -0.06    4.10    3.80   -41.93491   100.12335    18.46640
   352  H   1.0    0.09    1.06    1.44   -46.55718    93.64159    19.24875
   353  H   1.0    0.07    1.09    1.44   -43.42968    96.83523    22.53876
   354  H   1.0    0.04    1.07    1.44   -40.60832    96.43460    19.21851
   355  H   1.0    0.06    1.01    1.43   -41.61177    96.70106    14.70585
   356  H   1.0    0.06    1.00    1.43   -43.08764    94.08568    16.24030
   357  H   1.0    0.07    1.00    1.43   -44.89233    96.83145    15.47875
   358  H   1.0    0.06    1.00    1.43   -40.55163   100.48996    16.98486
   359  H   1.0    0.05    1.00    1.43   -43.71125   101.06443    18.01854
   360  H   1.0    0.06    1.00    1.43   -41.22059   100.79798    20.27676
   361  N   5.0   -0.13    3.42    2.03   -46.98048    99.57533    23.08867
   362  C   4.0    0.03    4.35    4.30   -49.01760   101.37435    23.65748
   363  C   4.0    0.15    3.36    3.07   -47.91589   104.00674    24.17715
   364  O   6.0   -0.29    1.23    1.80   -45.70680   104.21083    24.89525
   365  C   4.0   -0.03    4.25    4.11   -50.61253   100.45783    25.90814
   366  C   4.0   -0.03    4.22    4.05   -52.22636    98.13536    25.32233
   367  C   4.0    0.16    3.22    3.04   -53.87609    97.36624    27.51630
   368  O   6.0   -0.27    1.20    1.80   -52.96902    96.63870    29.54398
   369  N   5.0   -0.17    3.18    1.95   -56.34596    97.44561    27.13269
   370  H   1.0    0.10    1.06    1.44   -45.79940    99.33344    24.59100
   371  H   1.0    0.05    1.06    1.44   -50.26482   101.54820    22.02665
   372  H   1.0    0.07    1.03    1.43   -49.34830    99.97028    27.45961
   373  H   1.0    0.06    1.03    1.43   -51.88054   101.97528    26.48262
   374  H   1.0    0.05    1.04    1.43   -53.45090    98.55299    23.71984
   375  H   1.0    0.06    1.03    1.43   -50.98859    96.55366    24.86879
   376  H   1.0    0.09    1.03    1.43   -57.03760    98.00497    25.42248
   377  H   1.0    0.11    1.02    1.43   -57.55727    96.94672    28.54620
   378  N   5.0   -0.13    3.40    2.02   -49.44846   106.01552    23.79165
   379  C   4.0    0.03    4.22    4.04   -48.66989   108.65168    24.17148
   380  C   4.0    0.09    3.18    3.03   -48.56596   109.39435    26.97584
   381  O   6.0   -0.26    1.13    1.80   -49.22925   107.86556    28.60289
   382  C   4.0   -0.07    4.09    3.79   -50.40277   110.41858    22.70317
   383  H   1.0    0.07    1.06    1.44   -51.27771   105.85867    23.20394
   384  H   1.0    0.04    1.06    1.44   -46.74993   108.82176    23.44583
   385  H   1.0    0.05    1.00    1.43   -49.79428   112.36310    23.00930
   386  H   1.0    0.04    1.00    1.43   -50.29128   109.95559    20.70006
   387  H   1.0    0.05    1.00    1.43   -52.33407   110.17291    23.37402
   388  O   6.0   -0.35    1.99    1.83   -42.59631   101.28931    31.08221
   389  H   1.0    0.15    1.02    1.43   -41.72137   101.68615    32.34644
   390  H   1.0    0.16    1.02    1.43   -43.83219   102.28331    31.05009
   391  N   5.0   -0.18    3.21    1.96   -19.40682   119.25833     6.30917
   392  C   4.0    0.03    4.27    4.14   -19.65156   119.14434     9.05872
   393  C   4.0    0.15    3.33    3.06   -17.04569   118.95999    10.39286
   394  O   6.0   -0.27    1.21    1.80   -16.55789   120.38691    12.17487
   395  C   4.0   -0.05    4.23    4.07   -21.42881   116.96934     9.80138
   396  C   4.0   -0.05    4.17    3.93   -24.03504   117.02079     8.47479
   397  C   4.0   -0.01    4.20    4.00   -25.97501   118.83473     9.58973
   398  N   5.0   -0.14    3.39    2.02   -26.67253   118.15950    12.18054
   399  C   4.0    0.10    3.35    3.06   -25.65024   119.18183    14.23657
   400  N   5.0   -0.17    3.27    1.97   -23.88370   120.95278    14.02870
   401  N   5.0   -0.18    3.24    1.96   -26.38228   118.43925    16.51369
   402  H   1.0    0.10    1.04    1.43   -19.46316   117.50157     5.51926
   403  H   1.0    0.05    1.06    1.44   -20.52609   120.87993     9.74091
   404  H   1.0    0.04    1.03    1.43   -20.52074   115.18601     9.31572
   405  H   1.0    0.06    1.03    1.43   -21.76289   117.05966    11.83094
   406  H   1.0    0.05    1.03    1.43   -23.74993   117.56753     6.50948
   407  H   1.0    0.04    1.03    1.43   -24.84533   115.12979     8.56928
   408  H   1.0    0.05    1.04    1.43   -25.18601   120.73801     9.61430
   409  H   1.0    0.05    1.02    1.43   -27.68088   118.79404     8.43511
   410  H   1.0    0.08    1.06    1.44   -28.03331   116.81545    12.42432
   411  H   1.0    0.09    1.04    1.43   -23.30425   121.53689    12.28448
   412  H   1.0    0.10    1.02    1.43   -23.10720   121.73079    15.61229
   413  H   1.0    0.09    1.02    1.43   -27.73564   117.07782    16.69510
   414  H   1.0    0.09    1.03    1.43   -25.59237   119.22915    18.08405
   415  N   5.0   -0.13    3.44    2.04   -15.39623   117.22867     9.52737
   416  C   4.0    0.04    4.30    4.19   -12.83188   116.93083    10.49680
   417  C   4.0    0.09    3.22    3.04   -11.07686   117.32500     8.24802
   418  O   6.0   -0.28    1.18    1.80   -11.36553   116.08423     6.29405
   419  C   4.0   -0.04    4.24    4.08   -12.44289   114.32779    11.73835
   420  C   4.0   -0.03    4.22    4.03    -9.93746   114.06396    13.17265
   421  C   4.0    0.15    3.22    3.04    -9.80089   115.67621    15.52725
   422  O   6.0   -0.27    1.20    1.80   -11.11014   115.21888    17.40564
   423  N   5.0   -0.17    3.18    1.95    -8.17627   117.57929    15.48378
   424  H   1.0    0.10    1.06    1.44   -15.81220   115.98285     8.11763
   425  H   1.0    0.06    1.06    1.44   -12.41618   118.32737    11.95189
   426  H   1.0    0.05    1.04    1.43   -13.97024   114.00292    13.08194
   427  H   1.0    0.04    1.03    1.43   -12.47792   112.88384    10.27003
   428  H   1.0    0.05    1.04    1.43    -9.69823   112.09726    13.73957
   429  H   1.0    0.05    1.04    1.43    -8.39637   114.63183    11.92921
   430  H   1.0    0.09    1.03    1.43    -7.10089   117.89234    13.91531
   431  H   1.0    0.11    1.02    1.43    -8.00120   118.73290    17.01824
   432  N   5.0   -0.18    3.21    1.96   -12.50928   111.47270     3.77882
   433  C   4.0    0.03    4.30    4.19   -15.05588   110.38778     3.93378
   434  C   4.0    0.08    3.23    3.04   -16.96403   112.29463     2.89443
   435  O   6.0   -0.28    1.14    1.80   -17.01861   114.46020     3.76559
   436  C   4.0   -0.02    4.27    4.13   -15.71586   109.56213     6.65687
   437  C   4.0   -0.08    4.13    3.86   -18.48099   108.82813     6.87041
   438  C   4.0   -0.08    4.11    3.82   -14.03645   107.39893     7.52426
   439  H   1.0    0.13    1.07    1.44   -12.30933   113.05490     4.86163
   440  H   1.0    0.04    1.06    1.44   -15.14952   108.72892     2.71680
   441  H   1.0    0.04    1.06    1.44   -15.37985   111.16834     7.90220
   442  H   1.0    0.03    1.00    1.43   -18.87496   108.25914     8.81116
   443  H   1.0    0.04    1.01    1.43   -19.64597   110.44994     6.36208
   444  H   1.0    0.03    1.00    1.43   -18.85948   107.26172     5.58729
   445  H   1.0    0.04    1.00    1.43   -14.55821   106.87317     9.44611
   446  H   1.0    0.05    1.00    1.43   -14.30377   105.79452     6.26003
   447  H   1.0    0.05    1.00    1.43   -12.07089   108.01414     7.47324
   448  N   5.0   -0.18    3.22    1.96   -24.90866   113.53854     0.30740
   449  C   4.0    0.04    4.27    4.14   -27.53658   112.72095     0.34141
   450  C   4.0    0.09    3.21    3.04   -29.05005   113.88279    -1.80343
   451  O   6.0   -0.25    1.13    1.80   -28.58146   116.04744    -2.53664
   452  C   4.0    0.05    4.22    4.04   -28.74999   113.31023     2.91333
   453  O   6.0   -0.23    2.09    1.84   -28.77281   115.97680     3.35552
   454  C   4.0   -0.08    4.07    3.74   -27.46557   111.92932     5.09218
   455  H   1.0    0.11    1.03    1.43   -24.70528   115.41771     0.68534
   456  H   1.0    0.03    1.06    1.44   -27.61221   110.68511     0.03905
   457  H   1.0    0.04    1.05    1.44   -30.69335   112.62766     2.86797
   458  H   1.0    0.12    1.01    1.43   -29.54774   116.33911     4.99770
   459  H   1.0    0.04    1.00    1.43   -28.38860   112.40550     6.87041
   460  H   1.0    0.04    1.00    1.43   -27.58269   109.89343     4.80305
   461  H   1.0    0.04    1.00    1.43   -25.48297   112.47578     5.20179
   462  N   5.0   -0.13    3.40    2.02   -35.71697   110.29109    36.96808
   463  C   4.0    0.03    4.36    4.32   -34.39165   107.82827    37.00398
   464  C   4.0    0.08    3.17    3.03   -31.94167   107.79720    38.55923
   465  O   6.0   -0.25    1.13    1.80   -31.15025   109.76891    39.51165
   466  C   4.0   -0.04    4.36    4.30   -33.91530   107.31540    34.19018
   467  C   4.0   -0.04    4.30    4.19   -33.58176   109.89623    33.08847
   468  C   4.0   -0.00    4.26    4.11   -35.48018   111.51380    34.46797
   469  H   1.0    0.04    1.05    1.44   -35.61750   106.36267    37.77499
   470  H   1.0    0.04    1.03    1.43   -32.21681   106.17548    33.95208
   471  H   1.0    0.04    1.03    1.43   -35.53270   106.35081    33.35681
   472  H   1.0    0.05    1.03    1.43   -31.66051   110.56320    33.42106
   473  H   1.0    0.04    1.03    1.43   -33.97361   109.85626    31.06646
   474  H   1.0    0.05    1.02    1.43   -34.78528   113.44305    34.66450
   475  H   1.0    0.04    1.02    1.43   -37.28947   111.51319    33.48342
   476  N   5.0   -0.16    3.40    2.02   -30.55184   116.87518    28.42841
   477  C   4.0    0.03    4.35    4.30   -31.57063   118.74643    26.61805
   478  C   4.0    0.09    3.16    3.03   -32.79707   121.09326    27.82369
   479  O   6.0   -0.26    1.11    1.80   -33.11483   123.00709    26.54057
   480  C   4.0   -0.03    4.36    4.32   -33.49385   117.21433    25.08170
   481  C   4.0   -0.04    4.31    4.21   -32.83016   114.50506    25.54280
   482  C   4.0   -0.01    4.29    4.18   -31.89333   114.44205    28.19030
   483  H   1.0    0.05    1.05    1.44   -30.05010   119.38073    25.38217
   484  H   1.0    0.05    1.03    1.43   -35.40116   117.62598    25.74122
   485  H   1.0    0.05    1.02    1.43   -33.32347   117.68329    23.08237
   486  H   1.0    0.06    1.03    1.43   -34.50126   113.32272    25.32359
   487  H   1.0    0.05    1.03    1.43   -31.36342   113.90481    24.22566
   488  H   1.0    0.04    1.02    1.43   -33.45959   114.32949    29.52445
   489  H   1.0    0.04    1.02    1.43   -30.60746   112.85956    28.47943
   490  H   1.0    0.10    1.07    1.44   -20.68311   120.17835     5.66325
   491  H   1.0    0.06    1.04    1.43    -9.68119   118.59495     8.34991
   492  H   1.0    0.09    1.08    1.44   -35.01146    82.03290    28.39817
   493  H   1.0    0.05    1.04    1.43   -21.61961    83.93667    20.37018
   494  H   1.0    0.09    1.07    1.44   -18.71660   103.98526     1.63596
   495  H   1.0    0.06    1.04    1.43   -20.22803    97.93509     4.15216
   496  H   1.0    0.09    1.07    1.44   -16.09496    87.18959    13.85320
   497  H   1.0    0.06    1.04    1.44   -45.51679    99.22131     8.10970
   498  H   1.0    0.10    1.07    1.44   -41.45924    96.08710     6.52775
   499  H   1.0    0.07    1.04    1.44   -42.83028    91.67519    10.91509
   500  H   1.0    0.09    1.07    1.44   -39.68685    80.87129    20.01439
   501  H   1.0    0.06    1.04    1.43   -47.96157   111.11347    27.47623
   502  H   1.0    0.10    1.07    1.44   -11.37094   110.32785     4.31368
   503  H   1.0    0.05    1.04    1.43   -18.15592   111.78494     1.51941
   504  H   1.0    0.09    1.07    1.44   -24.03038   112.67556     1.48062
   505  H   1.0    0.06    1.04    1.43   -30.43296   112.89355    -2.62807
   506  H   1.0    0.09    1.10    1.44   -37.27671   110.10601    37.62040
   507  H   1.0    0.06    1.04    1.43   -30.99359   106.17983    38.79652
   508  H   1.0    0.09    1.11    1.45   -28.88228   116.68316    28.16715
   509  H   1.0    0.06    1.04    1.43   -33.32901   121.05532    29.63661

  Z AO/shell   Hii/eV     exponent
  1     Wed Apr 25 08:07:45 CEST 2018   EN: 2.200 GM2: 0.406  GM3: 0.0800  RAES: 1.40
     1s    -10.707211    1.230000
  6     Wed Apr 25 08:07:45 CEST 2018   EN: 2.550 GM2: 0.538  GM3: 0.1500  RAES: 3.00
     2s    -13.970922    2.096432
     2p    -10.063292    1.800000
  7     Wed Apr 25 08:07:45 CEST 2018   EN: 3.040 GM2: 0.461  GM3:-0.0640  RAES: 1.90
     2s    -16.686243    2.339881
     2p    -12.523956    2.014332
  8     Wed Apr 25 08:07:45 CEST 2018   EN: 3.440 GM2: 0.452  GM3:-0.0517  RAES: 1.80
     2s    -20.229985    2.439742
     2p    -15.503117    2.137023
 no old-style atom pair restraining (fixing) potential

molecular fragmentation (1/2 indicates fragments):
111111111111111111111111111111111111111111111111111111111111111111111111
111111111111111111111111111111111111111111111111111111111111111111111122
222222222222222222222222222222222222222222222222222222222222222222222222
222222222222222222222222222222222222222222222222222222222222222222222222
222222222222222222222222222222222222222222222222222222222222222222222222
222222222222222222222222222222222222222222222222222222222222222222222222
222222222222222222222222222222222222222222222222222222222221122222222222
22222
# atoms in fragment 1/2:   144   365
 fragment masses (1/2) :     1019.14     2401.91
CMA distance (Bohr)    :  10.498
constraining FC (au)   :  0.0500
           ------------------------------------------------- 
          |        Self-Consistent Charge Iterations        |
           ------------------------------------------------- 

 Ncao       : 1229
 Nao        : 1229
 Nshell     : 749
 Nel        : 1362
 T(el)      :   500.0
 intcut     :    35.0
 scfconv/Eh :  0.100E-06
   qconv/e  :  0.100E-04
 intneglect :  0.100E-08
 broydamp   :      0.400
 iter      E             dE          RMSdq      gap      omega  full diag
   1   -779.1493052 -0.779149E+03  0.464E+00    3.29       0.0  T
   2   -781.1627431 -0.201344E+01  0.213E+00    1.27       1.0  T
   3   -781.3002294 -0.137486E+00  0.125E+00    1.45       1.0  T
   4   -781.4283059 -0.128077E+00  0.264E-01    0.96       1.0  T
   5   -781.4358826 -0.757666E-02  0.129E-01    1.15       1.0  T
   6   -781.4372907 -0.140810E-02  0.547E-02    1.12       1.0  T
   7   -781.4376226 -0.331937E-03  0.244E-02    1.11       1.0  T
   8   -781.4376651 -0.425371E-04  0.127E-02    1.11       1.0  T
   9   -781.4376885 -0.233906E-04  0.559E-03    1.11       1.0  T
  10   -781.4376921 -0.359475E-05  0.265E-03    1.11       1.7  T
  11   -781.4376930 -0.877241E-06  0.118E-03    1.11       3.8  T
  12   -781.4376932 -0.143167E-06  0.526E-04    1.11       8.4  T
  13   -781.4376932 -0.435853E-07  0.263E-04    1.11      16.8  T
  14   -781.4376932 -0.663704E-08  0.125E-04    1.11      35.3  T
  15   -781.4376932 -0.249895E-08  0.489E-05    1.11      90.7  T
  16   -781.4376932 -0.295472E-09  0.230E-05    1.11     192.4  T
speedup  1.91
cpu  time for SCC   36.33 s
wall time for SCC   19.01 s

   *** convergence criteria satisfied after 16 iterations ***

          eigenvalues
 #    :         669        670        671        672        673        674        675        676
 occ. :        2.000      2.000      2.000      2.000      2.000      2.000      2.000      2.000
 eps  :       -10.173    -10.144    -10.112    -10.083    -10.041    -10.008     -9.946     -9.907
 #    :         677        678        679        680        681        682        683        684
 occ. :        2.000      2.000      2.000      2.000      2.000      0.000      0.000      0.000
 eps  :        -9.878     -9.813     -9.761     -9.592     -9.487     -8.378     -8.189     -8.123
 #    :         685        686        687        688        689        690        691        692
 occ. :        0.000      0.000      0.000      0.000      0.000      0.000      0.000      0.000
 eps  :        -7.905     -7.791     -7.744     -7.695     -7.682     -7.660     -7.649     -6.766


   #   Z            q   n(s)   n(p)   n(d)      C6AA      α(0)
   1   7 N     -0.386  1.332  4.053  0.000    29.976     8.131
   2   6 C      0.023  1.059  2.918  0.000    20.198     6.401
   3   6 C      0.272  1.043  2.686  0.000    22.410     7.752
   4   8 O     -0.505  1.751  4.753  0.000    23.885     6.553
   5   6 C     -0.064  1.052  3.012  0.000    21.713     6.633
   6   6 C     -0.084  1.048  3.037  0.000    22.100     6.692
   7   6 C      0.283  1.038  2.679  0.000    22.199     7.715
   8   8 O     -0.519  1.759  4.760  0.000    24.209     6.597
   9   7 N     -0.271  1.267  4.004  0.000    27.006     7.718
  10   1 H      0.152  0.848  0.000  0.000     1.387     1.845
  11   1 H      0.055  0.945  0.000  0.000     2.260     2.351
  12   1 H      0.045  0.955  0.000  0.000     2.378     2.411
  13   1 H      0.062  0.938  0.000  0.000     2.177     2.307
  14   1 H      0.059  0.941  0.000  0.000     2.214     2.327
  15   1 H      0.049  0.951  0.000  0.000     2.329     2.386
  16   1 H      0.228  0.772  0.000  0.000     0.976     1.547
  17   1 H      0.238  0.762  0.000  0.000     0.932     1.512
  18   7 N     -0.168  1.244  3.924  0.000    24.633     7.371
  19   6 C      0.023  1.057  2.919  0.000    20.188     6.398
  20   6 C      0.268  1.045  2.687  0.000    22.471     7.763
  21   8 O     -0.494  1.741  4.753  0.000    23.651     6.520
  22   6 C      0.114  1.047  2.839  0.000    18.815     6.193
  23   8 O     -0.495  1.738  4.758  0.000    22.796     6.445
  24   6 C     -0.130  1.045  3.085  0.000    23.061     6.849
  25   1 H      0.214  0.786  0.000  0.000     1.037     1.595
  26   1 H      0.061  0.939  0.000  0.000     2.191     2.315
  27   1 H      0.041  0.959  0.000  0.000     2.432     2.439
  28   1 H      0.348  0.652  0.000  0.000     0.594     1.211
  29   1 H      0.071  0.929  0.000  0.000     2.077     2.254
  30   1 H      0.050  0.950  0.000  0.000     2.314     2.379
  31   1 H      0.043  0.957  0.000  0.000     2.408     2.426
  32   7 N     -0.172  1.251  3.921  0.000    24.731     7.386
  33   6 C      0.013  1.065  2.922  0.000    20.363     6.426
  34   6 C      0.276  1.045  2.679  0.000    22.332     7.738
  35   8 O     -0.490  1.749  4.742  0.000    23.571     6.509
  36   6 C     -0.014  1.062  2.952  0.000    20.793     6.486
  37   6 C     -0.110  1.038  3.071  0.000    22.656     6.787
  38   6 C     -0.121  1.044  3.077  0.000    22.881     6.821
  39   1 H      0.227  0.773  0.000  0.000     0.977     1.548
  40   1 H      0.074  0.926  0.000  0.000     2.042     2.235
  41   1 H      0.040  0.960  0.000  0.000     2.447     2.446
  42   1 H      0.048  0.952  0.000  0.000     2.346     2.395
  43   1 H      0.035  0.965  0.000  0.000     2.520     2.483
  44   1 H      0.042  0.958  0.000  0.000     2.422     2.434
  45   1 H      0.055  0.945  0.000  0.000     2.256     2.349
  46   1 H      0.053  0.947  0.000  0.000     2.279     2.361
  47   1 H      0.050  0.950  0.000  0.000     2.321     2.383
  48   7 N     -0.165  1.244  3.921  0.000    24.569     7.362
  49   6 C      0.024  1.055  2.921  0.000    20.187     6.399
  50   6 C      0.273  1.049  2.678  0.000    22.385     7.748
  51   8 O     -0.500  1.741  4.759  0.000    23.792     6.540
  52   6 C     -0.128  1.044  3.083  0.000    23.001     6.838
  53   1 H      0.214  0.786  0.000  0.000     1.039     1.597
  54   1 H      0.082  0.918  0.000  0.000     1.958     2.188
  55   1 H      0.073  0.927  0.000  0.000     2.055     2.242
  56   1 H      0.076  0.924  0.000  0.000     2.022     2.224
  57   1 H      0.067  0.933  0.000  0.000     2.118     2.276
  58   7 N     -0.175  1.253  3.922  0.000    24.793     7.395
  59   6 C      0.020  1.069  2.911  0.000    20.257     6.411
  60   6 C      0.279  1.050  2.670  0.000    22.273     7.727
  61   8 O     -0.499  1.751  4.748  0.000    23.754     6.535
  62   6 C     -0.017  1.063  2.954  0.000    20.842     6.494
  63   6 C     -0.121  1.044  3.077  0.000    22.870     6.819
  64   6 C     -0.123  1.046  3.078  0.000    22.925     6.827
  65   1 H      0.208  0.792  0.000  0.000     1.068     1.619
  66   1 H      0.058  0.942  0.000  0.000     2.221     2.330
  67   1 H      0.040  0.960  0.000  0.000     2.455     2.450
  68   1 H      0.070  0.930  0.000  0.000     2.083     2.257
  69   1 H      0.038  0.962  0.000  0.000     2.475     2.460
  70   1 H      0.056  0.944  0.000  0.000     2.241     2.341
  71   1 H      0.070  0.930  0.000  0.000     2.081     2.256
  72   1 H      0.043  0.957  0.000  0.000     2.411     2.428
  73   1 H      0.041  0.959  0.000  0.000     2.437     2.441
  74   7 N     -0.213  1.266  3.947  0.000    25.635     7.520
  75   6 C      0.038  1.062  2.900  0.000    19.964     6.365
  76   6 C      0.262  1.054  2.684  0.000    22.579     7.781
  77   8 O     -0.481  1.740  4.741  0.000    23.359     6.480
  78   6 C     -0.086  1.063  3.023  0.000    22.143     6.700
  79   6 C      0.367  1.021  2.612  0.000    20.781     7.460
  80   8 O     -0.637  1.768  4.869  0.000    27.037     6.971
  81   8 O     -0.645  1.772  4.873  0.000    27.258     7.000
  82   1 H      0.231  0.769  0.000  0.000     0.960     1.535
  83   1 H      0.067  0.933  0.000  0.000     2.122     2.278
  84   1 H      0.036  0.964  0.000  0.000     2.505     2.475
  85   1 H      0.044  0.956  0.000  0.000     2.397     2.421
  86   7 N     -0.154  1.232  3.922  0.000    24.326     7.325
  87   6 C     -0.030  1.048  2.983  0.000    21.191     6.567
  88   6 C      0.278  1.040  2.682  0.000    22.300     7.732
  89   8 O     -0.474  1.739  4.735  0.000    23.216     6.460
  90   1 H      0.197  0.803  0.000  0.000     1.121     1.658
  91   1 H      0.106  0.894  0.000  0.000     1.731     2.057
  92   1 H      0.082  0.918  0.000  0.000     1.958     2.188
  93   7 N     -0.168  1.242  3.926  0.000    24.627     7.370
  94   6 C      0.008  1.061  2.931  0.000    20.460     6.442
  95   6 C      0.267  1.046  2.687  0.000    22.498     7.767
  96   8 O     -0.493  1.752  4.741  0.000    23.621     6.516
  97   6 C      0.111  1.045  2.844  0.000    18.859     6.201
  98   8 O     -0.480  1.733  4.747  0.000    22.461     6.398
  99   6 C     -0.140  1.047  3.093  0.000    23.269     6.880
 100   1 H      0.212  0.788  0.000  0.000     1.047     1.603
 101   1 H      0.098  0.902  0.000  0.000     1.808     2.103
 102   1 H      0.042  0.958  0.000  0.000     2.427     2.436
 103   1 H      0.351  0.649  0.000  0.000     0.587     1.203
 104   1 H      0.084  0.916  0.000  0.000     1.938     2.177
 105   1 H      0.038  0.962  0.000  0.000     2.471     2.458
 106   1 H      0.062  0.938  0.000  0.000     2.179     2.309
 107   7 N     -0.167  1.244  3.923  0.000    24.614     7.368
 108   6 C      0.022  1.057  2.921  0.000    20.209     6.402
 109   6 C      0.266  1.049  2.685  0.000    22.504     7.768
 110   8 O     -0.467  1.735  4.732  0.000    23.072     6.440
 111   6 C     -0.073  1.053  3.020  0.000    21.883     6.659
 112   6 C      0.011  1.082  2.907  0.000    27.761     8.642
 113   6 C     -0.039  1.083  2.956  0.000    28.962     8.825
 114   6 C     -0.040  1.082  2.957  0.000    28.984     8.829
 115   6 C     -0.028  1.080  2.949  0.000    28.710     8.787
 116   6 C     -0.032  1.082  2.950  0.000    28.792     8.799
 117   6 C     -0.025  1.074  2.951  0.000    28.638     8.775
 118   1 H      0.234  0.766  0.000  0.000     0.949     1.526
 119   1 H      0.080  0.920  0.000  0.000     1.984     2.202
 120   1 H      0.058  0.942  0.000  0.000     2.226     2.333
 121   1 H      0.061  0.939  0.000  0.000     2.188     2.313
 122   1 H      0.032  0.968  0.000  0.000     2.562     2.503
 123   1 H      0.036  0.964  0.000  0.000     2.507     2.476
 124   1 H      0.028  0.972  0.000  0.000     2.617     2.530
 125   1 H      0.041  0.959  0.000  0.000     2.430     2.438
 126   1 H      0.022  0.978  0.000  0.000     2.706     2.572
 127   7 N     -0.155  1.239  3.916  0.000    24.358     7.330
 128   6 C      0.018  1.065  2.917  0.000    20.291     6.416
 129   6 C      0.194  1.093  2.713  0.000    23.855     7.999
 130   8 O     -0.362  1.763  4.599  0.000    20.930     6.134
 131   6 C     -0.018  1.062  2.955  0.000    20.859     6.496
 132   6 C     -0.125  1.044  3.081  0.000    22.950     6.831
 133   6 C     -0.127  1.045  3.082  0.000    22.992     6.837
 134   1 H      0.208  0.792  0.000  0.000     1.067     1.618
 135   1 H      0.089  0.911  0.000  0.000     1.893     2.152
 136   1 H      0.052  0.948  0.000  0.000     2.293     2.368
 137   1 H      0.070  0.930  0.000  0.000     2.084     2.258
 138   1 H      0.040  0.960  0.000  0.000     2.451     2.448
 139   1 H      0.056  0.944  0.000  0.000     2.250     2.346
 140   1 H      0.071  0.929  0.000  0.000     2.069     2.250
 141   1 H      0.060  0.940  0.000  0.000     2.203     2.321
 142   1 H      0.042  0.958  0.000  0.000     2.427     2.436
 143   7 N     -0.396  1.336  4.060  0.000    30.256     8.169
 144   6 C      0.027  1.060  2.912  0.000    20.136     6.393
 145   6 C      0.200  1.092  2.708  0.000    23.747     7.980
 146   8 O     -0.378  1.755  4.624  0.000    21.252     6.181
 147   6 C     -0.084  1.059  3.025  0.000    22.095     6.692
 148   6 C     -0.080  1.047  3.033  0.000    22.014     6.679
 149   6 C     -0.030  1.055  2.975  0.000    21.184     6.566
 150   7 N     -0.156  1.213  3.943  0.000    24.378     7.333
 151   6 C      0.236  1.016  2.748  0.000    23.056     7.862
 152   7 N     -0.251  1.236  4.015  0.000    26.529     7.650
 153   7 N     -0.274  1.252  4.022  0.000    27.077     7.728
 154   1 H      0.164  0.836  0.000  0.000     1.309     1.792
 155   1 H      0.085  0.915  0.000  0.000     1.925     2.170
 156   1 H      0.065  0.935  0.000  0.000     2.139     2.287
 157   1 H      0.076  0.924  0.000  0.000     2.023     2.224
 158   1 H      0.065  0.935  0.000  0.000     2.146     2.291
 159   1 H      0.039  0.961  0.000  0.000     2.464     2.455
 160   1 H      0.091  0.909  0.000  0.000     1.866     2.136
 161   1 H      0.095  0.905  0.000  0.000     1.833     2.118
 162   1 H      0.238  0.762  0.000  0.000     0.931     1.511
 163   1 H      0.237  0.763  0.000  0.000     0.938     1.517
 164   1 H      0.221  0.779  0.000  0.000     1.005     1.570
 165   1 H      0.239  0.761  0.000  0.000     0.928     1.509
 166   1 H      0.239  0.761  0.000  0.000     0.927     1.508
 167   7 N     -0.392  1.334  4.058  0.000    30.147     8.155
 168   6 C      0.029  1.060  2.911  0.000    20.107     6.387
 169   6 C      0.272  1.048  2.680  0.000    22.397     7.749
 170   8 O     -0.495  1.755  4.739  0.000    23.664     6.522
 171   6 C     -0.064  1.054  3.011  0.000    21.734     6.637
 172   6 C     -0.100  1.056  3.044  0.000    22.407     6.738
 173   6 C      0.285  1.034  2.681  0.000    22.179     7.711
 174   8 O     -0.512  1.750  4.762  0.000    24.052     6.575
 175   7 N     -0.270  1.264  4.006  0.000    26.995     7.716
 176   1 H      0.161  0.839  0.000  0.000     1.330     1.807
 177   1 H      0.037  0.963  0.000  0.000     2.494     2.469
 178   1 H      0.045  0.955  0.000  0.000     2.388     2.417
 179   1 H      0.058  0.942  0.000  0.000     2.224     2.332
 180   1 H      0.062  0.938  0.000  0.000     2.177     2.307
 181   1 H      0.054  0.946  0.000  0.000     2.265     2.353
 182   1 H      0.213  0.787  0.000  0.000     1.042     1.599
 183   1 H      0.248  0.752  0.000  0.000     0.890     1.477
 184   7 N     -0.189  1.255  3.933  0.000    25.091     7.439
 185   6 C      0.015  1.063  2.923  0.000    20.336     6.422
 186   6 C      0.269  1.047  2.684  0.000    22.450     7.759
 187   8 O     -0.498  1.744  4.754  0.000    23.742     6.533
 188   6 C     -0.019  1.063  2.956  0.000    20.880     6.499
 189   6 C     -0.060  1.038  3.021  0.000    21.637     6.621
 190   6 C     -0.111  1.043  3.069  0.000    22.687     6.791
 191   6 C     -0.104  1.027  3.077  0.000    22.545     6.769
 192   1 H      0.227  0.773  0.000  0.000     0.978     1.549
 193   1 H      0.073  0.927  0.000  0.000     2.051     2.240
 194   1 H      0.033  0.967  0.000  0.000     2.547     2.496
 195   1 H      0.035  0.965  0.000  0.000     2.511     2.478
 196   1 H      0.046  0.954  0.000  0.000     2.376     2.411
 197   1 H      0.036  0.964  0.000  0.000     2.499     2.472
 198   1 H      0.036  0.964  0.000  0.000     2.509     2.477
 199   1 H      0.057  0.943  0.000  0.000     2.238     2.339
 200   1 H      0.038  0.962  0.000  0.000     2.469     2.457
 201   1 H      0.035  0.965  0.000  0.000     2.520     2.483
 202   1 H      0.030  0.970  0.000  0.000     2.589     2.516
 203   7 N     -0.161  1.245  3.916  0.000    24.475     7.348
 204   6 C      0.005  1.064  2.930  0.000    20.501     6.449
 205   6 C      0.269  1.049  2.682  0.000    22.452     7.759
 206   8 O     -0.479  1.742  4.738  0.000    23.336     6.477
 207   6 C     -0.094  1.059  3.035  0.000    22.277     6.718
 208   6 C     -0.088  1.050  3.038  0.000    22.173     6.704
 209   6 C     -0.034  1.057  2.977  0.000    21.252     6.576
 210   7 N     -0.139  1.210  3.929  0.000    24.005     7.277
 211   6 C      0.228  1.017  2.756  0.000    23.215     7.889
 212   7 N     -0.237  1.224  4.013  0.000    26.197     7.602
 213   7 N     -0.254  1.237  4.016  0.000    26.597     7.659
 214   1 H      0.226  0.774  0.000  0.000     0.984     1.554
 215   1 H      0.091  0.909  0.000  0.000     1.865     2.135
 216   1 H      0.084  0.916  0.000  0.000     1.943     2.180
 217   1 H      0.085  0.915  0.000  0.000     1.924     2.169
 218   1 H      0.072  0.928  0.000  0.000     2.068     2.249
 219   1 H      0.070  0.930  0.000  0.000     2.085     2.258
 220   1 H      0.091  0.909  0.000  0.000     1.874     2.141
 221   1 H      0.096  0.904  0.000  0.000     1.821     2.110
 222   1 H      0.224  0.776  0.000  0.000     0.991     1.559
 223   1 H      0.240  0.760  0.000  0.000     0.924     1.506
 224   1 H      0.238  0.762  0.000  0.000     0.933     1.513
 225   1 H      0.247  0.753  0.000  0.000     0.894     1.481
 226   1 H      0.258  0.742  0.000  0.000     0.855     1.448
 227   7 N     -0.164  1.244  3.920  0.000    24.552     7.359
 228   6 C      0.020  1.063  2.917  0.000    20.257     6.411
 229   6 C      0.270  1.049  2.681  0.000    22.440     7.756
 230   8 O     -0.462  1.734  4.728  0.000    22.960     6.424
 231   6 C     -0.076  1.053  3.023  0.000    21.942     6.669
 232   6 C     -0.004  1.080  2.923  0.000    28.111     8.696
 233   6 C     -0.039  1.085  2.954  0.000    28.979     8.828
 234   6 C     -0.053  1.088  2.965  0.000    29.320     8.880
 235   6 C     -0.063  1.077  2.987  0.000    29.570     8.917
 236   6 C     -0.085  1.080  3.005  0.000    30.120     9.000
 237   6 C      0.146  1.045  2.809  0.000    24.811     8.163
 238   8 O     -0.430  1.733  4.696  0.000    21.430     6.249
 239   1 H      0.210  0.790  0.000  0.000     1.055     1.609
 240   1 H      0.059  0.941  0.000  0.000     2.205     2.322
 241   1 H      0.086  0.914  0.000  0.000     1.922     2.168
 242   1 H      0.050  0.950  0.000  0.000     2.319     2.382
 243   1 H      0.027  0.973  0.000  0.000     2.627     2.535
 244   1 H      0.070  0.930  0.000  0.000     2.090     2.261
 245   1 H      0.050  0.950  0.000  0.000     2.326     2.385
 246   1 H      0.070  0.930  0.000  0.000     2.086     2.259
 247   1 H      0.326  0.674  0.000  0.000     0.649     1.266
 248   7 N     -0.196  1.255  3.940  0.000    25.248     7.463
 249   6 C      0.028  1.056  2.916  0.000    20.125     6.390
 250   6 C      0.275  1.047  2.677  0.000    22.346     7.740
 251   8 O     -0.488  1.741  4.747  0.000    23.521     6.502
 252   6 C     -0.107  1.038  3.069  0.000    22.599     6.778
 253   1 H      0.209  0.791  0.000  0.000     1.062     1.614
 254   1 H      0.072  0.928  0.000  0.000     2.068     2.249
 255   1 H      0.044  0.956  0.000  0.000     2.393     2.419
 256   1 H      0.063  0.937  0.000  0.000     2.169     2.303
 257   1 H      0.050  0.950  0.000  0.000     2.316     2.380
 258   7 N     -0.158  1.243  3.915  0.000    24.424     7.340
 259   6 C      0.012  1.065  2.923  0.000    20.396     6.433
 260   6 C      0.270  1.046  2.684  0.000    22.435     7.756
 261   8 O     -0.508  1.770  4.738  0.000    23.960     6.563
 262   6 C     -0.088  1.059  3.028  0.000    22.168     6.703
 263   6 C     -0.089  1.054  3.035  0.000    22.207     6.710
 264   6 C     -0.105  1.055  3.049  0.000    22.500     6.753
 265   6 C     -0.057  1.058  2.999  0.000    21.704     6.650
 266   7 N     -0.144  1.233  3.911  0.000    24.113     7.293
 267   1 H      0.224  0.776  0.000  0.000     0.991     1.559
 268   1 H      0.088  0.912  0.000  0.000     1.894     2.152
 269   1 H      0.052  0.948  0.000  0.000     2.301     2.372
 270   1 H      0.081  0.919  0.000  0.000     1.973     2.196
 271   1 H      0.073  0.927  0.000  0.000     2.053     2.241
 272   1 H      0.068  0.932  0.000  0.000     2.107     2.270
 273   1 H      0.101  0.899  0.000  0.000     1.778     2.085
 274   1 H      0.088  0.912  0.000  0.000     1.899     2.155
 275   1 H      0.130  0.870  0.000  0.000     1.538     1.940
 276   1 H      0.114  0.886  0.000  0.000     1.663     2.016
 277   1 H      0.304  0.696  0.000  0.000     0.702     1.313
 278   1 H      0.288  0.712  0.000  0.000     0.749     1.356
 279   1 H      0.298  0.702  0.000  0.000     0.719     1.328
 280   7 N     -0.183  1.253  3.930  0.000    24.973     7.422
 281   6 C      0.027  1.058  2.915  0.000    20.132     6.390
 282   6 C      0.201  1.084  2.715  0.000    23.713     7.975
 283   8 O     -0.378  1.776  4.601  0.000    21.237     6.179
 284   6 C     -0.086  1.063  3.023  0.000    22.118     6.694
 285   6 C     -0.010  1.047  2.963  0.000    20.723     6.475
 286   6 C     -0.115  1.044  3.071  0.000    22.750     6.800
 287   6 C     -0.123  1.046  3.077  0.000    22.899     6.822
 288   1 H      0.235  0.765  0.000  0.000     0.943     1.521
 289   1 H      0.076  0.924  0.000  0.000     2.021     2.223
 290   1 H      0.089  0.911  0.000  0.000     1.885     2.147
 291   1 H      0.071  0.929  0.000  0.000     2.073     2.252
 292   1 H      0.022  0.978  0.000  0.000     2.698     2.569
 293   1 H      0.037  0.963  0.000  0.000     2.489     2.467
 294   1 H      0.027  0.973  0.000  0.000     2.631     2.536
 295   1 H      0.056  0.944  0.000  0.000     2.241     2.341
 296   1 H      0.044  0.956  0.000  0.000     2.402     2.424
 297   1 H      0.062  0.938  0.000  0.000     2.172     2.305
 298   1 H      0.043  0.957  0.000  0.000     2.407     2.426
 299   7 N     -0.397  1.332  4.064  0.000    30.279     8.172
 300   6 C      0.044  1.054  2.902  0.000    19.856     6.348
 301   6 C      0.201  1.093  2.707  0.000    23.730     7.978
 302   8 O     -0.404  1.762  4.642  0.000    21.767     6.255
 303   6 C     -0.081  1.062  3.020  0.000    22.051     6.685
 304   6 C      0.367  1.022  2.611  0.000    20.778     7.460
 305   8 O     -0.601  1.767  4.834  0.000    26.132     6.854
 306   8 O     -0.596  1.747  4.848  0.000    26.010     6.838
 307   1 H      0.154  0.846  0.000  0.000     1.375     1.837
 308   1 H      0.079  0.921  0.000  0.000     1.990     2.206
 309   1 H      0.038  0.962  0.000  0.000     2.474     2.460
 310   1 H      0.025  0.975  0.000  0.000     2.657     2.549
 311   7 N     -0.392  1.336  4.056  0.000    30.152     8.155
 312   6 C      0.030  1.063  2.907  0.000    20.086     6.384
 313   6 C      0.279  1.049  2.672  0.000    22.276     7.728
 314   8 O     -0.509  1.757  4.752  0.000    23.984     6.566
 315   6 C     -0.021  1.069  2.951  0.000    20.911     6.505
 316   6 C     -0.067  1.062  3.005  0.000    21.795     6.649
 317   6 C     -0.103  1.039  3.064  0.000    22.532     6.770
 318   6 C     -0.117  1.047  3.070  0.000    22.825     6.816
 319   1 H      0.156  0.844  0.000  0.000     1.358     1.826
 320   1 H      0.044  0.956  0.000  0.000     2.396     2.421
 321   1 H      0.024  0.976  0.000  0.000     2.673     2.557
 322   1 H      0.038  0.962  0.000  0.000     2.472     2.459
 323   1 H      0.049  0.951  0.000  0.000     2.333     2.389
 324   1 H      0.048  0.952  0.000  0.000     2.347     2.396
 325   1 H      0.011  0.989  0.000  0.000     2.879     2.654
 326   1 H      0.048  0.952  0.000  0.000     2.350     2.397
 327   1 H      0.056  0.944  0.000  0.000     2.249     2.345
 328   1 H      0.046  0.954  0.000  0.000     2.371     2.408
 329   1 H      0.033  0.967  0.000  0.000     2.545     2.495
 330   7 N     -0.178  1.250  3.928  0.000    24.865     7.406
 331   6 C      0.034  1.056  2.910  0.000    20.008     6.371
 332   6 C      0.272  1.049  2.680  0.000    22.409     7.752
 333   8 O     -0.478  1.730  4.748  0.000    23.311     6.473
 334   6 C     -0.057  1.053  3.004  0.000    21.599     6.617
 335   6 C     -0.086  1.060  3.025  0.000    22.134     6.698
 336   6 C      0.367  1.024  2.610  0.000    20.784     7.461
 337   8 O     -0.653  1.775  4.878  0.000    27.464     7.026
 338   8 O     -0.654  1.772  4.882  0.000    27.479     7.028
 339   1 H      0.211  0.789  0.000  0.000     1.053     1.608
 340   1 H      0.044  0.956  0.000  0.000     2.400     2.423
 341   1 H      0.056  0.944  0.000  0.000     2.247     2.344
 342   1 H      0.043  0.957  0.000  0.000     2.405     2.425
 343   1 H      0.038  0.962  0.000  0.000     2.472     2.459
 344   1 H      0.011  0.989  0.000  0.000     2.877     2.652
 345   7 N     -0.166  1.246  3.919  0.000    24.588     7.365
 346   6 C      0.013  1.065  2.922  0.000    20.377     6.429
 347   6 C      0.270  1.050  2.680  0.000    22.442     7.757
 348   8 O     -0.477  1.748  4.729  0.000    23.281     6.469
 349   6 C     -0.007  1.059  2.947  0.000    20.669     6.467
 350   6 C     -0.103  1.036  3.066  0.000    22.520     6.767
 351   6 C     -0.099  1.038  3.061  0.000    22.444     6.756
 352   1 H      0.187  0.813  0.000  0.000     1.174     1.697
 353   1 H      0.088  0.912  0.000  0.000     1.897     2.154
 354   1 H      0.038  0.962  0.000  0.000     2.478     2.462
 355   1 H      0.058  0.942  0.000  0.000     2.219     2.330
 356   1 H      0.010  0.990  0.000  0.000     2.885     2.656
 357   1 H      0.050  0.950  0.000  0.000     2.317     2.380
 358   1 H      0.053  0.947  0.000  0.000     2.277     2.360
 359   1 H      0.038  0.962  0.000  0.000     2.469     2.457
 360   1 H      0.038  0.962  0.000  0.000     2.481     2.463
 361   7 N     -0.164  1.244  3.920  0.000    24.552     7.359
 362   6 C      0.016  1.063  2.920  0.000    20.313     6.420
 363   6 C      0.270  1.048  2.683  0.000    22.441     7.757
 364   8 O     -0.483  1.748  4.735  0.000    23.403     6.486
 365   6 C     -0.064  1.053  3.011  0.000    21.722     6.635
 366   6 C     -0.087  1.054  3.034  0.000    22.161     6.701
 367   6 C      0.289  1.036  2.675  0.000    22.102     7.698
 368   8 O     -0.524  1.759  4.765  0.000    24.322     6.612
 369   7 N     -0.281  1.273  4.008  0.000    27.251     7.753
 370   1 H      0.206  0.794  0.000  0.000     1.076     1.625
 371   1 H      0.084  0.916  0.000  0.000     1.941     2.179
 372   1 H      0.064  0.936  0.000  0.000     2.154     2.295
 373   1 H      0.073  0.927  0.000  0.000     2.048     2.238
 374   1 H      0.058  0.942  0.000  0.000     2.220     2.330
 375   1 H      0.048  0.952  0.000  0.000     2.349     2.397
 376   1 H      0.233  0.767  0.000  0.000     0.953     1.529
 377   1 H      0.242  0.758  0.000  0.000     0.913     1.497
 378   7 N     -0.162  1.241  3.921  0.000    24.506     7.352
 379   6 C      0.025  1.059  2.916  0.000    20.171     6.397
 380   6 C      0.196  1.089  2.715  0.000    23.821     7.993
 381   8 O     -0.372  1.767  4.605  0.000    21.131     6.163
 382   6 C     -0.143  1.048  3.094  0.000    23.310     6.884
 383   1 H      0.218  0.782  0.000  0.000     1.018     1.581
 384   1 H      0.100  0.900  0.000  0.000     1.788     2.091
 385   1 H      0.091  0.909  0.000  0.000     1.869     2.138
 386   1 H      0.091  0.909  0.000  0.000     1.873     2.140
 387   1 H      0.077  0.923  0.000  0.000     2.014     2.219
 388   8 O     -0.658  1.687  4.971  0.000    26.606     6.962
 389   1 H      0.334  0.666  0.000  0.000     0.628     1.244
 390   1 H      0.326  0.674  0.000  0.000     0.647     1.263
 391   7 N     -0.396  1.337  4.059  0.000    30.273     8.172
 392   6 C      0.022  1.064  2.914  0.000    20.222     6.406
 393   6 C      0.267  1.054  2.679  0.000    22.485     7.764
 394   8 O     -0.496  1.761  4.734  0.000    23.689     6.526
 395   6 C     -0.091  1.061  3.031  0.000    22.240     6.714
 396   6 C     -0.088  1.055  3.033  0.000    22.173     6.704
 397   6 C     -0.026  1.056  2.970  0.000    21.117     6.557
 398   7 N     -0.138  1.208  3.930  0.000    23.993     7.275
 399   6 C      0.233  1.017  2.750  0.000    23.111     7.871
 400   7 N     -0.240  1.229  4.012  0.000    26.282     7.614
 401   7 N     -0.242  1.230  4.013  0.000    26.321     7.620
 402   1 H      0.174  0.826  0.000  0.000     1.248     1.750
 403   1 H      0.047  0.953  0.000  0.000     2.358     2.401
 404   1 H      0.062  0.938  0.000  0.000     2.174     2.306
 405   1 H      0.053  0.947  0.000  0.000     2.288     2.365
 406   1 H      0.076  0.924  0.000  0.000     2.017     2.221
 407   1 H      0.076  0.924  0.000  0.000     2.020     2.223
 408   1 H      0.081  0.919  0.000  0.000     1.969     2.194
 409   1 H      0.090  0.910  0.000  0.000     1.876     2.142
 410   1 H      0.212  0.788  0.000  0.000     1.047     1.603
 411   1 H      0.241  0.759  0.000  0.000     0.920     1.503
 412   1 H      0.251  0.749  0.000  0.000     0.879     1.469
 413   1 H      0.216  0.784  0.000  0.000     1.030     1.590
 414   1 H      0.251  0.749  0.000  0.000     0.879     1.469
 415   7 N     -0.155  1.235  3.920  0.000    24.353     7.329
 416   6 C      0.021  1.053  2.926  0.000    20.241     6.408
 417   6 C      0.197  1.087  2.716  0.000    23.804     7.991
 418   8 O     -0.341  1.756  4.585  0.000    20.530     6.075
 419   6 C     -0.076  1.056  3.020  0.000    21.955     6.671
 420   6 C     -0.115  1.060  3.055  0.000    22.688     6.781
 421   6 C      0.283  1.034  2.683  0.000    22.210     7.717
 422   8 O     -0.508  1.762  4.746  0.000    23.960     6.563
 423   7 N     -0.278  1.269  4.009  0.000    27.187     7.744
 424   1 H      0.223  0.777  0.000  0.000     0.996     1.563
 425   1 H      0.084  0.916  0.000  0.000     1.937     2.177
 426   1 H      0.079  0.921  0.000  0.000     1.994     2.208
 427   1 H      0.089  0.911  0.000  0.000     1.888     2.149
 428   1 H      0.101  0.899  0.000  0.000     1.777     2.085
 429   1 H      0.068  0.932  0.000  0.000     2.113     2.273
 430   1 H      0.222  0.778  0.000  0.000     1.000     1.567
 431   1 H      0.226  0.774  0.000  0.000     0.982     1.553
 432   7 N     -0.410  1.347  4.063  0.000    30.658     8.223
 433   6 C      0.031  1.060  2.909  0.000    20.065     6.380
 434   6 C      0.197  1.092  2.710  0.000    23.791     7.988
 435   8 O     -0.370  1.756  4.614  0.000    21.099     6.158
 436   6 C     -0.030  1.065  2.964  0.000    21.065     6.528
 437   6 C     -0.135  1.047  3.088  0.000    23.141     6.859
 438   6 C     -0.127  1.045  3.082  0.000    23.001     6.838
 439   1 H      0.185  0.815  0.000  0.000     1.183     1.704
 440   1 H      0.044  0.956  0.000  0.000     2.394     2.420
 441   1 H      0.045  0.955  0.000  0.000     2.378     2.411
 442   1 H      0.069  0.931  0.000  0.000     2.097     2.264
 443   1 H      0.038  0.962  0.000  0.000     2.477     2.461
 444   1 H      0.048  0.952  0.000  0.000     2.340     2.392
 445   1 H      0.061  0.939  0.000  0.000     2.182     2.310
 446   1 H      0.046  0.954  0.000  0.000     2.372     2.408
 447   1 H      0.048  0.952  0.000  0.000     2.339     2.392
 448   7 N     -0.377  1.323  4.054  0.000    29.733     8.098
 449   6 C      0.028  1.057  2.916  0.000    20.126     6.390
 450   6 C      0.195  1.086  2.719  0.000    23.834     7.995
 451   8 O     -0.375  1.772  4.603  0.000    21.181     6.170
 452   6 C      0.112  1.047  2.841  0.000    18.847     6.198
 453   8 O     -0.488  1.737  4.750  0.000    22.633     6.422
 454   6 C     -0.141  1.048  3.093  0.000    23.290     6.882
 455   1 H      0.165  0.835  0.000  0.000     1.303     1.788
 456   1 H      0.074  0.926  0.000  0.000     2.045     2.237
 457   1 H      0.029  0.971  0.000  0.000     2.599     2.521
 458   1 H      0.322  0.678  0.000  0.000     0.660     1.276
 459   1 H      0.059  0.941  0.000  0.000     2.207     2.323
 460   1 H      0.065  0.935  0.000  0.000     2.140     2.288
 461   1 H      0.064  0.936  0.000  0.000     2.155     2.296
 462   7 N     -0.283  1.279  4.004  0.000    27.289     7.758
 463   6 C      0.026  1.064  2.910  0.000    20.138     6.388
 464   6 C      0.194  1.090  2.716  0.000    23.866     8.000
 465   8 O     -0.368  1.762  4.605  0.000    21.044     6.150
 466   6 C     -0.065  1.053  3.012  0.000    21.715     6.629
 467   6 C     -0.063  1.046  3.017  0.000    21.673     6.623
 468   6 C      0.009  1.047  2.944  0.000    20.470     6.449
 469   1 H      0.050  0.950  0.000  0.000     2.317     2.381
 470   1 H      0.045  0.955  0.000  0.000     2.381     2.413
 471   1 H      0.052  0.948  0.000  0.000     2.301     2.372
 472   1 H      0.049  0.951  0.000  0.000     2.332     2.388
 473   1 H      0.046  0.954  0.000  0.000     2.374     2.410
 474   1 H      0.046  0.954  0.000  0.000     2.365     2.405
 475   1 H      0.024  0.976  0.000  0.000     2.669     2.555
 476   7 N     -0.301  1.309  3.992  0.000    27.735     7.822
 477   6 C      0.024  1.068  2.908  0.000    20.160     6.392
 478   6 C      0.200  1.093  2.707  0.000    23.750     7.981
 479   8 O     -0.385  1.762  4.623  0.000    21.380     6.199
 480   6 C     -0.048  1.049  2.999  0.000    21.411     6.583
 481   6 C     -0.056  1.041  3.015  0.000    21.552     6.604
 482   6 C      0.005  1.046  2.949  0.000    20.529     6.457
 483   1 H      0.063  0.937  0.000  0.000     2.169     2.303
 484   1 H      0.032  0.968  0.000  0.000     2.553     2.498
 485   1 H      0.044  0.956  0.000  0.000     2.398     2.422
 486   1 H      0.042  0.958  0.000  0.000     2.423     2.434
 487   1 H      0.034  0.966  0.000  0.000     2.524     2.485
 488   1 H      0.040  0.960  0.000  0.000     2.443     2.444
 489   1 H      0.042  0.958  0.000  0.000     2.424     2.435
 490   1 H      0.183  0.817  0.000  0.000     1.198     1.715
 491   1 H      0.080  0.920  0.000  0.000     1.983     2.202
 492   1 H      0.195  0.805  0.000  0.000     1.131     1.666
 493   1 H      0.089  0.911  0.000  0.000     1.886     2.147
 494   1 H      0.189  0.811  0.000  0.000     1.166     1.691
 495   1 H      0.068  0.932  0.000  0.000     2.106     2.269
 496   1 H      0.184  0.816  0.000  0.000     1.189     1.708
 497   1 H      0.090  0.910  0.000  0.000     1.879     2.144
 498   1 H      0.193  0.807  0.000  0.000     1.142     1.674
 499   1 H      0.059  0.941  0.000  0.000     2.209     2.324
 500   1 H      0.198  0.802  0.000  0.000     1.118     1.656
 501   1 H      0.094  0.906  0.000  0.000     1.837     2.119
 502   1 H      0.183  0.817  0.000  0.000     1.198     1.715
 503   1 H      0.068  0.932  0.000  0.000     2.102     2.267
 504   1 H      0.189  0.811  0.000  0.000     1.162     1.689
 505   1 H      0.080  0.920  0.000  0.000     1.980     2.200
 506   1 H      0.167  0.833  0.000  0.000     1.290     1.779
 507   1 H      0.069  0.931  0.000  0.000     2.096     2.264
 508   1 H      0.184  0.816  0.000  0.000     1.192     1.710
 509   1 H      0.078  0.922  0.000  0.000     1.995     2.209

 Mol. C6AA /au·bohr⁶  :    2306487.794426
 Mol. C8AA /au·bohr⁸  :   50802185.314733
 Mol. α(0) /au        :       2269.885770

 
molecular dipole:
                 x           y           z       tot (Debye)
 q only:       14.656     134.842      -8.491
   full:       12.537     132.804      -6.189     339.427
molecular quadrupole (traceless):
                xx          xy          yy          xz          yz          zz
 q only:    -9940.579     311.304   17980.826    1721.327    -757.978   -8040.248
  q+dip:    -9619.769      67.353   17449.643    1567.981    -447.470   -7829.874
   full:    -9614.941      66.739   17451.334    1565.978    -452.593   -7836.394
speedup  1.91
cpu  time for grad   46.77 s
wall time for grad   24.50 s

SCC energy    :    -781.4572605
rep           :       9.3779914
ES            :       2.5988663
AES           :      -0.0639439
AXC           :       0.2686656
disp          :      -0.6339360
XB            :       0.0000000
fix           :       0.0000000
Gborn         :       0.0000000
Gsasa         :       0.0000000
Ghb           :       0.0000000
Gshift        :       0.0000000
Gsolv         :      -0.7553394     -473.98
Etot ala COSMO:    -781.4572605
grad norm     :       0.8499471
total E       :    -772.0130193
atomizationE  :     140.3009180    88040.16
(atE without considering molecular charge,
 total energy contains solvation terms)
H-L gap (eV)  :          1.1091

------------------------------------------------------------------------
 * finished run on 2019/05/05 at 22:18:32.866     
------------------------------------------------------------------------
 total:
 * wall-time:     0 d,  0 h,  0 min, 26.057 sec
 *  cpu-time:     0 d,  0 h,  0 min, 49.647 sec
 * ratio c/w:     1.905 speedup
 SCF:
 * wall-time:     0 d,  0 h,  0 min, 25.731 sec
 *  cpu-time:     0 d,  0 h,  0 min, 49.151 sec
 * ratio c/w:     1.910 speedup

