      -----------------------------------------------------------      
     |                   =====================                   |     
     |                           x T B                           |     
     |                   =====================                   |     
     |                         S. Grimme                         |     
     |          Mulliken Center for Theoretical Chemistry        |     
     |                    University of Bonn                     |     
     |                 Version 6.0.1 (SAW181210)                 |     
      -----------------------------------------------------------      

   This program is distributed in the hope that it will be useful,
   but WITHOUT ANY WARRANTY; without even the implied warranty of
   MERCHANTABILITY or FITNESS FOR A PARTICULAR PURPOSE.
   
   FOR NON-COMMERCIAL, ACADEMIA USE ONLY.
   
   Cite this work as:
   S. Grimme, C. Bannwarth, P. Shushkov, J. Comput. Theory Chem., 2017,
   13, 1989-2009.
   C. Bannwarth, S. Ehlert and S. Grimme., ChemRxiv, 2018, preprint.
   http://doi.org/10.26434/chemrxiv.7246238.v1
   
   for sTDA-xTB:
   S. Grimme and C. Bannwarth, J. Chem. Phys., 2016, 145, 054103.
   
   in the mass-spec context:
   V. Asgeirsson, C. Bauer and S. Grimme, Chem. Sci., 2017, 8, 4879.
   
   if GBSA is used:
   P. Shushkov, F. März and S. Grimme, unpublished.
   
   for ANC optimizer:
   S. Grimme, unpublished.
   Rational Function algorithm used in ANCopt:
   F. Eckert, P. Pulay, H.-J. Werner, J. Comput. Chem., 1997, 18, 1473.
   
   with help from (in alphabetical order)
   C. Bannwarth, F. Bohle, G. Brandenburg, E. Caldeweyher, M. Checinski,
   S. Dohm, S. Ehlert, S. Ehrlich, F. März, H. Neugebauer, J. Pisarek,
   P. Pracht, P. Shushkov, and S. Spicher.
   
 * started run on 2019/05/11 at 17:06:00.843     
========================================================================
 # omp threads = 2
========================================================================
number of atoms            : 758
number of electrons        : 2070
charge                     : 0
spin                       : .0
first test random number   : .7107

########################################################################
# WARNING! Please study the warnings concerning your input carefully
#  - Process number higher than OMP_NUM_THREADS, I hope you know what you are doing.
########################################################################

           ------------------------------------------------- 
          |                 G F N 2 - x T B                 |
          | Geometry, Frequencies, Noncovalent interactions |
          |            JCTC 2018 parametrisation            |
           ------------------------------------------------- 
 
      method parameters     
 k(s)        :  1.8500
 k(p)        :  2.2300
 k(d)        :  2.2300
 k(f)        :  2.0000
 kEN (H0ij)  : -2.0000
 D4 a1       :  0.5200
 D4 a2       :  5.0000
 D4 s6       :  1.0000
 D4 s8       :  2.7000
 D4 s9       :  5.0000
 alphaj      :  2.0000

 Solvent             : h2o
 Using internal parameter file: .param_gbsa2_h2o
 Gsolv ref. state (COSMO-RS): gsolv [1 M gas/solution]
 temperature (mdtemp)       :    298.150000000000     
 dielectric constant        :    80.2000000000000     
 rho                        :    1.00000000000000     
 mass                       :    18.0000000000000     
 surface tension            :    15.5689454083859     
 probe radius               :   0.975313790000000     
 vdW radii scaling          :    1.00000000000000     
 Gshift (Eh)                :   1.857443126794793E-003
 c1                         :    1.55243817000000     
 soset                      :   0.130326360000000     
 HB correction              :  T

            Z     q(EN)     CN     RAES       Cart. coordinates
     1  N   5.0   -0.20    3.22    1.96    12.75211    51.80744   -15.16808
     2  C   4.0    0.03    4.29    4.19    11.36549    50.89676   -12.96822
     3  C   4.0    0.15    3.42    3.09    12.67983    48.46270   -12.05685
     4  O   6.0   -0.29    1.25    1.80    13.25496    46.83298   -13.55531
     5  C   4.0   -0.04    4.27    4.13     8.59998    50.34407   -13.66352
     6  C   4.0   -0.04    4.17    3.94     6.94167    49.52978   -11.47178
     7  C   4.0   -0.04    4.16    3.93     4.24863    48.98076   -12.38333
     8  C   4.0   -0.02    4.11    3.82     2.66230    47.68950   -10.34260
     9  N   5.0   -0.11    3.95    2.73     0.24365    46.70841   -11.28623
    10  H   1.0    0.10    1.03    1.43    13.51677    50.48045   -16.32269
    11  H   1.0    0.06    1.05    1.44    11.46252    52.34668   -11.50061
    12  H   1.0    0.05    1.04    1.43     7.82434    52.03072   -14.50613
    13  H   1.0    0.05    1.02    1.43     8.59831    48.83201   -15.10470
    14  H   1.0    0.06    1.02    1.43     7.70773    47.80007   -10.59318
    15  H   1.0    0.05    1.03    1.43     6.91453    50.99248   -10.04171
    16  H   1.0    0.06    1.02    1.43     3.32595    50.73515   -12.95924
    17  H   1.0    0.05    1.03    1.43     4.33552    47.71554   -14.02209
    18  H   1.0    0.06    1.03    1.43     3.77384    46.12898    -9.55709
    19  H   1.0    0.05    1.02    1.43     2.22455    49.03091    -8.83160
    20  H   1.0    0.06    1.04    1.43    -0.54310    45.49699   -10.11969
    21  H   1.0    0.12    1.15    1.45    -1.29479    48.18487   -11.78619
    22  H   1.0    0.06    1.00    1.43     0.60963    45.73894   -13.03293
    23  N   5.0   -0.14    3.45    2.05    13.11273    48.30568    -9.55986
    24  C   4.0    0.04    4.46    4.48    14.02495    46.05945    -8.40702
    25  C   4.0    0.16    3.49    3.11    11.90852    44.82168    -6.83651
    26  O   6.0   -0.31    1.25    1.80    10.87811    45.95332    -5.14469
    27  C   4.0   -0.03    4.34    4.28    16.21955    46.49507    -6.58412
    28  C   4.0   -0.02    3.59    3.16    17.23456    43.96846    -5.79037
    29  C   4.0   -0.04    3.47    3.10    19.11957    42.77208    -7.23161
    30  C   4.0   -0.03    3.48    3.11    16.21264    42.64207    -3.75961
    31  C   4.0   -0.04    3.36    3.07    19.95514    40.39361    -6.67229
    32  C   4.0   -0.03    3.39    3.07    17.01012    40.24188    -3.22124
    33  C   4.0   -0.04    3.36    3.07    18.90397    39.06958    -4.63331
    34  H   1.0    0.11    1.10    1.44    12.54477    49.75685    -8.42120
    35  H   1.0    0.06    1.07    1.44    14.59339    44.76674    -9.93898
    36  H   1.0    0.05    1.03    1.43    17.68629    47.59479    -7.55070
    37  H   1.0    0.06    1.04    1.43    15.53826    47.54929    -4.96572
    38  H   1.0    0.05    1.03    1.43    19.88589    43.77695    -8.84526
    39  H   1.0    0.06    1.04    1.43    14.76886    43.51023    -2.62975
    40  H   1.0    0.05    1.03    1.43    21.38907    39.50334    -7.80140
    41  H   1.0    0.05    1.03    1.43    16.14846    39.20840    -1.67784
    42  H   1.0    0.05    1.03    1.43    19.54470    37.20450    -4.18446
    43  N   5.0   -0.13    3.38    2.01    11.45525    42.38505    -7.38313
    44  C   4.0    0.02    4.29    4.17     9.61724    40.94644    -6.01597
    45  C   4.0    0.15    3.42    3.08     6.93235    41.52650    -6.90593
    46  O   6.0   -0.29    1.24    1.80     6.54411    42.84551    -8.85641
    47  H   1.0    0.09    1.05    1.44    12.16689    41.65897    -9.03795
    48  H   1.0    0.06    1.03    1.43    10.01363    38.91999    -6.26308
    49  H   1.0    0.05    1.04    1.43     9.76782    41.43614    -4.02805
    50  N   5.0   -0.10    3.70    2.27     5.07499    40.64789    -5.50692
    51  C   4.0    0.02    4.57    4.63     5.32809    38.80860    -3.45833
    52  C   4.0    0.18    3.46    3.10     5.68657    36.14094    -4.65609
    53  O   6.0   -0.31    1.37    1.80     5.11277    35.64430    -6.61013
    54  C   4.0   -0.02    4.36    4.31     2.73538    38.96827    -2.18894
    55  C   4.0   -0.03    4.28    4.15     0.95750    39.43273    -4.42215
    56  C   4.0    0.00    4.40    4.38     2.45445    41.15858    -6.13927
    57  H   1.0    0.05    1.04    1.43     6.82731    39.31125    -2.14318
    58  H   1.0    0.07    1.02    1.43     2.27499    37.25174    -1.14152
    59  H   1.0    0.05    1.03    1.43     2.71808    40.57360    -0.91675
    60  H   1.0    0.07    1.02    1.43     0.56574    37.60829    -5.35532
    61  H   1.0    0.05    1.02    1.43    -0.83850    40.25197    -3.84752
    62  H   1.0    0.06    1.02    1.43     2.13333    40.73815    -8.14126
    63  H   1.0    0.04    1.03    1.43     2.04237    43.13211    -5.77802
    64  N   5.0   -0.14    3.45    2.04     6.75965    34.43565    -2.92516
    65  C   4.0    0.04    4.34    4.28     6.77629    31.80893    -3.78935
    66  C   4.0    0.06    3.26    3.04     4.34785    31.11337    -5.02493
    67  O   6.0   -0.26    1.00    1.80     1.99991    31.95552    -3.68864
    68  C   4.0   -0.04    4.35    4.30     7.40758    30.01710    -1.60972
    69  C   4.0   -0.02    4.18    3.95    10.21516    30.03148    -0.93421
    70  C   4.0   -0.08    4.10    3.80    10.58147    28.62076     1.57667
    71  C   4.0   -0.07    4.10    3.80    11.79045    28.80611    -3.02511
    72  H   1.0    0.11    1.09    1.44     6.65502    34.80105    -1.07910
    73  H   1.0    0.05    1.07    1.44     8.17566    31.67810    -5.28852
    74  H   1.0    0.06    1.03    1.43     6.25625    30.57456     0.02130
    75  H   1.0    0.05    1.03    1.43     6.81237    28.11165    -2.13874
    76  H   1.0    0.04    1.06    1.44    10.80350    31.99003    -0.70432
    77  H   1.0    0.04    1.00    1.43    12.55900    28.60934     2.10455
    78  H   1.0    0.04    1.00    1.43     9.47521    29.49412     3.05671
    79  H   1.0    0.04    1.00    1.43     9.95385    26.66144     1.37246
    80  H   1.0    0.04    0.99    1.43    13.76780    28.67914    -2.40796
    81  H   1.0    0.04    1.00    1.43    11.13384    26.88981    -3.39241
    82  H   1.0    0.05    1.01    1.43    11.71616    29.86067    -4.75145
    83  N   5.0   -0.20    3.25    1.97     7.69108    32.41603   -10.20697
    84  C   4.0    0.04    4.20    4.01     9.43261    33.71637   -11.79787
    85  C   4.0    0.08    3.20    3.04    11.60657    34.92714   -10.33742
    86  O   6.0   -0.29    1.13    1.80    11.54440    35.25581    -8.04322
    87  C   4.0    0.03    4.15    3.91     8.00761    35.71205   -13.35874
    88  O   6.0   -0.25    2.03    1.83     9.44951    36.17685   -15.57438
    89  H   1.0    0.12    1.06    1.44     6.43974    33.38246    -9.15452
    90  H   1.0    0.05    1.06    1.44    10.25562    32.35444   -13.11220
    91  H   1.0    0.05    1.02    1.43     6.15317    34.98521   -13.86261
    92  H   1.0    0.06    1.01    1.43     7.78189    37.46047   -12.25871
    93  H   1.0    0.12    1.02    1.43     8.50442    37.46991   -16.50729
    94  N   5.0   -0.21    3.20    1.96    23.51655    44.92008    -2.71965
    95  C   4.0    0.03    4.27    4.13    22.66049    47.12543    -1.32305
    96  C   4.0    0.08    3.20    3.04    24.20146    49.53909    -1.74563
    97  O   6.0   -0.31    1.16    1.80    23.38442    51.51480    -0.95553
    98  C   4.0   -0.02    4.31    4.21    22.51706    46.57661     1.48735
    99  C   4.0   -0.01    3.66    3.21    20.81240    44.47505     2.01083
   100  C   4.0   -0.01    3.54    3.14    21.47086    41.92042     2.44750
   101  C   4.0    0.01    3.87    3.42    18.08955    44.54162     2.08081
   102  N   5.0   -0.13    3.44    2.04    19.32351    40.51236     2.85150
   103  C   4.0    0.02    3.83    3.37    17.17210    42.01316     2.56765
   104  C   4.0   -0.05    3.41    3.08    16.32364    46.45040     1.79593
   105  C   4.0   -0.05    3.40    3.08    14.68557    41.49199     2.72213
   106  C   4.0   -0.04    3.38    3.07    13.84326    45.92704     1.94672
   107  C   4.0   -0.04    3.38    3.07    12.93908    43.41655     2.39622
   108  H   1.0    0.08    1.03    1.43    22.43861    44.42680    -4.23245
   109  H   1.0    0.05    1.06    1.44    20.75559    47.53908    -2.03619
   110  H   1.0    0.06    1.03    1.43    24.42379    46.19303     2.19941
   111  H   1.0    0.06    1.03    1.43    21.87852    48.29386     2.45372
   112  H   1.0    0.05    1.03    1.43    23.28007    41.16950     2.58212
   113  H   1.0    0.07    1.05    1.44    19.30493    38.61586     2.59017
   114  H   1.0    0.05    1.02    1.43    17.01599    48.37249     1.46910
   115  H   1.0    0.05    1.02    1.43    13.97752    39.58346     3.05804
   116  H   1.0    0.05    1.03    1.43    12.43274    47.40169     1.71995
   117  H   1.0    0.06    1.04    1.43    10.97916    43.06317     2.44516
   118  N   5.0   -0.19    3.24    1.97    10.33505    69.82178    -6.78028
   119  C   4.0    0.02    4.41    4.40    10.58462    67.33063    -5.61623
   120  C   4.0    0.14    3.46    3.10     8.09365    66.74900    -4.32823
   121  O   6.0   -0.29    1.24    1.80     6.90212    68.44898    -3.23873
   122  C   4.0   -0.03    4.33    4.26    12.72271    67.29790    -3.62341
   123  C   4.0   -0.05    4.18    3.96    15.28630    67.90925    -4.88819
   124  C   4.0   -0.08    4.14    3.88    12.77967    64.72406    -2.33587
   125  C   4.0   -0.08    4.01    3.64    17.30977    68.56936    -2.98528
   126  H   1.0    0.09    1.03    1.43    10.17135    71.27862    -5.55403
   127  H   1.0    0.04    1.06    1.44    10.96781    65.94566    -7.08498
   128  H   1.0    0.04    1.05    1.44    12.32591    68.78702    -2.24537
   129  H   1.0    0.04    1.02    1.43    15.84382    66.29063    -6.03973
   130  H   1.0    0.04    1.03    1.43    15.01860    69.52379    -6.15495
   131  H   1.0    0.03    1.00    1.43    14.36571    64.62204    -1.03125
   132  H   1.0    0.05    1.01    1.43    11.06814    64.35065    -1.31590
   133  H   1.0    0.04    1.00    1.43    13.03156    63.26464    -3.77071
   134  H   1.0    0.04    0.99    1.43    19.07271    69.02665    -3.98518
   135  H   1.0    0.04    1.01    1.43    16.78545    70.14352    -1.83433
   136  H   1.0    0.04    0.99    1.43    17.73023    66.94701    -1.76368
   137  N   5.0   -0.14    3.51    2.08     7.30962    64.34784    -4.51439
   138  C   4.0    0.04    4.44    4.45     4.95147    63.50515    -3.43106
   139  C   4.0    0.15    3.47    3.10     5.30802    60.79550    -2.61073
   140  O   6.0   -0.32    1.26    1.80     7.08134    59.51616    -3.38452
   141  C   4.0   -0.03    4.33    4.25     2.75159    63.68780    -5.34478
   142  C   4.0   -0.01    3.59    3.16     3.14909    61.85599    -7.42039
   143  C   4.0   -0.04    3.48    3.11     2.06387    59.42967    -7.38560
   144  C   4.0   -0.04    3.48    3.11     4.63746    62.44756    -9.48272
   145  C   4.0   -0.03    3.42    3.08     2.48996    57.68801    -9.23826
   146  C   4.0   -0.05    3.40    3.08     5.11856    60.76045   -11.43382
   147  C   4.0    0.07    3.45    3.09     4.05298    58.31501   -11.28267
   148  O   6.0   -0.24    2.09    1.84     4.52458    56.50665   -13.03906
   149  H   1.0    0.09    1.08    1.44     8.31398    63.07087    -5.47478
   150  H   1.0    0.07    1.05    1.44     4.54414    64.69868    -1.74877
   151  H   1.0    0.04    1.02    1.43     0.97371    63.30455    -4.34831
   152  H   1.0    0.05    1.03    1.43     2.70461    65.61860    -6.03180
   153  H   1.0    0.05    1.03    1.43     0.81718    58.93459    -5.83931
   154  H   1.0    0.05    1.03    1.43     5.49640    64.31286    -9.63282
   155  H   1.0    0.07    1.04    1.43     1.65041    55.84319    -9.25489
   156  H   1.0    0.05    1.03    1.43     6.32004    61.24502   -12.97456
   157  H   1.0    0.11    1.02    1.43     5.66089    57.21148   -14.34263
   158  N   5.0   -0.14    3.41    2.02     3.48063    59.86769    -1.06751
   159  C   4.0    0.02    4.28    4.16     3.45473    57.23713    -0.31598
   160  C   4.0    0.14    3.37    3.07     2.17678    57.02225     2.18357
   161  O   6.0   -0.32    1.31    1.80     1.26528    58.95383     3.23910
   162  H   1.0    0.10    1.08    1.44     2.20853    60.99906    -0.26601
   163  H   1.0    0.05    1.02    1.43     2.43938    56.07936    -1.71716
   164  H   1.0    0.06    1.04    1.43     5.38088    56.52178    -0.19151
   165  N   5.0   -0.14    3.46    2.05     2.02630    54.70671     3.13150
   166  C   4.0    0.04    4.44    4.45     0.86563    54.25820     5.57505
   167  C   4.0    0.14    3.42    3.08     2.12952    52.03224     6.87010
   168  O   6.0   -0.31    1.25    1.80     3.08830    50.29711     5.69063
   169  C   4.0   -0.04    4.27    4.13    -2.02590    53.83744     5.34309
   170  C   4.0   -0.02    4.23    4.05    -2.67621    51.38976     3.96297
   171  C   4.0    0.15    3.21    3.04    -5.41890    50.88398     3.49803
   172  O   6.0   -0.29    1.20    1.80    -6.18923    48.76268     2.86157
   173  N   5.0   -0.19    3.19    1.95    -7.05531    52.91490     3.62059
   174  H   1.0    0.11    1.09    1.44     2.99793    53.27802     2.33172
   175  H   1.0    0.07    1.07    1.44     1.11583    55.95782     6.73422
   176  H   1.0    0.05    1.03    1.43    -2.80691    53.82786     7.23592
   177  H   1.0    0.06    1.03    1.43    -2.74368    55.46978     4.30272
   178  H   1.0    0.06    1.03    1.43    -1.76905    51.40713     2.08438
   179  H   1.0    0.07    1.04    1.43    -1.93833    49.75031     4.94763
   180  H   1.0    0.09    1.04    1.43    -6.46729    54.59522     4.06786
   181  H   1.0    0.10    1.03    1.43    -8.88213    52.57008     3.24585
   182  N   5.0   -0.14    3.50    2.08     2.04796    52.22323     9.41428
   183  C   4.0    0.03    4.52    4.57     2.99721    50.32524    11.11993
   184  C   4.0    0.14    3.45    3.09     0.79413    49.27012    12.65857
   185  O   6.0   -0.32    1.24    1.80    -0.54261    50.64943    13.97301
   186  C   4.0   -0.02    4.30    4.19     4.97413    51.44661    12.87002
   187  C   4.0   -0.08    4.14    3.89     5.68203    49.58460    14.94062
   188  C   4.0   -0.08    4.13    3.86     7.29047    52.17287    11.34157
   189  H   1.0    0.11    1.10    1.44     1.22565    53.76413    10.17460
   190  H   1.0    0.05    1.07    1.44     3.79853    48.79641     9.96717
   191  H   1.0    0.05    1.06    1.44     4.17719    53.14252    13.73670
   192  H   1.0    0.03    1.00    1.43     7.10496    50.39582    16.17549
   193  H   1.0    0.05    1.00    1.43     4.03652    49.10694    16.08339
   194  H   1.0    0.04    1.00    1.43     6.42636    47.84723    14.11623
   195  H   1.0    0.03    0.99    1.43     8.68702    53.10456    12.56010
   196  H   1.0    0.04    1.00    1.43     8.17473    50.51103    10.51684
   197  H   1.0    0.04    1.00    1.43     6.80774    53.48053     9.83543
   198  N   5.0   -0.14    3.45    2.05     0.47238    46.78331    12.42774
   199  C   4.0    0.03    4.32    4.24    -1.38438    45.33951    13.84659
   200  C   4.0    0.15    3.51    3.12     0.02039    43.94296    16.03607
   201  O   6.0   -0.32    1.33    1.80     1.41822    42.15888    15.61327
   202  C   4.0   -0.05    4.12    3.83    -2.58809    43.36711    12.12305
   203  H   1.0    0.10    1.09    1.44     1.65360    45.75753    11.28918
   204  H   1.0    0.05    1.07    1.44    -2.76515    46.63902    14.57051
   205  H   1.0    0.05    1.00    1.43    -3.99206    42.28630    13.19299
   206  H   1.0    0.07    1.01    1.43    -3.50080    44.24010    10.53659
   207  H   1.0    0.06    1.00    1.43    -1.13953    42.06053    11.46096
   208  N   5.0   -0.09    3.70    2.27    -0.30531    44.86506    18.37570
   209  C   4.0    0.04    4.62    4.69     0.76383    43.44361    20.45966
   210  C   4.0    0.16    3.44    3.09    -0.27301    40.74201    20.45768
   211  O   6.0   -0.30    1.24    1.80    -2.37342    40.25917    19.60806
   212  C   4.0   -0.04    4.35    4.29    -0.08223    44.90199    22.79377
   213  C   4.0   -0.04    4.28    4.15    -0.66103    47.53717    21.81590
   214  C   4.0   -0.01    4.37    4.33    -1.73788    47.01561    19.18656
   215  H   1.0    0.05    1.05    1.44     2.83426    43.37370    20.31057
   216  H   1.0    0.05    1.02    1.43    -1.81238    44.04395    23.58094
   217  H   1.0    0.05    1.02    1.43     1.35249    44.89709    24.27734
   218  H   1.0    0.04    1.02    1.43    -2.04585    48.53612    22.98089
   219  H   1.0    0.04    1.03    1.43     1.03729    48.65949    21.69800
   220  H   1.0    0.04    1.02    1.43    -3.74839    46.54354    19.29859
   221  H   1.0    0.05    1.02    1.43    -1.48286    48.63728    17.94294
   222  N   5.0   -0.14    3.45    2.05     1.26727    39.02422    21.49466
   223  C   4.0    0.04    4.45    4.46     0.51203    36.41491    21.90945
   224  C   4.0    0.17    3.51    3.12    -0.64431    36.12287    24.54690
   225  O   6.0   -0.27    1.24    1.80     0.67942    36.22794    26.49426
   226  C   4.0   -0.02    4.34    4.27     2.79466    34.68292    21.66615
   227  C   4.0    0.16    3.28    3.05     2.19180    32.08550    22.69583
   228  O   6.0   -0.29    1.26    1.80     0.01528    31.40093    23.13175
   229  N   5.0   -0.18    3.18    1.95     4.22971    30.61922    23.06516
   230  H   1.0    0.11    1.10    1.44     2.96027    39.58027    22.19595
   231  H   1.0    0.05    1.07    1.44    -0.91435    35.95179    20.51335
   232  H   1.0    0.05    1.03    1.43     3.41481    34.51627    19.71856
   233  H   1.0    0.07    1.03    1.43     4.39260    35.43594    22.76963
   234  H   1.0    0.10    1.03    1.43     4.01644    28.88174    23.80941
   235  H   1.0    0.11    1.05    1.44     6.00092    31.32948    22.86829
   236  N   5.0   -0.14    3.43    2.04    -3.12551    35.78577    24.58678
   237  C   4.0    0.04    4.21    4.03    -4.62241    35.59420    26.88785
   238  C   4.0    0.10    3.23    3.04    -3.32839    33.98996    28.97174
   239  O   6.0   -0.27    1.11    1.80    -3.50558    34.56232    31.21781
   240  C   4.0   -0.07    4.11    3.82    -7.15977    34.40993    26.25778
   241  H   1.0    0.08    1.08    1.44    -4.09547    35.86047    22.96848
   242  H   1.0    0.06    1.05    1.44    -4.89737    37.47068    27.73531
   243  H   1.0    0.05    1.00    1.43    -8.27692    34.17017    27.97023
   244  H   1.0    0.05    1.00    1.43    -8.18363    35.59664    24.95188
   245  H   1.0    0.05    0.99    1.43    -6.86684    32.54113    25.39968
   246  N   5.0   -0.19    3.21    1.96    12.86311    47.60882    33.47601
   247  C   4.0    0.03    4.24    4.07    11.94930    48.12344    30.94988
   248  C   4.0    0.09    3.23    3.04    12.94710    50.69826    30.04898
   249  O   6.0   -0.27    1.12    1.80    12.53051    52.65236    31.25055
   250  C   4.0   -0.03    4.33    4.25     9.05047    48.19308    30.98856
   251  C   4.0   -0.01    3.57    3.15     8.03591    48.34477    28.32018
   252  C   4.0   -0.04    3.46    3.10     7.44795    46.14547    27.00511
   253  C   4.0   -0.03    3.46    3.10     7.74717    50.69387    27.12944
   254  C   4.0   -0.04    3.38    3.07     6.57756    46.30427    24.53569
   255  C   4.0   -0.03    3.37    3.07     6.90880    50.81282    24.65234
   256  C   4.0   -0.04    3.38    3.07     6.32751    48.60974    23.38425
   257  H   1.0    0.09    1.02    1.43    11.77813    48.21022    34.95189
   258  H   1.0    0.05    1.07    1.44    12.59907    46.65064    29.70256
   259  H   1.0    0.04    1.03    1.43     8.34325    46.49229    31.88929
   260  H   1.0    0.06    1.02    1.43     8.44963    49.89441    32.04998
   261  H   1.0    0.05    1.03    1.43     7.63787    44.34819    27.90694
   262  H   1.0    0.07    1.03    1.43     8.18947    52.40031    28.14742
   263  H   1.0    0.07    1.04    1.43     6.15898    44.57934    23.52788
   264  H   1.0    0.06    1.03    1.43     6.71195    52.63053    23.76213
   265  H   1.0    0.04    1.02    1.43     5.71325    48.72455    21.42031
   266  N   5.0   -0.19    3.25    1.97    14.86232    53.67624    22.03757
   267  C   4.0    0.03    4.41    4.39    15.76983    53.63816    19.45814
   268  C   4.0    0.15    3.42    3.08    16.77718    56.26282    18.73989
   269  O   6.0   -0.32    1.30    1.80    15.66304    58.14325    19.40833
   270  C   4.0   -0.02    4.27    4.15    13.63087    52.86242    17.63145
   271  C   4.0   -0.08    4.13    3.86    14.62867    52.69745    14.96254
   272  C   4.0   -0.08    4.14    3.88    12.49456    50.36400    18.50799
   273  H   1.0    0.12    1.03    1.43    13.60592    55.07368    22.48343
   274  H   1.0    0.05    1.05    1.44    17.31556    52.23785    19.38220
   275  H   1.0    0.04    1.06    1.44    12.19225    54.33545    17.73250
   276  H   1.0    0.03    1.00    1.43    13.17367    51.96056    13.70315
   277  H   1.0    0.05    1.00    1.43    15.20974    54.53973    14.27741
   278  H   1.0    0.05    1.00    1.43    16.26110    51.43493    14.85687
   279  H   1.0    0.03    1.00    1.43    11.19211    49.65302    17.10422
   280  H   1.0    0.04    1.00    1.43    13.96407    48.98294    18.86051
   281  H   1.0    0.04    1.00    1.43    11.45751    50.63548    20.28184
   282  N   5.0   -0.14    3.45    2.05    18.90471    56.29595    17.34346
   283  C   4.0    0.04    4.44    4.45    20.06035    58.65174    16.55373
   284  C   4.0    0.15    3.41    3.08    20.41382    58.72944    13.69619
   285  O   6.0   -0.32    1.28    1.80    21.14321    56.88244    12.47340
   286  C   4.0   -0.04    4.26    4.11    22.59133    59.07597    17.85274
   287  C   4.0   -0.04    4.18    3.97    22.20136    59.49203    20.69635
   288  C   4.0   -0.01    4.21    4.03    24.68457    59.83702    22.20794
   289  N   5.0   -0.14    3.38    2.01    26.35710    57.64499    22.07391
   290  C   4.0    0.10    3.35    3.06    25.66571    55.50226    23.23579
   291  N   5.0   -0.17    3.23    1.96    23.90343    55.25882    24.76734
   292  N   5.0   -0.19    3.19    1.95    27.30214    53.34829    22.63688
   293  H   1.0    0.11    1.08    1.44    19.74150    54.64363    16.80015
   294  H   1.0    0.07    1.08    1.44    18.74274    60.14885    17.11638
   295  H   1.0    0.05    1.02    1.43    23.78827    57.41264    17.52711
   296  H   1.0    0.05    1.03    1.43    23.53496    60.69711    16.99863
   297  H   1.0    0.05    1.03    1.43    21.06116    61.17845    20.98652
   298  H   1.0    0.06    1.04    1.43    21.20075    57.89311    21.47522
   299  H   1.0    0.04    1.02    1.43    25.75510    61.42036    21.38872
   300  H   1.0    0.04    1.03    1.43    24.19139    60.28103    24.13595
   301  H   1.0    0.08    1.07    1.44    27.73679    57.71957    20.83640
   302  H   1.0    0.08    1.02    1.43    22.91585    56.74173    25.57635
   303  H   1.0    0.12    1.06    1.44    23.62128    53.47600    25.63883
   304  H   1.0    0.09    1.04    1.43    28.46315    53.41323    21.33414
   305  H   1.0    0.11    1.03    1.43    26.77324    51.77371    23.53266
   306  N   5.0   -0.14    3.50    2.08    19.85353    60.92926    12.64944
   307  C   4.0    0.04    4.31    4.21    20.40254    61.56149    10.05944
   308  C   4.0    0.08    3.22    3.04    22.76743    63.26831    10.15359
   309  O   6.0   -0.29    1.13    1.80    22.85542    65.11737    11.59206
   310  C   4.0   -0.04    4.35    4.29    18.13314    62.95104     8.88909
   311  C   4.0   -0.02    4.17    3.95    18.35192    63.45661     6.04540
   312  C   4.0   -0.08    4.11    3.83    18.18301    61.02768     4.53069
   313  C   4.0   -0.08    4.12    3.84    16.24775    65.23033     5.25678
   314  H   1.0    0.11    1.11    1.44    19.44555    62.42987    13.79800
   315  H   1.0    0.07    1.06    1.44    20.85224    59.82953     9.04134
   316  H   1.0    0.04    1.04    1.43    16.47432    61.83823     9.26075
   317  H   1.0    0.05    1.03    1.43    17.97100    64.77043     9.86040
   318  H   1.0    0.04    1.05    1.44    20.18523    64.35861     5.64587
   319  H   1.0    0.04    1.00    1.43    18.33554    61.42223     2.50573
   320  H   1.0    0.06    1.00    1.43    19.68840    59.71783     5.01440
   321  H   1.0    0.03    1.00    1.43    16.37261    60.11493     4.85000
   322  H   1.0    0.04    1.00    1.43    16.33399    65.63519     3.23509
   323  H   1.0    0.04    1.00    1.43    14.41036    64.39057     5.65913
   324  H   1.0    0.05    1.00    1.43    16.36085    67.02698     6.26076
   325  N   5.0   -0.19    3.23    1.96    18.55793    69.08567    13.48219
   326  C   4.0    0.03    4.21    4.03    16.20176    68.49273    14.73026
   327  C   4.0    0.08    3.22    3.04    16.65387    66.34860    16.61712
   328  O   6.0   -0.30    1.19    1.80    18.22961    64.71140    16.20591
   329  C   4.0   -0.04    4.30    4.20    14.19466    67.67026    12.78062
   330  C   4.0   -0.04    4.23    4.05    11.54714    67.71954    13.84133
   331  C   4.0    0.15    3.22    3.04     9.64415    66.79580    11.89557
   332  O   6.0   -0.32    1.26    1.80    10.25865    66.15102     9.75420
   333  N   5.0   -0.19    3.18    1.95     7.24742    66.75352    12.72210
   334  H   1.0    0.12    1.04    1.43    19.82891    67.64620    13.32132
   335  H   1.0    0.04    1.05    1.44    15.56613    70.21112    15.68158
   336  H   1.0    0.05    1.03    1.43    14.29210    68.93825    11.16923
   337  H   1.0    0.05    1.03    1.43    14.60529    65.75082    12.12717
   338  H   1.0    0.04    1.02    1.43    11.36137    66.48648    15.50127
   339  H   1.0    0.04    1.02    1.43    11.02234    69.63836    14.42195
   340  H   1.0    0.08    1.03    1.43     6.84437    67.23008    14.54400
   341  H   1.0    0.12    1.05    1.44     5.80934    65.99635    11.71367
   342  N   5.0   -0.20    3.25    1.97    11.83973    61.31956    21.36719
   343  C   4.0    0.03    4.24    4.07     9.34119    60.35967    21.90967
   344  C   4.0    0.09    3.22    3.04     9.38091    58.82486    24.36265
   345  O   6.0   -0.29    1.15    1.80    10.63812    56.89875    24.55717
   346  C   4.0   -0.04    4.38    4.35     8.48142    58.60237    19.82055
   347  C   4.0   -0.02    4.19    3.97     8.53035    59.79179    17.16265
   348  C   4.0   -0.08    4.10    3.81     7.97397    57.76606    15.19112
   349  C   4.0   -0.07    4.10    3.80     6.61998    61.96994    16.98451
   350  H   1.0    0.13    1.06    1.44    13.23728    60.04056    21.09915
   351  H   1.0    0.04    1.05    1.44     8.07953    61.97937    22.09834
   352  H   1.0    0.05    1.03    1.43     9.67587    56.92321    19.85236
   353  H   1.0    0.06    1.02    1.43     6.53511    57.98763    20.26295
   354  H   1.0    0.04    1.06    1.44    10.42612    60.53366    16.83608
   355  H   1.0    0.04    1.01    1.43     8.02147    58.55465    13.32703
   356  H   1.0    0.03    1.00    1.43     9.36716    56.26790    15.33835
   357  H   1.0    0.04    1.00    1.43     6.10672    56.95491    15.53777
   358  H   1.0    0.05    1.00    1.43     6.36720    62.51142    15.02431
   359  H   1.0    0.05    1.00    1.43     4.80491    61.34114    17.72639
   360  H   1.0    0.04    1.00    1.43     7.25501    63.57892    18.06635
   361  N   5.0   -0.19    3.25    1.97    -7.77249    52.57085    17.81975
   362  C   4.0    0.03    4.42    4.41    -6.29995    52.64299    15.49203
   363  C   4.0    0.15    3.44    3.09    -5.61761    55.42505    15.04026
   364  O   6.0   -0.29    1.25    1.80    -7.19020    57.08891    15.37717
   365  C   4.0   -0.02    4.34    4.28    -7.83589    51.55961    13.28565
   366  C   4.0   -0.05    4.21    4.01    -8.43127    48.78919    13.80288
   367  C   4.0   -0.07    4.14    3.88    -6.35761    51.90138    10.84897
   368  C   4.0   -0.07    4.02    3.65   -10.18681    47.60753    11.89364
   369  H   1.0    0.09    1.03    1.43    -9.60126    53.08720    17.57673
   370  H   1.0    0.05    1.05    1.44    -4.55741    51.57014    15.80126
   371  H   1.0    0.05    1.06    1.44    -9.58569    52.61966    13.13973
   372  H   1.0    0.04    1.03    1.43    -6.66619    47.69680    13.82428
   373  H   1.0    0.04    1.03    1.43    -9.26476    48.62307    15.69174
   374  H   1.0    0.05    1.00    1.43    -7.30610    50.97834     9.27963
   375  H   1.0    0.06    1.00    1.43    -6.11491    53.88427    10.40569
   376  H   1.0    0.06    0.99    1.43    -4.47110    51.03341    11.02224
   377  H   1.0    0.05    1.00    1.43   -10.82923    45.75743    12.57393
   378  H   1.0    0.05    1.00    1.43   -11.86299    48.77219    11.58750
   379  H   1.0    0.06    1.00    1.43    -9.27071    47.28016    10.08891
   380  N   5.0   -0.14    3.45    2.05    -3.19699    55.89439    14.45766
   381  C   4.0    0.04    4.40    4.39    -2.28527    58.48106    14.21522
   382  C   4.0    0.15    3.41    3.08    -1.18412    58.86060    11.56731
   383  O   6.0   -0.32    1.28    1.80     0.00061    57.15682    10.51398
   384  C   4.0   -0.04    4.26    4.12    -0.22407    59.08749    16.17649
   385  C   4.0   -0.03    4.21    4.01    -1.10892    58.70047    18.90139
   386  C   4.0    0.15    3.22    3.04     0.72014    60.00835    20.70317
   387  O   6.0   -0.30    1.19    1.80     2.39667    58.93110    21.86914
   388  N   5.0   -0.19    3.18    1.95     0.28978    62.53755    21.00705
   389  H   1.0    0.10    1.07    1.44    -1.97194    54.46309    14.23003
   390  H   1.0    0.06    1.07    1.44    -3.92477    59.69844    14.49035
   391  H   1.0    0.05    1.02    1.43     1.41160    57.83792    15.80383
   392  H   1.0    0.05    1.03    1.43     0.42179    61.01461    15.85023
   393  H   1.0    0.05    1.03    1.43    -2.96454    59.56996    19.11775
   394  H   1.0    0.06    1.03    1.43    -1.19968    56.71669    19.37535
   395  H   1.0    0.08    1.03    1.43    -0.99392    63.42411    19.95901
   396  H   1.0    0.10    1.03    1.43     1.55131    63.52064    21.99935
   397  N   5.0   -0.13    3.46    2.05    -1.54681    61.17107    10.55178
   398  C   4.0    0.05    4.43    4.43    -0.44358    61.88314     8.16320
   399  C   4.0    0.15    3.43    3.09     2.29412    62.77053     8.51710
   400  O   6.0   -0.31    1.25    1.80     2.97238    63.85886    10.47747
   401  C   4.0   -0.03    4.33    4.25    -1.88408    64.04394     6.91427
   402  C   4.0    0.16    3.22    3.04    -4.54030    63.26639     6.14003
   403  O   6.0   -0.28    1.23    1.80    -6.03688    62.46577     7.69914
   404  N   5.0   -0.18    3.18    1.95    -5.11444    63.47483     3.73671
   405  H   1.0    0.09    1.07    1.44    -2.62684    62.43964    11.44413
   406  H   1.0    0.07    1.06    1.44    -0.43260    60.20727     6.93017
   407  H   1.0    0.06    1.04    1.43    -2.00890    65.61070     8.21955
   408  H   1.0    0.05    1.03    1.43    -0.82250    64.64443     5.22343
   409  H   1.0    0.10    1.03    1.43    -6.89372    63.16119     3.15211
   410  H   1.0    0.08    1.01    1.43    -3.94030    64.30210     2.39184
   411  N   5.0   -0.14    3.52    2.09     3.79380    62.33709     6.53763
   412  C   4.0    0.04    4.52    4.56     6.35756    63.20506     6.43918
   413  C   4.0    0.15    3.46    3.10     6.70767    64.97669     4.19807
   414  O   6.0   -0.30    1.25    1.80     5.37695    64.83961     2.35228
   415  C   4.0   -0.02    4.26    4.13     8.28578    61.01468     6.29883
   416  C   4.0   -0.07    4.14    3.89     7.46140    58.86369     8.02726
   417  C   4.0   -0.07    4.14    3.89     8.63686    60.02479     3.63294
   418  H   1.0    0.11    1.11    1.44     3.08530    61.45484     5.00938
   419  H   1.0    0.07    1.07    1.44     6.73226    64.25087     8.19998
   420  H   1.0    0.04    1.05    1.44    10.09381    61.79277     6.98097
   421  H   1.0    0.03    1.00    1.43     9.00209    57.54777     8.32084
   422  H   1.0    0.05    1.00    1.43     6.88730    59.63929     9.85983
   423  H   1.0    0.05    1.01    1.43     5.86527    57.87343     7.23550
   424  H   1.0    0.04    1.00    1.43     9.90599    58.40074     3.65493
   425  H   1.0    0.06    1.01    1.43     6.84975    59.45460     2.83735
   426  H   1.0    0.05    1.00    1.43     9.47228    61.45164     2.39135
   427  N   5.0   -0.14    3.36    2.00     8.69354    66.57047     4.48931
   428  C   4.0    0.02    4.15    3.90     9.54491    68.11284     2.42275
   429  C   4.0    0.09    3.10    3.02     9.07885    70.94339     2.78679
   430  O   6.0   -0.27    1.12    1.80     9.82251    72.03889     4.67991
   431  H   1.0    0.11    1.09    1.44     9.57590    66.67412     6.17012
   432  H   1.0    0.04    1.02    1.43    11.60481    67.85235     2.19737
   433  H   1.0    0.07    1.05    1.44     8.57290    67.46971     0.72787
   434  N   5.0   -0.20    3.20    1.96    25.94477    58.64618     1.71821
   435  C   4.0    0.04    4.28    4.16    25.89121    56.13534     2.79289
   436  C   4.0    0.15    3.40    3.08    23.92931    55.99985     4.95454
   437  O   6.0   -0.31    1.23    1.80    23.60060    57.81826     6.37265
   438  C   4.0   -0.03    4.25    4.10    28.50712    55.35694     3.87922
   439  C   4.0    0.25    3.09    3.02    28.88614    52.44034     4.02016
   440  O   6.0   -0.29    1.21    1.80    26.94999    51.04268     3.77753
   441  O   6.0   -0.29    1.17    1.80    31.07829    51.77043     4.36528
   442  H   1.0    0.10    1.03    1.43    25.77959    60.12030     2.89740
   443  H   1.0    0.07    1.05    1.44    25.34380    54.77025     1.32152
   444  H   1.0    0.05    1.04    1.43    29.96993    56.09321     2.67893
   445  H   1.0    0.05    1.03    1.43    28.75922    56.09156     5.77916
   446  N   5.0   -0.14    3.46    2.05    22.61220    53.81348     5.13845
   447  C   4.0    0.03    4.40    4.38    20.83394    53.36978     7.12034
   448  C   4.0    0.15    3.40    3.08    21.81062    51.14419     8.76241
   449  O   6.0   -0.30    1.23    1.80    22.31056    49.06089     7.89797
   450  C   4.0   -0.04    4.33    4.25    18.22473    52.79112     5.94520
   451  C   4.0   -0.03    4.17    3.94    16.01537    52.95027     7.85715
   452  C   4.0   -0.08    4.12    3.84    15.52670    55.65836     8.67889
   453  C   4.0   -0.08    4.12    3.84    13.63749    51.91823     6.67370
   454  H   1.0    0.11    1.09    1.44    23.40999    52.30254     4.24324
   455  H   1.0    0.06    1.08    1.44    20.75167    55.06214     8.27852
   456  H   1.0    0.04    1.04    1.43    17.91135    54.10243     4.43171
   457  H   1.0    0.05    1.03    1.43    18.31725    50.86262     5.18708
   458  H   1.0    0.04    1.04    1.44    16.51332    51.78259     9.51452
   459  H   1.0    0.03    1.00    1.43    13.92358    55.73119     9.96037
   460  H   1.0    0.05    0.99    1.43    17.17247    56.40777     9.71049
   461  H   1.0    0.04    1.01    1.43    15.17290    56.83206     7.07224
   462  H   1.0    0.03    1.00    1.43    12.06871    51.94297     7.98331
   463  H   1.0    0.04    1.00    1.43    13.11739    53.04488     5.02394
   464  H   1.0    0.04    0.99    1.43    13.92365    49.96092     6.03649
   465  N   5.0   -0.14    3.48    2.07    22.03400    51.65442    11.19166
   466  C   4.0    0.03    4.49    4.53    23.40163    50.03604    12.92176
   467  C   4.0    0.14    3.43    3.09    21.70547    49.34591    15.18645
   468  O   6.0   -0.32    1.26    1.80    20.71026    51.00355    16.51989
   469  C   4.0   -0.02    4.34    4.26    25.77537    51.48977    13.88590
   470  C   4.0   -0.04    4.20    3.99    27.55239    52.16487    11.72083
   471  C   4.0   -0.07    4.12    3.85    27.11037    50.02097    15.97254
   472  C   4.0   -0.06    4.04    3.69    28.57763    49.95098    10.32726
   473  H   1.0    0.11    1.10    1.44    21.66508    53.46645    11.80448
   474  H   1.0    0.06    1.08    1.44    23.93702    48.36566    11.91091
   475  H   1.0    0.05    1.05    1.44    25.05495    53.27576    14.69887
   476  H   1.0    0.06    1.03    1.43    26.53603    53.38239    10.36764
   477  H   1.0    0.04    1.03    1.43    29.12002    53.28032    12.44734
   478  H   1.0    0.04    1.01    1.43    28.87864    50.92524    16.43013
   479  H   1.0    0.06    1.00    1.43    25.92223    49.90414    17.65522
   480  H   1.0    0.05    1.00    1.43    27.51246    48.08855    15.36109
   481  H   1.0    0.07    1.00    1.43    29.90734    50.54793     8.86299
   482  H   1.0    0.05    1.00    1.43    29.56634    48.62357    11.56165
   483  H   1.0    0.07    0.99    1.43    27.09703    48.89571     9.29937
   484  N   5.0   -0.14    3.49    2.07    21.37608    46.91899    15.62557
   485  C   4.0    0.04    4.42    4.41    19.62648    45.97437    17.48870
   486  C   4.0    0.15    3.44    3.09    21.08527    45.06344    19.84460
   487  O   6.0   -0.27    1.29    1.80    22.69486    43.39913    19.69134
   488  C   4.0   -0.03    4.34    4.27    18.16359    43.72840    16.40466
   489  C   4.0   -0.01    3.59    3.16    17.16999    44.26754    13.80956
   490  C   4.0   -0.05    3.47    3.10    15.24731    45.99219    13.43301
   491  C   4.0   -0.03    3.47    3.10    18.19328    43.00706    11.72964
   492  C   4.0   -0.05    3.38    3.07    14.36138    46.44053    11.00526
   493  C   4.0   -0.03    3.38    3.07    17.31750    43.48443     9.33126
   494  C   4.0   -0.04    3.38    3.07    15.38383    45.19389     8.95280
   495  H   1.0    0.09    1.07    1.44    22.26467    45.61599    14.56932
   496  H   1.0    0.05    1.06    1.44    18.35179    47.51134    18.01482
   497  H   1.0    0.07    1.03    1.43    19.44813    42.08961    16.33840
   498  H   1.0    0.05    1.02    1.43    16.61234    43.22993    17.69940
   499  H   1.0    0.04    1.04    1.43    14.46163    46.99682    14.99960
   500  H   1.0    0.07    1.03    1.43    19.71436    41.65223    12.03532
   501  H   1.0    0.04    1.02    1.43    12.85706    47.80787    10.70892
   502  H   1.0    0.06    1.03    1.43    18.16933    42.55502     7.71782
   503  H   1.0    0.05    1.03    1.43    14.71534    45.55964     7.06492
   504  N   5.0   -0.14    3.44    2.04    20.46128    46.09306    22.10945
   505  C   4.0    0.05    4.46    4.48    21.94235    45.47614    24.29379
   506  C   4.0    0.17    3.51    3.12    22.39674    42.63347    24.51022
   507  O   6.0   -0.28    1.24    1.80    24.44968    41.75049    25.02309
   508  C   4.0   -0.03    4.32    4.23    20.71998    46.45940    26.68204
   509  C   4.0    0.15    3.21    3.04    21.97133    48.90693    27.62483
   510  O   6.0   -0.31    1.26    1.80    23.57852    50.04721    26.39081
   511  N   5.0   -0.18    3.16    1.95    21.21671    49.67866    29.94725
   512  H   1.0    0.08    1.06    1.44    19.25655    47.57137    22.24009
   513  H   1.0    0.08    1.06    1.44    23.84276    46.33495    24.10437
   514  H   1.0    0.06    1.03    1.43    18.72477    46.87263    26.35306
   515  H   1.0    0.05    1.03    1.43    20.83101    45.05867    28.19380
   516  H   1.0    0.10    1.04    1.43    21.84130    51.29841    30.61712
   517  H   1.0    0.09    1.02    1.43    19.75679    48.75721    30.80036
   518  N   5.0   -0.13    3.50    2.08    20.32140    41.18521    24.38739
   519  C   4.0    0.04    4.40    4.38    20.53118    38.50874    23.99426
   520  C   4.0    0.17    3.49    3.11    19.05222    37.83341    21.60888
   521  O   6.0   -0.31    1.28    1.80    17.19370    38.98911    20.95222
   522  C   4.0    0.03    4.10    3.81    19.50998    36.92392    26.26985
   523  O   6.0   -0.26    2.09    1.84    18.22158    34.72680    25.37099
   524  H   1.0    0.10    1.08    1.44    18.68734    41.97060    23.72693
   525  H   1.0    0.06    1.07    1.44    22.52135    38.08910    23.72183
   526  H   1.0    0.05    1.01    1.43    21.08793    36.36724    27.48080
   527  H   1.0    0.04    1.01    1.43    18.20415    38.07976    27.37927
   528  H   1.0    0.12    1.01    1.43    18.00884    33.57066    26.79910
   529  N   5.0   -0.14    3.53    2.10    19.91062    35.82237    20.37470
   530  C   4.0    0.04    4.45    4.46    18.85299    35.02498    17.99772
   531  C   4.0    0.15    3.41    3.08    16.16893    34.01698    18.23484
   532  O   6.0   -0.30    1.23    1.80    14.82684    33.73654    16.38739
   533  C   4.0   -0.04    4.28    4.15    20.60502    33.06112    16.76658
   534  C   4.0   -0.03    4.17    3.94    23.00810    34.33701    15.76110
   535  C   4.0    0.24    3.13    3.03    22.26476    36.10959    13.52367
   536  O   6.0   -0.32    1.42    1.80    21.66018    34.95923    11.51158
   537  O   6.0   -0.30    1.16    1.80    22.21971    38.43595    13.82573
   538  H   1.0    0.08    1.07    1.44    21.47956    34.91271    20.99443
   539  H   1.0    0.07    1.06    1.44    18.71608    36.69433    16.75002
   540  H   1.0    0.05    1.03    1.43    21.06797    31.62517    18.13744
   541  H   1.0    0.06    1.03    1.43    19.61665    32.20969    15.17357
   542  H   1.0    0.06    1.02    1.43    23.94817    35.46837    17.20467
   543  H   1.0    0.05    1.03    1.43    24.29935    32.91139    15.04312
   544  N   5.0   -0.14    3.56    2.12    15.41563    33.47597    20.58765
   545  C   4.0    0.03    4.44    4.45    12.95423    32.37155    21.10604
   546  C   4.0    0.15    3.41    3.08    11.11920    34.26098    22.22020
   547  O   6.0   -0.31    1.27    1.80     9.03541    33.60107    22.92714
   548  C   4.0   -0.03    4.28    4.15    13.25870    29.99831    22.80982
   549  C   4.0    0.05    3.67    3.22    14.83720    28.03281    21.53343
   550  N   5.0   -0.17    2.43    1.90    16.58188    26.66506    22.87153
   551  C   4.0   -0.01    3.52    3.12    14.81497    27.36484    19.01207
   552  C   4.0    0.06    3.52    3.12    17.70979    25.08596    21.16657
   553  N   5.0   -0.13    3.34    2.00    16.68596    25.44372    18.69304
   554  H   1.0    0.10    1.10    1.44    16.60692    33.65100    22.09531
   555  H   1.0    0.06    1.07    1.44    12.15688    31.82259    19.28372
   556  H   1.0    0.06    1.03    1.43    14.18775    30.52390    24.56804
   557  H   1.0    0.06    1.03    1.43    11.39262    29.26643    23.21763
   558  H   1.0    0.06    1.02    1.43    13.80706    28.01562    17.44569
   559  H   1.0    0.05    1.04    1.43    19.08322    23.83696    21.52931
   560  H   1.0    0.09    1.07    1.44    17.11802    24.62429    17.24794
   561  N   5.0   -0.14    3.55    2.11    11.87091    36.66465    22.26524
   562  C   4.0    0.04    4.44    4.45    10.24764    38.66028    23.17439
   563  C   4.0    0.15    3.41    3.08     8.14281    39.28730    21.32717
   564  O   6.0   -0.33    1.28    1.80     6.32405    40.57499    21.99983
   565  C   4.0   -0.03    4.29    4.17    11.76334    41.06879    23.70127
   566  C   4.0   -0.03    4.24    4.07    13.29468    40.78286    26.11949
   567  C   4.0    0.14    3.21    3.04    14.66963    43.17591    26.94799
   568  O   6.0   -0.31    1.21    1.80    14.48952    45.21912    25.88311
   569  N   5.0   -0.19    3.19    1.95    16.09502    42.85193    29.01011
   570  H   1.0    0.10    1.10    1.44    13.64620    37.14866    21.73465
   571  H   1.0    0.06    1.05    1.44     9.33190    38.04097    24.94936
   572  H   1.0    0.06    1.03    1.43    13.03461    41.44065    22.12758
   573  H   1.0    0.06    1.03    1.43    10.47329    42.67325    23.90464
   574  H   1.0    0.04    1.03    1.43    12.01953    40.26825    27.68002
   575  H   1.0    0.05    1.03    1.43    14.63867    39.25149    25.90781
   576  H   1.0    0.08    1.03    1.43    16.05746    41.18172    29.96495
   577  H   1.0    0.09    1.03    1.43    16.75709    44.36569    29.96722
   578  N   5.0   -0.13    3.52    2.09     8.47188    38.43418    18.97718
   579  C   4.0    0.03    4.50    4.53     7.09156    39.35644    16.75895
   580  C   4.0    0.15    3.45    3.09     6.03480    37.12313    15.29668
   581  O   6.0   -0.30    1.23    1.80     7.16187    35.11960    15.02348
   582  C   4.0   -0.02    4.28    4.17     8.98907    40.88330    15.14299
   583  C   4.0   -0.07    4.16    3.91     8.09028    41.25882    12.48934
   584  C   4.0   -0.08    4.13    3.85     9.51359    43.40988    16.40112
   585  H   1.0    0.10    1.09    1.44     9.95216    37.31252    18.56138
   586  H   1.0    0.06    1.07    1.44     5.55088    40.54829    17.40068
   587  H   1.0    0.05    1.05    1.44    10.76270    39.77162    15.07542
   588  H   1.0    0.04    1.00    1.43     9.48643    42.33691    11.42597
   589  H   1.0    0.05    1.00    1.43     7.81214    39.45582    11.52964
   590  H   1.0    0.06    1.00    1.43     6.30315    42.29382    12.46435
   591  H   1.0    0.04    1.00    1.43    10.90935    44.44744    15.30933
   592  H   1.0    0.04    1.01    1.43     7.79354    44.50321    16.51684
   593  H   1.0    0.05    1.00    1.43    10.25248    43.14225    18.31065
   594  N   5.0   -0.15    3.49    2.07     3.76739    37.62852    14.28379
   595  C   4.0    0.03    4.41    4.40     2.60283    35.82256    12.54356
   596  C   4.0    0.14    3.44    3.09     3.51429    36.49136     9.87433
   597  O   6.0   -0.32    1.29    1.80     2.50264    38.22146     8.58853
   598  C   4.0   -0.04    4.35    4.28    -0.29382    35.91584    12.68835
   599  C   4.0   -0.02    4.19    3.97    -1.34185    35.20005    15.27721
   600  C   4.0   -0.07    4.11    3.82    -4.15751    35.77679    15.37152
   601  C   4.0   -0.07    4.10    3.81    -0.86800    32.41915    15.89939
   602  H   1.0    0.11    1.11    1.45     2.87582    39.26561    14.56782
   603  H   1.0    0.05    1.06    1.44     3.30205    33.93601    13.03518
   604  H   1.0    0.05    1.03    1.43    -0.87908    37.82928    12.19660
   605  H   1.0    0.04    1.03    1.43    -1.05242    34.63248    11.25190
   606  H   1.0    0.06    1.06    1.44    -0.38573    36.40525    16.66888
   607  H   1.0    0.05    1.00    1.43    -4.95527    35.16023    17.15387
   608  H   1.0    0.05    1.00    1.43    -4.47081    37.80844    15.21006
   609  H   1.0    0.04    1.00    1.43    -5.14407    34.82715    13.84337
   610  H   1.0    0.05    1.00    1.43    -1.59596    31.97727    17.77583
   611  H   1.0    0.04    1.00    1.43    -1.80463    31.22188    14.54270
   612  H   1.0    0.05    1.00    1.43     1.14529    31.99539    15.92012
   613  N   5.0   -0.15    3.47    2.06     5.44204    35.10892     9.01560
   614  C   4.0    0.03    4.41    4.39     6.60058    35.65718     6.61262
   615  C   4.0    0.15    3.40    3.08     4.93133    34.95592     4.32581
   616  O   6.0   -0.32    1.28    1.80     5.52253    35.58120     2.22137
   617  C   4.0   -0.05    4.26    4.11     9.22776    34.44365     6.38576
   618  C   4.0   -0.05    4.18    3.96    11.14086    35.66575     8.18548
   619  C   4.0   -0.05    4.17    3.95    13.83345    34.97934     7.39354
   620  C   4.0   -0.03    4.11    3.82    15.77116    36.04722     9.27546
   621  N   5.0   -0.12    4.01    2.88    18.36042    35.91362     8.12744
   622  H   1.0    0.08    1.07    1.44     6.31394    33.90308    10.18823
   623  H   1.0    0.05    1.05    1.44     6.83045    37.73329     6.42870
   624  H   1.0    0.04    1.03    1.43     9.08970    32.43646     6.74334
   625  H   1.0    0.05    1.03    1.43     9.83854    34.72572     4.43046
   626  H   1.0    0.04    1.02    1.43    10.93035    37.72727     8.11653
   627  H   1.0    0.05    1.03    1.43    10.81158    35.06348    10.11673
   628  H   1.0    0.04    1.03    1.43    14.00707    32.93964     7.32317
   629  H   1.0    0.04    1.03    1.43    14.17753    35.74853     5.51184
   630  H   1.0    0.04    1.02    1.43    15.36017    38.02260     9.71236
   631  H   1.0    0.06    1.03    1.43    15.74925    34.97494    11.00469
   632  H   1.0    0.11    1.18    1.46    19.82688    35.79737     9.63419
   633  H   1.0    0.06    1.03    1.43    18.53645    34.31510     7.10090
   634  H   1.0    0.06    1.02    1.43    18.70847    37.47803     7.04057
   635  N   5.0   -0.15    3.52    2.09     2.77171    33.68319     4.86737
   636  C   4.0    0.04    4.41    4.39     0.86328    33.27251     2.95151
   637  C   4.0    0.14    3.41    3.08    -0.77180    35.61819     2.53188
   638  O   6.0   -0.31    1.29    1.80    -2.32649    35.67218     0.78669
   639  C   4.0   -0.03    4.28    4.17    -0.77601    30.98422     3.63200
   640  C   4.0    0.16    3.20    3.04    -1.46655    29.35995     1.30330
   641  O   6.0   -0.28    1.18    1.80    -1.03806    27.05509     1.19552
   642  N   5.0   -0.17    3.21    1.96    -2.62394    30.58357    -0.55470
   643  H   1.0    0.08    1.08    1.44     2.38093    33.16230     6.64306
   644  H   1.0    0.07    1.06    1.44     1.83764    32.92232     1.13837
   645  H   1.0    0.05    1.03    1.43     0.27497    29.73725     4.89649
   646  H   1.0    0.05    1.03    1.43    -2.52104    31.54521     4.52332
   647  H   1.0    0.12    1.07    1.44    -2.82560    32.49916    -0.49480
   648  H   1.0    0.11    1.03    1.43    -3.05740    29.66446    -2.15636
   649  N   5.0   -0.14    3.49    2.07    -0.35475    37.59444     4.03923
   650  C   4.0    0.03    4.42    4.42    -1.87844    39.89037     3.78673
   651  C   4.0    0.14    3.40    3.08    -0.40023    42.28049     4.51418
   652  O   6.0   -0.28    1.30    1.80    -1.50285    44.14109     5.36232
   653  C   4.0   -0.02    4.32    4.24    -4.30074    39.67636     5.39384
   654  C   4.0    0.17    3.31    3.05    -5.81359    42.07932     5.46565
   655  O   6.0   -0.29    1.20    1.80    -6.61244    42.93836     7.46898
   656  N   5.0   -0.17    3.20    1.96    -6.44853    43.05502     3.19769
   657  H   1.0    0.11    1.11    1.45     0.72340    37.51028     5.62036
   658  H   1.0    0.05    1.06    1.44    -2.36690    40.04989     1.78864
   659  H   1.0    0.05    1.04    1.43    -5.47756    38.22460     4.56499
   660  H   1.0    0.06    1.03    1.43    -3.81558    39.18779     7.34147
   661  H   1.0    0.12    1.04    1.43    -7.25775    44.81284     3.24403
   662  H   1.0    0.09    1.03    1.43    -5.81519    42.37978     1.57404
   663  N   5.0   -0.13    3.49    2.07     2.10959    42.20756     4.10252
   664  C   4.0    0.04    4.47    4.49     3.76800    44.32231     4.61036
   665  C   4.0    0.14    3.45    3.09     5.47766    44.69008     2.31967
   666  O   6.0   -0.31    1.25    1.80     6.39684    42.85937     1.26938
   667  C   4.0    0.06    4.24    4.08     5.36033    43.77147     7.00299
   668  O   6.0   -0.26    2.16    1.85     3.75624    43.58591     9.11138
   669  C   4.0   -0.07    4.09    3.79     7.28303    45.86793     7.44786
   670  H   1.0    0.10    1.08    1.44     2.92942    40.66536     3.35056
   671  H   1.0    0.07    1.06    1.44     2.60376    46.00037     4.95035
   672  H   1.0    0.05    1.04    1.43     6.36130    41.98829     6.72936
   673  H   1.0    0.15    1.05    1.44     2.84569    42.00890     9.01790
   674  H   1.0    0.04    1.01    1.43     7.97229    45.80877     9.34561
   675  H   1.0    0.04    1.00    1.43     8.87174    45.64803     6.13642
   676  H   1.0    0.06    1.00    1.43     6.41725    47.71407     7.05946
   677  N   5.0   -0.14    3.48    2.06     5.86514    47.09351     1.62298
   678  C   4.0    0.04    4.42    4.41     7.09673    47.74054    -0.71457
   679  C   4.0    0.14    3.47    3.10     7.48602    50.56764    -0.86495
   680  O   6.0   -0.31    1.30    1.80     6.19623    51.99574     0.40787
   681  C   4.0   -0.02    4.32    4.24     5.41042    46.94463    -3.03874
   682  C   4.0   -0.01    3.57    3.15     2.90030    48.30089    -3.02942
   683  C   4.0   -0.04    3.47    3.10     2.64588    50.65050    -4.17951
   684  C   4.0   -0.04    3.47    3.10     0.80145    47.25249    -1.83079
   685  C   4.0   -0.03    3.45    3.09     0.35900    51.88995    -4.12246
   686  C   4.0   -0.04    3.44    3.09    -1.48035    48.50260    -1.77528
   687  C   4.0    0.07    3.46    3.10    -1.72413    50.82275    -2.91125
   688  O   6.0   -0.24    2.11    1.84    -3.92087    52.14423    -2.90835
   689  H   1.0    0.11    1.09    1.44     4.98968    48.52257     2.53782
   690  H   1.0    0.06    1.05    1.44     8.86579    46.69966    -0.91216
   691  H   1.0    0.06    1.03    1.43     6.46059    47.32625    -4.75830
   692  H   1.0    0.06    1.03    1.43     5.12565    44.90787    -2.88733
   693  H   1.0    0.06    1.03    1.43     4.21707    51.47515    -5.16430
   694  H   1.0    0.06    1.03    1.43     0.98746    45.43546    -0.88860
   695  H   1.0    0.06    1.02    1.43     0.12576    53.67400    -5.11690
   696  H   1.0    0.07    1.03    1.43    -3.07487    47.65939    -0.79528
   697  H   1.0    0.13    1.03    1.43    -5.25811    51.12424    -2.16444
   698  N   5.0   -0.14    3.46    2.05     9.15384    51.38415    -2.54571
   699  C   4.0    0.04    4.33    4.26     9.45124    54.03837    -3.12240
   700  C   4.0    0.08    3.24    3.04    10.40321    54.41531    -5.82721
   701  O   6.0   -0.31    1.20    1.80    11.52709    52.75467    -6.94345
   702  C   4.0   -0.03    4.28    4.16    11.22368    55.37740    -1.25609
   703  C   4.0   -0.01    3.66    3.21    13.93470    54.85192    -1.60671
   704  C   4.0   -0.02    3.55    3.14    15.37480    53.03493    -0.32859
   705  C   4.0    0.01    3.86    3.41    15.67690    56.20509    -3.22386
   706  N   5.0   -0.12    3.46    2.05    17.88615    53.21134    -1.09682
   707  C   4.0    0.04    3.86    3.41    18.12504    55.14864    -2.84129
   708  C   4.0   -0.05    3.40    3.08    15.40688    58.25057    -4.84229
   709  C   4.0   -0.04    3.40    3.08    20.22326    56.05312    -4.01368
   710  C   4.0   -0.04    3.39    3.07    17.51944    59.16164    -6.02108
   711  C   4.0   -0.04    3.39    3.08    19.91876    58.07167    -5.63030
   712  H   1.0    0.10    1.06    1.44    10.18888    50.12706    -3.61662
   713  H   1.0    0.06    1.07    1.44     7.59145    54.91293    -2.95715
   714  H   1.0    0.05    1.03    1.43    10.88219    57.41000    -1.45979
   715  H   1.0    0.05    1.03    1.43    10.65239    54.80376     0.64284
   716  H   1.0    0.04    1.03    1.43    14.78875    51.72102     0.98580
   717  H   1.0    0.09    1.07    1.44    19.34497    52.25709    -0.44678
   718  H   1.0    0.05    1.03    1.43    13.60347    59.16457    -5.10059
   719  H   1.0    0.07    1.02    1.43    22.08741    55.24233    -3.69645
   720  H   1.0    0.05    1.03    1.43    17.39497    60.74860    -7.28852
   721  H   1.0    0.05    1.03    1.43    21.51764    58.82425    -6.64851
   722  N   5.0   -0.19    3.23    1.96    -7.09645    59.19378    -7.15419
   723  C   4.0    0.03    4.22    4.04    -7.50515    57.35067    -9.17342
   724  C   4.0    0.08    3.22    3.04   -10.02681    56.01960    -8.53205
   725  O   6.0   -0.27    1.12    1.80   -10.37796    55.03493    -6.44232
   726  C   4.0   -0.04    4.28    4.15    -5.34867    55.49743    -9.26096
   727  C   4.0   -0.03    4.18    3.97    -5.56772    53.64899   -11.47076
   728  C   4.0    0.24    3.13    3.03    -3.17031    52.00213   -11.67619
   729  O   6.0   -0.31    1.18    1.80    -1.04334    52.97740   -11.42005
   730  O   6.0   -0.31    1.43    1.80    -3.54839    49.68496   -12.09734
   731  H   1.0    0.10    1.03    1.43    -6.70540    58.44369    -5.45994
   732  H   1.0    0.04    1.05    1.44    -7.69554    58.36520   -10.95326
   733  H   1.0    0.05    1.03    1.43    -3.55357    56.51143    -9.47768
   734  H   1.0    0.07    1.02    1.43    -5.25512    54.45327    -7.45860
   735  H   1.0    0.06    1.02    1.43    -7.20911    52.41435   -11.25696
   736  H   1.0    0.05    1.03    1.43    -5.75371    54.70122   -13.22012
   737  H   1.0    0.09    1.08    1.44    11.71430    52.72760   -16.15236
   738  H   1.0    0.05    1.03    1.43     4.35668    30.14284    -6.64637
   739  H   1.0    0.09    1.08    1.44     6.71621    31.39081   -11.15095
   740  H   1.0    0.06    1.05    1.44    13.16208    35.48875   -11.25178
   741  H   1.0    0.09    1.08    1.44    25.08292    45.20096    -3.31978
   742  H   1.0    0.06    1.04    1.44    25.85216    49.45794    -2.66196
   743  H   1.0    0.09    1.07    1.44    11.70639    70.14291    -7.73363
   744  H   1.0    0.07    1.04    1.43    -2.32717    32.45831    28.49985
   745  H   1.0    0.09    1.07    1.44    13.02396    45.92932    33.69038
   746  H   1.0    0.06    1.04    1.43    13.95827    50.81523    28.45684
   747  H   1.0    0.10    1.09    1.44    14.07174    52.21055    22.38296
   748  H   1.0    0.06    1.04    1.43    24.25136    62.88865     9.04684
   749  H   1.0    0.09    1.08    1.44    18.24357    69.60841    11.89459
   750  H   1.0    0.05    1.04    1.44    15.65194    66.27140    18.21751
   751  H   1.0    0.09    1.08    1.44    11.79558    62.24292    19.93959
   752  H   1.0    0.06    1.04    1.44     8.36301    59.39369    25.84973
   753  H   1.0    0.09    1.07    1.44    -7.76657    50.98981    18.44652
   754  H   1.0    0.06    1.04    1.44     8.15311    71.92626     1.46466
   755  H   1.0    0.09    1.08    1.44    27.42319    58.88760     0.91288
   756  H   1.0    0.06    1.05    1.44    10.10421    56.05707    -6.71394
   757  H   1.0    0.09    1.07    1.44    -5.78480    60.19791    -7.55901
   758  H   1.0    0.06    1.04    1.43   -11.40928    55.94427    -9.81820

  Z AO/shell   Hii/eV     exponent
  1     Wed Apr 25 08:07:45 CEST 2018   EN: 2.200 GM2: 0.406  GM3: 0.0800  RAES: 1.40
     1s    -10.707211    1.230000
  6     Wed Apr 25 08:07:45 CEST 2018   EN: 2.550 GM2: 0.538  GM3: 0.1500  RAES: 3.00
     2s    -13.970922    2.096432
     2p    -10.063292    1.800000
  7     Wed Apr 25 08:07:45 CEST 2018   EN: 3.040 GM2: 0.461  GM3:-0.0640  RAES: 1.90
     2s    -16.686243    2.339881
     2p    -12.523956    2.014332
  8     Wed Apr 25 08:07:45 CEST 2018   EN: 3.440 GM2: 0.452  GM3:-0.0517  RAES: 1.80
     2s    -20.229985    2.439742
     2p    -15.503117    2.137023
 no old-style atom pair restraining (fixing) potential

molecular fragmentation (1/2 indicates fragments):
111111111111111111111111111111111111111111111111111111111111111111111111
111111111122222222222222222222222222222222222222222222222222222222222222
222222222222222222222222222222222222222222222222222222222222222222222222
222222222222222222222222222222222222222222222222222222222222222222222222
222222222222222222222222222222222222222222222222222222222222222222222222
222222222222222222222222222222222222222222222222222222222222222222222222
222222222222222222222222222222222222222222222222222222222222222222222222
222222222222222222222222222222222222222222222222222222222222222222222222
222222222222222222222222222222222222222222222222222222222222222222222222
222222222222222222222222222222222222222222222222222222222222222222222222
22222222222222221122222222222222222222
# atoms in fragment 1/2:    84   674
 fragment masses (1/2) :      545.70     4707.42
CMA distance (Bohr)    :  18.672
constraining FC (au)   :  0.0500
           ------------------------------------------------- 
          |        Self-Consistent Charge Iterations        |
           ------------------------------------------------- 

 Ncao       : 1877
 Nao        : 1877
 Nshell     : 1131
 Nel        : 2070
 T(el)      :   500.0
 intcut     :    35.0
 scfconv/Eh :  0.100E-06
   qconv/e  :  0.100E-04
 intneglect :  0.100E-08
 broydamp   :      0.400
 iter      E             dE          RMSdq      gap      omega  full diag
   1  -1181.8646363 -0.118186E+04  0.460E+00    1.33       0.0  T
   2  -1183.9816995 -0.211706E+01  0.231E+00    0.15       1.0  T
   3  -1182.9569993  0.102470E+01  0.178E+00    0.28       1.0  T
   4  -1184.9300776 -0.197308E+01  0.808E-01    0.28       1.0  T
   5  -1185.0936625 -0.163585E+00  0.329E-01    0.22       1.0  T
   6  -1185.1103942 -0.167317E-01  0.254E-01    0.87       1.0  T
   7  -1185.1244564 -0.140622E-01  0.120E-01    0.73       1.0  T
   8  -1185.1288891 -0.443277E-02  0.402E-02    0.62       1.0  T
   9  -1185.1293175 -0.428354E-03  0.230E-02    0.55       1.0  T
  10  -1185.1295118 -0.194326E-03  0.127E-02    0.55       1.0  T
  11  -1185.1295492 -0.373845E-04  0.716E-03    0.54       1.0  T
  12  -1185.1295590 -0.978341E-05  0.412E-03    0.54       1.0  T
  13  -1185.1295628 -0.381370E-05  0.174E-03    0.54       2.1  T
  14  -1185.1295638 -0.959113E-06  0.907E-04    0.55       4.0  T
  15  -1185.1295639 -0.113022E-06  0.545E-04    0.55       6.7  T
  16  -1185.1295639 -0.703121E-07  0.243E-04    0.55      14.9  T
  17  -1185.1295640 -0.157991E-07  0.118E-04    0.55      30.7  T
  18  -1185.1295640 -0.356636E-08  0.610E-05    0.55      59.6  T
  19  -1185.1295640 -0.758746E-09  0.344E-05    0.55     105.6  T
speedup  2.00
cpu  time for SCC   47.26 s
wall time for SCC   23.63 s

   *** convergence criteria satisfied after 19 iterations ***

          eigenvalues
 #    :        1023       1024       1025       1026       1027       1028       1029       1030
 occ. :        2.000      2.000      2.000      2.000      2.000      2.000      2.000      2.000
 eps  :       -10.180    -10.163     -9.981     -9.978     -9.936     -9.905     -9.898     -9.809
 #    :        1031       1032       1033       1034       1035       1036       1037       1038
 occ. :        2.000      2.000      2.000      1.999      1.997      0.004      0.000      0.000
 eps  :        -9.747     -9.714     -9.619     -9.569     -9.527     -8.978     -8.148     -7.923
 #    :        1039       1040       1041       1042       1043       1044       1045       1046
 occ. :        0.000      0.000      0.000      0.000      0.000      0.000      0.000      0.000
 eps  :        -7.885     -7.859     -7.823     -7.809     -7.766     -7.667     -7.653     -7.470


   #   Z            q   n(s)   n(p)   n(d)      C6AA      α(0)
   1   7 N     -0.397  1.323  4.073  0.000    30.277     8.172
   2   6 C      0.023  1.064  2.913  0.000    20.208     6.403
   3   6 C      0.277  1.045  2.678  0.000    22.314     7.736
   4   8 O     -0.495  1.740  4.755  0.000    23.665     6.522
   5   6 C     -0.069  1.057  3.012  0.000    21.810     6.648
   6   6 C     -0.058  1.047  3.011  0.000    21.618     6.620
   7   6 C     -0.075  1.054  3.021  0.000    21.924     6.666
   8   6 C     -0.021  1.048  2.973  0.000    21.042     6.548
   9   7 N     -0.200  1.270  3.930  0.000    25.335     7.476
  10   1 H      0.156  0.844  0.000  0.000     1.360     1.827
  11   1 H      0.048  0.952  0.000  0.000     2.347     2.396
  12   1 H      0.053  0.947  0.000  0.000     2.289     2.366
  13   1 H      0.039  0.961  0.000  0.000     2.468     2.457
  14   1 H      0.033  0.967  0.000  0.000     2.550     2.497
  15   1 H      0.037  0.963  0.000  0.000     2.483     2.464
  16   1 H      0.070  0.930  0.000  0.000     2.086     2.259
  17   1 H      0.053  0.947  0.000  0.000     2.286     2.364
  18   1 H      0.090  0.910  0.000  0.000     1.882     2.145
  19   1 H      0.076  0.924  0.000  0.000     2.018     2.221
  20   1 H      0.250  0.750  0.000  0.000     0.881     1.471
  21   1 H      0.302  0.698  0.000  0.000     0.704     1.314
  22   1 H      0.253  0.747  0.000  0.000     0.872     1.464
  23   7 N     -0.192  1.250  3.942  0.000    25.168     7.451
  24   6 C      0.029  1.055  2.915  0.000    20.079     6.379
  25   6 C      0.274  1.043  2.682  0.000    22.362     7.744
  26   8 O     -0.458  1.724  4.734  0.000    22.867     6.411
  27   6 C     -0.069  1.051  3.019  0.000    21.816     6.648
  28   6 C     -0.002  1.086  2.916  0.000    28.072     8.691
  29   6 C     -0.045  1.079  2.966  0.000    29.121     8.850
  30   6 C     -0.040  1.079  2.961  0.000    28.997     8.831
  31   6 C     -0.035  1.080  2.955  0.000    28.874     8.811
  32   6 C     -0.034  1.083  2.951  0.000    28.835     8.806
  33   6 C     -0.040  1.086  2.954  0.000    29.001     8.831
  34   1 H      0.225  0.775  0.000  0.000     0.985     1.555
  35   1 H      0.056  0.944  0.000  0.000     2.251     2.346
  36   1 H      0.047  0.953  0.000  0.000     2.355     2.400
  37   1 H      0.057  0.943  0.000  0.000     2.235     2.338
  38   1 H      0.022  0.978  0.000  0.000     2.700     2.570
  39   1 H      0.040  0.960  0.000  0.000     2.452     2.449
  40   1 H      0.038  0.962  0.000  0.000     2.470     2.458
  41   1 H      0.059  0.941  0.000  0.000     2.215     2.327
  42   1 H      0.057  0.943  0.000  0.000     2.237     2.339
  43   7 N     -0.156  1.236  3.919  0.000    24.367     7.331
  44   6 C     -0.025  1.046  2.979  0.000    21.090     6.550
  45   6 C      0.252  1.046  2.702  0.000    22.774     7.815
  46   8 O     -0.527  1.762  4.765  0.000    24.387     6.621
  47   1 H      0.190  0.810  0.000  0.000     1.159     1.686
  48   1 H      0.087  0.913  0.000  0.000     1.906     2.159
  49   1 H      0.097  0.903  0.000  0.000     1.812     2.105
  50   7 N     -0.067  1.227  3.840  0.000    22.529     7.050
  51   6 C     -0.015  1.081  2.933  0.000    20.821     6.494
  52   6 C      0.304  1.031  2.665  0.000    21.835     7.652
  53   8 O     -0.365  1.685  4.680  0.000    20.989     6.142
  54   6 C     -0.060  1.050  3.010  0.000    21.624     6.616
  55   6 C     -0.070  1.050  3.020  0.000    21.822     6.647
  56   6 C     -0.005  1.047  2.958  0.000    20.692     6.481
  57   1 H      0.096  0.904  0.000  0.000     1.820     2.110
  58   1 H      0.060  0.940  0.000  0.000     2.202     2.321
  59   1 H      0.060  0.940  0.000  0.000     2.204     2.322
  60   1 H      0.058  0.942  0.000  0.000     2.224     2.332
  61   1 H      0.063  0.937  0.000  0.000     2.159     2.298
  62   1 H      0.072  0.928  0.000  0.000     2.061     2.245
  63   1 H      0.067  0.933  0.000  0.000     2.123     2.279
  64   7 N     -0.226  1.282  3.944  0.000    25.947     7.565
  65   6 C      0.045  1.048  2.907  0.000    19.814     6.338
  66   6 C      0.146  1.146  2.709  0.000    24.810     8.156
  67   8 O     -0.494  1.875  4.619  0.000    23.668     6.522
  68   6 C     -0.063  1.062  3.001  0.000    21.698     6.630
  69   6 C     -0.019  1.060  2.959  0.000    20.883     6.500
  70   6 C     -0.126  1.045  3.081  0.000    22.970     6.833
  71   6 C     -0.125  1.042  3.083  0.000    22.950     6.831
  72   1 H      0.232  0.768  0.000  0.000     0.958     1.533
  73   1 H      0.100  0.900  0.000  0.000     1.781     2.087
  74   1 H      0.063  0.937  0.000  0.000     2.169     2.303
  75   1 H      0.059  0.941  0.000  0.000     2.206     2.323
  76   1 H      0.060  0.940  0.000  0.000     2.201     2.320
  77   1 H      0.063  0.937  0.000  0.000     2.160     2.298
  78   1 H      0.048  0.952  0.000  0.000     2.350     2.397
  79   1 H      0.043  0.957  0.000  0.000     2.404     2.425
  80   1 H      0.053  0.947  0.000  0.000     2.280     2.361
  81   1 H      0.042  0.958  0.000  0.000     2.422     2.434
  82   1 H      0.045  0.955  0.000  0.000     2.385     2.415
  83   7 N     -0.387  1.293  4.094  0.000    30.009     8.136
  84   6 C      0.036  1.052  2.912  0.000    19.985     6.368
  85   6 C      0.194  1.089  2.717  0.000    23.860     7.999
  86   8 O     -0.362  1.748  4.614  0.000    20.934     6.134
  87   6 C      0.076  1.045  2.879  0.000    19.523     6.329
  88   8 O     -0.493  1.741  4.752  0.000    22.751     6.439
  89   1 H      0.173  0.827  0.000  0.000     1.254     1.754
  90   1 H      0.083  0.917  0.000  0.000     1.945     2.181
  91   1 H      0.048  0.952  0.000  0.000     2.349     2.397
  92   1 H      0.022  0.978  0.000  0.000     2.699     2.569
  93   1 H      0.344  0.656  0.000  0.000     0.602     1.219
  94   7 N     -0.381  1.316  4.065  0.000    29.847     8.114
  95   6 C      0.046  1.054  2.899  0.000    19.807     6.338
  96   6 C      0.202  1.083  2.716  0.000    23.708     7.974
  97   8 O     -0.379  1.745  4.634  0.000    21.263     6.182
  98   6 C     -0.035  1.036  2.998  0.000    21.181     6.551
  99   6 C     -0.024  1.072  2.952  0.000    28.582     8.770
 100   6 C     -0.012  1.075  2.937  0.000    28.320     8.729
 101   6 C     -0.017  1.081  2.936  0.000    28.344     8.727
 102   7 N     -0.123  1.243  3.880  0.000    23.674     7.226
 103   6 C      0.042  1.062  2.896  0.000    27.038     8.530
 104   6 C     -0.033  1.069  2.964  0.000    28.825     8.804
 105   6 C     -0.051  1.067  2.984  0.000    29.271     8.871
 106   6 C     -0.044  1.074  2.970  0.000    29.103     8.847
 107   6 C     -0.054  1.080  2.974  0.000    29.333     8.882
 108   1 H      0.160  0.840  0.000  0.000     1.333     1.808
 109   1 H      0.060  0.940  0.000  0.000     2.204     2.322
 110   1 H      0.027  0.973  0.000  0.000     2.624     2.533
 111   1 H      0.036  0.964  0.000  0.000     2.504     2.475
 112   1 H      0.049  0.951  0.000  0.000     2.332     2.388
 113   1 H      0.204  0.796  0.000  0.000     1.084     1.631
 114   1 H      0.009  0.991  0.000  0.000     2.913     2.669
 115   1 H      0.057  0.943  0.000  0.000     2.231     2.336
 116   1 H      0.016  0.984  0.000  0.000     2.790     2.612
 117   1 H      0.049  0.951  0.000  0.000     2.331     2.388
 118   7 N     -0.390  1.326  4.064  0.000    30.087     8.146
 119   6 C      0.026  1.063  2.912  0.000    20.151     6.393
 120   6 C      0.270  1.047  2.683  0.000    22.438     7.757
 121   8 O     -0.495  1.754  4.741  0.000    23.683     6.525
 122   6 C     -0.028  1.070  2.958  0.000    21.045     6.525
 123   6 C     -0.059  1.051  3.008  0.000    21.629     6.621
 124   6 C     -0.118  1.038  3.080  0.000    22.803     6.809
 125   6 C     -0.107  1.035  3.072  0.000    22.612     6.781
 126   1 H      0.162  0.838  0.000  0.000     1.324     1.802
 127   1 H      0.038  0.962  0.000  0.000     2.471     2.458
 128   1 H      0.031  0.969  0.000  0.000     2.567     2.506
 129   1 H      0.036  0.964  0.000  0.000     2.498     2.472
 130   1 H      0.034  0.966  0.000  0.000     2.529     2.487
 131   1 H      0.050  0.950  0.000  0.000     2.322     2.383
 132   1 H      0.033  0.967  0.000  0.000     2.541     2.493
 133   1 H      0.043  0.957  0.000  0.000     2.413     2.429
 134   1 H      0.036  0.964  0.000  0.000     2.497     2.471
 135   1 H      0.044  0.956  0.000  0.000     2.399     2.422
 136   1 H      0.035  0.965  0.000  0.000     2.517     2.481
 137   7 N     -0.164  1.234  3.931  0.000    24.557     7.360
 138   6 C      0.016  1.062  2.922  0.000    20.310     6.417
 139   6 C      0.270  1.045  2.686  0.000    22.448     7.759
 140   8 O     -0.475  1.741  4.734  0.000    23.243     6.464
 141   6 C     -0.076  1.054  3.022  0.000    21.951     6.669
 142   6 C     -0.002  1.072  2.929  0.000    28.069     8.690
 143   6 C     -0.043  1.081  2.961  0.000    29.058     8.840
 144   6 C     -0.042  1.082  2.960  0.000    29.045     8.838
 145   6 C     -0.058  1.074  2.984  0.000    29.439     8.897
 146   6 C     -0.083  1.080  3.003  0.000    30.086     8.994
 147   6 C      0.139  1.053  2.808  0.000    24.957     8.188
 148   8 O     -0.423  1.728  4.695  0.000    21.307     6.231
 149   1 H      0.204  0.796  0.000  0.000     1.088     1.634
 150   1 H      0.098  0.902  0.000  0.000     1.808     2.103
 151   1 H      0.061  0.939  0.000  0.000     2.191     2.315
 152   1 H      0.070  0.930  0.000  0.000     2.086     2.259
 153   1 H      0.031  0.969  0.000  0.000     2.573     2.508
 154   1 H      0.036  0.964  0.000  0.000     2.499     2.472
 155   1 H      0.060  0.940  0.000  0.000     2.193     2.316
 156   1 H      0.045  0.955  0.000  0.000     2.388     2.416
 157   1 H      0.339  0.661  0.000  0.000     0.616     1.233
 158   7 N     -0.169  1.230  3.939  0.000    24.661     7.375
 159   6 C     -0.028  1.044  2.984  0.000    21.144     6.558
 160   6 C      0.264  1.041  2.696  0.000    22.553     7.777
 161   8 O     -0.508  1.749  4.759  0.000    23.964     6.563
 162   1 H      0.215  0.785  0.000  0.000     1.032     1.591
 163   1 H      0.082  0.918  0.000  0.000     1.957     2.188
 164   1 H      0.109  0.891  0.000  0.000     1.705     2.042
 165   7 N     -0.156  1.238  3.918  0.000    24.382     7.334
 166   6 C      0.008  1.062  2.930  0.000    20.450     6.438
 167   6 C      0.267  1.040  2.692  0.000    22.485     7.765
 168   8 O     -0.470  1.731  4.738  0.000    23.121     6.447
 169   6 C     -0.074  1.055  3.019  0.000    21.908     6.664
 170   6 C     -0.093  1.048  3.045  0.000    22.276     6.719
 171   6 C      0.280  1.050  2.671  0.000    22.265     7.726
 172   8 O     -0.501  1.753  4.748  0.000    23.812     6.542
 173   7 N     -0.299  1.260  4.039  0.000    27.704     7.817
 174   1 H      0.230  0.770  0.000  0.000     0.963     1.537
 175   1 H      0.094  0.906  0.000  0.000     1.839     2.121
 176   1 H      0.061  0.939  0.000  0.000     2.188     2.313
 177   1 H      0.066  0.934  0.000  0.000     2.131     2.283
 178   1 H      0.081  0.919  0.000  0.000     1.970     2.195
 179   1 H      0.078  0.922  0.000  0.000     2.001     2.212
 180   1 H      0.221  0.779  0.000  0.000     1.005     1.570
 181   1 H      0.229  0.771  0.000  0.000     0.971     1.543
 182   7 N     -0.178  1.246  3.932  0.000    24.850     7.404
 183   6 C      0.010  1.064  2.926  0.000    20.400     6.430
 184   6 C      0.268  1.044  2.688  0.000    22.468     7.762
 185   8 O     -0.500  1.741  4.759  0.000    23.788     6.539
 186   6 C     -0.015  1.055  2.960  0.000    20.811     6.488
 187   6 C     -0.116  1.039  3.077  0.000    22.771     6.804
 188   6 C     -0.124  1.042  3.082  0.000    22.921     6.826
 189   1 H      0.224  0.776  0.000  0.000     0.993     1.561
 190   1 H      0.082  0.918  0.000  0.000     1.960     2.190
 191   1 H      0.049  0.951  0.000  0.000     2.338     2.391
 192   1 H      0.063  0.937  0.000  0.000     2.168     2.302
 193   1 H      0.027  0.973  0.000  0.000     2.629     2.536
 194   1 H      0.051  0.949  0.000  0.000     2.311     2.377
 195   1 H      0.055  0.945  0.000  0.000     2.264     2.353
 196   1 H      0.052  0.948  0.000  0.000     2.291     2.367
 197   1 H      0.044  0.956  0.000  0.000     2.396     2.421
 198   7 N     -0.178  1.257  3.921  0.000    24.854     7.404
 199   6 C      0.026  1.058  2.916  0.000    20.154     6.394
 200   6 C      0.258  1.052  2.691  0.000    22.665     7.797
 201   8 O     -0.482  1.725  4.757  0.000    23.389     6.484
 202   6 C     -0.114  1.037  3.077  0.000    22.733     6.798
 203   1 H      0.227  0.773  0.000  0.000     0.978     1.549
 204   1 H      0.062  0.938  0.000  0.000     2.172     2.305
 205   1 H      0.051  0.949  0.000  0.000     2.304     2.374
 206   1 H      0.074  0.926  0.000  0.000     2.043     2.235
 207   1 H      0.057  0.943  0.000  0.000     2.230     2.335
 208   7 N     -0.071  1.226  3.845  0.000    22.620     7.064
 209   6 C      0.019  1.065  2.916  0.000    20.223     6.398
 210   6 C      0.276  1.040  2.684  0.000    22.333     7.738
 211   8 O     -0.485  1.744  4.740  0.000    23.448     6.492
 212   6 C     -0.067  1.053  3.014  0.000    21.750     6.635
 213   6 C     -0.072  1.050  3.021  0.000    21.841     6.649
 214   6 C     -0.007  1.047  2.960  0.000    20.735     6.489
 215   1 H      0.071  0.929  0.000  0.000     2.080     2.256
 216   1 H      0.050  0.950  0.000  0.000     2.317     2.381
 217   1 H      0.067  0.933  0.000  0.000     2.117     2.275
 218   1 H      0.070  0.930  0.000  0.000     2.084     2.258
 219   1 H      0.067  0.933  0.000  0.000     2.117     2.275
 220   1 H      0.057  0.943  0.000  0.000     2.234     2.337
 221   1 H      0.071  0.929  0.000  0.000     2.076     2.253
 222   7 N     -0.193  1.255  3.938  0.000    25.191     7.454
 223   6 C      0.034  1.054  2.912  0.000    20.008     6.369
[...]
 472   6 C     -0.087  1.028  3.059  0.000    22.225     6.723
 473   1 H      0.229  0.771  0.000  0.000     0.968     1.541
 474   1 H      0.057  0.943  0.000  0.000     2.232     2.336
 475   1 H      0.054  0.946  0.000  0.000     2.275     2.359
 476   1 H      0.003  0.997  0.000  0.000     3.013     2.715
 477   1 H      0.045  0.955  0.000  0.000     2.385     2.415
 478   1 H      0.069  0.931  0.000  0.000     2.100     2.266
 479   1 H      0.056  0.944  0.000  0.000     2.248     2.345
 480   1 H      0.038  0.962  0.000  0.000     2.479     2.462
 481   1 H      0.014  0.986  0.000  0.000     2.831     2.631
 482   1 H      0.043  0.957  0.000  0.000     2.406     2.426
 483   1 H      0.018  0.982  0.000  0.000     2.760     2.598
 484   7 N     -0.145  1.232  3.914  0.000    24.149     7.298
 485   6 C      0.025  1.060  2.915  0.000    20.155     6.393
 486   6 C      0.267  1.049  2.683  0.000    22.489     7.766
 487   8 O     -0.479  1.761  4.719  0.000    23.330     6.476
 488   6 C     -0.069  1.053  3.016  0.000    21.810     6.647
 489   6 C      0.007  1.079  2.914  0.000    27.862     8.658
 490   6 C     -0.051  1.079  2.972  0.000    29.260     8.871
 491   6 C     -0.044  1.086  2.959  0.000    29.105     8.847
 492   6 C     -0.037  1.082  2.955  0.000    28.920     8.819
 493   6 C     -0.033  1.079  2.953  0.000    28.815     8.803
 494   6 C     -0.036  1.080  2.956  0.000    28.886     8.814
 495   1 H      0.199  0.801  0.000  0.000     1.109     1.650
 496   1 H      0.079  0.921  0.000  0.000     1.986     2.204
 497   1 H      0.056  0.944  0.000  0.000     2.252     2.347
 498   1 H      0.064  0.936  0.000  0.000     2.147     2.292
 499   1 H      0.057  0.943  0.000  0.000     2.239     2.340
 500   1 H      0.040  0.960  0.000  0.000     2.451     2.448
 501   1 H      0.045  0.955  0.000  0.000     2.379     2.412
 502   1 H      0.036  0.964  0.000  0.000     2.500     2.472
 503   1 H      0.040  0.960  0.000  0.000     2.451     2.448
 504   7 N     -0.179  1.250  3.929  0.000    24.882     7.408
 505   6 C      0.024  1.051  2.924  0.000    20.164     6.393
 506   6 C      0.290  1.037  2.672  0.000    22.080     7.695
 507   8 O     -0.471  1.744  4.728  0.000    23.156     6.452
 508   6 C     -0.125  1.065  3.060  0.000    22.888     6.810
 509   6 C      0.279  1.045  2.677  0.000    22.278     7.728
 510   8 O     -0.472  1.735  4.738  0.000    23.184     6.456
 511   7 N     -0.274  1.264  4.010  0.000    27.088     7.730
 512   1 H      0.222  0.778  0.000  0.000     1.001     1.567
 513   1 H      0.092  0.908  0.000  0.000     1.862     2.134
 514   1 H      0.112  0.888  0.000  0.000     1.679     2.026
 515   1 H      0.095  0.905  0.000  0.000     1.830     2.116
 516   1 H      0.253  0.747  0.000  0.000     0.873     1.463
 517   1 H      0.226  0.774  0.000  0.000     0.983     1.553
 518   7 N     -0.179  1.246  3.933  0.000    24.878     7.408
 519   6 C      0.011  1.059  2.930  0.000    20.402     6.431
 520   6 C      0.281  1.036  2.683  0.000    22.252     7.725
 521   8 O     -0.473  1.727  4.746  0.000    23.204     6.458
 522   6 C      0.057  1.050  2.893  0.000    19.852     6.387
 523   8 O     -0.490  1.729  4.761  0.000    22.675     6.428
 524   1 H      0.205  0.795  0.000  0.000     1.083     1.631
 525   1 H      0.076  0.924  0.000  0.000     2.017     2.221
 526   1 H      0.065  0.935  0.000  0.000     2.137     2.286
 527   1 H      0.064  0.936  0.000  0.000     2.155     2.296
 528   1 H      0.357  0.643  0.000  0.000     0.572     1.188
 529   7 N     -0.175  1.244  3.931  0.000    24.787     7.394
 530   6 C      0.025  1.057  2.918  0.000    20.157     6.392
 531   6 C      0.272  1.039  2.688  0.000    22.400     7.750
 532   8 O     -0.475  1.737  4.738  0.000    23.239     6.463
 533   6 C     -0.063  1.053  3.010  0.000    21.709     6.633
 534   6 C     -0.100  1.064  3.036  0.000    22.408     6.740
 535   6 C      0.363  1.030  2.608  0.000    20.846     7.472
 536   8 O     -0.580  1.746  4.834  0.000    25.596     6.784
 537   8 O     -0.595  1.774  4.821  0.000    25.998     6.836
 538   1 H      0.210  0.790  0.000  0.000     1.055     1.609
 539   1 H      0.073  0.927  0.000  0.000     2.053     2.241
 540   1 H      0.057  0.943  0.000  0.000     2.230     2.335
 541   1 H      0.072  0.928  0.000  0.000     2.069     2.249
 542   1 H      0.025  0.975  0.000  0.000     2.653     2.547
 543   1 H      0.047  0.953  0.000  0.000     2.354     2.399
 544   7 N     -0.189  1.245  3.943  0.000    25.093     7.440
 545   6 C      0.009  1.064  2.927  0.000    20.430     6.436
 546   6 C      0.271  1.038  2.692  0.000    22.429     7.755
 547   8 O     -0.483  1.734  4.749  0.000    23.410     6.487
 548   6 C     -0.082  1.053  3.028  0.000    22.051     6.685
 549   6 C      0.063  1.068  2.869  0.000    26.519     8.444
 550   7 N     -0.293  1.513  3.779  0.000    28.442     7.905
 551   6 C     -0.033  1.078  2.955  0.000    28.823     8.805
 552   6 C      0.066  1.082  2.852  0.000    26.505     8.445
 553   7 N     -0.141  1.249  3.892  0.000    24.044     7.283
 554   1 H      0.218  0.782  0.000  0.000     1.017     1.580
 555   1 H      0.099  0.901  0.000  0.000     1.799     2.097
 556   1 H      0.080  0.920  0.000  0.000     1.982     2.202
 557   1 H      0.082  0.918  0.000  0.000     1.956     2.187
 558   1 H      0.055  0.945  0.000  0.000     2.263     2.352
 559   1 H      0.063  0.937  0.000  0.000     2.167     2.302
 560   1 H      0.215  0.785  0.000  0.000     1.032     1.591
 561   7 N     -0.183  1.240  3.943  0.000    24.967     7.421
 562   6 C      0.017  1.061  2.922  0.000    20.285     6.413
 563   6 C      0.270  1.042  2.688  0.000    22.432     7.756
 564   8 O     -0.487  1.738  4.749  0.000    23.496     6.499
 565   6 C     -0.067  1.048  3.019  0.000    21.776     6.643
 566   6 C     -0.109  1.061  3.048  0.000    22.572     6.763
 567   6 C      0.280  1.039  2.682  0.000    22.268     7.726
 568   8 O     -0.478  1.750  4.729  0.000    23.312     6.473
 569   7 N     -0.280  1.266  4.014  0.000    27.229     7.750
 570   1 H      0.214  0.786  0.000  0.000     1.036     1.594
 571   1 H      0.086  0.914  0.000  0.000     1.919     2.167
 572   1 H      0.068  0.932  0.000  0.000     2.109     2.271
 573   1 H      0.079  0.921  0.000  0.000     1.987     2.205
 574   1 H      0.077  0.923  0.000  0.000     2.008     2.216
 575   1 H      0.078  0.922  0.000  0.000     1.997     2.210
 576   1 H      0.221  0.779  0.000  0.000     1.005     1.570
 577   1 H      0.221  0.779  0.000  0.000     1.004     1.570
 578   7 N     -0.165  1.241  3.924  0.000    24.560     7.360
 579   6 C      0.006  1.071  2.923  0.000    20.482     6.444
 580   6 C      0.269  1.040  2.690  0.000    22.449     7.759
 581   8 O     -0.483  1.741  4.742  0.000    23.408     6.487
 582   6 C     -0.018  1.062  2.956  0.000    20.860     6.496
 583   6 C     -0.124  1.038  3.086  0.000    22.926     6.826
 584   6 C     -0.124  1.040  3.084  0.000    22.926     6.826
 585   1 H      0.199  0.801  0.000  0.000     1.111     1.651
 586   1 H      0.082  0.918  0.000  0.000     1.957     2.188
 587   1 H      0.048  0.952  0.000  0.000     2.349     2.397
 588   1 H      0.064  0.936  0.000  0.000     2.152     2.294
 589   1 H      0.032  0.968  0.000  0.000     2.555     2.500
 590   1 H      0.061  0.939  0.000  0.000     2.191     2.315
 591   1 H      0.065  0.935  0.000  0.000     2.145     2.290
 592   1 H      0.051  0.949  0.000  0.000     2.310     2.377
 593   1 H      0.038  0.962  0.000  0.000     2.474     2.459
 594   7 N     -0.188  1.255  3.932  0.000    25.075     7.437
 595   6 C      0.014  1.065  2.921  0.000    20.346     6.423
 596   6 C      0.251  1.058  2.691  0.000    22.789     7.818
 597   8 O     -0.505  1.754  4.750  0.000    23.893     6.554
 598   6 C     -0.074  1.057  3.016  0.000    21.901     6.662
 599   6 C     -0.012  1.055  2.957  0.000    20.752     6.479
 600   6 C     -0.113  1.040  3.073  0.000    22.716     6.795
 601   6 C     -0.120  1.040  3.080  0.000    22.863     6.818
 602   1 H      0.238  0.762  0.000  0.000     0.931     1.511
 603   1 H      0.076  0.924  0.000  0.000     2.017     2.221
 604   1 H      0.060  0.940  0.000  0.000     2.198     2.318
 605   1 H      0.054  0.946  0.000  0.000     2.277     2.360
 606   1 H      0.032  0.968  0.000  0.000     2.561     2.503
 607   1 H      0.041  0.959  0.000  0.000     2.433     2.439
 608   1 H      0.037  0.963  0.000  0.000     2.489     2.467
 609   1 H      0.046  0.954  0.000  0.000     2.376     2.411
 610   1 H      0.040  0.960  0.000  0.000     2.446     2.446
 611   1 H      0.055  0.945  0.000  0.000     2.263     2.353
 612   1 H      0.035  0.965  0.000  0.000     2.511     2.478
 613   7 N     -0.162  1.247  3.916  0.000    24.514     7.353
 614   6 C      0.007  1.066  2.927  0.000    20.475     6.443
 615   6 C      0.269  1.043  2.688  0.000    22.462     7.761
 616   8 O     -0.438  1.725  4.713  0.000    22.462     6.354
 617   6 C     -0.086  1.058  3.028  0.000    22.129     6.697
 618   6 C     -0.078  1.052  3.025  0.000    21.982     6.675
 619   6 C     -0.094  1.058  3.036  0.000    22.295     6.722
 620   6 C     -0.031  1.055  2.976  0.000    21.228     6.577
 621   7 N     -0.192  1.255  3.936  0.000    25.144     7.448
 622   1 H      0.233  0.767  0.000  0.000     0.953     1.529
 623   1 H      0.091  0.909  0.000  0.000     1.868     2.138
 624   1 H      0.074  0.926  0.000  0.000     2.045     2.236
 625   1 H      0.090  0.910  0.000  0.000     1.883     2.146
 626   1 H      0.058  0.942  0.000  0.000     2.228     2.334
 627   1 H      0.058  0.942  0.000  0.000     2.217     2.328
 628   1 H      0.081  0.919  0.000  0.000     1.970     2.195
 629   1 H      0.077  0.923  0.000  0.000     2.007     2.216
 630   1 H      0.090  0.910  0.000  0.000     1.876     2.142
 631   1 H      0.097  0.903  0.000  0.000     1.817     2.108
 632   1 H      0.303  0.697  0.000  0.000     0.701     1.310
 633   1 H      0.272  0.728  0.000  0.000     0.802     1.403
 634   1 H      0.246  0.754  0.000  0.000     0.898     1.485
 635   7 N     -0.189  1.239  3.950  0.000    25.106     7.442
 636   6 C      0.020  1.060  2.920  0.000    20.248     6.408
 637   6 C      0.266  1.044  2.689  0.000    22.511     7.769
 638   8 O     -0.473  1.750  4.724  0.000    23.196     6.457
 639   6 C     -0.109  1.062  3.047  0.000    22.585     6.765
 640   6 C      0.287  1.039  2.674  0.000    22.139     7.704
 641   8 O     -0.522  1.763  4.759  0.000    24.267     6.605
 642   7 N     -0.279  1.272  4.008  0.000    27.222     7.749
 643   1 H      0.203  0.797  0.000  0.000     1.091     1.636
 644   1 H      0.101  0.899  0.000  0.000     1.772     2.082
 645   1 H      0.094  0.906  0.000  0.000     1.841     2.122
 646   1 H      0.079  0.921  0.000  0.000     1.987     2.205
 647   1 H      0.245  0.755  0.000  0.000     0.904     1.489
 648   1 H      0.222  0.778  0.000  0.000     0.999     1.565
 649   7 N     -0.183  1.250  3.933  0.000    24.963     7.421
 650   6 C      0.016  1.066  2.917  0.000    20.308     6.417
 651   6 C      0.267  1.040  2.693  0.000    22.494     7.766
 652   8 O     -0.459  1.755  4.704  0.000    22.888     6.414
 653   6 C     -0.100  1.057  3.043  0.000    22.402     6.737
 654   6 C      0.302  1.032  2.666  0.000    21.874     7.658
 655   8 O     -0.496  1.750  4.746  0.000    23.704     6.528
 656   7 N     -0.287  1.262  4.025  0.000    27.412     7.776
 657   1 H      0.223  0.777  0.000  0.000     0.997     1.564
 658   1 H      0.087  0.913  0.000  0.000     1.905     2.158
 659   1 H      0.085  0.915  0.000  0.000     1.929     2.172
 660   1 H      0.078  0.922  0.000  0.000     1.997     2.210
 661   1 H      0.229  0.771  0.000  0.000     0.970     1.543
 662   1 H      0.212  0.788  0.000  0.000     1.048     1.604
 663   7 N     -0.168  1.233  3.935  0.000    24.637     7.372
 664   6 C     -0.003  1.070  2.933  0.000    20.647     6.471
 665   6 C      0.265  1.040  2.695  0.000    22.537     7.774
 666   8 O     -0.464  1.731  4.733  0.000    23.009     6.431
 667   6 C      0.119  1.044  2.837  0.000    18.735     6.179
 668   8 O     -0.458  1.703  4.755  0.000    22.007     6.333
 669   6 C     -0.140  1.043  3.097  0.000    23.265     6.878
 670   1 H      0.205  0.795  0.000  0.000     1.080     1.628
 671   1 H      0.092  0.908  0.000  0.000     1.855     2.130
 672   1 H      0.033  0.967  0.000  0.000     2.544     2.494
 673   1 H      0.319  0.681  0.000  0.000     0.666     1.282
 674   1 H      0.080  0.920  0.000  0.000     1.981     2.201
 675   1 H      0.054  0.946  0.000  0.000     2.265     2.353
 676   1 H      0.069  0.931  0.000  0.000     2.093     2.263
 677   7 N     -0.162  1.238  3.924  0.000    24.505     7.352
 678   6 C      0.016  1.061  2.924  0.000    20.317     6.419
 679   6 C      0.272  1.036  2.692  0.000    22.405     7.752
 680   8 O     -0.483  1.731  4.752  0.000    23.412     6.487
 681   6 C     -0.078  1.059  3.019  0.000    21.990     6.676
 682   6 C     -0.005  1.079  2.925  0.000    28.132     8.700
 683   6 C     -0.041  1.080  2.961  0.000    29.007     8.832
 684   6 C     -0.040  1.080  2.960  0.000    28.999     8.831
 685   6 C     -0.058  1.073  2.985  0.000    29.444     8.899
 686   6 C     -0.075  1.076  2.999  0.000    29.868     8.962
 687   6 C      0.144  1.040  2.816  0.000    24.866     8.173
 688   8 O     -0.424  1.714  4.710  0.000    21.324     6.234
 689   1 H      0.223  0.777  0.000  0.000     0.995     1.562
 690   1 H      0.091  0.909  0.000  0.000     1.871     2.139
 691   1 H      0.065  0.935  0.000  0.000     2.140     2.288
 692   1 H      0.068  0.932  0.000  0.000     2.111     2.272
 693   1 H      0.039  0.961  0.000  0.000     2.457     2.451
 694   1 H      0.035  0.965  0.000  0.000     2.512     2.478
 695   1 H      0.043  0.957  0.000  0.000     2.403     2.424
 696   1 H      0.050  0.950  0.000  0.000     2.325     2.385
 697   1 H      0.333  0.667  0.000  0.000     0.630     1.247
 698   7 N     -0.155  1.232  3.923  0.000    24.361     7.330
 699   6 C      0.025  1.057  2.918  0.000    20.165     6.394
 700   6 C      0.207  1.084  2.709  0.000    23.604     7.957
 701   8 O     -0.360  1.737  4.624  0.000    20.901     6.129
 702   6 C     -0.066  1.047  3.018  0.000    21.752     6.639
 703   6 C     -0.039  1.068  2.971  0.000    28.941     8.825
 704   6 C     -0.014  1.073  2.941  0.000    28.367     8.736
 705   6 C     -0.021  1.078  2.944  0.000    28.450     8.744
 706   7 N     -0.122  1.227  3.894  0.000    23.643     7.222
 707   6 C      0.051  1.062  2.887  0.000    26.828     8.495
 708   6 C     -0.042  1.074  2.968  0.000    29.047     8.838
 709   6 C     -0.047  1.069  2.978  0.000    29.161     8.855
 710   6 C     -0.046  1.075  2.971  0.000    29.143     8.853
 711   6 C     -0.044  1.079  2.964  0.000    29.081     8.844
 712   1 H      0.212  0.788  0.000  0.000     1.047     1.603
 713   1 H      0.101  0.899  0.000  0.000     1.773     2.082
 714   1 H      0.081  0.919  0.000  0.000     1.970     2.195
 715   1 H      0.073  0.927  0.000  0.000     2.055     2.242
 716   1 H      0.063  0.937  0.000  0.000     2.163     2.300
 717   1 H      0.175  0.825  0.000  0.000     1.243     1.746
 718   1 H      0.032  0.968  0.000  0.000     2.565     2.504
 719   1 H      0.015  0.985  0.000  0.000     2.816     2.624
 720   1 H      0.028  0.972  0.000  0.000     2.612     2.527
 721   1 H      0.022  0.978  0.000  0.000     2.705     2.572
 722   7 N     -0.390  1.321  4.068  0.000    30.082     8.146
 723   6 C      0.038  1.057  2.904  0.000    19.945     6.361
 724   6 C      0.201  1.094  2.705  0.000    23.726     7.977
 725   8 O     -0.365  1.760  4.605  0.000    21.004     6.144
 726   6 C     -0.052  1.051  3.001  0.000    21.497     6.600
 727   6 C     -0.095  1.061  3.034  0.000    22.303     6.724
 728   6 C      0.361  1.027  2.612  0.000    20.875     7.477
 729   8 O     -0.575  1.765  4.810  0.000    25.516     6.772
 730   8 O     -0.570  1.756  4.814  0.000    25.367     6.754
 731   1 H      0.170  0.830  0.000  0.000     1.272     1.766
 732   1 H      0.051  0.949  0.000  0.000     2.309     2.376
 733   1 H      0.051  0.949  0.000  0.000     2.305     2.374
 734   1 H      0.042  0.958  0.000  0.000     2.418     2.432
 735   1 H      0.025  0.975  0.000  0.000     2.666     2.553
 736   1 H      0.037  0.963  0.000  0.000     2.486     2.466
 737   1 H      0.185  0.815  0.000  0.000     1.184     1.704
 738   1 H      0.106  0.894  0.000  0.000     1.732     2.058
 739   1 H      0.182  0.818  0.000  0.000     1.202     1.717
 740   1 H      0.071  0.929  0.000  0.000     2.077     2.254
 741   1 H      0.170  0.830  0.000  0.000     1.271     1.766
 742   1 H      0.041  0.959  0.000  0.000     2.437     2.441
 743   1 H      0.181  0.819  0.000  0.000     1.208     1.721
 744   1 H      0.075  0.925  0.000  0.000     2.026     2.226
 745   1 H      0.188  0.812  0.000  0.000     1.167     1.692
 746   1 H      0.074  0.926  0.000  0.000     2.038     2.232
 747   1 H      0.175  0.825  0.000  0.000     1.241     1.745
 748   1 H      0.065  0.935  0.000  0.000     2.140     2.287
 749   1 H      0.176  0.824  0.000  0.000     1.236     1.741
 750   1 H      0.077  0.923  0.000  0.000     2.009     2.216
 751   1 H      0.171  0.829  0.000  0.000     1.269     1.764
 752   1 H      0.061  0.939  0.000  0.000     2.188     2.313
 753   1 H      0.179  0.821  0.000  0.000     1.218     1.728
 754   1 H      0.080  0.920  0.000  0.000     1.983     2.202
 755   1 H      0.177  0.823  0.000  0.000     1.229     1.736
 756   1 H      0.083  0.917  0.000  0.000     1.951     2.184
 757   1 H      0.187  0.813  0.000  0.000     1.177     1.699
 758   1 H      0.069  0.931  0.000  0.000     2.092     2.261

 Mol. C6AA /au·bohr⁶  :    5459674.863147
 Mol. C8AA /au·bohr⁸  :  122383415.149046
 Mol. α(0) /au        :       3519.377713

 
molecular dipole:
                 x           y           z       tot (Debye)
 q only:       -0.057      -5.245      18.101
   full:        1.598      -5.804      14.916      40.884
molecular quadrupole (traceless):
                xx          xy          yy          xz          yz          zz
 q only:     -449.658    -180.606    -399.039     704.846    1457.423     848.697
  q+dip:     -319.011     -95.077    -471.680     655.513    1183.954     790.691
   full:     -313.671     -84.991    -481.865     661.700    1182.781     795.536
speedup  2.00
cpu  time for grad   55.25 s
wall time for grad   27.63 s

SCC energy    :   -1185.1634318
rep           :      14.7947566
ES            :       3.0185290
AES           :      -0.0915124
AXC           :       0.3981765
disp          :      -1.0708021
XB            :       0.0000000
fix           :       0.0000000
Gborn         :       0.0000000
Gsasa         :       0.0000000
Ghb           :       0.0000000
Gshift        :       0.0000000
Gsolv         :      -0.5112055     -320.79
Etot ala COSMO:   -1185.1634318
grad norm     :       1.0042558
total E       :   -1170.2349563
atomizationE  :     216.9294767   136125.30
(atE without considering molecular charge,
 total energy contains solvation terms)
H-L gap (eV)  :          0.5483

------------------------------------------------------------------------
 * finished run on 2019/05/11 at 17:06:30.107     
------------------------------------------------------------------------
 total:
 * wall-time:     0 d,  0 h,  0 min, 29.263 sec
 *  cpu-time:     0 d,  0 h,  0 min, 57.817 sec
 * ratio c/w:     1.976 speedup
 SCF:
 * wall-time:     0 d,  0 h,  0 min, 28.512 sec
 *  cpu-time:     0 d,  0 h,  0 min, 56.874 sec
 * ratio c/w:     1.995 speedup

