      -----------------------------------------------------------      
     |                   =====================                   |     
     |                           x T B                           |     
     |                   =====================                   |     
     |                         S. Grimme                         |     
     |          Mulliken Center for Theoretical Chemistry        |     
     |                    University of Bonn                     |     
     |                 Version 6.0.1 (SAW181210)                 |     
      -----------------------------------------------------------      

   This program is distributed in the hope that it will be useful,
   but WITHOUT ANY WARRANTY; without even the implied warranty of
   MERCHANTABILITY or FITNESS FOR A PARTICULAR PURPOSE.
   
   FOR NON-COMMERCIAL, ACADEMIA USE ONLY.
   
   Cite this work as:
   S. Grimme, C. Bannwarth, P. Shushkov, J. Comput. Theory Chem., 2017,
   13, 1989-2009.
   C. Bannwarth, S. Ehlert and S. Grimme., ChemRxiv, 2018, preprint.
   http://doi.org/10.26434/chemrxiv.7246238.v1
   
   for sTDA-xTB:
   S. Grimme and C. Bannwarth, J. Chem. Phys., 2016, 145, 054103.
   
   in the mass-spec context:
   V. Asgeirsson, C. Bauer and S. Grimme, Chem. Sci., 2017, 8, 4879.
   
   if GBSA is used:
   P. Shushkov, F. März and S. Grimme, unpublished.
   
   for ANC optimizer:
   S. Grimme, unpublished.
   Rational Function algorithm used in ANCopt:
   F. Eckert, P. Pulay, H.-J. Werner, J. Comput. Chem., 1997, 18, 1473.
   
   with help from (in alphabetical order)
   C. Bannwarth, F. Bohle, G. Brandenburg, E. Caldeweyher, M. Checinski,
   S. Dohm, S. Ehlert, S. Ehrlich, F. März, H. Neugebauer, J. Pisarek,
   P. Pracht, P. Shushkov, and S. Spicher.
   
 * started run on 2019/05/11 at 23:08:37.395     
========================================================================
 # omp threads = 2
========================================================================
number of atoms            : 602
number of electrons        : 1596
charge                     : -4
spin                       : .0
first test random number   : .9900

########################################################################
# WARNING! Please study the warnings concerning your input carefully
#  - Process number higher than OMP_NUM_THREADS, I hope you know what you are doing.
########################################################################

           ------------------------------------------------- 
          |                 G F N 2 - x T B                 |
          | Geometry, Frequencies, Noncovalent interactions |
          |            JCTC 2018 parametrisation            |
           ------------------------------------------------- 
 
      method parameters     
 k(s)        :  1.8500
 k(p)        :  2.2300
 k(d)        :  2.2300
 k(f)        :  2.0000
 kEN (H0ij)  : -2.0000
 D4 a1       :  0.5200
 D4 a2       :  5.0000
 D4 s6       :  1.0000
 D4 s8       :  2.7000
 D4 s9       :  5.0000
 alphaj      :  2.0000

 Solvent             : h2o
 Using internal parameter file: .param_gbsa2_h2o
 Gsolv ref. state (COSMO-RS): gsolv [1 M gas/solution]
 temperature (mdtemp)       :    298.150000000000     
 dielectric constant        :    80.2000000000000     
 rho                        :    1.00000000000000     
 mass                       :    18.0000000000000     
 surface tension            :    15.5689454083859     
 probe radius               :   0.975313790000000     
 vdW radii scaling          :    1.00000000000000     
 Gshift (Eh)                :   1.857443126794793E-003
 c1                         :    1.55243817000000     
 soset                      :   0.130326360000000     
 HB correction              :  T

            Z     q(EN)     CN     RAES       Cart. coordinates
     1  N   5.0   -0.23    3.15    1.95     5.35289   181.10314    -2.38864
     2  C   4.0    0.02    4.19    3.98     3.59564   178.99530    -1.78940
     3  C   4.0    0.14    3.44    3.09     4.83595   176.69786    -0.46020
     4  O   6.0   -0.32    1.28    1.80     4.19576   175.80303     1.57589
     5  C   4.0   -0.09    4.11    3.81     2.37360   177.96805    -4.24493
     6  H   1.0    0.07    1.03    1.43     6.09259   180.97197    -4.15778
     7  H   1.0    0.03    1.04    1.44     2.14196   179.72368    -0.50979
     8  H   1.0    0.03    1.00    1.43     1.27731   176.28509    -3.80558
     9  H   1.0    0.02    1.00    1.43     1.10112   179.36566    -5.04702
    10  H   1.0    0.03    1.00    1.43     3.78606   177.49494    -5.65624
    11  N   5.0   -0.15    3.57    2.13     6.70228   175.65605    -1.78538
    12  C   4.0    0.03    4.42    4.41     8.02486   173.48828    -0.79505
    13  C   4.0    0.16    3.47    3.10     8.98489   174.22444     1.85736
    14  O   6.0   -0.31    1.31    1.80     8.87662   172.69427     3.58054
    15  C   4.0   -0.05    4.29    4.17     9.94697   172.62740    -2.78678
    16  C   4.0   -0.03    4.13    3.86     8.95708   170.72795    -4.81692
    17  C   4.0   -0.08    4.09    3.79     6.31587   171.30024    -5.83561
    18  C   4.0   -0.08    4.09    3.79    10.84029   170.66266    -7.03212
    19  H   1.0    0.06    1.07    1.44     7.08149   176.21643    -3.56878
    20  H   1.0    0.05    1.06    1.44     6.70711   171.93222    -0.40440
    21  H   1.0    0.03    1.03    1.43    10.67856   174.30294    -3.74346
    22  H   1.0    0.04    1.03    1.43    11.53429   171.72152    -1.82777
    23  H   1.0    0.03    1.05    1.44     8.91637   168.85996    -3.93081
    24  H   1.0    0.03    1.00    1.43     5.75339   169.79831    -7.11588
    25  H   1.0    0.04    1.00    1.43     4.92431   171.40351    -4.33244
    26  H   1.0    0.03    1.00    1.43     6.30654   173.05881    -6.90410
    27  H   1.0    0.03    1.00    1.43    10.38547   169.15092    -8.34139
    28  H   1.0    0.04    1.00    1.43    10.79841   172.43663    -8.07265
    29  H   1.0    0.03    1.00    1.43    12.75531   170.36155    -6.34688
    30  N   5.0   -0.14    3.47    2.06     9.79000   176.59770     2.18012
    31  C   4.0    0.03    4.33    4.25     9.88899   178.02273     4.56719
    32  C   4.0    0.16    3.39    3.08     9.22860   176.37030     6.91302
    33  O   6.0   -0.31    1.18    1.80    10.76128   175.79219     8.54754
    34  C   4.0   -0.05    4.28    4.16     8.06310   180.30778     4.25113
    35  C   4.0   -0.06    4.15    3.91     8.71236   182.73071     5.69622
    36  C   4.0   -0.06    4.20    3.99    10.42261   184.37616     4.04853
    37  C   4.0   -0.06    4.12    3.85    11.01636   186.87725     5.32475
    38  N   5.0   -0.14    4.01    2.90    12.98037   188.27076     3.85574
    39  H   1.0    0.07    1.08    1.44     9.90551   177.73681     0.64752
    40  H   1.0    0.04    1.05    1.44    11.83532   178.67973     4.83659
    41  H   1.0    0.04    1.05    1.44     8.04609   180.78707     2.24632
    42  H   1.0    0.04    1.04    1.43     6.14679   179.72765     4.70601
    43  H   1.0    0.02    1.03    1.43     6.97110   183.74613     6.10434
    44  H   1.0    0.03    1.02    1.43     9.63032   182.27675     7.48368
    45  H   1.0    0.03    1.03    1.43    12.16670   183.33798     3.68630
    46  H   1.0    0.03    1.03    1.43     9.47264   184.69855     2.25247
    47  H   1.0    0.02    1.02    1.43     9.31918   188.03107     5.47829
    48  H   1.0    0.02    1.02    1.43    11.74616   186.52074     7.22064
    49  H   1.0    0.02    1.02    1.43    13.43868   189.94276     4.74531
    50  H   1.0    0.03    1.02    1.43    14.58700   187.17368     3.71819
    51  H   1.0    0.03    1.02    1.43    12.34602   188.66824     2.06072
    52  N   5.0   -0.14    3.55    2.11     6.74903   175.83206     6.99589
    53  C   4.0    0.03    4.46    4.48     5.39593   174.56967     8.98870
    54  C   4.0    0.14    3.64    3.20     4.59828   171.86864     8.44823
    55  O   6.0   -0.31    1.43    1.80     4.20973   170.53627    10.31742
    56  C   4.0   -0.02    4.32    4.24     2.88667   175.96389     9.60898
    57  C   4.0   -0.05    4.19    3.98     0.82261   175.39432     7.59461
    58  C   4.0   -0.09    4.11    3.82     3.45649   178.80273     9.87856
    59  C   4.0   -0.08    4.00    3.63    -0.90924   173.09684     8.04189
    60  H   1.0    0.10    1.09    1.44     5.73254   176.12415     5.40103
    61  H   1.0    0.05    1.06    1.44     6.60348   174.57660    10.66502
    62  H   1.0    0.04    1.06    1.44     2.25607   175.23666    11.42906
    63  H   1.0    0.03    1.03    1.43    -0.41015   177.04613     7.48714
    64  H   1.0    0.05    1.03    1.43     1.70449   175.19865     5.74083
    65  H   1.0    0.02    1.00    1.43     1.88220   179.74001    10.80634
    66  H   1.0    0.04    1.00    1.43     5.13926   179.07672    11.01351
    67  H   1.0    0.03    1.00    1.43     3.72997   179.67883     8.04467
    68  H   1.0    0.03    1.00    1.43    -1.87128   172.61246     6.29409
    69  H   1.0    0.06    1.01    1.43     0.09715   171.44189     8.70377
    70  H   1.0    0.03    1.00    1.43    -2.33710   173.53864     9.45644
    71  N   5.0   -0.15    3.45    2.05     4.14573   171.06584     6.05583
    72  C   4.0    0.04    4.41    4.40     3.90987   168.34867     5.73697
    73  C   4.0    0.16    3.40    3.08     6.17481   166.91898     6.96368
    74  O   6.0   -0.31    1.21    1.80     5.99706   164.65888     7.36902
    75  C   4.0   -0.05    4.28    4.16     3.42106   167.45003     3.01588
    76  C   4.0   -0.02    4.17    3.95     2.05139   164.85277     2.94869
    77  C   4.0   -0.09    4.12    3.85    -0.78549   165.24070     3.24096
    78  C   4.0   -0.08    4.11    3.82     2.47836   163.40097     0.51029
    79  H   1.0    0.10    1.07    1.44     4.90806   172.05156     4.60262
    80  H   1.0    0.05    1.06    1.44     2.30900   167.75131     6.91800
    81  H   1.0    0.04    1.03    1.43     2.27506   168.86234     2.05050
    82  H   1.0    0.05    1.03    1.43     5.23635   167.26343     2.04750
    83  H   1.0    0.06    1.06    1.44     2.76879   163.71168     4.51617
    84  H   1.0    0.03    1.00    1.43    -1.76173   163.44162     3.36608
    85  H   1.0    0.03    1.00    1.43    -1.21961   166.31322     4.93918
    86  H   1.0    0.03    1.00    1.43    -1.50865   166.26761     1.61619
    87  H   1.0    0.03    1.00    1.43     1.31578   161.70973     0.48846
    88  H   1.0    0.03    1.00    1.43     2.01436   164.54602    -1.12084
    89  H   1.0    0.04    1.00    1.43     4.44626   162.81408     0.34000
    90  N   5.0   -0.13    3.47    2.06     8.19666   168.34536     7.68556
    91  C   4.0    0.04    4.38    4.35    10.12825   167.56814     9.44869
    92  C   4.0    0.16    3.64    3.19     9.61767   168.12090    12.24327
    93  O   6.0   -0.32    1.50    1.80    10.77762   166.83620    13.80808
    94  C   4.0   -0.03    4.33    4.25    12.66288   168.92284     9.03659
    95  C   4.0    0.17    3.37    3.07    14.43641   168.18638    11.23427
    96  O   6.0   -0.28    1.21    1.80    15.20666   166.03658    11.55156
    97  N   5.0   -0.18    3.18    1.95    14.97814   170.09064    12.88687
    98  H   1.0    0.10    1.09    1.44     8.48419   170.01606     6.79743
    99  H   1.0    0.06    1.06    1.44    10.41585   165.51788     9.33015
   100  H   1.0    0.05    1.02    1.43    13.53645   168.31151     7.27456
   101  H   1.0    0.06    1.02    1.43    12.35097   170.96263     8.99368
   102  H   1.0    0.09    1.03    1.43    16.45153   169.75463    14.05559
   103  H   1.0    0.08    1.03    1.43    14.73814   171.88923    12.30505
   104  N   5.0   -0.14    3.46    2.05     8.30608   170.14577    13.00881
   105  C   4.0    0.04    4.67    4.73     8.15283   170.21317    15.71772
   106  C   4.0    0.16    3.42    3.08     5.72406   169.01400    16.70994
   107  O   6.0   -0.30    1.32    1.80     3.62685   169.43821    15.82033
   108  C   4.0   -0.04    4.29    4.18     8.74529   172.76560    16.88904
   109  C   4.0    0.14    3.33    3.06     9.25511   172.04530    19.63666
   110  O   6.0   -0.32    1.19    1.80     7.73911   172.43477    21.32490
   111  N   5.0   -0.20    3.22    1.96    11.36523   170.60250    19.94563
   112  H   1.0    0.13    1.18    1.46     6.74285   170.71088    12.01191
   113  H   1.0    0.06    1.17    1.46     9.67733   168.96149    16.33941
   114  H   1.0    0.04    1.03    1.43    10.41537   173.55057    15.98058
   115  H   1.0    0.05    1.02    1.43     7.18218   174.08701    16.70310
   116  H   1.0    0.08    1.03    1.43    11.90121   170.28731    21.75516
   117  H   1.0    0.07    1.03    1.43    12.78209   170.82410    18.68841
   118  N   5.0   -0.14    3.45    2.05     6.11913   167.44744    18.66073
   119  C   4.0    0.03    4.37    4.33     4.12643   166.00149    19.93417
   120  C   4.0    0.08    3.21    3.04     2.00160   167.63863    21.01236
   121  O   6.0   -0.30    1.21    1.80     0.04889   167.71862    19.79107
   122  C   4.0   -0.03    4.29    4.18     5.13341   164.19920    22.00147
   123  C   4.0   -0.05    4.17    3.93     7.58990   165.17249    23.28240
   124  C   4.0   -0.08    4.09    3.79     5.39762   161.54532    20.89471
   125  C   4.0   -0.09    4.00    3.62     7.70224   164.45637    26.09415
   126  H   1.0    0.07    1.08    1.44     7.89680   167.09156    19.25099
   127  H   1.0    0.06    1.07    1.44     3.16829   164.88476    18.46988
   128  H   1.0    0.03    1.07    1.44     3.67735   164.07977    23.46347
   129  H   1.0    0.03    1.03    1.43     9.22468   164.33082    22.35730
   130  H   1.0    0.05    1.03    1.43     7.70022   167.22745    23.15865
   131  H   1.0    0.03    1.00    1.43     6.24154   160.26114    22.26253
   132  H   1.0    0.04    1.00    1.43     3.55984   160.78015    20.38365
   133  H   1.0    0.04    1.00    1.43     6.56308   161.55178    19.20660
   134  H   1.0    0.03    1.00    1.43     9.42585   165.16142    26.95455
   135  H   1.0    0.03    1.00    1.43     6.09629   165.21079    27.12726
   136  H   1.0    0.03    1.00    1.43     7.69260   162.41095    26.32537
   137  N   5.0   -0.19    3.31    1.98    -1.35625   170.31255    16.13125
   138  C   4.0    0.04    4.19    3.98    -3.07947   168.65134    14.84097
   139  C   4.0    0.08    3.15    3.03    -5.44612   168.21006    16.52146
   140  O   6.0   -0.32    1.11    1.80    -7.55582   168.74723    15.73399
   141  C   4.0   -0.04    4.26    4.12    -1.51368   166.38578    13.87165
   142  C   4.0   -0.03    4.11    3.83    -2.68840   164.70546    11.73962
   143  C   4.0   -0.08    4.08    3.76    -4.47919   166.04719     9.87025
   144  C   4.0   -0.07    4.10    3.80    -0.58720   163.42963    10.20819
   145  H   1.0    0.14    1.12    1.45     0.46718   169.77420    16.30754
   146  H   1.0    0.04    1.06    1.44    -3.83660   169.67173    13.19683
   147  H   1.0    0.06    1.04    1.43     0.20752   167.23017    13.11245
   148  H   1.0    0.05    1.02    1.43    -0.99514   165.16738    15.44651
   149  H   1.0    0.04    1.05    1.44    -3.80351   163.22464    12.66794
   150  H   1.0    0.03    1.00    1.43    -5.09330   164.70314     8.44895
   151  H   1.0    0.04    1.00    1.43    -6.14718   166.78221    10.82393
   152  H   1.0    0.03    1.00    1.43    -3.51736   167.60458     8.93618
   153  H   1.0    0.03    1.00    1.43    -1.39207   162.23171     8.75098
   154  H   1.0    0.05    1.00    1.43     0.61908   164.83339     9.32083
   155  H   1.0    0.05    1.00    1.43     0.59454   162.26076    11.41830
   156  N   5.0   -0.23    3.19    1.95    -1.61540   151.89388    -7.82878
   157  C   4.0    0.03    4.34    4.28     0.92619   152.12662    -6.91813
   158  C   4.0    0.06    3.23    3.04     2.76285   149.89245    -7.36530
   159  O   6.0   -0.31    1.11    1.80     4.71547   150.17815    -8.59193
   160  C   4.0   -0.05    4.45    4.46     1.01308   152.67003    -4.15395
   161  C   4.0   -0.02    4.27    4.14     3.40086   154.19602    -3.82059
   162  C   4.0   -0.08    4.15    3.90     3.03756   156.69732    -5.30739
   163  C   4.0   -0.08    4.10    3.80     3.87039   154.58145    -0.99703
   164  H   1.0    0.07    1.02    1.43    -3.12544   152.14002    -6.68319
   165  H   1.0    0.04    1.10    1.44     1.76041   153.67145    -8.01213
   166  H   1.0    0.03    1.03    1.43    -0.62445   153.79507    -3.59758
   167  H   1.0    0.03    1.03    1.43     0.98973   150.95910    -3.01668
   168  H   1.0    0.05    1.06    1.44     4.99343   153.13258    -4.59579
   169  H   1.0    0.03    1.00    1.43     4.11789   158.18264    -4.37840
   170  H   1.0    0.04    1.00    1.43     3.74080   156.55291    -7.22519
   171  H   1.0    0.03    1.01    1.43     1.06574   157.24524    -5.31378
   172  H   1.0    0.04    1.00    1.43     5.71179   155.42783    -0.66171
   173  H   1.0    0.03    1.00    1.43     2.42460   155.80928    -0.20279
   174  H   1.0    0.03    1.01    1.43     3.77233   152.77641    -0.03634
   175  N   5.0   -0.24    3.16    1.95   -10.19406   172.87185    -1.64498
   176  C   4.0    0.02    4.20    3.99   -10.54496   170.26759    -2.38006
   177  C   4.0    0.05    3.23    3.04   -11.85543   169.92993    -4.91233
   178  O   6.0   -0.33    1.17    1.80   -11.47967   167.99363    -6.13332
   179  C   4.0   -0.05    4.32    4.23   -12.05852   168.60468    -0.51225
   180  C   4.0   -0.03    4.14    3.88   -11.04340   168.18697     2.20901
   181  C   4.0   -0.09    4.13    3.85   -12.58993   166.06218     3.39986
   182  C   4.0   -0.09    4.09    3.78    -8.25560   167.51663     2.48960
   183  H   1.0    0.07    1.02    1.43   -10.43940   173.33877     0.18680
   184  H   1.0    0.04    1.06    1.44    -8.67882   169.38892    -2.60294
   185  H   1.0    0.03    1.03    1.43   -13.95941   169.37917    -0.30499
   186  H   1.0    0.04    1.04    1.43   -12.21635   166.76186    -1.42636
   187  H   1.0    0.03    1.05    1.44   -11.40905   169.91315     3.29405
   188  H   1.0    0.03    1.00    1.43   -12.09675   165.86539     5.38331
   189  H   1.0    0.02    1.00    1.43   -14.60237   166.47132     3.29450
   190  H   1.0    0.03    1.00    1.43   -12.21826   164.28225     2.44657
   191  H   1.0    0.03    1.00    1.43    -7.83806   167.23155     4.47687
   192  H   1.0    0.03    1.00    1.43    -7.81429   165.78463     1.47577
   193  H   1.0    0.03    1.00    1.43    -7.04375   169.02220     1.78950
   194  N   5.0   -0.23    3.21    1.96    -7.85699   168.04183   -10.22136
   195  C   4.0    0.02    4.19    3.97    -6.63629   165.65103    -9.83251
   196  C   4.0    0.07    3.21    3.04    -8.47952   163.43976   -10.30451
   197  O   6.0   -0.32    1.13    1.80    -8.18665   161.31856    -9.45629
   198  C   4.0   -0.04    4.35    4.30    -5.76274   165.42314    -7.06861
   199  C   4.0   -0.03    4.12    3.85    -3.45495   166.91824    -6.09457
   200  C   4.0   -0.09    4.09    3.78    -4.13650   169.46596    -4.89276
   201  C   4.0   -0.09    4.10    3.81    -2.04589   165.33911    -4.07493
   202  H   1.0    0.10    1.06    1.44    -8.89337   168.61015    -8.70851
   203  H   1.0    0.03    1.05    1.44    -5.06531   165.42825   -11.16179
   204  H   1.0    0.06    1.04    1.43    -7.40896   165.88123    -5.91794
   205  H   1.0    0.05    1.05    1.44    -5.34636   163.41953    -6.80899
   206  H   1.0    0.03    1.05    1.44    -2.15586   167.21793    -7.67213
   207  H   1.0    0.03    1.00    1.43    -2.58634   170.79128    -5.10152
   208  H   1.0    0.04    1.00    1.43    -5.81344   170.25498    -5.74084
   209  H   1.0    0.03    1.01    1.43    -4.47382   169.20296    -2.88047
   210  H   1.0    0.03    1.00    1.43    -0.42923   166.41352    -3.41138
   211  H   1.0    0.03    1.00    1.43    -3.25941   164.90871    -2.47705
   212  H   1.0    0.03    1.00    1.43    -1.37289   163.56117    -4.85415
   213  N   5.0   -0.23    3.18    1.95    10.39428   164.89566   -16.49190
   214  C   4.0    0.02    4.16    3.91    11.96671   162.84046   -15.62610
   215  C   4.0    0.07    3.31    3.06    14.68834   162.99143   -16.49477
   216  O   6.0   -0.29    1.13    1.80    16.44142   162.24399   -15.17890
   217  C   4.0   -0.09    4.14    3.89    11.08634   160.29341   -16.73173
   218  H   1.0    0.07    1.04    1.43     8.83362   164.28569   -17.41070
   219  H   1.0    0.04    1.05    1.44    11.96045   162.77530   -13.55077
   220  H   1.0    0.04    1.01    1.43    12.40072   158.84508   -16.10386
   221  H   1.0    0.03    1.00    1.43     9.22165   159.87501   -16.00198
   222  H   1.0    0.03    1.00    1.43    11.09371   160.39035   -18.76981
   223  N   5.0   -0.19    3.34    2.00    17.66964   167.17021   -17.04381
   224  C   4.0    0.02    4.33    4.25    18.76345   168.92901   -15.29812
   225  C   4.0    0.16    3.46    3.10    20.23308   167.35764   -13.36992
   226  O   6.0   -0.30    1.28    1.80    22.36497   166.55990   -13.80387
   227  C   4.0   -0.05    4.18    3.95    16.73846   170.80099   -14.43352
   228  C   4.0   -0.04    4.13    3.87    15.95491   172.39318   -16.78123
   229  C   4.0    0.23    3.01    3.02    14.21404   174.89150   -16.80291
   230  O   6.0   -0.33    1.16    1.80    13.06459   175.16151   -18.85447
   231  O   6.0   -0.32    1.13    1.80    14.16089   176.38938   -14.98346
   232  H   1.0    0.07    1.05    1.44    15.79264   167.31196   -17.31918
   233  H   1.0    0.03    1.06    1.44    20.26009   169.99399   -16.29733
   234  H   1.0    0.04    1.02    1.43    15.08310   169.84847   -13.67539
   235  H   1.0    0.04    1.02    1.43    17.51645   172.06493   -13.00456
   236  H   1.0    0.03    1.03    1.43    17.67713   173.11906   -17.67619
   237  H   1.0    0.04    1.03    1.43    15.01606   171.19342   -18.17256
   238  N   5.0   -0.15    3.43    2.04    19.13445   167.03573   -11.10437
   239  C   4.0    0.04    4.48    4.51    20.87386   166.30825    -9.13853
   240  C   4.0    0.17    3.44    3.09    22.20030   163.72097    -9.49696
   241  O   6.0   -0.28    1.26    1.80    21.72736   162.02328   -10.96152
   242  C   4.0    0.02    4.14    3.89    19.82686   166.93439    -6.51490
   243  O   6.0   -0.27    2.11    1.84    21.85695   167.21756    -4.83927
   244  H   1.0    0.07    1.05    1.44    17.27626   167.26808   -10.80585
   245  H   1.0    0.05    1.09    1.44    22.49240   167.60110    -9.38547
   246  H   1.0    0.04    1.02    1.43    18.83935   168.75026    -6.65130
   247  H   1.0    0.04    1.02    1.43    18.53430   165.49084    -5.84519
   248  H   1.0    0.14    1.11    1.45    21.76735   165.82631    -3.63111
   249  N   5.0   -0.13    3.62    2.18    24.28193   163.70599    -8.05655
   250  C   4.0    0.04    4.53    4.57    25.97837   161.59528    -8.09286
   251  C   4.0    0.16    3.75    3.29    24.57287   159.27599    -7.43084
   252  O   6.0   -0.30    1.72    1.81    23.21211   159.46855    -5.56221
   253  C   4.0    0.05    4.36    4.31    27.75904   161.87819    -5.78399
   254  O   6.0   -0.26    2.28    1.88    26.32421   162.00237    -3.52296
   255  C   4.0   -0.09    4.11    3.83    29.33688   164.25058    -6.09827
   256  H   1.0    0.09    1.11    1.45    24.30385   164.89772    -6.55151
   257  H   1.0    0.03    1.04    1.43    27.04284   161.51055    -9.85702
   258  H   1.0    0.03    1.04    1.43    28.97769   160.20082    -5.69235
   259  H   1.0    0.10    1.05    1.44    26.98682   163.40179    -2.55133
   260  H   1.0    0.02    1.00    1.43    30.71211   164.38307    -4.57431
   261  H   1.0    0.02    1.00    1.43    30.35518   164.18502    -7.88005
   262  H   1.0    0.04    1.00    1.43    28.15772   165.93319    -6.07588
   263  N   5.0   -0.16    3.41    2.03    25.06572   157.01509    -8.40417
   264  C   4.0    0.03    4.51    4.55    23.76219   155.02014    -7.02271
   265  C   4.0    0.18    3.82    3.35    23.79134   155.59047    -4.19360
   266  O   6.0   -0.31    1.43    1.80    21.90223   155.27679    -2.90329
   267  C   4.0   -0.06    4.34    4.27    24.88539   152.35319    -7.14900
   268  C   4.0   -0.02    4.17    3.95    23.37474   150.38713    -5.55630
   269  C   4.0   -0.09    4.09    3.79    22.35328   148.36880    -7.36788
   270  C   4.0   -0.08    4.04    3.69    24.80833   149.17212    -3.30083
   271  H   1.0    0.06    1.04    1.43    26.12238   156.61738    -9.94135
   272  H   1.0    0.05    1.05    1.44    21.77456   154.96853    -7.61148
   273  H   1.0    0.03    1.03    1.43    24.93149   151.73712    -9.11844
   274  H   1.0    0.03    1.03    1.43    26.84301   152.40292    -6.50279
   275  H   1.0    0.06    1.07    1.44    21.72465   151.33163    -4.73742
   276  H   1.0    0.05    1.00    1.43    21.14842   147.07233    -6.32181
   277  H   1.0    0.03    1.00    1.43    21.23709   149.22483    -8.86172
   278  H   1.0    0.02    1.00    1.43    23.89848   147.31200    -8.21784
   279  H   1.0    0.05    1.00    1.43    23.61359   147.71547    -2.48736
   280  H   1.0    0.03    1.00    1.43    26.57612   148.33157    -3.92191
   281  H   1.0    0.04    1.00    1.43    25.18261   150.56823    -1.84624
   282  N   5.0   -0.14    3.58    2.14    26.07887   155.90692    -3.12535
   283  C   4.0    0.03    4.42    4.42    26.44161   155.46322    -0.43697
   284  C   4.0    0.18    3.58    3.16    24.07423   156.38958     0.96118
   285  O   6.0   -0.28    1.21    1.80    22.86530   155.11895     2.48495
   286  C   4.0   -0.05    4.22    4.04    28.93932   156.78859     0.33088
   287  C   4.0   -0.04    4.17    3.93    28.87413   158.83329     2.36437
   288  C   4.0    0.25    3.08    3.02    27.71888   158.12661     5.01815
   289  O   6.0   -0.28    1.19    1.80    26.96113   155.92397     5.40833
   290  O   6.0   -0.29    1.16    1.80    27.72221   159.95354     6.52674
   291  H   1.0    0.06    1.07    1.44    27.63310   155.71207    -4.21606
   292  H   1.0    0.04    1.05    1.44    26.59871   153.43980    -0.01315
   293  H   1.0    0.03    1.03    1.43    30.23684   155.32873     0.98904
   294  H   1.0    0.03    1.04    1.43    29.73860   157.64526    -1.36971
   295  H   1.0    0.03    1.03    1.43    30.80783   159.42477     2.77155
   296  H   1.0    0.04    1.03    1.43    27.82531   160.50436     1.78017
   297  N   5.0   -0.13    3.65    2.21    23.57226   158.78217     0.20394
   298  C   4.0    0.04    4.47    4.50    21.75717   160.41917     1.40984
   299  C   4.0    0.17    3.52    3.12    19.19950   159.15012     1.26921
   300  O   6.0   -0.29    1.34    1.80    17.82558   158.60324     3.04885
   301  C   4.0    0.06    4.26    4.12    21.65120   163.02916     0.10643
   302  O   6.0   -0.27    2.27    1.87    21.44672   162.90214    -2.51632
   303  C   4.0   -0.07    4.07    3.74    23.87085   164.67494     0.99743
   304  H   1.0    0.10    1.12    1.45    24.82033   159.56789    -1.01835
   305  H   1.0    0.07    1.05    1.44    22.20997   160.69007     3.42656
   306  H   1.0    0.05    1.05    1.44    19.90032   163.92676     0.77095
   307  H   1.0    0.17    1.10    1.44    22.76958   161.85510    -3.29386
   308  H   1.0    0.04    1.00    1.43    24.01372   166.37202    -0.15065
   309  H   1.0    0.05    1.00    1.43    23.51223   165.21890     2.94775
   310  H   1.0    0.04    1.00    1.43    25.63527   163.63136     1.00659
   311  N   5.0   -0.13    3.68    2.24    18.51879   158.78832    -1.11747
   312  C   4.0    0.03    4.48    4.50    16.15372   157.63871    -1.85781
   313  C   4.0    0.16    3.53    3.13    15.50216   155.47226    -0.06936
   314  O   6.0   -0.32    1.32    1.80    13.55030   155.49161     1.19696
   315  C   4.0   -0.05    4.32    4.23    16.40011   156.98866    -4.65704
   316  C   4.0   -0.02    4.21    4.02    17.34052   159.36315    -6.14367
   317  C   4.0   -0.06    4.07    3.75    17.21618   159.05281    -9.04144
   318  C   4.0   -0.08    4.14    3.88    15.87347   161.73766    -5.33760
   319  H   1.0    0.11    1.13    1.45    19.89727   158.83855    -2.43653
   320  H   1.0    0.04    1.06    1.44    14.63434   159.02509    -1.58627
   321  H   1.0    0.05    1.03    1.43    17.73565   155.44155    -4.89328
   322  H   1.0    0.04    1.02    1.43    14.56198   156.38019    -5.36722
   323  H   1.0    0.07    1.08    1.44    19.32548   159.65891    -5.69619
   324  H   1.0    0.07    1.01    1.43    17.93637   160.71867    -9.98129
   325  H   1.0    0.05    1.00    1.43    18.34752   157.43819    -9.62324
   326  H   1.0    0.04    1.00    1.43    15.27621   158.72468    -9.63429
   327  H   1.0    0.04    1.01    1.43    15.95095   163.10455    -6.86326
   328  H   1.0    0.03    1.00    1.43    13.88878   161.28150    -5.03887
   329  H   1.0    0.05    1.00    1.43    16.64014   162.54139    -3.61843
   330  N   5.0   -0.14    3.57    2.13    17.18207   153.60663    -0.09163
   331  C   4.0    0.04    4.53    4.58    17.00109   151.37583     1.40825
   332  C   4.0    0.16    3.54    3.13    16.12093   151.98884     4.06688
   333  O   6.0   -0.31    1.22    1.80    14.71840   150.65439     5.38415
   334  C   4.0   -0.04    4.36    4.32    19.60451   150.16360     1.62669
   335  C   4.0   -0.03    4.19    3.97    19.27675   147.38869     2.27096
   336  C   4.0    0.24    3.19    3.03    17.67897   146.30904     0.01165
   337  O   6.0   -0.32    1.16    1.80    18.86279   145.78024    -1.95971
   338  O   6.0   -0.30    1.18    1.80    15.35694   146.05796     0.32626
   339  H   1.0    0.11    1.10    1.44    18.85511   153.93163    -0.96615
   340  H   1.0    0.07    1.09    1.44    15.64740   150.06365     0.54759
   341  H   1.0    0.05    1.03    1.43    20.54457   150.30954    -0.20793
   342  H   1.0    0.06    1.03    1.43    20.74934   151.18359     3.00984
   343  H   1.0    0.04    1.02    1.43    21.10054   146.44224     2.39853
   344  H   1.0    0.06    1.02    1.43    18.24049   147.19074     4.04386
   345  N   5.0   -0.13    3.68    2.25    17.21401   154.08848     4.89461
   346  C   4.0    0.04    4.42    4.41    17.04312   154.79975     7.49806
   347  C   4.0    0.15    3.49    3.11    14.56005   156.12987     8.02582
   348  O   6.0   -0.33    1.32    1.80    13.73707   156.28676    10.19065
   349  C   4.0   -0.03    4.21    4.02    19.45982   156.25665     8.26972
   350  C   4.0   -0.02    4.14    3.88    19.08129   158.60191     9.94771
   351  C   4.0    0.26    3.07    3.02    20.47297   161.03588     8.88994
   352  O   6.0   -0.27    1.15    1.80    22.37929   161.78996    10.06265
   353  O   6.0   -0.28    1.16    1.80    19.46765   162.06861     7.01742
   354  H   1.0    0.12    1.13    1.45    18.48434   155.01744     3.82588
   355  H   1.0    0.06    1.07    1.44    16.94306   153.05492     8.62869
   356  H   1.0    0.06    1.02    1.43    20.76235   154.94585     9.18182
   357  H   1.0    0.08    1.04    1.43    20.37412   156.86335     6.51934
   358  H   1.0    0.07    1.05    1.44    17.09269   159.11910    10.03499
   359  H   1.0    0.06    1.02    1.43    19.75687   158.23806    11.85957
   360  N   5.0   -0.13    3.56    2.12    13.25778   157.04473     6.07718
   361  C   4.0    0.04    4.47    4.49    11.05782   158.59896     6.63985
   362  C   4.0    0.14    3.44    3.09     8.51215   157.25067     6.14518
   363  O   6.0   -0.32    1.25    1.80     6.48354   157.91101     7.06052
   364  C   4.0   -0.03    4.32    4.24    11.08899   161.10831     5.20818
   365  C   4.0   -0.03    4.08    3.76    10.02911   160.84828     2.51972
   366  S   6.0   -0.05    2.45    3.10    10.02118   163.94397     0.93516
   367  C   4.0   -0.07    3.88    3.43    13.40079   164.35028     0.35222
   368  H   1.0    0.12    1.12    1.45    14.10421   157.13194     4.36790
   369  H   1.0    0.06    1.09    1.44    11.16793   158.98926     8.66329
   370  H   1.0    0.06    1.04    1.43     9.87379   162.43329     6.22730
   371  H   1.0    0.06    1.03    1.43    13.02663   161.82437     5.17929
   372  H   1.0    0.05    1.06    1.44    11.11640   159.51833     1.38541
   373  H   1.0    0.05    1.08    1.44     8.06070   160.26045     2.58784
   374  H   1.0    0.04    1.04    1.43    13.61459   165.50796    -1.32097
   375  H   1.0    0.05    1.03    1.43    14.27170   165.25052     1.98056
   376  H   1.0    0.05    1.04    1.43    14.24727   162.50561     0.08568
   377  N   5.0   -0.14    3.52    2.09     8.84042   155.32775     4.52855
   378  C   4.0    0.03    4.46    4.47     7.19688   153.14558     4.46242
   379  C   4.0    0.15    3.64    3.19     7.03260   151.76649     7.02607
   380  O   6.0   -0.33    1.43    1.80     5.01239   151.25628     8.02057
   381  C   4.0   -0.05    4.39    4.36     8.20817   151.26851     2.53506
   382  C   4.0   -0.02    4.29    4.17     7.17199   148.66858     3.23388
   383  C   4.0   -0.07    4.10    3.80     4.25615   148.58303     3.05887
   384  C   4.0   -0.07    4.07    3.75     8.54965   146.61747     1.69561
   385  H   1.0    0.10    1.13    1.45    10.66105   155.01200     4.00764
   386  H   1.0    0.05    1.05    1.44     5.27892   153.77003     3.99322
   387  H   1.0    0.04    1.03    1.43     7.70025   151.76842     0.61204
   388  H   1.0    0.06    1.03    1.43    10.26661   151.20193     2.66649
   389  H   1.0    0.06    1.10    1.44     7.64847   148.21180     5.19498
   390  H   1.0    0.06    1.00    1.43     3.62205   146.73349     3.69810
   391  H   1.0    0.05    1.01    1.43     3.38329   150.02082     4.21836
   392  H   1.0    0.03    1.00    1.43     3.65886   148.78851     1.09969
   393  H   1.0    0.05    1.00    1.43     7.96418   144.75663     2.34752
   394  H   1.0    0.04    1.00    1.43     8.06883   146.70928    -0.30235
   395  H   1.0    0.06    1.00    1.43    10.58492   146.78950     1.91542
   396  N   5.0   -0.14    3.56    2.12     9.25647   151.42704     8.16170
   397  C   4.0    0.03    4.54    4.59     9.30551   150.49988    10.70867
   398  C   4.0    0.17    3.59    3.16     7.19383   151.74102    12.19859
   399  O   6.0   -0.32    1.30    1.80     5.45017   150.77421    13.36801
   400  C   4.0   -0.04    4.45    4.47    11.73564   151.29369    11.99598
   401  C   4.0   -0.03    4.16    3.93    13.87234   149.44476    11.54206
   402  C   4.0    0.24    3.14    3.03    15.19888   149.03920    14.17403
   403  O   6.0   -0.32    1.29    1.80    13.99202   149.69117    16.15818
   404  O   6.0   -0.28    1.16    1.80    17.35460   148.08621    14.15570
   405  H   1.0    0.10    1.07    1.44    10.88959   151.37239     7.17535
   406  H   1.0    0.06    1.04    1.44     9.10731   148.42530    10.75048
   407  H   1.0    0.07    1.07    1.44    12.33939   153.16839    11.44464
   408  H   1.0    0.07    1.08    1.44    11.40130   151.28549    14.03856
   409  H   1.0    0.05    1.03    1.43    13.15594   147.61503    10.91956
   410  H   1.0    0.06    1.02    1.43    15.28618   150.02841    10.17304
   411  N   5.0   -0.13    3.66    2.22     7.65636   154.19472    12.15069
   412  C   4.0    0.02    4.25    4.11     6.46252   156.17735    13.61942
   413  C   4.0    0.16    3.41    3.08     3.46484   155.82699    13.24998
   414  O   6.0   -0.32    1.28    1.80     1.82942   155.38288    14.83778
   415  C   4.0   -0.05    4.15    3.90     7.78209   158.75903    12.74608
   416  C   4.0   -0.04    4.10    3.80    10.56611   159.22570    13.61812
   417  C   4.0   -0.05    4.11    3.82    10.75353   161.19505    15.77587
   418  C   4.0   -0.02    4.07    3.75    13.48829   162.11291    16.36528
   419  N   5.0   -0.12    3.99    2.82    13.50235   164.59088    17.81920
   420  H   1.0    0.09    1.13    1.45     9.17943   154.76965    11.16403
   421  H   1.0    0.04    1.04    1.43     6.87307   155.87519    15.63262
   422  H   1.0    0.07    1.05    1.44     7.62298   158.85926    10.71003
   423  H   1.0    0.05    1.03    1.43     6.61162   160.28017    13.50524
   424  H   1.0    0.06    1.02    1.43    11.46805   157.46002    14.17535
   425  H   1.0    0.06    1.03    1.43    11.67533   159.95782    12.05006
   426  H   1.0    0.06    1.03    1.43     9.66201   162.83935    15.17707
   427  H   1.0    0.04    1.02    1.43     9.92755   160.36399    17.46861
   428  H   1.0    0.05    1.01    1.43    14.50617   160.67253    17.42581
   429  H   1.0    0.07    1.02    1.43    14.46856   162.43851    14.58112
   430  H   1.0    0.06    1.02    1.43    15.35057   165.07135    18.16408
   431  H   1.0    0.09    1.06    1.44    12.65071   165.86946    16.58791
   432  H   1.0    0.05    1.02    1.43    12.53247   164.38289    19.49108
   433  N   5.0   -0.14    3.52    2.09     2.93085   156.09768    10.82693
   434  C   4.0    0.04    4.52    4.57     0.34211   155.76409    10.11858
   435  C   4.0    0.16    3.73    3.27    -0.74753   153.27475    11.01990
   436  O   6.0   -0.31    1.34    1.80    -2.73667   153.21045    12.21453
   437  C   4.0   -0.05    4.43    4.43     0.02021   155.76733     7.25243
   438  C   4.0   -0.03    4.21    4.02    -2.72486   155.26979     6.46655
   439  C   4.0   -0.09    4.09    3.79    -3.07355   156.48810     3.81627
   440  C   4.0   -0.08    4.19    3.97    -3.32402   152.47200     6.40380
   441  H   1.0    0.11    1.10    1.44     4.24408   156.52075     9.49291
   442  H   1.0    0.05    1.05    1.44    -0.79793   157.27731    10.96846
   443  H   1.0    0.04    1.03    1.43     0.62503   157.61244     6.55102
   444  H   1.0    0.05    1.03    1.43     1.25533   154.34566     6.42009
   445  H   1.0    0.04    1.05    1.44    -4.00212   156.20146     7.79399
   446  H   1.0    0.03    1.00    1.43    -4.98545   156.20338     3.12370
   447  H   1.0    0.03    1.00    1.43    -2.69471   158.49840     3.91232
   448  H   1.0    0.03    1.00    1.43    -1.77667   155.61511     2.48505
   449  H   1.0    0.03    1.01    1.43    -5.11743   152.20982     5.44253
   450  H   1.0    0.03    1.00    1.43    -1.86536   151.44570     5.37397
   451  H   1.0    0.05    1.06    1.44    -3.54165   151.65011     8.24044
   452  N   5.0   -0.15    3.68    2.25     0.39248   151.25889    10.01573
   453  C   4.0    0.03    4.44    4.44    -0.54853   148.79744    10.52842
   454  C   4.0    0.16    3.59    3.16    -1.01679   148.60473    13.36477
   455  O   6.0   -0.30    1.28    1.80    -2.77805   147.25843    14.09308
   456  C   4.0   -0.04    4.28    4.16     1.17018   146.89018     9.27099
   457  C   4.0   -0.03    4.12    3.84     3.64138   146.14043    10.56635
   458  C   4.0    0.24    3.06    3.02     5.27177   144.36256     8.73436
   459  O   6.0   -0.32    1.17    1.80     4.22862   143.48868     6.78429
   460  O   6.0   -0.31    1.16    1.80     7.52467   143.93423     9.37285
   461  H   1.0    0.12    1.16    1.46     2.15243   151.40525     9.30872
   462  H   1.0    0.04    1.07    1.44    -2.43907   148.53821     9.69874
   463  H   1.0    0.05    1.03    1.43     0.11474   145.13199     8.95069
   464  H   1.0    0.05    1.04    1.43     1.62847   147.59486     7.39526
   465  H   1.0    0.08    1.05    1.44     4.78738   147.76420    11.01265
   466  H   1.0    0.05    1.02    1.43     3.30251   145.05248    12.28936
   467  N   5.0   -0.13    3.61    2.17     0.26178   150.11868    14.97149
   468  C   4.0    0.04    4.65    4.72    -0.39232   149.54952    17.56363
   469  C   4.0    0.16    3.59    3.16    -2.91690   150.72450    18.23253
   470  O   6.0   -0.30    1.22    1.80    -4.41295   149.71002    19.70059
   471  C   4.0   -0.02    4.30    4.20     1.51466   150.42746    19.53175
   472  C   4.0   -0.07    4.15    3.90     4.25549   150.21557    18.67226
   473  C   4.0   -0.07    4.25    4.11     1.02076   153.13633    20.27010
   474  H   1.0    0.11    1.10    1.44     2.07138   150.59613    14.54866
   475  H   1.0    0.06    1.07    1.44    -0.62266   147.48355    17.73585
   476  H   1.0    0.04    1.06    1.44     1.21806   149.21495    21.18770
   477  H   1.0    0.04    1.00    1.43     5.49256   150.40294    20.30170
   478  H   1.0    0.05    1.00    1.43     4.62944   148.38903    17.80049
   479  H   1.0    0.07    1.02    1.43     4.69096   151.69103    17.32774
   480  H   1.0    0.03    1.00    1.43     2.47377   153.71894    21.61270
   481  H   1.0    0.06    1.03    1.43     1.14166   154.35425    18.62927
   482  H   1.0    0.04    1.02    1.43    -0.78754   153.39375    21.20661
   483  N   5.0   -0.14    3.62    2.18    -3.16381   153.00599    17.24252
   484  C   4.0    0.04    4.40    4.38    -5.32216   154.61570    17.72097
   485  C   4.0    0.09    3.38    3.07    -7.62746   153.11585    17.09632
   486  O   6.0   -0.31    1.12    1.80    -9.54731   153.06216    18.37933
   487  C   4.0   -0.02    4.26    4.12    -5.26369   157.06942    16.13983
   488  C   4.0   -0.08    4.13    3.86    -7.23652   157.21689    14.02797
   489  C   4.0   -0.08    4.11    3.83    -5.51551   159.29015    17.97441
   490  H   1.0    0.11    1.12    1.45    -1.82446   153.59141    16.00677
   491  H   1.0    0.05    1.06    1.44    -5.37962   155.12144    19.73418
   492  H   1.0    0.05    1.06    1.44    -3.39419   157.15692    15.25556
   493  H   1.0    0.03    1.00    1.43    -7.24892   159.12855    13.27136
   494  H   1.0    0.05    1.00    1.43    -6.78146   155.92452    12.51147
   495  H   1.0    0.04    1.01    1.43    -9.11838   156.79510    14.73211
   496  H   1.0    0.04    1.00    1.43    -5.34917   161.06731    16.95713
   497  H   1.0    0.04    1.00    1.43    -7.34794   159.19697    18.89898
   498  H   1.0    0.04    1.00    1.43    -4.07463   159.16208    19.42132
   499  N   5.0   -0.24    3.18    1.95    14.28018   152.80235    33.19621
   500  C   4.0    0.02    4.22    4.05    14.06435   152.94779    30.45357
   501  C   4.0    0.06    3.25    3.04    13.95031   150.30760    29.35952
   502  O   6.0   -0.32    1.12    1.80    12.52123   149.74766    27.61198
   503  C   4.0   -0.05    4.27    4.13    16.25668   154.35466    29.19289
   504  C   4.0   -0.03    4.17    3.95    15.56192   155.14039    26.50891
   505  C   4.0    0.25    3.08    3.02    17.95266   155.41535    24.76659
   506  O   6.0   -0.30    1.19    1.80    19.89102   154.27165    25.44642
   507  O   6.0   -0.29    1.16    1.80    17.67084   156.70832    22.81935
   508  H   1.0    0.06    1.02    1.43    15.26605   154.22532    34.02406
   509  H   1.0    0.04    1.05    1.44    12.26511   153.88597    29.97714
   510  H   1.0    0.03    1.02    1.43    16.72442   156.02635    30.31584
   511  H   1.0    0.05    1.04    1.43    17.92947   153.14444    29.10996
   512  H   1.0    0.06    1.03    1.43    14.34814   153.70035    25.65518
   513  H   1.0    0.04    1.02    1.43    14.50393   156.91145    26.50864
   514  N   5.0   -0.22    3.18    1.95     8.18116   144.10214    25.78536
   515  C   4.0    0.02    4.15    3.90     9.15928   142.27971    23.92268
   516  C   4.0    0.06    3.17    3.03     8.18195   139.64011    24.67804
   517  O   6.0   -0.31    1.10    1.80     6.67745   138.33491    23.43137
   518  C   4.0   -0.06    4.16    3.92    12.10871   142.35013    23.61033
   519  C   4.0   -0.05    4.15    3.89    13.07253   144.99817    22.83629
   520  C   4.0   -0.04    4.12    3.84    15.94165   145.28305    22.56200
   521  C   4.0   -0.02    4.10    3.80    16.77081   148.08076    22.44055
   522  N   5.0   -0.10    4.01    2.89    17.64693   148.86466    19.89287
   523  H   1.0    0.08    1.03    1.43     9.53961   145.13512    26.64419
   524  H   1.0    0.04    1.05    1.44     8.29627   142.77233    22.09797
   525  H   1.0    0.03    1.02    1.43    13.00922   141.75774    25.34605
   526  H   1.0    0.04    1.03    1.43    12.54520   140.99462    22.12319
   527  H   1.0    0.05    1.02    1.43    12.17896   145.54261    21.05640
   528  H   1.0    0.05    1.03    1.43    12.41846   146.36028    24.24645
   529  H   1.0    0.04    1.02    1.43    16.85858   144.32573    24.13361
   530  H   1.0    0.06    1.03    1.43    16.55745   144.34530    20.83357
   531  H   1.0    0.05    1.02    1.43    15.21267   149.30622    23.01101
   532  H   1.0    0.06    1.02    1.43    18.32596   148.42979    23.74317
   533  H   1.0    0.09    1.03    1.43    18.67236   150.49657    20.03866
   534  H   1.0    0.11    1.05    1.44    18.83481   147.48856    19.14615
   535  H   1.0    0.11    1.06    1.44    16.13464   149.15708    18.54201
   536  N   5.0   -0.23    3.28    1.97    24.06132   140.55457    23.00374
   537  C   4.0    0.03    4.34    4.26    23.02650   142.93952    22.21933
   538  C   4.0    0.15    3.47    3.10    21.77407   142.60650    19.65283
   539  O   6.0   -0.30    1.33    1.80    20.53509   144.31627    18.70642
   540  C   4.0   -0.04    4.27    4.13    24.95229   145.13425    22.32952
   541  C   4.0    0.15    3.23    3.04    23.54293   147.49843    23.18991
   542  O   6.0   -0.28    1.20    1.80    22.87181   149.15689    21.73842
   543  N   5.0   -0.20    3.19    1.95    23.01676   147.52501    25.67955
   544  H   1.0    0.07    1.03    1.43    25.75226   140.03657    22.30099
   545  H   1.0    0.04    1.07    1.44    21.47912   143.35715    23.53916
   546  H   1.0    0.02    1.03    1.43    26.42336   144.62237    23.67186
   547  H   1.0    0.05    1.03    1.43    25.78093   145.47600    20.47715
   548  H   1.0    0.09    1.03    1.43    22.04978   149.00718    26.39086
   549  H   1.0    0.06    1.03    1.43    23.57062   146.14101    26.85834
   550  N   5.0   -0.15    3.47    2.06    21.99240   140.35836    18.50135
   551  C   4.0    0.05    4.69    4.76    20.72056   140.21107    16.13556
   552  C   4.0    0.14    3.60    3.17    18.39761   138.64706    16.03567
   553  O   6.0   -0.30    1.39    1.80    18.37540   136.33125    15.80274
   554  C   4.0   -0.03    4.43    4.44    22.28318   139.26875    13.93177
   555  C   4.0    0.15    3.33    3.06    23.42585   141.67185    12.96104
   556  O   6.0   -0.28    1.25    1.80    22.01894   143.42034    12.43395
   557  N   5.0   -0.20    3.18    1.95    25.95311   141.65363    12.91739
   558  H   1.0    0.07    1.06    1.44    22.96593   138.85171    19.16083
   559  H   1.0    0.09    1.16    1.46    20.15497   142.15909    15.69154
   560  H   1.0    0.03    1.03    1.43    23.63436   137.83952    14.52724
   561  H   1.0    0.05    1.05    1.44    21.00238   138.55537    12.49234
   562  H   1.0    0.09    1.03    1.43    26.93479   143.18228    12.34205
   563  H   1.0    0.06    1.03    1.43    26.90767   140.08936    13.42097
   564  N   5.0   -0.15    3.52    2.09    16.35237   140.02601    15.64110
   565  C   4.0    0.03    4.44    4.44    14.14346   138.74034    14.70796
   566  C   4.0    0.10    3.38    3.07    15.10072   136.62329    12.92264
   567  O   6.0   -0.30    1.12    1.80    14.42102   134.41417    13.17336
   568  C   4.0   -0.03    4.28    4.16    12.21425   140.69145    13.62732
   569  C   4.0   -0.04    4.21    4.03     9.99966   139.25324    12.45980
   570  C   4.0   -0.07    4.10    3.80    13.26852   142.49932    11.62337
   571  C   4.0   -0.08    4.03    3.67     8.89101   137.18729    14.14673
   572  H   1.0    0.09    1.07    1.44    16.34228   141.92617    15.80220
   573  H   1.0    0.05    1.06    1.44    13.18890   137.76533    16.26878
   574  H   1.0    0.04    1.05    1.44    11.54691   141.80229    15.23441
   575  H   1.0    0.06    1.03    1.43     8.53713   140.60566    11.93131
   576  H   1.0    0.05    1.03    1.43    10.67163   138.42735    10.69212
   577  H   1.0    0.06    1.01    1.43    11.72796   143.71958    11.02122
   578  H   1.0    0.06    0.99    1.43    14.80401   143.68017    12.31618
   579  H   1.0    0.05    1.00    1.43    13.87480   141.48361     9.94622
   580  H   1.0    0.04    1.00    1.43     7.12190   136.53799    13.34046
   581  H   1.0    0.05    1.01    1.43    10.18543   135.61938    14.35285
   582  H   1.0    0.04    1.00    1.43     8.45970   137.95933    16.00459
   583  H   1.0    0.07    1.06    1.44     4.52199   182.58316    -2.28040
   584  H   1.0    0.04    1.04    1.43     2.25804   168.57052    22.63620
   585  H   1.0    0.09    1.08    1.44    -1.29141   171.80542    15.31905
   586  H   1.0    0.05    1.04    1.43    -5.25174   167.48415    18.25534
   587  H   1.0    0.08    1.08    1.44    -1.88336   153.03429    -9.06176
   588  H   1.0    0.04    1.04    1.43     2.36808   148.18752    -6.65226
   589  H   1.0    0.08    1.07    1.44    -8.60409   173.35475    -2.00741
   590  H   1.0    0.03    1.04    1.43   -13.00859   171.27657    -5.56645
   591  H   1.0    0.08    1.07    1.44    -6.68384   169.23617   -10.52105
   592  H   1.0    0.04    1.05    1.44   -10.02299   163.70554   -11.36191
   593  H   1.0    0.09    1.07    1.44     9.88794   165.82338   -15.15942
   594  H   1.0    0.04    1.06    1.44    15.10024   163.71846   -18.18971
   595  H   1.0    0.08    1.08    1.44    18.38261   167.37191   -18.57468
   596  H   1.0    0.06    1.05    1.44    -7.67094   152.05780    15.53116
   597  H   1.0    0.08    1.07    1.44    12.72760   152.82840    33.89004
   598  H   1.0    0.04    1.05    1.44    15.06083   148.94699    30.05705
   599  H   1.0    0.09    1.07    1.44     7.13101   145.19471    25.01332
   600  H   1.0    0.04    1.05    1.44     8.76069   138.84431    26.29136
   601  H   1.0    0.07    1.08    1.44    24.26755   140.55289    24.69195
   602  H   1.0    0.05    1.05    1.44    16.30176   137.03817    11.52392

  Z AO/shell   Hii/eV     exponent
  1     Wed Apr 25 08:07:45 CEST 2018   EN: 2.200 GM2: 0.406  GM3: 0.0800  RAES: 1.40
     1s    -10.707211    1.230000
  6     Wed Apr 25 08:07:45 CEST 2018   EN: 2.550 GM2: 0.538  GM3: 0.1500  RAES: 3.00
     2s    -13.970922    2.096432
     2p    -10.063292    1.800000
  7     Wed Apr 25 08:07:45 CEST 2018   EN: 3.040 GM2: 0.461  GM3:-0.0640  RAES: 1.90
     2s    -16.686243    2.339881
     2p    -12.523956    2.014332
  8     Wed Apr 25 08:07:45 CEST 2018   EN: 3.440 GM2: 0.452  GM3:-0.0517  RAES: 1.80
     2s    -20.229985    2.439742
     2p    -15.503117    2.137023
 16     Tue Apr 24 11:44:34 CEST 2018   EN: 2.580 GM2: 0.340  GM3:-0.0502  RAES: 3.10
     3s    -20.029654    1.981333
     3p    -11.377694    2.025643
     3d     -0.420282    1.702555
 no old-style atom pair restraining (fixing) potential

molecular fragmentation (1/2 indicates fragments):
111111111111111111111111111111111111111111111111111111111111111111111111
111111111111111111111111111111111111111111111111111111111111111122222222
222222222222222222222222222222222222222222222222222222222222222222222222
222222222222222222222222222222222222222222222222222222222222222222222222
222222222222222222222222222222222222222222222222222222222222222222222222
222222222222222222222222222222222222222222222222222222222222222222222222
222222222222222222222222222222222222222222222222222222222222222222222222
222222222222222222222222222222222222222222222222222222222222222222222222
22222211222222222222222222
# atoms in fragment 1/2:   138   464
 fragment masses (1/2) :      883.12     3109.72
CMA distance (Bohr)    :  17.371
constraining FC (au)   :  0.0500
           ------------------------------------------------- 
          |        Self-Consistent Charge Iterations        |
           ------------------------------------------------- 

 Ncao       : 1442
 Nao        : 1441
 Nshell     : 881
 Nel        : 1596
 T(el)      :   500.0
 intcut     :    35.0
 scfconv/Eh :  0.100E-06
   qconv/e  :  0.100E-04
 intneglect :  0.100E-08
 broydamp   :      0.400
 iter      E             dE          RMSdq      gap      omega  full diag
   1   -911.8314449 -0.911831E+03  0.452E+00    3.35       0.0  T
   2   -914.1852309 -0.235379E+01  0.210E+00    1.70       1.0  T
   3   -914.3526520 -0.167421E+00  0.124E+00    1.91       1.0  T
   4   -914.5060916 -0.153440E+00  0.265E-01    1.24       1.0  T
   5   -914.5152634 -0.917173E-02  0.139E-01    1.44       1.0  T
   6   -914.5166240 -0.136069E-02  0.591E-02    1.33       1.0  T
   7   -914.5170792 -0.455161E-03  0.268E-02    1.32       1.0  T
   8   -914.5171425 -0.632562E-04  0.125E-02    1.29       1.0  T
   9   -914.5171640 -0.215559E-04  0.555E-03    1.29       1.0  T
  10   -914.5171671 -0.305598E-05  0.237E-03    1.29       1.7  T
  11   -914.5171680 -0.906503E-06  0.106E-03    1.29       3.8  T
  12   -914.5171681 -0.125312E-06  0.457E-04    1.29       8.9  T
  13   -914.5171681 -0.162091E-07  0.218E-04    1.29      18.7  T
  14   -914.5171681 -0.486000E-08  0.812E-05    1.29      50.2  T
  15   -914.5171681 -0.541604E-09  0.410E-05    1.29      99.4  T
speedup  2.00
cpu  time for SCC   18.26 s
wall time for SCC    9.13 s

   *** convergence criteria satisfied after 15 iterations ***

          eigenvalues
 #    :         786        787        788        789        790        791        792        793
 occ. :        2.000      2.000      2.000      2.000      2.000      2.000      2.000      2.000
 eps  :       -10.146    -10.140    -10.068     -9.927     -9.910     -9.899     -9.886     -9.830
 #    :         794        795        796        797        798        799        800        801
 occ. :        2.000      2.000      2.000      2.000      2.000      0.000      0.000      0.000
 eps  :        -9.778     -9.776     -9.619     -9.578     -9.168     -7.882     -7.799     -7.748
 #    :         802        803        804        805        806        807        808        809
 occ. :        0.000      0.000      0.000      0.000      0.000      0.000      0.000      0.000
 eps  :        -7.743     -7.640     -7.465     -7.412     -7.314     -7.306     -7.255     -7.239


   #   Z            q   n(s)   n(p)   n(d)      C6AA      α(0)
   1   7 N     -0.387  1.326  4.061  0.000    30.002     8.135
   2   6 C      0.014  1.069  2.917  0.000    20.366     6.429
   3   6 C      0.267  1.051  2.682  0.000    22.501     7.768
   4   8 O     -0.498  1.747  4.750  0.000    23.738     6.532
   5   6 C     -0.126  1.047  3.079  0.000    22.974     6.835
   6   1 H      0.159  0.841  0.000  0.000     1.339     1.813
   7   1 H      0.068  0.932  0.000  0.000     2.108     2.271
   8   1 H      0.040  0.960  0.000  0.000     2.447     2.446
   9   1 H      0.064  0.936  0.000  0.000     2.150     2.293
  10   1 H      0.045  0.955  0.000  0.000     2.384     2.414
  11   7 N     -0.172  1.245  3.927  0.000    24.719     7.384
  12   6 C      0.017  1.065  2.919  0.000    20.297     6.415
  13   6 C      0.278  1.044  2.678  0.000    22.295     7.732
  14   8 O     -0.510  1.751  4.758  0.000    23.999     6.568
  15   6 C     -0.083  1.064  3.019  0.000    22.082     6.690
  16   6 C     -0.017  1.062  2.955  0.000    20.844     6.494
  17   6 C     -0.117  1.040  3.077  0.000    22.803     6.809
  18   6 C     -0.114  1.042  3.072  0.000    22.746     6.800
  19   1 H      0.214  0.786  0.000  0.000     1.036     1.594
  20   1 H      0.071  0.929  0.000  0.000     2.073     2.251
  21   1 H      0.069  0.931  0.000  0.000     2.098     2.265
  22   1 H      0.046  0.954  0.000  0.000     2.365     2.405
  23   1 H      0.036  0.964  0.000  0.000     2.507     2.476
  24   1 H      0.044  0.956  0.000  0.000     2.396     2.420
  25   1 H      0.047  0.953  0.000  0.000     2.359     2.402
  26   1 H      0.047  0.953  0.000  0.000     2.354     2.399
  27   1 H      0.034  0.966  0.000  0.000     2.528     2.486
  28   1 H      0.046  0.954  0.000  0.000     2.364     2.405
  29   1 H      0.030  0.970  0.000  0.000     2.585     2.514
  30   7 N     -0.186  1.255  3.931  0.000    25.036     7.431
  31   6 C      0.000  1.081  2.918  0.000    20.594     6.464
  32   6 C      0.284  1.042  2.675  0.000    22.197     7.714
  33   8 O     -0.487  1.751  4.736  0.000    23.506     6.500
  34   6 C     -0.095  1.064  3.031  0.000    22.303     6.723
  35   6 C     -0.079  1.052  3.028  0.000    22.010     6.679
  36   6 C     -0.101  1.057  3.044  0.000    22.428     6.742
  37   6 C     -0.052  1.060  2.993  0.000    21.607     6.635
  38   7 N     -0.149  1.231  3.918  0.000    24.210     7.308
  39   1 H      0.226  0.774  0.000  0.000     0.982     1.553
  40   1 H      0.095  0.905  0.000  0.000     1.835     2.118
  41   1 H      0.083  0.917  0.000  0.000     1.951     2.184
  42   1 H      0.059  0.941  0.000  0.000     2.213     2.326
  43   1 H      0.078  0.922  0.000  0.000     2.004     2.214
  44   1 H      0.060  0.940  0.000  0.000     2.195     2.317
  45   1 H      0.074  0.926  0.000  0.000     2.041     2.234
  46   1 H      0.086  0.914  0.000  0.000     1.914     2.163
  47   1 H      0.126  0.874  0.000  0.000     1.565     1.956
  48   1 H      0.118  0.882  0.000  0.000     1.632     1.998
  49   1 H      0.304  0.696  0.000  0.000     0.702     1.313
  50   1 H      0.294  0.706  0.000  0.000     0.731     1.340
  51   1 H      0.300  0.700  0.000  0.000     0.714     1.324
  52   7 N     -0.171  1.235  3.936  0.000    24.711     7.383
  53   6 C      0.013  1.062  2.925  0.000    20.372     6.428
  54   6 C      0.271  1.052  2.678  0.000    22.428     7.756
  55   8 O     -0.480  1.753  4.727  0.000    23.345     6.478
  56   6 C     -0.027  1.072  2.954  0.000    21.010     6.519
  57   6 C     -0.081  1.058  3.023  0.000    22.047     6.686
  58   6 C     -0.131  1.045  3.086  0.000    23.079     6.850
  59   6 C     -0.110  1.037  3.073  0.000    22.675     6.792
  60   1 H      0.214  0.786  0.000  0.000     1.039     1.596
  61   1 H      0.080  0.920  0.000  0.000     1.976     2.199
  62   1 H      0.055  0.945  0.000  0.000     2.261     2.352
  63   1 H      0.068  0.932  0.000  0.000     2.113     2.273
  64   1 H      0.049  0.951  0.000  0.000     2.330     2.387
  65   1 H      0.067  0.933  0.000  0.000     2.114     2.273
  66   1 H      0.059  0.941  0.000  0.000     2.211     2.325
  67   1 H      0.064  0.936  0.000  0.000     2.152     2.294
  68   1 H      0.044  0.956  0.000  0.000     2.396     2.421
  69   1 H      0.025  0.975  0.000  0.000     2.663     2.552
  70   1 H      0.038  0.962  0.000  0.000     2.482     2.464
  71   7 N     -0.175  1.264  3.910  0.000    24.780     7.393
  72   6 C      0.025  1.066  2.909  0.000    20.146     6.390
  73   6 C      0.278  1.052  2.670  0.000    22.296     7.731
  74   8 O     -0.477  1.760  4.717  0.000    23.277     6.469
  75   6 C     -0.078  1.061  3.017  0.000    21.981     6.675
  76   6 C     -0.013  1.056  2.957  0.000    20.775     6.483
  77   6 C     -0.118  1.043  3.075  0.000    22.799     6.807
  78   6 C     -0.117  1.040  3.076  0.000    22.783     6.805
  79   1 H      0.218  0.782  0.000  0.000     1.018     1.580
  80   1 H      0.084  0.916  0.000  0.000     1.943     2.180
  81   1 H      0.079  0.921  0.000  0.000     1.992     2.207
  82   1 H      0.047  0.953  0.000  0.000     2.358     2.402
  83   1 H      0.030  0.970  0.000  0.000     2.586     2.515
  84   1 H      0.036  0.964  0.000  0.000     2.503     2.474
  85   1 H      0.046  0.954  0.000  0.000     2.374     2.410
  86   1 H      0.058  0.942  0.000  0.000     2.220     2.330
  87   1 H      0.041  0.959  0.000  0.000     2.441     2.443
  88   1 H      0.062  0.938  0.000  0.000     2.177     2.307
  89   1 H      0.017  0.983  0.000  0.000     2.779     2.607
  90   7 N     -0.205  1.242  3.963  0.000    25.460     7.494
  91   6 C      0.043  1.050  2.908  0.000    19.865     6.347
  92   6 C      0.265  1.056  2.679  0.000    22.531     7.778
  93   8 O     -0.493  1.728  4.764  0.000    23.625     6.517
  94   6 C     -0.101  1.065  3.036  0.000    22.409     6.736
  95   6 C      0.294  1.043  2.663  0.000    22.021     7.684
  96   8 O     -0.490  1.770  4.720  0.000    23.555     6.507
  97   7 N     -0.299  1.290  4.009  0.000    27.695     7.816
  98   1 H      0.218  0.782  0.000  0.000     1.021     1.583
  99   1 H      0.055  0.945  0.000  0.000     2.263     2.352
 100   1 H      0.062  0.938  0.000  0.000     2.176     2.307
 101   1 H      0.091  0.909  0.000  0.000     1.870     2.139
 102   1 H      0.235  0.765  0.000  0.000     0.946     1.523
 103   1 H      0.240  0.760  0.000  0.000     0.925     1.506
 104   7 N     -0.189  1.284  3.905  0.000    25.092     7.440
 105   6 C      0.008  1.056  2.936  0.000    20.398     6.421
 106   6 C      0.265  1.043  2.693  0.000    22.531     7.772
 107   8 O     -0.451  1.742  4.709  0.000    22.725     6.391
 108   6 C     -0.115  1.063  3.052  0.000    22.682     6.780
 109   6 C      0.283  1.042  2.675  0.000    22.209     7.718
 110   8 O     -0.454  1.750  4.705  0.000    22.799     6.402
 111   7 N     -0.309  1.296  4.013  0.000    27.964     7.854
 112   1 H      0.249  0.751  0.000  0.000     0.887     1.475
 113   1 H      0.081  0.919  0.000  0.000     1.964     2.192
 114   1 H      0.098  0.902  0.000  0.000     1.804     2.100
 115   1 H      0.092  0.908  0.000  0.000     1.864     2.135
 116   1 H      0.239  0.761  0.000  0.000     0.929     1.510
 117   1 H      0.224  0.776  0.000  0.000     0.991     1.559
 118   7 N     -0.176  1.248  3.928  0.000    24.817     7.399
 119   6 C      0.013  1.069  2.918  0.000    20.362     6.427
 120   6 C      0.191  1.079  2.730  0.000    23.918     8.009
 121   8 O     -0.323  1.756  4.567  0.000    20.197     6.025
 122   6 C     -0.035  1.072  2.963  0.000    21.167     6.544
 123   6 C     -0.078  1.057  3.022  0.000    22.002     6.679
 124   6 C     -0.124  1.041  3.083  0.000    22.940     6.830
 125   6 C     -0.117  1.040  3.078  0.000    22.810     6.811
 126   1 H      0.206  0.794  0.000  0.000     1.073     1.623
 127   1 H      0.075  0.925  0.000  0.000     2.026     2.226
 128   1 H      0.068  0.932  0.000  0.000     2.107     2.270
 129   1 H      0.044  0.956  0.000  0.000     2.399     2.422
 130   1 H      0.067  0.933  0.000  0.000     2.119     2.276
 131   1 H      0.055  0.945  0.000  0.000     2.262     2.352
 132   1 H      0.042  0.958  0.000  0.000     2.417     2.431
 133   1 H      0.040  0.960  0.000  0.000     2.453     2.449
 134   1 H      0.053  0.947  0.000  0.000     2.279     2.361
 135   1 H      0.051  0.949  0.000  0.000     2.307     2.375
 136   1 H      0.036  0.964  0.000  0.000     2.501     2.473
 137   7 N     -0.393  1.304  4.090  0.000    30.191     8.160
 138   6 C      0.044  1.059  2.897  0.000    19.855     6.349
 139   6 C      0.203  1.097  2.701  0.000    23.690     7.971
 140   8 O     -0.381  1.753  4.628  0.000    21.300     6.188
 141   6 C     -0.070  1.067  3.003  0.000    21.848     6.655
 142   6 C     -0.014  1.065  2.949  0.000    20.796     6.487
 143   6 C     -0.114  1.042  3.072  0.000    22.741     6.800
 144   6 C     -0.103  1.040  3.063  0.000    22.514     6.765
 145   1 H      0.203  0.797  0.000  0.000     1.089     1.635
 146   1 H      0.044  0.956  0.000  0.000     2.396     2.421
 147   1 H      0.057  0.943  0.000  0.000     2.229     2.335
 148   1 H      0.037  0.963  0.000  0.000     2.486     2.466
 149   1 H      0.018  0.982  0.000  0.000     2.764     2.600
 150   1 H      0.046  0.954  0.000  0.000     2.375     2.410
 151   1 H      0.045  0.955  0.000  0.000     2.386     2.416
 152   1 H      0.043  0.957  0.000  0.000     2.404     2.425
 153   1 H      0.038  0.962  0.000  0.000     2.470     2.458
 154   1 H      0.035  0.965  0.000  0.000     2.517     2.481
 155   1 H      0.013  0.987  0.000  0.000     2.844     2.637
 156   7 N     -0.392  1.296  4.096  0.000    30.155     8.156
 157   6 C      0.038  1.050  2.912  0.000    19.936     6.356
 158   6 C      0.200  1.097  2.703  0.000    23.733     7.979
 159   8 O     -0.386  1.764  4.622  0.000    21.412     6.204
 160   6 C     -0.071  1.055  3.016  0.000    21.831     6.648
 161   6 C     -0.012  1.057  2.955  0.000    20.744     6.476
 162   6 C     -0.124  1.046  3.078  0.000    22.935     6.828
 163   6 C     -0.114  1.041  3.073  0.000    22.743     6.799
 164   1 H      0.176  0.824  0.000  0.000     1.240     1.744
 165   1 H      0.063  0.937  0.000  0.000     2.163     2.300
 166   1 H      0.068  0.932  0.000  0.000     2.104     2.268
 167   1 H      0.030  0.970  0.000  0.000     2.585     2.515
 168   1 H      0.011  0.989  0.000  0.000     2.879     2.653
 169   1 H      0.049  0.951  0.000  0.000     2.328     2.386
 170   1 H      0.048  0.952  0.000  0.000     2.348     2.396
 171   1 H      0.065  0.935  0.000  0.000     2.138     2.286
 172   1 H      0.018  0.982  0.000  0.000     2.758     2.597
 173   1 H      0.054  0.946  0.000  0.000     2.271     2.357
 174   1 H      0.027  0.973  0.000  0.000     2.627     2.535
 175   7 N     -0.389  1.304  4.085  0.000    30.062     8.143
 176   6 C      0.040  1.052  2.908  0.000    19.915     6.357
 177   6 C      0.195  1.090  2.714  0.000    23.830     7.995
 178   8 O     -0.392  1.761  4.631  0.000    21.520     6.220
 179   6 C     -0.067  1.062  3.005  0.000    21.784     6.644
 180   6 C     -0.009  1.060  2.949  0.000    20.698     6.471
 181   6 C     -0.116  1.043  3.073  0.000    22.763     6.801
 182   6 C     -0.112  1.038  3.074  0.000    22.688     6.791
 183   1 H      0.172  0.828  0.000  0.000     1.263     1.761
 184   1 H      0.054  0.946  0.000  0.000     2.274     2.358
 185   1 H      0.048  0.952  0.000  0.000     2.350     2.397
 186   1 H      0.043  0.957  0.000  0.000     2.408     2.427
 187   1 H      0.038  0.962  0.000  0.000     2.473     2.459
 188   1 H      0.044  0.956  0.000  0.000     2.402     2.424
 189   1 H      0.039  0.961  0.000  0.000     2.468     2.457
 190   1 H      0.036  0.964  0.000  0.000     2.500     2.472
 191   1 H      0.045  0.955  0.000  0.000     2.388     2.417
 192   1 H      0.036  0.964  0.000  0.000     2.505     2.475
 193   1 H      0.039  0.961  0.000  0.000     2.460     2.453
 194   7 N     -0.390  1.319  4.071  0.000    30.098     8.148
 195   6 C      0.039  1.056  2.905  0.000    19.936     6.361
 196   6 C      0.201  1.095  2.704  0.000    23.716     7.975
 197   8 O     -0.389  1.759  4.631  0.000    21.466     6.212
 198   6 C     -0.078  1.060  3.019  0.000    21.989     6.675
 199   6 C     -0.012  1.061  2.950  0.000    20.752     6.480
 200   6 C     -0.112  1.040  3.072  0.000    22.690     6.792
 201   6 C     -0.114  1.047  3.067  0.000    22.736     6.799
 202   1 H      0.167  0.833  0.000  0.000     1.292     1.781
 203   1 H      0.065  0.935  0.000  0.000     2.147     2.291
 204   1 H      0.050  0.950  0.000  0.000     2.322     2.383
 205   1 H      0.045  0.955  0.000  0.000     2.378     2.412
 206   1 H      0.030  0.970  0.000  0.000     2.587     2.515
 207   1 H      0.042  0.958  0.000  0.000     2.419     2.432
 208   1 H      0.041  0.959  0.000  0.000     2.437     2.441
 209   1 H      0.041  0.959  0.000  0.000     2.429     2.437
 210   1 H      0.043  0.957  0.000  0.000     2.413     2.429
 211   1 H      0.042  0.958  0.000  0.000     2.426     2.436
 212   1 H      0.028  0.972  0.000  0.000     2.619     2.531
 213   7 N     -0.397  1.324  4.073  0.000    30.277     8.172
 214   6 C      0.043  1.049  2.908  0.000    19.866     6.349
 215   6 C      0.194  1.089  2.717  0.000    23.860     8.001
 216   8 O     -0.384  1.767  4.617  0.000    21.358     6.196
 217   6 C     -0.124  1.045  3.079  0.000    22.915     6.821
 218   1 H      0.180  0.820  0.000  0.000     1.215     1.727
 219   1 H      0.036  0.964  0.000  0.000     2.508     2.477
 220   1 H      0.049  0.951  0.000  0.000     2.335     2.390
 221   1 H      0.071  0.929  0.000  0.000     2.076     2.253
 222   1 H      0.070  0.930  0.000  0.000     2.086     2.259
 223   7 N     -0.385  1.312  4.074  0.000    29.967     8.130
 224   6 C      0.037  1.058  2.905  0.000    19.957     6.363
 225   6 C      0.279  1.048  2.673  0.000    22.286     7.733
 226   8 O     -0.478  1.749  4.729  0.000    23.309     6.473
 227   6 C     -0.061  1.056  3.005  0.000    21.667     6.627
 228   6 C     -0.097  1.080  3.017  0.000    22.366     6.736
 229   6 C      0.367  1.034  2.598  0.000    20.776     7.458
 230   8 O     -0.645  1.776  4.869  0.000    27.247     6.998
 231   8 O     -0.631  1.769  4.862  0.000    26.883     6.951
 232   1 H      0.159  0.841  0.000  0.000     1.339     1.813
 233   1 H      0.031  0.969  0.000  0.000     2.566     2.505
 234   1 H      0.032  0.968  0.000  0.000     2.561     2.503
 235   1 H      0.036  0.964  0.000  0.000     2.504     2.474
 236   1 H      0.011  0.989  0.000  0.000     2.870     2.649
 237   1 H      0.020  0.980  0.000  0.000     2.729     2.583
 238   7 N     -0.178  1.235  3.944  0.000    24.862     7.405
 239   6 C      0.004  1.070  2.926  0.000    20.481     6.439
 240   6 C      0.284  1.039  2.677  0.000    22.190     7.714
 241   8 O     -0.454  1.747  4.707  0.000    22.795     6.401
 242   6 C      0.055  1.041  2.904  0.000    19.864     6.385
 243   8 O     -0.485  1.707  4.777  0.000    22.564     6.412
 244   1 H      0.197  0.803  0.000  0.000     1.120     1.658
 245   1 H      0.089  0.911  0.000  0.000     1.893     2.152
 246   1 H      0.064  0.936  0.000  0.000     2.147     2.292
 247   1 H      0.049  0.951  0.000  0.000     2.334     2.389
 248   1 H      0.338  0.662  0.000  0.000     0.616     1.233
 249   7 N     -0.186  1.242  3.944  0.000    25.031     7.431
 250   6 C      0.019  1.052  2.928  0.000    20.247     6.405
 251   6 C      0.286  1.034  2.680  0.000    22.164     7.715
 252   8 O     -0.468  1.744  4.723  0.000    23.074     6.441
 253   6 C      0.111  1.049  2.840  0.000    18.805     6.182
 254   8 O     -0.484  1.735  4.750  0.000    22.558     6.412
 255   6 C     -0.157  1.049  3.108  0.000    23.596     6.926
 256   1 H      0.229  0.771  0.000  0.000     0.968     1.541
 257   1 H      0.091  0.909  0.000  0.000     1.866     2.136
 258   1 H      0.044  0.956  0.000  0.000     2.395     2.420
 259   1 H      0.339  0.661  0.000  0.000     0.613     1.230
 260   1 H      0.080  0.920  0.000  0.000     1.982     2.202
 261   1 H      0.089  0.911  0.000  0.000     1.887     2.148
 262   1 H      0.081  0.919  0.000  0.000     1.966     2.193
 263   7 N     -0.179  1.248  3.931  0.000    24.880     7.408
 264   6 C      0.025  1.060  2.915  0.000    20.135     6.384
 265   6 C      0.315  1.037  2.648  0.000    21.660     7.624
 266   8 O     -0.526  1.755  4.771  0.000    24.373     6.619
 267   6 C     -0.093  1.068  3.025  0.000    22.266     6.716
 268   6 C     -0.004  1.059  2.945  0.000    20.623     6.460
 269   6 C     -0.120  1.045  3.075  0.000    22.859     6.817
 270   6 C     -0.104  1.039  3.065  0.000    22.559     6.774
 271   1 H      0.254  0.746  0.000  0.000     0.868     1.460
 272   1 H      0.070  0.930  0.000  0.000     2.087     2.259
 273   1 H      0.095  0.905  0.000  0.000     1.827     2.114
 274   1 H      0.066  0.934  0.000  0.000     2.136     2.285
 275   1 H      0.004  0.996  0.000  0.000     2.995     2.706
 276   1 H      0.034  0.966  0.000  0.000     2.526     2.486
 277   1 H      0.051  0.949  0.000  0.000     2.305     2.374
 278   1 H      0.063  0.937  0.000  0.000     2.158     2.298
 279   1 H      0.030  0.970  0.000  0.000     2.591     2.517
 280   1 H      0.062  0.938  0.000  0.000     2.174     2.306
 281   1 H      0.006  0.994  0.000  0.000     2.964     2.692
 282   7 N     -0.214  1.262  3.952  0.000    25.660     7.523
 283   6 C      0.041  1.062  2.898  0.000    19.892     6.350
 284   6 C      0.323  1.033  2.644  0.000    21.511     7.595
 285   8 O     -0.547  1.778  4.769  0.000    24.850     6.683
 286   6 C     -0.072  1.062  3.010  0.000    21.869     6.658
 287   6 C     -0.103  1.072  3.031  0.000    22.472     6.750
 288   6 C      0.366  1.027  2.607  0.000    20.788     7.461
 289   8 O     -0.665  1.793  4.872  0.000    27.767     7.065
 290   8 O     -0.658  1.781  4.877  0.000    27.600     7.044
 291   1 H      0.219  0.781  0.000  0.000     1.014     1.577
 292   1 H      0.031  0.969  0.000  0.000     2.574     2.509
 293   1 H      0.056  0.944  0.000  0.000     2.243     2.342
 294   1 H      0.080  0.920  0.000  0.000     1.977     2.199
 295   1 H      0.055  0.945  0.000  0.000     2.260     2.351
 296   1 H      0.028  0.972  0.000  0.000     2.622     2.532
 297   7 N     -0.214  1.253  3.961  0.000    25.658     7.523
 298   6 C      0.043  1.049  2.908  0.000    19.855     6.344
 299   6 C      0.290  1.035  2.675  0.000    22.088     7.697
 300   8 O     -0.524  1.761  4.762  0.000    24.312     6.611
 301   6 C      0.111  1.044  2.845  0.000    18.852     6.199
 302   8 O     -0.466  1.698  4.768  0.000    22.183     6.358
 303   6 C     -0.143  1.047  3.096  0.000    23.319     6.886
 304   1 H      0.243  0.757  0.000  0.000     0.911     1.495
 305   1 H      0.015  0.985  0.000  0.000     2.810     2.621
 306   1 H      0.038  0.962  0.000  0.000     2.476     2.461
 307   1 H      0.365  0.635  0.000  0.000     0.555     1.171
 308   1 H      0.109  0.891  0.000  0.000     1.701     2.040
 309   1 H      0.046  0.954  0.000  0.000     2.374     2.410
 310   1 H      0.049  0.951  0.000  0.000     2.336     2.390
 311   7 N     -0.190  1.254  3.936  0.000    25.129     7.445
 312   6 C      0.038  1.058  2.904  0.000    19.938     6.358
 313   6 C      0.285  1.041  2.674  0.000    22.177     7.712
 314   8 O     -0.521  1.742  4.779  0.000    24.254     6.603
 315   6 C     -0.076  1.060  3.016  0.000    21.951     6.670
 316   6 C     -0.023  1.065  2.958  0.000    20.951     6.511
 317   6 C     -0.114  1.043  3.071  0.000    22.742     6.801
 318   6 C     -0.127  1.045  3.082  0.000    23.001     6.839
 319   1 H      0.253  0.747  0.000  0.000     0.872     1.463
 320   1 H      0.064  0.936  0.000  0.000     2.149     2.293
 321   1 H      0.041  0.959  0.000  0.000     2.441     2.443
 322   1 H      0.058  0.942  0.000  0.000     2.224     2.332
 323   1 H      0.058  0.942  0.000  0.000     2.222     2.331
 324   1 H      0.076  0.924  0.000  0.000     2.021     2.223
 325   1 H      0.030  0.970  0.000  0.000     2.580     2.512
 326   1 H      0.046  0.954  0.000  0.000     2.373     2.409
 327   1 H      0.068  0.932  0.000  0.000     2.106     2.270
 328   1 H      0.046  0.954  0.000  0.000     2.365     2.405
 329   1 H      0.037  0.963  0.000  0.000     2.483     2.464
 330   7 N     -0.200  1.257  3.944  0.000    25.355     7.479
 331   6 C      0.056  1.044  2.900  0.000    19.630     6.306
 332   6 C      0.292  1.038  2.671  0.000    22.056     7.692
 333   8 O     -0.539  1.759  4.780  0.000    24.672     6.660
 334   6 C     -0.035  1.047  2.987  0.000    21.172     6.548
 335   6 C     -0.086  1.061  3.025  0.000    22.133     6.698
 336   6 C      0.372  1.026  2.602  0.000    20.698     7.446
 337   8 O     -0.610  1.752  4.858  0.000    26.377     6.886
 338   8 O     -0.642  1.778  4.864  0.000    27.162     6.987
 339   1 H      0.224  0.776  0.000  0.000     0.993     1.561
 340   1 H      0.054  0.946  0.000  0.000     2.269     2.355
 341   1 H      0.050  0.950  0.000  0.000     2.318     2.381
 342   1 H      0.016  0.984  0.000  0.000     2.801     2.617
 343   1 H      0.028  0.972  0.000  0.000     2.621     2.532
 344   1 H     -0.011  1.011  0.000  0.000     3.256     2.822
 345   7 N     -0.189  1.251  3.937  0.000    25.088     7.439
 346   6 C      0.060  1.049  2.891  0.000    19.570     6.298
 347   6 C      0.287  1.042  2.671  0.000    22.146     7.707
 348   8 O     -0.496  1.732  4.764  0.000    23.701     6.527
 349   6 C     -0.029  1.048  2.980  0.000    21.085     6.538
 350   6 C     -0.088  1.067  3.021  0.000    22.190     6.708
 351   6 C      0.371  1.029  2.600  0.000    20.715     7.448
 352   8 O     -0.630  1.769  4.861  0.000    26.867     6.949
 353   8 O     -0.627  1.761  4.866  0.000    26.784     6.939
 354   1 H      0.218  0.782  0.000  0.000     1.019     1.582
 355   1 H      0.026  0.974  0.000  0.000     2.641     2.541
 356   1 H      0.007  0.993  0.000  0.000     2.938     2.681
 357   1 H      0.027  0.973  0.000  0.000     2.635     2.539
 358   1 H      0.026  0.974  0.000  0.000     2.641     2.541
 359   1 H      0.015  0.985  0.000  0.000     2.817     2.624
 360   7 N     -0.200  1.261  3.939  0.000    25.336     7.476
 361   6 C      0.028  1.058  2.913  0.000    20.091     6.380
 362   6 C      0.267  1.047  2.686  0.000    22.490     7.766
 363   8 O     -0.440  1.725  4.715  0.000    22.491     6.358
 364   6 C     -0.053  1.048  3.005  0.000    21.491     6.596
 365   6 C     -0.012  1.068  2.943  0.000    20.792     6.494
 366  16 S     -0.155  1.893  4.222  0.040   147.586    20.447
 367   6 C     -0.060  1.054  3.006  0.000    21.722     6.649
 368   1 H      0.222  0.778  0.000  0.000     1.001     1.567
 369   1 H      0.082  0.918  0.000  0.000     1.957     2.188
 370   1 H      0.081  0.919  0.000  0.000     1.966     2.192
 371   1 H      0.038  0.962  0.000  0.000     2.482     2.464
 372   1 H      0.026  0.974  0.000  0.000     2.640     2.541
 373   1 H      0.054  0.946  0.000  0.000     2.276     2.359
 374   1 H      0.097  0.903  0.000  0.000     1.815     2.107
 375   1 H      0.042  0.958  0.000  0.000     2.429     2.437
 376   1 H      0.025  0.975  0.000  0.000     2.655     2.548
 377   7 N     -0.195  1.265  3.930  0.000    25.237     7.461
 378   6 C      0.029  1.060  2.910  0.000    20.079     6.380
 379   6 C      0.295  1.042  2.663  0.000    21.999     7.681
 380   8 O     -0.463  1.725  4.738  0.000    22.972     6.426
 381   6 C     -0.068  1.055  3.014  0.000    21.791     6.644
 382   6 C      0.006  1.054  2.940  0.000    20.446     6.431
 383   6 C     -0.111  1.041  3.070  0.000    22.690     6.793
 384   6 C     -0.100  1.039  3.061  0.000    22.465     6.759
 385   1 H      0.202  0.798  0.000  0.000     1.096     1.640
 386   1 H      0.094  0.906  0.000  0.000     1.845     2.124
 387   1 H      0.080  0.920  0.000  0.000     1.981     2.201
 388   1 H      0.018  0.982  0.000  0.000     2.761     2.599
 389   1 H     -0.003  1.003  0.000  0.000     3.116     2.761
 390   1 H      0.051  0.949  0.000  0.000     2.313     2.378
 391   1 H      0.045  0.955  0.000  0.000     2.381     2.413
 392   1 H      0.056  0.944  0.000  0.000     2.245     2.343
 393   1 H      0.033  0.967  0.000  0.000     2.541     2.493
 394   1 H      0.051  0.949  0.000  0.000     2.310     2.377
 395   1 H      0.020  0.980  0.000  0.000     2.739     2.588
 396   7 N     -0.199  1.250  3.949  0.000    25.333     7.475
 397   6 C      0.058  1.047  2.895  0.000    19.580     6.295
 398   6 C      0.292  1.032  2.675  0.000    22.044     7.689
 399   8 O     -0.473  1.728  4.745  0.000    23.205     6.459
 400   6 C     -0.070  1.050  3.020  0.000    21.820     6.647
 401   6 C     -0.079  1.054  3.025  0.000    22.005     6.679
 402   6 C      0.355  1.037  2.608  0.000    20.968     7.494
 403   8 O     -0.595  1.762  4.833  0.000    25.987     6.835
 404   8 O     -0.604  1.771  4.833  0.000    26.226     6.866
 405   1 H      0.185  0.815  0.000  0.000     1.186     1.706
 406   1 H      0.025  0.975  0.000  0.000     2.664     2.552
 407   1 H      0.056  0.944  0.000  0.000     2.243     2.342
 408   1 H      0.071  0.929  0.000  0.000     2.077     2.254
 409   1 H      0.016  0.984  0.000  0.000     2.795     2.614
 410   1 H     -0.005  1.005  0.000  0.000     3.149     2.775
 411   7 N     -0.192  1.247  3.945  0.000    25.169     7.451
 412   6 C      0.004  1.089  2.907  0.000    20.543     6.459
 413   6 C      0.272  1.047  2.681  0.000    22.396     7.750
 414   8 O     -0.457  1.734  4.724  0.000    22.862     6.411
 415   6 C     -0.088  1.071  3.017  0.000    22.185     6.708
 416   6 C     -0.061  1.052  3.009  0.000    21.680     6.631
 417   6 C     -0.091  1.063  3.029  0.000    22.246     6.716
 418   6 C     -0.042  1.064  2.978  0.000    21.444     6.613
 419   7 N     -0.144  1.234  3.910  0.000    24.113     7.293
 420   1 H      0.190  0.810  0.000  0.000     1.157     1.685
 421   1 H      0.073  0.927  0.000  0.000     2.057     2.243
 422   1 H      0.059  0.941  0.000  0.000     2.209     2.324
 423   1 H      0.086  0.914  0.000  0.000     1.914     2.163
 424   1 H      0.037  0.963  0.000  0.000     2.495     2.470
 425   1 H      0.035  0.965  0.000  0.000     2.519     2.482
 426   1 H      0.095  0.905  0.000  0.000     1.832     2.117
 427   1 H      0.084  0.916  0.000  0.000     1.937     2.177
 428   1 H      0.098  0.902  0.000  0.000     1.805     2.101
 429   1 H      0.095  0.905  0.000  0.000     1.833     2.117
 430   1 H      0.300  0.700  0.000  0.000     0.714     1.323
 431   1 H      0.304  0.696  0.000  0.000     0.700     1.311
 432   1 H      0.291  0.709  0.000  0.000     0.742     1.349
 433   7 N     -0.174  1.250  3.925  0.000    24.776     7.393
 434   6 C      0.026  1.056  2.918  0.000    20.122     6.383
 435   6 C      0.292  1.037  2.671  0.000    22.054     7.692
 436   8 O     -0.485  1.737  4.748  0.000    23.457     6.493
 437   6 C     -0.079  1.061  3.018  0.000    21.987     6.673
 438   6 C     -0.013  1.059  2.954  0.000    20.781     6.484
 439   6 C     -0.122  1.048  3.074  0.000    22.888     6.821
 440   6 C     -0.121  1.038  3.083  0.000    22.879     6.820
 441   1 H      0.215  0.785  0.000  0.000     1.034     1.593
 442   1 H      0.080  0.920  0.000  0.000     1.980     2.201
 443   1 H      0.069  0.931  0.000  0.000     2.099     2.266
 444   1 H      0.030  0.970  0.000  0.000     2.580     2.512
 445   1 H      0.049  0.951  0.000  0.000     2.332     2.388
 446   1 H      0.063  0.937  0.000  0.000     2.163     2.300
 447   1 H      0.053  0.947  0.000  0.000     2.288     2.366
 448   1 H      0.040  0.960  0.000  0.000     2.452     2.449
 449   1 H      0.059  0.941  0.000  0.000     2.211     2.325
 450   1 H      0.023  0.977  0.000  0.000     2.684     2.562
 451   1 H      0.036  0.964  0.000  0.000     2.499     2.472
 452   7 N     -0.202  1.253  3.950  0.000    25.394     7.484
 453   6 C      0.038  1.054  2.908  0.000    19.932     6.356
 454   6 C      0.283  1.049  2.667  0.000    22.206     7.720
 455   8 O     -0.511  1.751  4.760  0.000    24.038     6.573
 456   6 C     -0.050  1.048  3.002  0.000    21.460     6.594
 457   6 C     -0.092  1.063  3.029  0.000    22.260     6.719
 458   6 C      0.361  1.040  2.599  0.000    20.882     7.478
 459   8 O     -0.630  1.770  4.861  0.000    26.872     6.950
 460   8 O     -0.660  1.783  4.877  0.000    27.629     7.047
 461   1 H      0.227  0.773  0.000  0.000     0.980     1.551
 462   1 H      0.067  0.933  0.000  0.000     2.117     2.276
 463   1 H      0.037  0.963  0.000  0.000     2.489     2.467
 464   1 H      0.051  0.949  0.000  0.000     2.310     2.377
 465   1 H      0.034  0.966  0.000  0.000     2.533     2.489
 466   1 H     -0.005  1.005  0.000  0.000     3.141     2.771
 467   7 N     -0.198  1.279  3.919  0.000    25.298     7.470
 468   6 C      0.038  1.053  2.909  0.000    19.902     6.345
 469   6 C      0.289  1.035  2.676  0.000    22.100     7.699
 470   8 O     -0.515  1.747  4.768  0.000    24.125     6.585
 471   6 C     -0.014  1.057  2.957  0.000    20.792     6.485
 472   6 C     -0.110  1.038  3.072  0.000    22.648     6.785
 473   6 C     -0.138  1.044  3.094  0.000    23.204     6.866
 474   1 H      0.217  0.783  0.000  0.000     1.021     1.583
 475   1 H      0.035  0.965  0.000  0.000     2.514     2.480
 476   1 H      0.044  0.956  0.000  0.000     2.392     2.419
 477   1 H      0.054  0.946  0.000  0.000     2.274     2.358
 478   1 H      0.014  0.986  0.000  0.000     2.829     2.630
 479   1 H      0.048  0.952  0.000  0.000     2.342     2.393
 480   1 H      0.061  0.939  0.000  0.000     2.187     2.313
 481   1 H      0.074  0.926  0.000  0.000     2.047     2.237
 482   1 H      0.046  0.954  0.000  0.000     2.374     2.409
 483   7 N     -0.169  1.245  3.924  0.000    24.657     7.375
 484   6 C      0.026  1.059  2.914  0.000    20.139     6.390
 485   6 C      0.226  1.075  2.699  0.000    23.244     7.896
 486   8 O     -0.377  1.740  4.637  0.000    21.232     6.178
 487   6 C     -0.015  1.065  2.950  0.000    20.801     6.487
 488   6 C     -0.121  1.039  3.082  0.000    22.872     6.820
 489   6 C     -0.125  1.046  3.080  0.000    22.956     6.831
 490   1 H      0.229  0.771  0.000  0.000     0.968     1.541
 491   1 H      0.087  0.913  0.000  0.000     1.909     2.161
 492   1 H      0.054  0.946  0.000  0.000     2.268     2.355
 493   1 H      0.068  0.932  0.000  0.000     2.107     2.270
 494   1 H      0.048  0.952  0.000  0.000     2.350     2.397
 495   1 H      0.046  0.954  0.000  0.000     2.375     2.410
 496   1 H      0.062  0.938  0.000  0.000     2.179     2.308
 497   1 H      0.061  0.939  0.000  0.000     2.185     2.312
 498   1 H      0.053  0.947  0.000  0.000     2.279     2.361
 499   7 N     -0.393  1.321  4.072  0.000    30.184     8.160
 500   6 C      0.043  1.055  2.902  0.000    19.876     6.350
 501   6 C      0.199  1.093  2.708  0.000    23.765     7.984
 502   8 O     -0.399  1.764  4.636  0.000    21.671     6.241
 503   6 C     -0.053  1.054  2.999  0.000    21.524     6.604
 504   6 C     -0.098  1.070  3.029  0.000    22.376     6.735
 505   6 C      0.367  1.026  2.607  0.000    20.779     7.460
 506   8 O     -0.637  1.767  4.870  0.000    27.045     6.972
 507   8 O     -0.661  1.780  4.881  0.000    27.666     7.052
 508   1 H      0.175  0.825  0.000  0.000     1.244     1.748
 509   1 H      0.038  0.962  0.000  0.000     2.477     2.461
 510   1 H      0.054  0.946  0.000  0.000     2.275     2.359
 511   1 H      0.050  0.950  0.000  0.000     2.318     2.381
 512   1 H      0.015  0.985  0.000  0.000     2.808     2.620
 513   1 H      0.028  0.972  0.000  0.000     2.612     2.527
 514   7 N     -0.377  1.315  4.061  0.000    29.729     8.098
 515   6 C      0.036  1.064  2.900  0.000    19.996     6.372
 516   6 C      0.198  1.099  2.704  0.000    23.789     7.987
 517   8 O     -0.386  1.773  4.613  0.000    21.407     6.203
 518   6 C     -0.077  1.061  3.015  0.000    21.973     6.675
 519   6 C     -0.066  1.051  3.015  0.000    21.771     6.644
 520   6 C     -0.077  1.053  3.023  0.000    21.968     6.674
 521   6 C     -0.011  1.047  2.964  0.000    20.878     6.523
 522   7 N     -0.159  1.244  3.915  0.000    24.427     7.341
 523   1 H      0.181  0.819  0.000  0.000     1.210     1.723
 524   1 H      0.028  0.972  0.000  0.000     2.619     2.531
 525   1 H      0.081  0.919  0.000  0.000     1.968     2.194
 526   1 H      0.041  0.959  0.000  0.000     2.441     2.443
 527   1 H      0.023  0.977  0.000  0.000     2.682     2.561
 528   1 H      0.066  0.934  0.000  0.000     2.129     2.282
 529   1 H      0.085  0.915  0.000  0.000     1.927     2.171
 530   1 H      0.052  0.948  0.000  0.000     2.289     2.366
 531   1 H      0.085  0.915  0.000  0.000     1.932     2.174
 532   1 H      0.092  0.908  0.000  0.000     1.858     2.131
 533   1 H      0.250  0.750  0.000  0.000     0.882     1.472
 534   1 H      0.277  0.723  0.000  0.000     0.785     1.388
 535   1 H      0.272  0.728  0.000  0.000     0.804     1.405
 536   7 N     -0.391  1.316  4.075  0.000    30.111     8.150
 537   6 C      0.026  1.058  2.916  0.000    20.144     6.392
 538   6 C      0.272  1.045  2.683  0.000    22.401     7.753
 539   8 O     -0.508  1.760  4.748  0.000    23.967     6.564
 540   6 C     -0.111  1.067  3.043  0.000    22.613     6.770
 541   6 C      0.292  1.036  2.673  0.000    22.056     7.690
 542   8 O     -0.515  1.771  4.744  0.000    24.125     6.585
 543   7 N     -0.284  1.261  4.023  0.000    27.336     7.765
 544   1 H      0.179  0.821  0.000  0.000     1.219     1.729
 545   1 H      0.076  0.924  0.000  0.000     2.025     2.225
 546   1 H      0.096  0.904  0.000  0.000     1.824     2.112
 547   1 H      0.057  0.943  0.000  0.000     2.235     2.338
 548   1 H      0.213  0.787  0.000  0.000     1.040     1.597
 549   1 H      0.249  0.751  0.000  0.000     0.888     1.476
 550   7 N     -0.168  1.238  3.930  0.000    24.638     7.372
 551   6 C      0.020  1.044  2.936  0.000    20.191     6.388
 552   6 C      0.272  1.035  2.692  0.000    22.404     7.754
 553   8 O     -0.449  1.742  4.707  0.000    22.689     6.386
 554   6 C     -0.105  1.061  3.044  0.000    22.464     6.742
 555   6 C      0.297  1.026  2.677  0.000    21.971     7.677
 556   8 O     -0.528  1.782  4.746  0.000    24.406     6.624
 557   7 N     -0.291  1.267  4.024  0.000    27.517     7.791
 558   1 H      0.252  0.748  0.000  0.000     0.875     1.466
 559   1 H      0.094  0.906  0.000  0.000     1.842     2.122
 560   1 H      0.105  0.895  0.000  0.000     1.742     2.064
 561   1 H      0.070  0.930  0.000  0.000     2.083     2.257
 562   1 H      0.227  0.773  0.000  0.000     0.977     1.549
 563   1 H      0.263  0.737  0.000  0.000     0.834     1.431
 564   7 N     -0.163  1.244  3.919  0.000    24.514     7.354
 565   6 C      0.019  1.070  2.911  0.000    20.248     6.406
 566   6 C      0.223  1.077  2.699  0.000    23.300     7.905
 567   8 O     -0.365  1.741  4.624  0.000    20.996     6.143
 568   6 C     -0.010  1.068  2.942  0.000    20.715     6.474
 569   6 C     -0.052  1.046  3.006  0.000    21.509     6.602
 570   6 C     -0.090  1.031  3.058  0.000    22.272     6.729
 571   6 C     -0.119  1.039  3.080  0.000    22.843     6.816
 572   1 H      0.190  0.810  0.000  0.000     1.158     1.686
 573   1 H      0.096  0.904  0.000  0.000     1.825     2.113
 574   1 H      0.041  0.959  0.000  0.000     2.440     2.443
 575   1 H      0.034  0.966  0.000  0.000     2.530     2.487
 576   1 H      0.019  0.981  0.000  0.000     2.747     2.592
 577   1 H      0.031  0.969  0.000  0.000     2.578     2.511
 578   1 H      0.021  0.979  0.000  0.000     2.725     2.582
 579   1 H      0.025  0.975  0.000  0.000     2.658     2.550
 580   1 H      0.049  0.951  0.000  0.000     2.329     2.387
 581   1 H      0.067  0.933  0.000  0.000     2.117     2.275
 582   1 H      0.046  0.954  0.000  0.000     2.368     2.406
 583   1 H      0.198  0.802  0.000  0.000     1.116     1.654
 584   1 H      0.085  0.915  0.000  0.000     1.928     2.171
 585   1 H      0.173  0.827  0.000  0.000     1.253     1.753
 586   1 H      0.069  0.931  0.000  0.000     2.101     2.267
 587   1 H      0.193  0.807  0.000  0.000     1.143     1.675
 588   1 H      0.063  0.937  0.000  0.000     2.167     2.302
 589   1 H      0.181  0.819  0.000  0.000     1.207     1.721
 590   1 H      0.077  0.923  0.000  0.000     2.014     2.219
 591   1 H      0.187  0.813  0.000  0.000     1.173     1.697
 592   1 H      0.075  0.925  0.000  0.000     2.031     2.229
 593   1 H      0.179  0.821  0.000  0.000     1.218     1.729
 594   1 H      0.076  0.924  0.000  0.000     2.019     2.222
 595   1 H      0.184  0.816  0.000  0.000     1.192     1.710
 596   1 H      0.053  0.947  0.000  0.000     2.286     2.364
 597   1 H      0.193  0.807  0.000  0.000     1.144     1.675
 598   1 H      0.084  0.916  0.000  0.000     1.939     2.178
 599   1 H      0.177  0.823  0.000  0.000     1.232     1.738
 600   1 H      0.098  0.902  0.000  0.000     1.807     2.102
 601   1 H      0.209  0.791  0.000  0.000     1.060     1.613
 602   1 H      0.046  0.954  0.000  0.000     2.370     2.407

 Mol. C6AA /au·bohr⁶  :    3200736.207896
 Mol. C8AA /au·bohr⁸  :   70306876.190309
 Mol. α(0) /au        :       2658.390313

 
molecular dipole:
                 x           y           z       tot (Debye)
 q only:      -52.575    -568.313     -17.527
   full:      -46.650    -569.527     -19.619    1453.329
molecular quadrupole (traceless):
                xx          xy          yy          xz          yz          zz
 q only:    38823.852  -11739.491  -78470.658     -67.298   -3183.749   39646.806
  q+dip:    39181.844  -10359.792  -78920.991      -4.139   -3679.133   39739.146
   full:    39179.330  -10355.366  -78916.958      -1.858   -3675.667   39737.628
speedup  2.00
cpu  time for grad   22.76 s
wall time for grad   11.38 s

SCC energy    :    -914.5389115
rep           :      10.6726323
ES            :       4.0099955
AES           :      -0.2108196
AXC           :       0.2948396
disp          :      -0.7905037
XB            :       0.0000000
fix           :       0.0000000
Gborn         :       0.0000000
Gsasa         :       0.0000000
Ghb           :       0.0000000
Gshift        :       0.0000000
Gsolv         :      -1.5653633     -982.28
Etot ala COSMO:    -914.5389115
grad norm     :       0.7272835
total E       :    -903.7901581
atomizationE  :     165.4888690   103845.83
(atE without considering molecular charge,
 total energy contains solvation terms)
H-L gap (eV)  :          1.2855

------------------------------------------------------------------------
 * finished run on 2019/05/11 at 23:08:49.862     
------------------------------------------------------------------------
 total:
 * wall-time:     0 d,  0 h,  0 min, 12.466 sec
 *  cpu-time:     0 d,  0 h,  0 min, 24.615 sec
 * ratio c/w:     1.975 speedup
 SCF:
 * wall-time:     0 d,  0 h,  0 min, 12.035 sec
 *  cpu-time:     0 d,  0 h,  0 min, 23.961 sec
 * ratio c/w:     1.991 speedup

