      -----------------------------------------------------------      
     |                   =====================                   |     
     |                           x T B                           |     
     |                   =====================                   |     
     |                         S. Grimme                         |     
     |          Mulliken Center for Theoretical Chemistry        |     
     |                    University of Bonn                     |     
     |                 Version 6.0.1 (SAW181210)                 |     
      -----------------------------------------------------------      

   This program is distributed in the hope that it will be useful,
   but WITHOUT ANY WARRANTY; without even the implied warranty of
   MERCHANTABILITY or FITNESS FOR A PARTICULAR PURPOSE.
   
   FOR NON-COMMERCIAL, ACADEMIA USE ONLY.
   
   Cite this work as:
   S. Grimme, C. Bannwarth, P. Shushkov, J. Comput. Theory Chem., 2017,
   13, 1989-2009.
   C. Bannwarth, S. Ehlert and S. Grimme., ChemRxiv, 2018, preprint.
   http://doi.org/10.26434/chemrxiv.7246238.v1
   
   for sTDA-xTB:
   S. Grimme and C. Bannwarth, J. Chem. Phys., 2016, 145, 054103.
   
   in the mass-spec context:
   V. Asgeirsson, C. Bauer and S. Grimme, Chem. Sci., 2017, 8, 4879.
   
   if GBSA is used:
   P. Shushkov, F. März and S. Grimme, unpublished.
   
   for ANC optimizer:
   S. Grimme, unpublished.
   Rational Function algorithm used in ANCopt:
   F. Eckert, P. Pulay, H.-J. Werner, J. Comput. Chem., 1997, 18, 1473.
   
   with help from (in alphabetical order)
   C. Bannwarth, F. Bohle, G. Brandenburg, E. Caldeweyher, M. Checinski,
   S. Dohm, S. Ehlert, S. Ehrlich, F. März, H. Neugebauer, J. Pisarek,
   P. Pracht, P. Shushkov, and S. Spicher.
   
 * started run on 2019/05/05 at 22:03:23.555     
========================================================================
 # omp threads = 2
========================================================================
number of atoms            : 318
number of electrons        : 874
charge                     : 0
spin                       : .0
first test random number   : .2605

########################################################################
# WARNING! Please study the warnings concerning your input carefully
#  - Process number higher than OMP_NUM_THREADS, I hope you know what you are doing.
########################################################################

           ------------------------------------------------- 
          |                 G F N 2 - x T B                 |
          | Geometry, Frequencies, Noncovalent interactions |
          |            JCTC 2018 parametrisation            |
           ------------------------------------------------- 
 
      method parameters     
 k(s)        :  1.8500
 k(p)        :  2.2300
 k(d)        :  2.2300
 k(f)        :  2.0000
 kEN (H0ij)  : -2.0000
 D4 a1       :  0.5200
 D4 a2       :  5.0000
 D4 s6       :  1.0000
 D4 s8       :  2.7000
 D4 s9       :  5.0000
 alphaj      :  2.0000

 Solvent             : h2o
 Using internal parameter file: .param_gbsa2_h2o
 Gsolv ref. state (COSMO-RS): gsolv [1 M gas/solution]
 temperature (mdtemp)       :    298.150000000000     
 dielectric constant        :    80.2000000000000     
 rho                        :    1.00000000000000     
 mass                       :    18.0000000000000     
 surface tension            :    15.5689454083859     
 probe radius               :   0.975313790000000     
 vdW radii scaling          :    1.00000000000000     
 Gshift (Eh)                :   1.857443126794793E-003
 c1                         :    1.55243817000000     
 soset                      :   0.130326360000000     
 HB correction              :  T

            Z     q(EN)     CN     RAES       Cart. coordinates
     1  N   5.0   -0.18    3.31    1.99    68.60272    44.14211   163.63704
     2  C   4.0    0.03    4.45    4.47    66.19899    44.04762   162.35580
     3  C   4.0    0.15    3.54    3.13    66.64874    45.41011   159.95396
     4  O   6.0   -0.28    1.31    1.80    68.37028    46.94268   159.85381
     5  C   4.0   -0.04    4.44    4.44    64.19777    45.53106   163.75798
     6  C   4.0   -0.04    4.06    3.73    62.82016    44.02495   165.75731
     7  S   6.0   -0.04    2.62    3.10    61.45200    41.21114   164.42694
     8  C   4.0   -0.06    3.88    3.43    58.66276    42.36388   162.87548
     9  H   1.0    0.08    1.03    1.43    68.67075    45.23815   165.22063
    10  H   1.0    0.04    1.10    1.44    65.52625    42.11065   162.16872
    11  H   1.0    0.05    1.04    1.43    65.09539    47.13354   164.68962
    12  H   1.0    0.05    1.05    1.44    62.79937    46.19813   162.40116
    13  H   1.0    0.04    1.07    1.44    64.14486    43.47315   167.23508
    14  H   1.0    0.04    1.07    1.44    61.30838    45.17012   166.56045
    15  H   1.0    0.04    1.04    1.43    57.68199    40.78029   161.99676
    16  H   1.0    0.05    1.04    1.43    57.44011    43.25961   164.27010
    17  H   1.0    0.05    1.04    1.43    59.21267    43.73393   161.43929
    18  N   5.0   -0.14    3.49    2.07    65.08972    44.92445   158.05479
    19  C   4.0    0.03    4.73    4.78    65.49034    46.13577   155.62838
    20  C   4.0    0.16    3.89    3.45    63.60818    48.22014   155.15028
    21  O   6.0   -0.31    1.34    1.80    62.13041    48.75871   156.74521
    22  C   4.0   -0.03    4.54    4.59    64.74957    44.46336   153.46086
    23  C   4.0   -0.05    4.25    4.09    66.62229    44.97926   151.29335
    24  C   4.0   -0.06    4.48    4.50    62.00380    45.03028   152.82592
    25  C   4.0   -0.07    4.18    3.95    68.70855    46.78772   152.03790
    26  H   1.0    0.08    1.05    1.44    63.57605    43.73393   158.13983
    27  H   1.0    0.06    1.13    1.45    67.46322    46.71969   155.73043
    28  H   1.0    0.04    1.06    1.44    64.85917    42.45080   153.88605
    29  H   1.0    0.04    1.03    1.43    67.49345    43.20102   150.72265
    30  H   1.0    0.05    1.03    1.43    65.59995    45.80318   149.70598
    31  H   1.0    0.05    1.00    1.43    61.41987    43.83597   151.25178
    32  H   1.0    0.06    1.01    1.43    60.83784    44.63533   154.47754
    33  H   1.0    0.07    1.28    1.49    61.83183    47.01449   152.30246
    34  H   1.0    0.05    1.00    1.43    69.95954    47.06740   150.42597
    35  H   1.0    0.05    1.04    1.43    67.87140    48.58485   152.59726
    36  H   1.0    0.05    1.01    1.43    69.76301    45.98270   153.61393
    37  N   5.0   -0.15    3.79    2.41    63.67810    49.40122   152.94308
    38  C   4.0    0.02    4.21    4.02    61.81483    51.34574   152.40073
    39  C   4.0    0.08    3.17    3.03    61.00035    50.87520   149.69842
    40  O   6.0   -0.29    1.16    1.80    62.40820    49.75270   148.20176
    41  H   1.0    0.09    1.11    1.44    64.95744    49.06484   151.54090
    42  H   1.0    0.06    1.03    1.43    60.19722    51.19646   153.66685
    43  H   1.0    0.05    1.02    1.43    62.63497    53.22791   152.58025
    44  N   5.0   -0.19    3.15    1.95    51.86920    57.29460   143.89129
    45  C   4.0    0.03    4.16    3.93    50.53505    59.48101   144.97977
    46  C   4.0    0.07    3.18    3.03    50.04750    61.63341   143.12784
    47  O   6.0   -0.28    1.13    1.80    50.82796    63.80660   143.56059
    48  C   4.0    0.05    4.11    3.83    51.68211    60.42777   147.50634
    49  O   6.0   -0.23    2.02    1.83    54.36364    60.38241   147.53657
    50  H   1.0    0.08    1.02    1.43    50.97536    55.62786   144.25790
    51  H   1.0    0.04    1.07    1.44    48.66800    58.73268   145.42953
    52  H   1.0    0.06    1.02    1.43    51.06228    62.36663   147.81436
    53  H   1.0    0.05    1.01    1.43    50.99425    59.21834   149.02568
    54  H   1.0    0.13    1.01    1.43    55.02882    61.28003   146.05881
    55  N   5.0   -0.14    3.40    2.02    45.48759    72.23477   143.81759
    56  C   4.0    0.03    4.44    4.45    43.29551    73.50089   144.91741
    57  C   4.0    0.08    3.28    3.05    41.68924    75.35471   143.52658
    58  O   6.0   -0.28    1.16    1.80    42.62844    77.09704   142.36439
    59  C   4.0   -0.03    4.46    4.47    44.48982    75.28857   146.83549
    60  C   4.0   -0.05    4.28    4.16    46.68001    73.75222   147.83137
    61  C   4.0   -0.01    4.38    4.35    47.35653    71.78124   145.84149
    62  H   1.0    0.04    1.06    1.44    42.18624    71.84549   145.44087
    63  H   1.0    0.06    1.04    1.43    45.13421    77.01389   145.91141
    64  H   1.0    0.04    1.02    1.43    43.14811    75.74777   148.32837
    65  H   1.0    0.04    1.03    1.43    48.28250    75.00133   148.17341
    66  H   1.0    0.04    1.03    1.43    46.11876    72.83004   149.58504
    67  H   1.0    0.05    1.02    1.43    49.27271    72.07226   145.14607
    68  H   1.0    0.04    1.02    1.43    47.16378    69.87640   146.60305
    69  N   5.0   -0.19    3.25    1.97    38.51639    61.34995   152.88828
    70  C   4.0    0.03    4.39    4.36    40.25305    60.06305   154.62872
    71  C   4.0    0.16    3.56    3.15    41.82152    62.03970   155.87404
    72  O   6.0   -0.29    1.30    1.80    42.23726    64.05982   154.81769
    73  C   4.0   -0.04    4.32    4.24    42.04829    58.32261   153.24166
    74  C   4.0   -0.04    4.26    4.11    43.58842    56.68233   155.00666
    75  C   4.0   -0.01    4.19    3.98    43.90211    53.95168   154.08258
    76  N   5.0   -0.13    3.37    2.01    45.59342    53.61341   151.91507
    77  C   4.0    0.10    3.34    3.06    47.88566    54.63765   151.66374
    78  N   5.0   -0.15    3.30    1.98    48.83997    56.15321   153.44575
    79  N   5.0   -0.18    3.22    1.96    49.22169    54.17466   149.57937
    80  H   1.0    0.08    1.02    1.43    38.63167    60.74146   151.06280
    81  H   1.0    0.05    1.09    1.44    39.17024    58.93866   155.97231
    82  H   1.0    0.04    1.04    1.43    40.95981    57.08295   152.00767
    83  H   1.0    0.06    1.04    1.43    43.35409    59.45834   152.12483
    84  H   1.0    0.06    1.09    1.44    45.46870    57.49869   155.20130
    85  H   1.0    0.05    1.04    1.43    42.65489    56.61997   156.84158
    86  H   1.0    0.05    1.03    1.43    44.65989    52.82540   155.63216
    87  H   1.0    0.05    1.03    1.43    42.05018    53.23547   153.53078
    88  H   1.0    0.08    1.06    1.44    44.96414    52.49848   150.47321
    89  H   1.0    0.09    1.08    1.44    47.81385    56.54438   155.02934
    90  H   1.0    0.11    1.02    1.43    50.59552    56.91855   153.22087
    91  H   1.0    0.09    1.02    1.43    48.49037    53.04839   148.19609
    92  H   1.0    0.09    1.02    1.43    50.97536    54.94756   149.36772
    93  N   5.0   -0.14    3.57    2.13    42.71726    61.50113   158.13227
    94  C   4.0    0.03    4.57    4.63    44.55785    63.18488   159.22831
    95  C   4.0    0.15    3.64    3.19    46.77639    63.08094   157.47086
    96  O   6.0   -0.30    1.27    1.80    47.46236    61.02492   156.55624
    97  C   4.0   -0.04    4.38    4.34    45.28917    62.27025   161.80967
    98  C   4.0   -0.02    3.55    3.14    47.19024    63.83116   163.25909
    99  C   4.0   -0.04    3.48    3.11    46.91245    66.42765   163.56712
   100  C   4.0   -0.04    3.50    3.11    49.18957    62.63119   164.47608
   101  C   4.0   -0.02    3.43    3.09    48.65477    67.77880   164.96930
   102  C   4.0   -0.05    3.49    3.11    50.91489    63.94455   165.88770
   103  C   4.0    0.07    3.49    3.11    50.64843    66.49757   166.12959
   104  O   6.0   -0.24    2.12    1.84    52.41344    67.69754   167.56956
   105  H   1.0    0.10    1.09    1.44    42.22593    59.97612   159.20563
   106  H   1.0    0.04    1.10    1.44    43.86054    65.11051   159.45130
   107  H   1.0    0.05    1.04    1.43    43.58275    62.18899   162.96052
   108  H   1.0    0.05    1.05    1.44    46.09420    60.38430   161.60936
   109  H   1.0    0.05    1.03    1.43    45.33075    67.39141   162.70918
   110  H   1.0    0.05    1.03    1.43    49.38610    60.60729   164.30222
   111  H   1.0    0.06    1.03    1.43    48.47525    69.80270   165.16394
   112  H   1.0    0.05    1.03    1.43    52.46446    62.97323   166.79666
   113  H   1.0    0.11    1.03    1.43    53.64554    66.47300   168.21207
   114  N   5.0   -0.10    3.71    2.29    47.80251    65.31649   156.87560
   115  C   4.0    0.03    4.55    4.60    50.01727    65.61128   155.25988
   116  C   4.0    0.16    3.45    3.09    52.06573    63.85573   156.22175
   117  O   6.0   -0.27    1.21    1.80    52.89532    62.17009   154.84414
   118  C   4.0   -0.05    4.36    4.31    50.76371    68.39674   155.63216
   119  C   4.0   -0.05    4.28    4.16    48.91934    69.48711   157.52000
   120  C   4.0   -0.02    4.40    4.38    46.67434    67.76557   157.55590
   121  H   1.0    0.06    1.05    1.44    49.60531    65.31460   153.26433
   122  H   1.0    0.04    1.03    1.43    52.68934    68.50257   156.35593
   123  H   1.0    0.04    1.02    1.43    50.63143    69.39074   153.83314
   124  H   1.0    0.04    1.03    1.43    49.80373    69.56081   159.37949
   125  H   1.0    0.04    1.03    1.43    48.36754    71.38062   156.92662
   126  H   1.0    0.03    1.05    1.44    45.82207    67.69565   159.43051
   127  H   1.0    0.05    1.02    1.43    45.27027    68.34761   156.16506
   128  N   5.0   -0.15    3.49    2.07    52.70446    64.15620   158.64060
   129  C   4.0    0.03    4.40    4.37    54.82662    62.86173   159.83302
   130  C   4.0    0.16    3.36    3.07    54.51670    60.01014   160.38104
   131  O   6.0   -0.30    1.22    1.80    56.37241    58.67977   160.87804
   132  C   4.0   -0.05    4.34    4.26    55.50125    64.27714   162.24431
   133  C   4.0   -0.05    4.27    4.15    57.87664    65.82860   162.03644
   134  C   4.0   -0.01    4.24    4.07    59.98935    64.53981   163.49531
   135  N   5.0   -0.14    3.38    2.01    61.81294    66.38040   164.46285
   136  C   4.0    0.09    3.36    3.07    61.22523    68.47422   165.74786
   137  N   5.0   -0.18    3.32    1.99    58.83851    69.07137   166.21652
   138  N   5.0   -0.18    3.23    1.96    63.03748    70.01813   166.53210
   139  H   1.0    0.07    1.07    1.44    51.76148    65.31649   159.85570
   140  H   1.0    0.06    1.07    1.44    56.39320    62.92032   158.49698
   141  H   1.0    0.04    1.05    1.44    53.95546    65.55459   162.71674
   142  H   1.0    0.05    1.05    1.44    55.77337    62.90898   163.75987
   143  H   1.0    0.05    1.03    1.43    58.43411    65.99112   160.05979
   144  H   1.0    0.04    1.09    1.44    57.56105    67.70132   162.83580
   145  H   1.0    0.04    1.03    1.43    59.19000    63.51558   165.09402
   146  H   1.0    0.05    1.02    1.43    60.98335    63.23590   162.24809
   147  H   1.0    0.08    1.06    1.44    63.67999    66.03836   164.13026
   148  H   1.0    0.08    1.07    1.44    57.41932    67.92620   165.59480
   149  H   1.0    0.09    1.03    1.43    58.42088    70.67575   167.19917
   150  H   1.0    0.08    1.03    1.43    64.88185    69.60806   166.15415
   151  H   1.0    0.09    1.03    1.43    62.58583    71.61494   167.51287
   152  N   5.0   -0.13    3.43    2.04    52.18289    59.09173   160.26199
   153  C   4.0    0.04    4.43    4.43    51.54039    56.49714   160.95930
   154  C   4.0    0.16    3.77    3.31    52.46068    54.28994   159.40594
   155  O   6.0   -0.29    1.37    1.80    52.17911    54.31072   157.15906
   156  C   4.0   -0.02    4.52    4.57    48.79461    55.97179   160.22608
   157  C   4.0   -0.03    4.37    4.33    48.09542    53.17311   160.12593
   158  C   4.0    0.23    3.15    3.03    48.12943    51.90699   162.72808
   159  O   6.0   -0.32    1.28    1.80    48.58863    49.56184   162.87170
   160  O   6.0   -0.32    1.28    1.80    47.70991    53.28271   164.63481
   161  H   1.0    0.09    1.07    1.44    50.65788    60.11407   159.67806
   162  H   1.0    0.05    1.06    1.44    52.25659    56.50659   162.89060
   163  H   1.0    0.05    1.03    1.43    47.56251    56.87130   161.60936
   164  H   1.0    0.06    1.05    1.44    48.45257    56.76548   158.35714
   165  H   1.0    0.04    1.03    1.43    46.19624    52.98414   159.35303
   166  H   1.0    0.07    1.12    1.45    49.44657    52.18856   158.92217
   167  N   5.0   -0.15    3.52    2.09    53.50948    52.36053   160.60025
   168  C   4.0    0.04    4.41    4.39    55.07984    50.43490   159.40405
   169  C   4.0    0.16    3.41    3.08    54.02915    47.72125   159.39271
   170  O   6.0   -0.28    1.25    1.80    54.46001    46.35876   157.59370
   171  C   4.0    0.05    4.18    3.96    57.74625    50.36687   160.59458
   172  O   6.0   -0.25    2.09    1.84    57.88609    48.44501   162.54289
   173  C   4.0   -0.06    4.05    3.71    58.57206    53.04461   161.54700
   174  H   1.0    0.09    1.06    1.44    53.29972    52.05817   162.49187
   175  H   1.0    0.07    1.07    1.44    55.22535    51.01126   157.43118
   176  H   1.0    0.07    1.06    1.44    59.12952    49.84341   159.16028
   177  H   1.0    0.11    1.00    1.43    59.58306    48.41478   163.28177
   178  H   1.0    0.05    0.99    1.43    60.45422    52.94823   162.37659
   179  H   1.0    0.06    0.99    1.43    58.60229    54.37308   159.97286
   180  H   1.0    0.06    1.00    1.43    57.24925    53.72491   162.97186
   181  N   5.0   -0.13    3.46    2.05    52.74981    46.87465   161.38638
   182  C   4.0    0.04    4.38    4.35    51.70290    44.28762   161.33913
   183  C   4.0    0.16    3.43    3.09    49.23303    44.18179   159.82924
   184  O   6.0   -0.29    1.27    1.80    48.39777    42.17679   159.04312
   185  C   4.0   -0.04    4.24    4.08    51.43267    43.14622   164.04333
   186  C   4.0   -0.00    3.49    3.11    50.29128    40.47793   164.13782
   187  C   4.0   -0.03    3.42    3.09    51.67645    38.33876   163.38760
   188  C   4.0   -0.03    3.44    3.09    47.83841    40.10376   165.04677
   189  C   4.0   -0.03    3.35    3.06    50.60875    35.92180   163.48775
   190  C   4.0   -0.03    3.35    3.06    46.77828    37.69625   165.17339
   191  C   4.0   -0.03    3.35    3.06    48.15967    35.60622   164.38915
   192  H   1.0    0.10    1.06    1.44    52.41155    47.87432   162.99831
   193  H   1.0    0.06    1.06    1.44    53.04461    43.02339   160.41884
   194  H   1.0    0.04    1.03    1.43    53.30350    43.04796   164.90127
   195  H   1.0    0.05    1.03    1.43    50.21191    44.38021   165.15260
   196  H   1.0    0.05    1.03    1.43    53.59263    38.56364   162.72430
   197  H   1.0    0.05    1.03    1.43    46.74426    41.71192   165.66283
   198  H   1.0    0.05    1.03    1.43    51.68400    34.30231   162.86603
   199  H   1.0    0.05    1.03    1.43    44.87910    37.45437   165.88203
   200  H   1.0    0.05    1.03    1.43    47.33386    33.74106   164.47986
   201  N   5.0   -0.11    3.53    2.10    48.05951    46.32663   159.35492
   202  C   4.0    0.04    4.35    4.29    45.61420    46.20758   158.15494
   203  C   4.0    0.08    3.20    3.04    45.73326    46.67623   155.31658
   204  O   6.0   -0.27    1.12    1.80    47.12221    48.35809   154.41518
   205  C   4.0   -0.04    4.38    4.34    43.78684    48.05006   159.43429
   206  C   4.0   -0.02    4.19    3.97    42.29585    47.26583   161.78511
   207  C   4.0   -0.07    4.13    3.85    41.89711    49.44657   163.61625
   208  C   4.0   -0.08    4.15    3.90    39.76739    46.30962   160.88560
   209  H   1.0    0.11    1.11    1.45    48.72280    48.09164   159.75932
   210  H   1.0    0.06    1.08    1.44    44.85831    44.30274   158.36281
   211  H   1.0    0.05    1.06    1.44    44.88666    49.70168   159.98798
   212  H   1.0    0.04    1.05    1.44    42.38088    48.57918   158.02455
   213  H   1.0    0.05    1.06    1.44    43.34086    45.82396   162.82068
   214  H   1.0    0.04    1.00    1.43    40.82942    48.77005   165.24142
   215  H   1.0    0.05    1.01    1.43    43.73204    50.15333   164.22663
   216  H   1.0    0.04    1.00    1.43    40.85021    50.94134   162.66005
   217  H   1.0    0.04    1.00    1.43    38.65056    45.73326   162.51643
   218  H   1.0    0.04    1.00    1.43    38.80174    47.81952   159.87082
   219  H   1.0    0.04    1.00    1.43    40.06597    44.70147   159.63460
   220  N   5.0   -0.20    3.17    1.95    35.34732    73.02279   165.81967
   221  C   4.0    0.04    4.24    4.08    37.65846    71.96832   166.89304
   222  C   4.0    0.08    3.22    3.04    38.23294    72.91508   169.51409
   223  O   6.0   -0.24    1.16    1.80    40.16046    72.21588   170.61391
   224  C   4.0   -0.02    4.32    4.23    39.87133    71.99478   165.02977
   225  C   4.0    0.17    3.27    3.05    42.31474    70.96866   166.15604
   226  O   6.0   -0.24    1.27    1.80    42.37899    68.83516   167.08768
   227  N   5.0   -0.17    3.18    1.95    44.33108    72.45965   166.05400
   228  H   1.0    0.09    1.02    1.43    33.99239    71.70565   165.44173
   229  H   1.0    0.06    1.08    1.44    37.33910    69.95765   167.20862
   230  H   1.0    0.06    1.10    1.44    39.38756    70.83071   163.40082
   231  H   1.0    0.04    1.03    1.43    40.21715    73.93553   164.43072
   232  H   1.0    0.12    1.04    1.43    46.01105    71.85872   166.78154
   233  H   1.0    0.08    1.02    1.43    44.19880    74.20576   165.24709
   234  N   5.0   -0.17    3.41    2.03    32.77919    67.09094   161.13504
   235  C   4.0    0.03    4.49    4.53    35.04875    65.70955   160.68907
   236  C   4.0    0.15    3.65    3.20    34.54041    63.36818   162.06101
   237  O   6.0   -0.29    1.36    1.80    32.94359    63.30960   163.71830
   238  C   4.0    0.05    4.33    4.25    37.26918    67.03614   161.90416
   239  O   6.0   -0.26    2.25    1.87    36.93091    69.68364   161.53188
   240  C   4.0   -0.08    4.14    3.89    39.72204    66.25379   160.69474
   241  H   1.0    0.10    1.04    1.43    32.38612    67.46700   162.98508
   242  H   1.0    0.04    1.06    1.44    35.52118    65.43365   158.70296
   243  H   1.0    0.05    1.05    1.44    37.37500    66.55993   163.90538
   244  H   1.0    0.11    1.02    1.43    37.97782    70.26379   160.11837
   245  H   1.0    0.04    1.00    1.43    41.29618    67.23078   161.59614
   246  H   1.0    0.05    1.01    1.43    39.99227    64.22234   160.89883
   247  H   1.0    0.05    1.00    1.43    39.70125    66.72811   158.68974
   248  N   5.0   -0.14    3.66    2.22    35.85944    61.39531   161.40527
   249  C   4.0    0.04    4.61    4.67    35.70826    59.29582   163.04555
   250  C   4.0    0.14    3.53    3.13    38.34443    58.35096   163.23831
   251  O   6.0   -0.32    1.32    1.80    39.65212    58.25836   161.30701
   252  C   4.0   -0.03    4.41    4.39    34.03207    57.32484   161.89471
   253  C   4.0   -0.00    3.65    3.20    35.04686    56.30627   159.46263
   254  C   4.0   -0.04    3.51    3.12    34.76718    57.66499   157.24977
   255  C   4.0   -0.03    3.49    3.11    36.30919    53.97435   159.38516
   256  C   4.0   -0.05    3.51    3.12    35.67236    56.73713   155.00666
   257  C   4.0   -0.04    3.42    3.09    37.24083    53.03705   157.15717
   258  C   4.0    0.07    3.49    3.11    36.91013    54.43734   154.98587
   259  O   6.0   -0.25    2.12    1.84    37.81153    53.56428   152.73521
   260  H   1.0    0.08    1.07    1.44    36.97438    61.22712   159.84247
   261  H   1.0    0.06    1.08    1.44    34.96749    59.74558   164.91449
   262  H   1.0    0.04    1.04    1.43    33.84310    55.75447   163.21374
   263  H   1.0    0.05    1.04    1.43    32.18581    58.15443   161.51677
   264  H   1.0    0.05    1.03    1.43    33.82609    59.47534   157.28756
   265  H   1.0    0.05    1.03    1.43    36.54919    52.90288   161.10481
   266  H   1.0    0.05    1.04    1.43    35.42102    57.78971   153.27756
   267  H   1.0    0.05    1.03    1.43    38.21215    51.24181   157.10426
   268  H   1.0    0.11    1.03    1.43    37.43547    54.77749   151.38784
   269  N   5.0   -0.14    3.43    2.03    39.07764    57.64420   165.54944
   270  C   4.0    0.03    4.32    4.23    41.65145    56.84485   166.21085
   271  C   4.0    0.14    3.41    3.08    41.75538    54.57529   167.99664
   272  O   6.0   -0.29    1.25    1.80    39.97148    54.12175   169.40637
   273  C   4.0   -0.06    4.12    3.84    43.03095    59.02559   167.43161
   274  H   1.0    0.09    1.06    1.44    37.88712    57.60263   167.06500
   275  H   1.0    0.05    1.06    1.44    42.55474    56.20612   164.47419
   276  H   1.0    0.05    1.00    1.43    44.93957    58.42277   167.91916
   277  H   1.0    0.05    1.00    1.43    43.10843    60.59784   166.10313
   278  H   1.0    0.06    1.00    1.43    42.01617    59.59251   169.13236
   279  N   5.0   -0.15    3.44    2.04    43.84920    53.17311   167.98341
   280  C   4.0    0.05    4.30    4.19    44.10998    51.08307   169.76353
   281  C   4.0    0.10    3.21    3.04    45.15878    52.04116   172.29387
   282  O   6.0   -0.27    1.11    1.80    44.95847    50.76182   174.22328
   283  C   4.0    0.04    4.13    3.86    45.66712    48.87776   168.68828
   284  O   6.0   -0.22    2.04    1.83    48.27494    49.18201   169.20795
   285  H   1.0    0.12    1.13    1.45    45.34775    53.43200   166.79855
   286  H   1.0    0.06    1.07    1.44    42.27317    50.21380   170.10179
   287  H   1.0    0.05    1.01    1.43    45.01705    47.12221   169.54810
   288  H   1.0    0.05    1.03    1.43    45.39878    48.80595   166.64737
   289  H   1.0    0.12    1.01    1.43    49.23114    47.75715   168.51064
   290  N   5.0   -0.16    3.50    2.08    47.87054    59.76258   175.99774
   291  C   4.0    0.02    4.24    4.09    48.58674    62.30237   175.23618
   292  C   4.0    0.10    3.41    3.08    49.28594    62.89386   177.92337
   293  O   6.0   -0.29    1.30    1.80    48.13699    61.92443   179.69971
   294  C   4.0   -0.04    4.34    4.28    46.78206    63.31149   173.22362
   295  C   4.0   -0.03    4.26    4.12    47.86487    65.50357   171.77798
   296  C   4.0    0.26    3.17    3.03    45.83341    67.29692   170.93138
   297  O   6.0   -0.25    1.25    1.80    43.59787    66.71866   171.38114
   298  O   6.0   -0.27    1.24    1.80    46.47214    69.29058   169.83912
   299  H   1.0    0.12    1.14    1.45    47.34141    59.49424   177.83077
   300  H   1.0    0.04    1.16    1.45    50.07207    63.15842   174.09478
   301  H   1.0    0.05    1.03    1.43    46.36443    61.80538   171.88191
   302  H   1.0    0.07    1.05    1.44    45.04729    63.94266   174.13636
   303  H   1.0    0.05    1.04    1.43    49.17823    66.53347   172.98551
   304  H   1.0    0.05    1.04    1.44    48.84564    64.80059   170.10935
   305  H   1.0    0.09    1.07    1.44    69.04681    42.57521   164.12712
   306  H   1.0    0.06    1.04    1.43    59.30909    51.47267   149.10366
   307  H   1.0    0.10    1.07    1.44    51.96996    57.47393   142.20302
   308  H   1.0    0.05    1.04    1.43    49.08565    61.30884   141.53393
   309  H   1.0    0.08    1.25    1.48    45.24450    70.55172   143.84588
   310  H   1.0    0.05    1.05    1.44    39.80828    75.17356   143.54181
   311  H   1.0    0.09    1.07    1.44    36.91309    61.09856   153.39699
   312  H   1.0    0.06    1.04    1.43    44.68817    45.62859   154.14129
   313  H   1.0    0.10    1.08    1.44    34.67321    74.14024   166.91028
   314  H   1.0    0.06    1.05    1.44    37.04755    74.11499   170.36621
   315  H   1.0    0.10    1.09    1.44    32.86690    68.59625   160.34833
   316  H   1.0    0.06    1.04    1.44    46.01613    53.72272   172.38538
   317  H   1.0    0.09    1.09    1.44    46.54291    59.24468   175.06944
   318  H   1.0    0.05    1.05    1.44    50.70232    64.08997   178.28978

  Z AO/shell   Hii/eV     exponent
  1     Wed Apr 25 08:07:45 CEST 2018   EN: 2.200 GM2: 0.406  GM3: 0.0800  RAES: 1.40
     1s    -10.707211    1.230000
  6     Wed Apr 25 08:07:45 CEST 2018   EN: 2.550 GM2: 0.538  GM3: 0.1500  RAES: 3.00
     2s    -13.970922    2.096432
     2p    -10.063292    1.800000
  7     Wed Apr 25 08:07:45 CEST 2018   EN: 3.040 GM2: 0.461  GM3:-0.0640  RAES: 1.90
     2s    -16.686243    2.339881
     2p    -12.523956    2.014332
  8     Wed Apr 25 08:07:45 CEST 2018   EN: 3.440 GM2: 0.452  GM3:-0.0517  RAES: 1.80
     2s    -20.229985    2.439742
     2p    -15.503117    2.137023
 16     Tue Apr 24 11:44:34 CEST 2018   EN: 2.580 GM2: 0.340  GM3:-0.0502  RAES: 3.10
     3s    -20.029654    1.981333
     3p    -11.377694    2.025643
     3d     -0.420282    1.702555
 no old-style atom pair restraining (fixing) potential

molecular fragmentation (1/2 indicates fragments):
111111111111111111111111111111111111111111122222222222222222222222222222
222222222222222222222222222222222222222222222222222222222222222222222222
222222222222222222222222222222222222222222222222222222222222222222222222
222222222222222222222222222222222222222222222222222222222222222222222222
222222222222222211222222222222
# atoms in fragment 1/2:    45   273
 fragment masses (1/2) :      303.42     1925.17
CMA distance (Bohr)    :  22.111
constraining FC (au)   :  0.0500
           ------------------------------------------------- 
          |        Self-Consistent Charge Iterations        |
           ------------------------------------------------- 

 Ncao       : 792
 Nao        : 791
 Nshell     : 475
 Nel        : 874
 T(el)      :   500.0
 intcut     :    35.0
 scfconv/Eh :  0.100E-06
   qconv/e  :  0.100E-04
 intneglect :  0.100E-08
 broydamp   :      0.400
 iter      E             dE          RMSdq      gap      omega  full diag
   1   -500.2324098 -0.500232E+03  0.485E+00    2.89       0.0  T
   2   -501.5063490 -0.127394E+01  0.227E+00    1.49       1.0  T
   3   -501.5839823 -0.776334E-01  0.126E+00    1.77       1.0  T
   4   -501.6676322 -0.836499E-01  0.275E-01    0.82       1.0  T
   5   -501.6727142 -0.508198E-02  0.131E-01    1.02       1.0  T
   6   -501.6737527 -0.103849E-02  0.523E-02    1.03       1.0  T
   7   -501.6739698 -0.217123E-03  0.247E-02    1.06       1.0  T
   8   -501.6739990 -0.292251E-04  0.128E-02    1.08       1.0  T
   9   -501.6740128 -0.137620E-04  0.580E-03    1.08       1.0  T
  10   -501.6740153 -0.246117E-05  0.270E-03    1.08       2.1  T
  11   -501.6740157 -0.475315E-06  0.122E-03    1.08       4.6  T
  12   -501.6740159 -0.114052E-06  0.580E-04    1.08       9.7  T
  13   -501.6740159 -0.290097E-07  0.263E-04    1.08      21.4  T
  14   -501.6740159 -0.397421E-08  0.122E-04    1.08      46.0  T
  15   -501.6740159 -0.117888E-08  0.515E-05    1.08     108.9  T
  16   -501.6740159 -0.155069E-09  0.230E-05    1.08     243.5  T
speedup  1.91
cpu  time for SCC   12.74 s
wall time for SCC    6.67 s

   *** convergence criteria satisfied after 16 iterations ***

          eigenvalues
 #    :         425        426        427        428        429        430        431        432
 occ. :        2.000      2.000      2.000      2.000      2.000      2.000      2.000      2.000
 eps  :       -10.394    -10.366    -10.317    -10.182    -10.040    -10.019    -10.005     -9.906
 #    :         433        434        435        436        437        438        439        440
 occ. :        2.000      2.000      2.000      2.000      2.000      0.000      0.000      0.000
 eps  :        -9.804     -9.747     -9.734     -9.399     -9.266     -8.182     -8.079     -8.042
 #    :         441        442        443        444        445        446        447        448
 occ. :        0.000      0.000      0.000      0.000      0.000      0.000      0.000      0.000
 eps  :        -8.026     -7.815     -7.708     -7.513     -6.789     -6.521     -6.487     -6.418


   #   Z            q   n(s)   n(p)   n(d)      C6AA      α(0)
   1   7 N     -0.383  1.324  4.059  0.000    29.913     8.123
   2   6 C      0.035  1.043  2.922  0.000    19.988     6.366
   3   6 C      0.280  1.035  2.686  0.000    22.270     7.731
   4   8 O     -0.487  1.744  4.742  0.000    23.488     6.498
   5   6 C     -0.060  1.052  3.009  0.000    21.612     6.611
   6   6 C     -0.010  1.061  2.949  0.000    20.759     6.487
   7  16 S     -0.225  1.908  4.262  0.054   150.648    20.658
   8   6 C     -0.044  1.050  2.994  0.000    21.428     6.603
   9   1 H      0.158  0.842  0.000  0.000     1.348     1.819
  10   1 H      0.043  0.957  0.000  0.000     2.406     2.426
  11   1 H      0.052  0.948  0.000  0.000     2.299     2.371
  12   1 H      0.033  0.967  0.000  0.000     2.541     2.493
  13   1 H      0.063  0.937  0.000  0.000     2.167     2.302
  14   1 H      0.050  0.950  0.000  0.000     2.322     2.383
  15   1 H      0.057  0.943  0.000  0.000     2.235     2.338
  16   1 H      0.049  0.951  0.000  0.000     2.326     2.385
  17   1 H      0.050  0.950  0.000  0.000     2.316     2.380
  18   7 N     -0.178  1.241  3.937  0.000    24.858     7.405
  19   6 C     -0.002  1.059  2.943  0.000    20.596     6.458
  20   6 C      0.307  1.030  2.662  0.000    21.796     7.656
  21   8 O     -0.478  1.724  4.754  0.000    23.301     6.472
  22   6 C     -0.033  1.062  2.971  0.000    21.100     6.528
  23   6 C     -0.080  1.054  3.027  0.000    22.027     6.681
  24   6 C     -0.154  1.051  3.103  0.000    23.437     6.886
  25   6 C     -0.132  1.048  3.084  0.000    23.097     6.853
  26   1 H      0.188  0.812  0.000  0.000     1.170     1.694
  27   1 H      0.107  0.893  0.000  0.000     1.726     2.055
  28   1 H      0.047  0.953  0.000  0.000     2.356     2.400
  29   1 H      0.053  0.947  0.000  0.000     2.277     2.360
  30   1 H      0.058  0.942  0.000  0.000     2.226     2.333
  31   1 H      0.039  0.961  0.000  0.000     2.457     2.451
  32   1 H      0.026  0.974  0.000  0.000     2.646     2.544
  33   1 H      0.088  0.912  0.000  0.000     1.899     2.154
  34   1 H      0.062  0.938  0.000  0.000     2.179     2.309
  35   1 H      0.047  0.953  0.000  0.000     2.354     2.399
  36   1 H      0.050  0.950  0.000  0.000     2.315     2.380
  37   7 N     -0.198  1.234  3.964  0.000    25.292     7.469
  38   6 C     -0.030  1.049  2.981  0.000    21.164     6.561
  39   6 C      0.194  1.085  2.721  0.000    23.863     8.001
  40   8 O     -0.364  1.760  4.603  0.000    20.974     6.140
  41   1 H      0.230  0.770  0.000  0.000     0.966     1.540
  42   1 H      0.105  0.895  0.000  0.000     1.740     2.063
  43   1 H      0.123  0.877  0.000  0.000     1.593     1.974
  44   7 N     -0.368  1.335  4.033  0.000    29.503     8.067
  45   6 C      0.013  1.063  2.924  0.000    20.375     6.431
  46   6 C      0.186  1.089  2.725  0.000    24.020     8.026
  47   8 O     -0.388  1.772  4.616  0.000    21.436     6.207
  48   6 C      0.067  1.040  2.893  0.000    19.678     6.357
  49   8 O     -0.468  1.723  4.745  0.000    22.223     6.364
  50   1 H      0.182  0.818  0.000  0.000     1.202     1.718
  51   1 H      0.081  0.919  0.000  0.000     1.973     2.197
  52   1 H      0.045  0.955  0.000  0.000     2.386     2.415
  53   1 H      0.061  0.939  0.000  0.000     2.190     2.314
  54   1 H      0.330  0.670  0.000  0.000     0.637     1.254
  55   7 N     -0.335  1.381  3.954  0.000    28.605     7.943
  56   6 C      0.040  1.046  2.915  0.000    19.886     6.345
  57   6 C      0.204  1.078  2.718  0.000    23.662     7.970
  58   8 O     -0.381  1.752  4.629  0.000    21.304     6.188
  59   6 C     -0.051  1.056  2.995  0.000    21.442     6.583
  60   6 C     -0.067  1.051  3.016  0.000    21.754     6.635
  61   6 C      0.009  1.050  2.942  0.000    20.441     6.439
  62   1 H      0.028  0.972  0.000  0.000     2.622     2.532
  63   1 H      0.065  0.935  0.000  0.000     2.146     2.291
  64   1 H      0.044  0.956  0.000  0.000     2.398     2.422
  65   1 H      0.054  0.946  0.000  0.000     2.273     2.358
  66   1 H      0.048  0.952  0.000  0.000     2.344     2.394
  67   1 H      0.053  0.947  0.000  0.000     2.286     2.364
  68   1 H      0.022  0.978  0.000  0.000     2.710     2.574
  69   7 N     -0.392  1.334  4.058  0.000    30.144     8.154
  70   6 C      0.024  1.051  2.925  0.000    20.176     6.396
  71   6 C      0.278  1.036  2.686  0.000    22.305     7.736
  72   8 O     -0.490  1.742  4.748  0.000    23.563     6.508
  73   6 C     -0.078  1.054  3.024  0.000    21.976     6.672
  74   6 C     -0.098  1.055  3.042  0.000    22.366     6.733
  75   6 C     -0.028  1.056  2.972  0.000    21.157     6.564
  76   7 N     -0.146  1.214  3.932  0.000    24.167     7.301
  77   6 C      0.229  1.022  2.748  0.000    23.180     7.883
  78   7 N     -0.236  1.235  4.001  0.000    26.174     7.598
  79   7 N     -0.254  1.235  4.019  0.000    26.593     7.659
  80   1 H      0.168  0.832  0.000  0.000     1.284     1.775
  81   1 H      0.030  0.970  0.000  0.000     2.584     2.514
  82   1 H      0.071  0.929  0.000  0.000     2.077     2.254
  83   1 H      0.060  0.940  0.000  0.000     2.193     2.316
  84   1 H      0.087  0.913  0.000  0.000     1.905     2.158
  85   1 H      0.053  0.947  0.000  0.000     2.289     2.366
  86   1 H      0.060  0.940  0.000  0.000     2.200     2.320
  87   1 H      0.104  0.896  0.000  0.000     1.753     2.070
  88   1 H      0.240  0.760  0.000  0.000     0.924     1.505
  89   1 H      0.234  0.766  0.000  0.000     0.949     1.526
  90   1 H      0.231  0.769  0.000  0.000     0.960     1.535
  91   1 H      0.250  0.750  0.000  0.000     0.885     1.473
  92   1 H      0.249  0.751  0.000  0.000     0.889     1.477
  93   7 N     -0.188  1.245  3.943  0.000    25.077     7.437
  94   6 C      0.025  1.046  2.929  0.000    20.145     6.388
  95   6 C      0.260  1.045  2.694  0.000    22.615     7.789
  96   8 O     -0.512  1.749  4.763  0.000    24.050     6.575
  97   6 C     -0.070  1.048  3.021  0.000    21.818     6.647
  98   6 C     -0.015  1.079  2.936  0.000    28.383     8.739
  99   6 C     -0.034  1.080  2.954  0.000    28.841     8.807
 100   6 C     -0.051  1.080  2.971  0.000    29.268     8.873
 101   6 C     -0.045  1.077  2.968  0.000    29.118     8.849
 102   6 C     -0.082  1.075  3.007  0.000    30.055     8.990
 103   6 C      0.147  1.043  2.811  0.000    24.808     8.164
 104   8 O     -0.422  1.717  4.705  0.000    21.275     6.227
 105   1 H      0.208  0.792  0.000  0.000     1.064     1.616
 106   1 H      0.067  0.933  0.000  0.000     2.115     2.274
 107   1 H      0.042  0.958  0.000  0.000     2.419     2.432
 108   1 H      0.050  0.950  0.000  0.000     2.318     2.381
 109   1 H      0.034  0.966  0.000  0.000     2.535     2.490
 110   1 H      0.034  0.966  0.000  0.000     2.528     2.486
 111   1 H      0.062  0.938  0.000  0.000     2.177     2.307
 112   1 H      0.060  0.940  0.000  0.000     2.202     2.321
 113   1 H      0.349  0.651  0.000  0.000     0.590     1.206
 114   7 N     -0.091  1.244  3.848  0.000    23.024     7.127
 115   6 C      0.012  1.067  2.921  0.000    20.366     6.423
 116   6 C      0.278  1.036  2.686  0.000    22.289     7.731
 117   8 O     -0.474  1.754  4.719  0.000    23.213     6.460
 118   6 C     -0.086  1.059  3.027  0.000    22.126     6.693
 119   6 C     -0.080  1.048  3.032  0.000    21.996     6.673
 120   6 C     -0.024  1.057  2.967  0.000    21.043     6.539
 121   1 H      0.081  0.919  0.000  0.000     1.967     2.193
 122   1 H      0.075  0.925  0.000  0.000     2.030     2.228
 123   1 H      0.078  0.922  0.000  0.000     1.995     2.209
 124   1 H      0.061  0.939  0.000  0.000     2.192     2.315
 125   1 H      0.085  0.915  0.000  0.000     1.932     2.173
 126   1 H      0.064  0.936  0.000  0.000     2.157     2.297
 127   1 H      0.081  0.919  0.000  0.000     1.967     2.193
 128   7 N     -0.180  1.243  3.938  0.000    24.910     7.413
 129   6 C      0.006  1.067  2.927  0.000    20.492     6.447
 130   6 C      0.270  1.044  2.686  0.000    22.436     7.756
 131   8 O     -0.484  1.752  4.732  0.000    23.436     6.491
 132   6 C     -0.087  1.056  3.030  0.000    22.144     6.698
 133   6 C     -0.110  1.057  3.053  0.000    22.591     6.766
 134   6 C     -0.031  1.061  2.970  0.000    21.198     6.568
 135   7 N     -0.147  1.212  3.935  0.000    24.191     7.305
 136   6 C      0.231  1.018  2.751  0.000    23.154     7.878
 137   7 N     -0.253  1.234  4.019  0.000    26.587     7.658
 138   7 N     -0.255  1.239  4.016  0.000    26.630     7.664
 139   1 H      0.201  0.799  0.000  0.000     1.101     1.644
 140   1 H      0.103  0.897  0.000  0.000     1.754     2.071
 141   1 H      0.065  0.935  0.000  0.000     2.137     2.286
 142   1 H      0.069  0.931  0.000  0.000     2.094     2.263
 143   1 H      0.088  0.912  0.000  0.000     1.901     2.156
 144   1 H      0.100  0.900  0.000  0.000     1.783     2.088
 145   1 H      0.078  0.922  0.000  0.000     2.002     2.212
 146   1 H      0.098  0.902  0.000  0.000     1.805     2.101
 147   1 H      0.237  0.763  0.000  0.000     0.935     1.515
 148   1 H      0.242  0.758  0.000  0.000     0.914     1.498
 149   1 H      0.249  0.751  0.000  0.000     0.885     1.474
 150   1 H      0.253  0.747  0.000  0.000     0.872     1.463
 151   1 H      0.257  0.743  0.000  0.000     0.856     1.449
 152   7 N     -0.171  1.245  3.926  0.000    24.700     7.381
 153   6 C      0.023  1.046  2.930  0.000    20.185     6.397
 154   6 C      0.306  1.030  2.664  0.000    21.815     7.660
 155   8 O     -0.464  1.716  4.748  0.000    23.000     6.430
 156   6 C     -0.053  1.052  3.001  0.000    21.447     6.580
 157   6 C     -0.102  1.063  3.039  0.000    22.433     6.741
 158   6 C      0.352  1.030  2.618  0.000    21.023     7.504
 159   8 O     -0.605  1.775  4.830  0.000    26.254     6.870
 160   8 O     -0.613  1.768  4.845  0.000    26.447     6.895
 161   1 H      0.200  0.800  0.000  0.000     1.106     1.647
 162   1 H      0.051  0.949  0.000  0.000     2.305     2.374
 163   1 H      0.044  0.956  0.000  0.000     2.392     2.418
 164   1 H      0.074  0.926  0.000  0.000     2.046     2.237
 165   1 H      0.045  0.955  0.000  0.000     2.378     2.412
 166   1 H      0.051  0.949  0.000  0.000     2.304     2.374
 167   7 N     -0.189  1.234  3.955  0.000    25.109     7.442
 168   6 C      0.018  1.066  2.916  0.000    20.292     6.416
 169   6 C      0.286  1.037  2.677  0.000    22.150     7.707
 170   8 O     -0.491  1.742  4.749  0.000    23.591     6.512
 171   6 C      0.099  1.059  2.842  0.000    19.057     6.235
 172   8 O     -0.489  1.735  4.755  0.000    22.669     6.427
 173   6 C     -0.133  1.052  3.081  0.000    23.125     6.860
 174   1 H      0.181  0.819  0.000  0.000     1.206     1.720
 175   1 H      0.087  0.913  0.000  0.000     1.903     2.158
 176   1 H      0.068  0.932  0.000  0.000     2.113     2.273
 177   1 H      0.312  0.688  0.000  0.000     0.685     1.300
 178   1 H      0.064  0.936  0.000  0.000     2.150     2.293
 179   1 H      0.068  0.932  0.000  0.000     2.109     2.271
 180   1 H      0.051  0.949  0.000  0.000     2.305     2.374
 181   7 N     -0.168  1.244  3.924  0.000    24.644     7.373
 182   6 C      0.026  1.066  2.908  0.000    20.150     6.393
 183   6 C      0.282  1.037  2.681  0.000    22.224     7.721
 184   8 O     -0.511  1.746  4.765  0.000    24.018     6.571
 185   6 C     -0.068  1.059  3.009  0.000    21.805     6.649
 186   6 C      0.014  1.090  2.896  0.000    27.711     8.634
 187   6 C     -0.035  1.084  2.951  0.000    28.878     8.812
 188   6 C     -0.036  1.083  2.953  0.000    28.887     8.814
 189   6 C     -0.033  1.085  2.948  0.000    28.813     8.802
 190   6 C     -0.033  1.083  2.950  0.000    28.823     8.804
 191   6 C     -0.034  1.083  2.952  0.000    28.857     8.809
 192   1 H      0.206  0.794  0.000  0.000     1.078     1.627
 193   1 H      0.076  0.924  0.000  0.000     2.025     2.225
 194   1 H      0.060  0.940  0.000  0.000     2.204     2.321
 195   1 H      0.045  0.955  0.000  0.000     2.383     2.414
 196   1 H      0.031  0.969  0.000  0.000     2.569     2.506
 197   1 H      0.025  0.975  0.000  0.000     2.660     2.550
 198   1 H      0.044  0.956  0.000  0.000     2.398     2.422
 199   1 H      0.041  0.959  0.000  0.000     2.438     2.442
 200   1 H      0.042  0.958  0.000  0.000     2.418     2.432
 201   7 N     -0.167  1.242  3.924  0.000    24.603     7.367
 202   6 C      0.030  1.050  2.920  0.000    20.068     6.377
 203   6 C      0.185  1.098  2.717  0.000    24.026     8.027
 204   8 O     -0.360  1.758  4.602  0.000    20.895     6.129
 205   6 C     -0.075  1.059  3.016  0.000    21.924     6.664
 206   6 C     -0.008  1.051  2.957  0.000    20.678     6.468
 207   6 C     -0.113  1.045  3.067  0.000    22.705     6.794
 208   6 C     -0.122  1.047  3.075  0.000    22.873     6.817
 209   1 H      0.221  0.779  0.000  0.000     1.006     1.572
 210   1 H      0.085  0.915  0.000  0.000     1.925     2.170
 211   1 H      0.057  0.943  0.000  0.000     2.230     2.336
 212   1 H      0.060  0.940  0.000  0.000     2.197     2.318
 213   1 H      0.029  0.971  0.000  0.000     2.595     2.519
 214   1 H      0.038  0.962  0.000  0.000     2.482     2.464
 215   1 H      0.037  0.963  0.000  0.000     2.495     2.470
 216   1 H      0.037  0.963  0.000  0.000     2.491     2.468
 217   1 H      0.046  0.954  0.000  0.000     2.370     2.408
 218   1 H      0.050  0.950  0.000  0.000     2.320     2.382
 219   1 H      0.049  0.951  0.000  0.000     2.327     2.385
 220   7 N     -0.375  1.318  4.057  0.000    29.674     8.090
 221   6 C      0.053  1.044  2.903  0.000    19.705     6.323
 222   6 C      0.194  1.082  2.724  0.000    23.863     8.000
 223   8 O     -0.403  1.784  4.619  0.000    21.741     6.251
 224   6 C     -0.124  1.070  3.054  0.000    22.866     6.807
 225   6 C      0.295  1.032  2.673  0.000    21.991     7.678
 226   8 O     -0.513  1.775  4.738  0.000    24.071     6.578
 227   7 N     -0.291  1.272  4.019  0.000    27.501     7.789
 228   1 H      0.162  0.838  0.000  0.000     1.322     1.801
 229   1 H      0.063  0.937  0.000  0.000     2.164     2.300
 230   1 H      0.126  0.874  0.000  0.000     1.569     1.959
 231   1 H      0.064  0.936  0.000  0.000     2.158     2.297
 232   1 H      0.226  0.774  0.000  0.000     0.982     1.553
 233   1 H      0.223  0.777  0.000  0.000     0.997     1.564
 234   7 N     -0.374  1.309  4.065  0.000    29.653     8.088
 235   6 C      0.022  1.043  2.935  0.000    20.200     6.398
 236   6 C      0.279  1.026  2.695  0.000    22.287     7.738
 237   8 O     -0.494  1.745  4.750  0.000    23.654     6.521
 238   6 C      0.114  1.039  2.847  0.000    18.784     6.183
 239   8 O     -0.464  1.732  4.732  0.000    22.134     6.351
 240   6 C     -0.130  1.046  3.084  0.000    23.050     6.846
 241   1 H      0.158  0.842  0.000  0.000     1.349     1.819
 242   1 H      0.052  0.948  0.000  0.000     2.294     2.369
 243   1 H      0.013  0.987  0.000  0.000     2.836     2.633
 244   1 H      0.348  0.652  0.000  0.000     0.594     1.211
 245   1 H      0.048  0.952  0.000  0.000     2.344     2.394
 246   1 H      0.039  0.961  0.000  0.000     2.462     2.454
 247   1 H      0.067  0.933  0.000  0.000     2.114     2.274
 248   7 N     -0.173  1.229  3.943  0.000    24.734     7.386
 249   6 C      0.035  1.039  2.926  0.000    19.949     6.352
 250   6 C      0.269  1.041  2.691  0.000    22.462     7.763
 251   8 O     -0.485  1.731  4.753  0.000    23.448     6.492
 252   6 C     -0.074  1.047  3.027  0.000    21.897     6.658
 253   6 C     -0.000  1.077  2.923  0.000    28.029     8.684
 254   6 C     -0.044  1.077  2.966  0.000    29.084     8.844
 255   6 C     -0.036  1.083  2.953  0.000    28.891     8.815
 256   6 C     -0.077  1.077  3.000  0.000    29.911     8.969
 257   6 C     -0.056  1.069  2.986  0.000    29.387     8.889
 258   6 C      0.144  1.044  2.812  0.000    24.865     8.174
 259   8 O     -0.423  1.714  4.709  0.000    21.298     6.230
 260   1 H      0.209  0.791  0.000  0.000     1.063     1.615
 261   1 H      0.065  0.935  0.000  0.000     2.136     2.286
 262   1 H      0.052  0.948  0.000  0.000     2.290     2.366
 263   1 H      0.072  0.928  0.000  0.000     2.065     2.247
 264   1 H      0.039  0.961  0.000  0.000     2.468     2.457
 265   1 H      0.030  0.970  0.000  0.000     2.588     2.515
 266   1 H      0.060  0.940  0.000  0.000     2.198     2.318
 267   1 H      0.054  0.946  0.000  0.000     2.276     2.359
 268   1 H      0.348  0.652  0.000  0.000     0.594     1.211
 269   7 N     -0.171  1.247  3.924  0.000    24.701     7.381
 270   6 C      0.025  1.054  2.921  0.000    20.161     6.395
 271   6 C      0.270  1.042  2.688  0.000    22.436     7.757
 272   8 O     -0.505  1.750  4.756  0.000    23.898     6.554
 273   6 C     -0.113  1.040  3.073  0.000    22.715     6.794
 274   1 H      0.209  0.791  0.000  0.000     1.062     1.615
 275   1 H      0.075  0.925  0.000  0.000     2.028     2.227
 276   1 H      0.061  0.939  0.000  0.000     2.189     2.314
 277   1 H      0.063  0.937  0.000  0.000     2.168     2.302
 278   1 H      0.050  0.950  0.000  0.000     2.314     2.379
 279   7 N     -0.194  1.258  3.936  0.000    25.204     7.456
 280   6 C      0.029  1.057  2.914  0.000    20.088     6.383
 281   6 C      0.215  1.085  2.700  0.000    23.449     7.930
 282   8 O     -0.359  1.754  4.605  0.000    20.870     6.125
 283   6 C      0.081  1.039  2.880  0.000    19.447     6.319
 284   8 O     -0.475  1.724  4.751  0.000    22.357     6.383
 285   1 H      0.246  0.754  0.000  0.000     0.900     1.486
 286   1 H      0.099  0.901  0.000  0.000     1.798     2.097
 287   1 H      0.047  0.953  0.000  0.000     2.360     2.403
 288   1 H      0.072  0.928  0.000  0.000     2.063     2.246
 289   1 H      0.328  0.672  0.000  0.000     0.643     1.260
 290   7 N     -0.396  1.303  4.093  0.000    30.245     8.168
 291   6 C      0.007  1.032  2.961  0.000    20.472     6.444
 292   6 C      0.204  1.083  2.713  0.000    23.682     7.982
 293   8 O     -0.404  1.759  4.644  0.000    21.752     6.253
 294   6 C     -0.041  1.053  2.988  0.000    21.301     6.569
 295   6 C     -0.092  1.060  3.031  0.000    22.241     6.713
 296   6 C      0.374  1.016  2.610  0.000    20.670     7.441
 297   8 O     -0.655  1.783  4.873  0.000    27.522     7.034
 298   8 O     -0.634  1.756  4.878  0.000    26.960     6.961
 299   1 H      0.203  0.797  0.000  0.000     1.091     1.636
 300   1 H      0.095  0.905  0.000  0.000     1.827     2.113
 301   1 H      0.039  0.961  0.000  0.000     2.462     2.454
 302   1 H      0.028  0.972  0.000  0.000     2.612     2.527
 303   1 H      0.027  0.973  0.000  0.000     2.635     2.538
 304   1 H      0.034  0.966  0.000  0.000     2.526     2.486
 305   1 H      0.180  0.820  0.000  0.000     1.214     1.726
 306   1 H      0.094  0.906  0.000  0.000     1.845     2.124
 307   1 H      0.185  0.815  0.000  0.000     1.188     1.707
 308   1 H      0.076  0.924  0.000  0.000     2.021     2.223
 309   1 H      0.207  0.793  0.000  0.000     1.065     1.615
 310   1 H      0.061  0.939  0.000  0.000     2.181     2.309
 311   1 H      0.175  0.825  0.000  0.000     1.244     1.747
 312   1 H      0.095  0.905  0.000  0.000     1.834     2.118
 313   1 H      0.182  0.818  0.000  0.000     1.205     1.719
 314   1 H      0.067  0.933  0.000  0.000     2.121     2.277
 315   1 H      0.195  0.805  0.000  0.000     1.131     1.666
 316   1 H      0.076  0.924  0.000  0.000     2.021     2.223
 317   1 H      0.156  0.844  0.000  0.000     1.359     1.826
 318   1 H      0.062  0.938  0.000  0.000     2.173     2.305

 Mol. C6AA /au·bohr⁶  :     961594.115143
 Mol. C8AA /au·bohr⁸  :   21694555.237314
 Mol. α(0) /au        :       1475.711864

 
molecular dipole:
                 x           y           z       tot (Debye)
 q only:       14.476       6.852     -16.524
   full:       12.640       7.010     -14.878      52.724
molecular quadrupole (traceless):
                xx          xy          yy          xz          yz          zz
 q only:     3841.848    2073.004    2735.862    2530.152     267.886   -6577.710
  q+dip:     3379.240    1927.019    2560.688    2217.673     477.122   -5939.928
   full:     3383.516    1928.267    2558.097    2218.886     479.525   -5941.613
speedup  1.92
cpu  time for grad   14.80 s
wall time for grad    7.69 s

SCC energy    :    -501.6895597
rep           :       6.1880255
ES            :       1.5465170
AES           :      -0.0082191
AXC           :       0.1743206
disp          :      -0.4118206
XB            :       0.0000000
fix           :       0.0000000
Gborn         :       0.0000000
Gsasa         :       0.0000000
Ghb           :       0.0000000
Gshift        :       0.0000000
Gsolv         :      -0.3653183     -229.24
Etot ala COSMO:    -501.6895597
grad norm     :       0.6630766
total E       :    -495.4688869
atomizationE  :      89.1435984    55938.45
(atE without considering molecular charge,
 total energy contains solvation terms)
H-L gap (eV)  :          1.0836

------------------------------------------------------------------------
 * finished run on 2019/05/05 at 22:03:31.751     
------------------------------------------------------------------------
 total:
 * wall-time:     0 d,  0 h,  0 min,  8.195 sec
 *  cpu-time:     0 d,  0 h,  0 min, 15.540 sec
 * ratio c/w:     1.896 speedup
 SCF:
 * wall-time:     0 d,  0 h,  0 min,  7.899 sec
 *  cpu-time:     0 d,  0 h,  0 min, 15.207 sec
 * ratio c/w:     1.925 speedup

