      -----------------------------------------------------------      
     |                   =====================                   |     
     |                           x T B                           |     
     |                   =====================                   |     
     |                         S. Grimme                         |     
     |          Mulliken Center for Theoretical Chemistry        |     
     |                    University of Bonn                     |     
     |                 Version 6.0.1 (SAW181210)                 |     
      -----------------------------------------------------------      

   This program is distributed in the hope that it will be useful,
   but WITHOUT ANY WARRANTY; without even the implied warranty of
   MERCHANTABILITY or FITNESS FOR A PARTICULAR PURPOSE.
   
   FOR NON-COMMERCIAL, ACADEMIA USE ONLY.
   
   Cite this work as:
   S. Grimme, C. Bannwarth, P. Shushkov, J. Comput. Theory Chem., 2017,
   13, 1989-2009.
   C. Bannwarth, S. Ehlert and S. Grimme., ChemRxiv, 2018, preprint.
   http://doi.org/10.26434/chemrxiv.7246238.v1
   
   for sTDA-xTB:
   S. Grimme and C. Bannwarth, J. Chem. Phys., 2016, 145, 054103.
   
   in the mass-spec context:
   V. Asgeirsson, C. Bauer and S. Grimme, Chem. Sci., 2017, 8, 4879.
   
   if GBSA is used:
   P. Shushkov, F. März and S. Grimme, unpublished.
   
   for ANC optimizer:
   S. Grimme, unpublished.
   Rational Function algorithm used in ANCopt:
   F. Eckert, P. Pulay, H.-J. Werner, J. Comput. Chem., 1997, 18, 1473.
   
   with help from (in alphabetical order)
   C. Bannwarth, F. Bohle, G. Brandenburg, E. Caldeweyher, M. Checinski,
   S. Dohm, S. Ehlert, S. Ehrlich, F. März, H. Neugebauer, J. Pisarek,
   P. Pracht, P. Shushkov, and S. Spicher.
   
 * started run on 2019/05/04 at 15:59:02.853     
========================================================================
 # omp threads = 2
========================================================================
number of atoms            : 344
number of electrons        : 918
charge                     : 1
spin                       : .0
first test random number   : .3343

########################################################################
# WARNING! Please study the warnings concerning your input carefully
#  - Process number higher than OMP_NUM_THREADS, I hope you know what you are doing.
########################################################################

           ------------------------------------------------- 
          |                 G F N 2 - x T B                 |
          | Geometry, Frequencies, Noncovalent interactions |
          |            JCTC 2018 parametrisation            |
           ------------------------------------------------- 
 
      method parameters     
 k(s)        :  1.8500
 k(p)        :  2.2300
 k(d)        :  2.2300
 k(f)        :  2.0000
 kEN (H0ij)  : -2.0000
 D4 a1       :  0.5200
 D4 a2       :  5.0000
 D4 s6       :  1.0000
 D4 s8       :  2.7000
 D4 s9       :  5.0000
 alphaj      :  2.0000

 Solvent             : h2o
 Using internal parameter file: .param_gbsa2_h2o
 Gsolv ref. state (COSMO-RS): gsolv [1 M gas/solution]
 temperature (mdtemp)       :    298.150000000000     
 dielectric constant        :    80.2000000000000     
 rho                        :    1.00000000000000     
 mass                       :    18.0000000000000     
 surface tension            :    15.5689454083859     
 probe radius               :   0.975313790000000     
 vdW radii scaling          :    1.00000000000000     
 Gshift (Eh)                :   1.857443126794793E-003
 c1                         :    1.55243817000000     
 soset                      :   0.130326360000000     
 HB correction              :  T

            Z     q(EN)     CN     RAES       Cart. coordinates
     1  N   5.0   -0.18    3.19    1.95   117.24616    24.08456    34.72938
     2  C   4.0    0.04    4.33    4.25   116.31263    21.68461    35.70826
     3  C   4.0    0.14    3.38    3.07   117.76205    20.51109    37.90034
     4  O   6.0   -0.29    1.22    1.80   119.85776    21.29343    38.54285
     5  C   4.0   -0.03    4.30    4.19   116.13311    19.76275    33.55019
     6  C   4.0    0.25    3.12    3.03   113.84087    20.18983    31.87212
     7  O   6.0   -0.28    1.17    1.80   111.69792    19.84023    32.81131
     8  O   6.0   -0.26    1.17    1.80   114.17535    20.86824    29.62523
     9  H   1.0    0.10    1.02    1.43   119.14911    24.16582    34.43648
    10  H   1.0    0.06    1.07    1.44   114.49094    22.13436    36.55675
    11  H   1.0    0.06    1.03    1.43   117.81874    19.91204    32.37667
    12  H   1.0    0.05    1.04    1.43   115.99516    17.86925    34.34766
    13  N   5.0   -0.14    3.50    2.08   116.58097    18.59490    39.01906
    14  C   4.0    0.04    4.39    4.36   117.60898    17.18517    41.15256
    15  C   4.0    0.14    3.41    3.08   116.42980    14.53388    41.12611
    16  O   6.0   -0.30    1.27    1.80   114.19236    14.22397    41.68357
    17  C   4.0   -0.02    4.32    4.23   117.00238    18.59112    43.62243
    18  C   4.0    0.00    3.56    3.14   114.34165    19.62102    43.74905
    19  C   4.0   -0.02    3.48    3.10   112.36877    18.16216    44.69013
    20  C   4.0   -0.03    3.46    3.10   113.80497    22.04743    42.89489
    21  C   4.0   -0.03    3.36    3.07   109.90079    19.10324    44.78462
    22  C   4.0   -0.03    3.36    3.07   111.34643    22.99985    42.98371
    23  C   4.0   -0.03    3.36    3.07   109.39435    21.51831    43.93235
    24  H   1.0    0.09    1.07    1.44   114.84809    17.95240    38.47104
    25  H   1.0    0.05    1.06    1.44   119.64989    16.96974    40.96926
    26  H   1.0    0.06    1.03    1.43   117.24616    17.28910    45.20035
    27  H   1.0    0.05    1.03    1.43   118.29873    20.18038    43.81330
    28  H   1.0    0.08    1.03    1.43   112.74861    16.27243    45.35909
    29  H   1.0    0.06    1.03    1.43   115.30919    23.20961    42.15412
    30  H   1.0    0.06    1.03    1.43   108.39279    17.94295    45.52350
    31  H   1.0    0.06    1.03    1.43   110.96093    24.88958    42.31474
    32  H   1.0    0.06    1.03    1.43   107.49139    22.25152    44.00227
    33  N   5.0   -0.15    3.47    2.06   117.92646    12.63282    40.43069
    34  C   4.0    0.04    4.35    4.29   116.99671    10.02878    40.30030
    35  C   4.0    0.13    3.64    3.19   119.13777     8.11448    40.09809
    36  O   6.0   -0.32    1.40    1.80   118.71825     5.81280    40.16235
    37  C   4.0   -0.05    4.13    3.87   115.15612     9.73587    38.09688
    38  H   1.0    0.07    1.09    1.44   119.78217    12.82935    39.94881
    39  H   1.0    0.06    1.06    1.44   115.99516     9.61304    42.05207
    40  H   1.0    0.06    1.00    1.43   114.48905     7.78756    38.03451
    41  H   1.0    0.06    1.00    1.43   113.56497    11.01521    38.37655
    42  H   1.0    0.07    1.02    1.43   116.13122    10.20074    36.34321
    43  N   5.0   -0.14    3.65    2.21   121.42812     9.09147    39.75983
    44  C   4.0    0.04    4.46    4.48   123.63343     7.51922    39.71259
    45  C   4.0    0.15    3.52    3.13   123.88854     6.61404    42.41112
    46  O   6.0   -0.29    1.25    1.80   125.96535     6.21720    43.37110
    47  C   4.0   -0.04    4.30    4.20   125.97291     8.99510    38.94347
    48  C   4.0   -0.04    4.23    4.07   126.51715    11.18718    40.76139
    49  C   4.0   -0.05    4.15    3.91   128.46546    13.06745    39.76361
    50  C   4.0   -0.04    4.12    3.85   128.62987    15.39182    41.47382
    51  N   5.0   -0.12    4.02    2.90   130.91265    16.95840    40.95225
    52  H   1.0    0.07    1.10    1.44   121.78906    10.96986    39.51606
    53  H   1.0    0.06    1.05    1.44   123.48225     5.98287    38.34821
    54  H   1.0    0.05    1.03    1.43   127.60186     7.73276    38.94914
    55  H   1.0    0.04    1.03    1.43   125.69134     9.77555    37.05753
    56  H   1.0    0.04    1.04    1.43   124.76727    12.21897    41.10154
    57  H   1.0    0.06    1.03    1.43   127.23714    10.41806    42.53206
    58  H   1.0    0.04    1.03    1.43   130.31739    12.16984    39.70314
    59  H   1.0    0.04    1.03    1.43   127.91933    13.68351    37.87578
    60  H   1.0    0.04    1.02    1.43   126.96691    16.56912    41.17335
    61  H   1.0    0.04    1.02    1.43   128.71301    14.77766    43.43913
    62  H   1.0    0.05    1.01    1.43   130.94856    18.51365    42.15223
    63  H   1.0    0.05    1.09    1.44   132.53971    15.89260    41.23949
    64  H   1.0    0.06    1.01    1.43   130.88431    17.58957    39.09087
    65  N   5.0   -0.14    3.63    2.19   121.70402     6.25499    43.65834
    66  C   4.0    0.03    4.34    4.28   121.66434     5.69752    46.33230
    67  C   4.0    0.15    3.41    3.08   122.16700     2.99900    47.42078
    68  O   6.0   -0.28    1.28    1.80   123.29328     2.86105    49.45791
    69  C   4.0   -0.04    4.28    4.16   119.07163     6.56113    47.36220
    70  C   4.0   -0.03    4.17    3.95   118.54062     9.42406    47.41511
    71  C   4.0    0.25    3.11    3.03   116.19547    10.22720    48.86075
    72  O   6.0   -0.28    1.20    1.80   114.74227     8.54345    49.58830
    73  O   6.0   -0.27    1.17    1.80   115.85154    12.51943    49.23114
    74  H   1.0    0.11    1.31    1.50   119.95791     6.34381    42.84765
    75  H   1.0    0.07    1.08    1.44   123.32352     6.71798    47.00126
    76  H   1.0    0.05    1.03    1.43   117.60898     5.70508    46.19246
    77  H   1.0    0.06    1.04    1.43   118.90534     5.88839    49.30106
    78  H   1.0    0.05    1.03    1.43   120.15067    10.36515    48.29195
    79  H   1.0    0.05    1.03    1.43   118.31385    10.07602    45.47437
    80  N   5.0   -0.13    3.40    2.02   121.48670     0.87872    46.21703
    81  C   4.0    0.04    4.36    4.32   121.40922    -1.43241    47.81196
    82  C   4.0    0.09    3.17    3.03   123.34052    -3.62449    47.83841
    83  O   6.0   -0.25    1.11    1.80   125.30206    -3.62071    46.61387
    84  C   4.0   -0.04    4.31    4.22   118.82597    -2.61538    47.24504
    85  C   4.0   -0.02    3.69    3.23   116.72837    -1.12817    48.39399
    86  C   4.0   -0.00    3.64    3.19   116.84931     1.17730    49.54483
    87  C   4.0    0.00    3.89    3.44   114.12622    -1.91429    48.56029
    88  N   5.0   -0.11    3.48    2.07   114.50605     1.86327    50.41789
    89  C   4.0    0.04    3.89    3.45   112.79963     0.01323    49.83207
    90  C   4.0   -0.04    3.40    3.08   112.79774    -4.05346    47.75337
    91  C   4.0   -0.04    3.40    3.08   110.21638    -0.11716    50.30073
    92  C   4.0   -0.03    3.37    3.07   110.22960    -4.18196    48.21825
    93  C   4.0   -0.03    3.38    3.07   108.96349    -2.21665    49.48247
    94  H   1.0    0.09    1.04    1.43   121.02750     0.70676    44.35187
    95  H   1.0    0.07    1.12    1.45   121.90811    -0.58015    49.62042
    96  H   1.0    0.05    1.03    1.43   118.53684    -2.67396    45.20602
    97  H   1.0    0.05    1.04    1.43   118.76739    -4.52400    48.01983
    98  H   1.0    0.06    1.04    1.43   118.54251     2.29791    49.73948
    99  H   1.0    0.09    1.04    1.43   114.09976     3.49788    51.35708
   100  H   1.0    0.06    1.03    1.43   113.75772    -5.57280    46.78772
   101  H   1.0    0.06    1.03    1.43   109.23939     1.38706    51.27582
   102  H   1.0    0.06    1.03    1.43   109.17892    -5.81847    47.60031
   103  H   1.0    0.06    1.03    1.43   106.95471    -2.37350    49.81318
   104  N   5.0   -0.21    3.33    1.99   114.24716     0.01323    42.33931
   105  C   4.0    0.01    4.18    3.96   112.37633     1.95398    42.82308
   106  C   4.0    0.15    3.41    3.08   111.95303     3.09159    40.24360
   107  O   6.0   -0.33    1.36    1.80   110.35811     4.73187    39.82408
   108  H   1.0    0.09    1.02    1.43   116.07075     0.60660    42.52639
   109  H   1.0    0.05    1.02    1.43   110.63023     1.15273    43.56763
   110  H   1.0    0.05    1.02    1.43   113.07931     3.37127    44.14211
   111  N   5.0   -0.14    3.62    2.17   113.48182     2.16374    38.49372
   112  C   4.0    0.03    4.35    4.29   113.35710     2.92908    35.87645
   113  C   4.0    0.09    3.33    3.06   110.60944     2.58137    35.09788
   114  O   6.0   -0.30    1.17    1.80   109.67780     3.79646    33.36122
   115  C   4.0   -0.05    4.42    4.42   115.08053     1.21887    34.34955
   116  C   4.0   -0.02    4.22    4.04   115.80052     2.22610    31.77007
   117  C   4.0   -0.07    4.12    3.83   118.10598     0.81636    30.82710
   118  C   4.0   -0.06    4.14    3.88   113.57631     1.97854    29.97672
   119  H   1.0    0.08    1.12    1.45   114.85187     0.85416    38.84143
   120  H   1.0    0.05    1.05    1.44   113.99205     4.85660    35.52496
   121  H   1.0    0.05    1.04    1.43   116.82286     0.93352    35.41157
   122  H   1.0    0.05    1.04    1.43   114.12433    -0.58393    34.06609
   123  H   1.0    0.05    1.06    1.44   116.28051     4.22732    31.86456
   124  H   1.0    0.05    1.00    1.43   118.62377     1.54202    28.96950
   125  H   1.0    0.05    1.00    1.43   119.65745     1.10549    32.15180
   126  H   1.0    0.05    1.00    1.43   117.65812    -1.19053    30.69671
   127  H   1.0    0.05    1.00    1.43   114.12055     2.70798    28.12857
   128  H   1.0    0.05    1.00    1.43   113.05852    -0.00945    29.82177
   129  H   1.0    0.08    1.04    1.44   111.99083     3.06136    30.72127
   130  N   5.0   -0.18    3.27    1.97   105.68859     4.04401    38.36711
   131  C   4.0    0.03    4.42    4.41   104.47539     6.42696    38.93213
   132  C   4.0    0.15    3.52    3.13   104.95916     8.32991    36.84399
   133  O   6.0   -0.31    1.35    1.80   103.20360     9.46753    35.84999
   134  C   4.0   -0.02    4.34    4.28   105.45994     7.48709    41.48137
   135  C   4.0   -0.05    4.17    3.94   103.32077     8.85337    42.89111
   136  C   4.0   -0.06    4.25    4.09   107.71249     9.25588    41.03729
   137  C   4.0   -0.07    3.98    3.59   101.36490     7.08836    44.14022
   138  H   1.0    0.10    1.06    1.44   106.87156     3.43174    39.75983
   139  H   1.0    0.05    1.06    1.44   102.44771     6.08492    39.06630
   140  H   1.0    0.05    1.06    1.44   106.10055     5.91484    42.64922
   141  H   1.0    0.04    1.03    1.43   104.15225    10.00988    44.37832
   142  H   1.0    0.05    1.03    1.43   102.31165    10.04767    41.55129
   143  H   1.0    0.05    1.00    1.43   108.36822     9.97397    42.85332
   144  H   1.0    0.07    1.05    1.44   109.22049     8.20141    40.11321
   145  H   1.0    0.04    1.04    1.43   107.11156    10.81868    39.83920
   146  H   1.0    0.05    1.00    1.43    99.93627     8.23165    45.08508
   147  H   1.0    0.05    1.00    1.43   100.48618     5.92618    42.68513
   148  H   1.0    0.05    1.00    1.43   102.32488     5.88839    45.51405
   149  N   5.0   -0.14    3.59    2.15   107.35344     8.64172    36.18069
   150  C   4.0    0.04    4.36    4.31   108.08477    10.44074    34.25884
   151  C   4.0    0.11    3.30    3.05   106.28197    10.38026    32.02897
   152  O   6.0   -0.28    1.13    1.80   105.33899    12.31156    31.22583
   153  C   4.0   -0.04    4.33    4.25   110.75117     9.84547    33.41602
   154  C   4.0   -0.03    4.22    4.05   112.02106    11.89582    31.91747
   155  C   4.0    0.15    3.21    3.04   114.66290    11.10214    31.02930
   156  O   6.0   -0.30    1.22    1.80   116.35232    10.54656    32.56565
   157  N   5.0   -0.18    3.16    1.95   115.02762    11.03789    28.53297
   158  H   1.0    0.09    1.09    1.44   108.83121     7.67040    36.94603
   159  H   1.0    0.05    1.06    1.44   108.04508    12.34558    35.04308
   160  H   1.0    0.05    1.05    1.44   111.90201     9.49965    35.08843
   161  H   1.0    0.06    1.04    1.43   110.70015     8.15795    32.23495
   162  H   1.0    0.06    1.03    1.43   110.88345    12.32479    30.25451
   163  H   1.0    0.06    1.03    1.43   112.21382    13.57579    33.09288
   164  H   1.0    0.09    1.02    1.43   113.58954    11.50276    27.33678
   165  H   1.0    0.10    1.02    1.43   116.74349    10.52388    27.82244
   166  N   5.0   -0.18    3.23    1.96   100.20650    13.32635    34.29097
   167  C   4.0    0.04    4.29    4.17   100.60523    16.01165    34.74450
   168  C   4.0    0.10    3.23    3.04   100.35957    17.42894    32.23683
   169  O   6.0   -0.26    1.11    1.80    99.17471    19.42827    32.08755
   170  C   4.0   -0.02    4.32    4.24   103.25274    16.39526    35.98038
   171  C   4.0   -0.05    4.19    3.98   103.09589    15.61670    38.77529
   172  C   4.0   -0.06    4.12    3.84   104.20705    19.08623    35.59866
   173  C   4.0   -0.07    4.02    3.65   105.60356    15.52599    40.13967
   174  H   1.0    0.13    1.09    1.44   101.56143    12.21897    35.09977
   175  H   1.0    0.05    1.05    1.44    99.18605    16.74864    36.04463
   176  H   1.0    0.06    1.06    1.44   104.64168    15.18773    35.05631
   177  H   1.0    0.04    1.03    1.43   101.90158    16.97163    39.76550
   178  H   1.0    0.05    1.03    1.43   102.26441    13.73453    38.88300
   179  H   1.0    0.05    1.00    1.43   106.05520    19.27520    36.48683
   180  H   1.0    0.07    1.01    1.43   104.35634    19.46418    33.57854
   181  H   1.0    0.06    1.00    1.43   102.87479    20.39959    36.46226
   182  H   1.0    0.04    1.00    1.43   105.28419    14.95718    42.09365
   183  H   1.0    0.04    1.00    1.43   106.82810    14.15972    39.20236
   184  H   1.0    0.05    1.00    1.43   106.46527    17.39682    40.08298
   185  N   5.0   -0.20    3.19    1.95   144.42042    30.29042    41.30752
   186  C   4.0    0.03    4.22    4.04   142.93320    30.96316    43.52795
   187  C   4.0    0.09    3.21    3.04   144.38262    32.75840    45.22492
   188  O   6.0   -0.27    1.12    1.80   143.32060    33.73350    47.05040
   189  C   4.0   -0.04    4.27    4.14   142.15086    28.60478    45.03028
   190  C   4.0   -0.05    4.21    4.02   140.19877    26.96072    43.69046
   191  C   4.0   -0.05    4.18    3.95   139.34839    24.73840    45.30051
   192  C   4.0   -0.04    4.14    3.88   137.72323    22.93182    43.75849
   193  N   5.0   -0.12    4.02    2.91   135.51603    24.20739    42.57553
   194  H   1.0    0.08    1.02    1.43   145.65630    28.83344    41.56452
   195  H   1.0    0.05    1.06    1.44   141.17576    31.85889    42.93268
   196  H   1.0    0.04    1.03    1.43   143.82326    27.44827    45.36287
   197  H   1.0    0.06    1.03    1.43   141.34016    29.20382    46.82552
   198  H   1.0    0.04    1.03    1.43   138.54148    28.10211    43.25016
   199  H   1.0    0.04    1.03    1.43   141.02080    26.21617    41.95570
   200  H   1.0    0.03    1.03    1.43   140.99812    23.71228    45.98648
   201  H   1.0    0.04    1.03    1.43   138.23534    25.42626    46.89166
   202  H   1.0    0.04    1.02    1.43   138.86840    22.11357    42.25427
   203  H   1.0    0.03    1.03    1.43   137.01458    21.44461    44.99437
   204  H   1.0    0.05    1.01    1.43   134.26314    22.86757    41.87255
   205  H   1.0    0.06    1.02    1.43   134.58628    25.31477    43.90778
   206  H   1.0    0.06    1.02    1.43   136.11507    25.35634    41.09776
   207  N   5.0   -0.19    3.19    1.95   140.40853    -0.87872    46.21703
   208  C   4.0    0.03    4.34    4.28   140.48601     1.43241    47.81196
   209  C   4.0    0.15    3.33    3.06   138.55471     3.62449    47.83841
   210  O   6.0   -0.28    1.18    1.80   136.59317     3.62071    46.61387
   211  C   4.0   -0.03    4.37    4.33   143.06926     2.61538    47.24504
   212  C   4.0   -0.02    3.69    3.23   145.16686     1.12817    48.39399
   213  C   4.0   -0.01    3.63    3.19   145.04592    -1.17730    49.54483
   214  C   4.0    0.01    3.88    3.44   147.76901     1.91429    48.56029
   215  N   5.0   -0.11    3.48    2.07   147.38918    -1.86327    50.41789
   216  C   4.0    0.04    3.89    3.45   149.09560    -0.01323    49.83207
   217  C   4.0   -0.04    3.40    3.08   149.09749     4.05346    47.75337
   218  C   4.0   -0.04    3.40    3.08   151.67885     0.11716    50.30073
   219  C   4.0   -0.03    3.37    3.07   151.66563     4.18196    48.21825
   220  C   4.0   -0.03    3.38    3.07   152.93174     2.21665    49.48247
   221  H   1.0    0.09    1.02    1.43   140.86773    -0.70676    44.35187
   222  H   1.0    0.05    1.07    1.44   139.98712     0.58015    49.62042
   223  H   1.0    0.05    1.04    1.43   143.35839     2.67396    45.20602
   224  H   1.0    0.05    1.07    1.44   143.12784     4.52400    48.01983
   225  H   1.0    0.05    1.02    1.43   143.35272    -2.29791    49.73948
   226  H   1.0    0.08    1.04    1.43   147.79547    -3.49788    51.35708
   227  H   1.0    0.05    1.03    1.43   148.13751     5.57280    46.78772
   228  H   1.0    0.06    1.03    1.43   152.65584    -1.38706    51.27582
   229  H   1.0    0.06    1.03    1.43   152.71631     5.81847    47.60031
   230  H   1.0    0.06    1.03    1.43   154.94052     2.37350    49.81318
   231  N   5.0   -0.14    3.55    2.11   139.35406     5.48776    49.35208
   232  C   4.0    0.04    4.35    4.28   138.23345     7.90850    49.98325
   233  C   4.0    0.15    3.47    3.10   139.90964     9.06879    52.02982
   234  O   6.0   -0.29    1.28    1.80   140.98300     7.66851    53.55672
   235  C   4.0    0.05    4.16    3.91   135.52548     7.61560    50.93567
   236  O   6.0   -0.23    2.06    1.83   134.88486     9.57335    52.64399
   237  H   1.0    0.09    1.13    1.45   141.02458     5.33659    50.30262
   238  H   1.0    0.04    1.06    1.44   138.11251     9.12927    48.32785
   239  H   1.0    0.05    1.01    1.43   134.24046     7.68552    49.32752
   240  H   1.0    0.06    1.02    1.43   135.34973     5.80335    51.89943
   241  H   1.0    0.13    1.01    1.43   133.14253     9.35603    53.23358
   242  N   5.0   -0.14    3.43    2.03   140.14397    11.57457    52.14321
   243  C   4.0    0.04    4.30    4.20   141.81448    12.75187    54.03293
   244  C   4.0    0.08    3.27    3.05   141.29292    15.60536    54.38820
   245  O   6.0   -0.30    1.21    1.80   142.80281    17.15493    53.53972
   246  C   4.0   -0.02    4.36    4.30   144.56026    12.30779    53.15988
   247  C   4.0   -0.00    3.54    3.13   146.57281    13.24320    54.93433
   248  C   4.0   -0.03    3.44    3.09   146.90730    12.17361    57.31917
   249  C   4.0   -0.03    3.46    3.10   148.23199    15.11781    54.14065
   250  C   4.0   -0.03    3.35    3.06   148.89718    12.94084    58.87063
   251  C   4.0   -0.03    3.36    3.07   150.21998    15.89826    55.66944
   252  C   4.0   -0.03    3.35    3.07   150.55447    14.82301    58.03537
   253  H   1.0    0.12    1.15    1.45   139.23123    12.81801    50.98859
   254  H   1.0    0.06    1.05    1.44   141.48756    11.90338    55.88109
   255  H   1.0    0.06    1.04    1.43   144.84560    10.28200    52.92366
   256  H   1.0    0.05    1.04    1.43   144.83238    13.27344    51.36086
   257  H   1.0    0.06    1.03    1.43   145.61283    10.73742    57.97301
   258  H   1.0    0.05    1.03    1.43   147.97310    15.98141    52.30950
   259  H   1.0    0.06    1.02    1.43   149.15607    12.08669    60.70556
   260  H   1.0    0.06    1.03    1.43   151.50500    17.34202    55.01370
   261  H   1.0    0.06    1.03    1.43   152.09081    15.43717    59.22968
   262  N   5.0   -0.18    3.42    2.03   138.41487    18.87080    51.65944
   263  C   4.0   -0.00    4.17    3.93   138.63408    19.43016    48.99681
   264  C   4.0    0.15    3.53    3.13   138.43565    16.68061    48.17100
   265  O   6.0   -0.33    1.59    1.81   137.58717    15.10836    49.67334
   266  H   1.0    0.13    1.21    1.47   137.76480    17.07556    51.91644
   267  H   1.0    0.04    1.02    1.43   137.09962    20.59612    48.27116
   268  H   1.0    0.04    1.02    1.43   140.43309    20.29188    48.48281
   269  N   5.0   -0.16    3.43    2.03   139.18210    16.01165    45.87877
   270  C   4.0    0.03    4.56    4.61   138.99501    13.35847    45.19847
   271  C   4.0    0.15    3.49    3.11   141.06048    12.50243    43.41078
   272  O   6.0   -0.30    1.31    1.80   140.71466    12.42117    41.11099
   273  C   4.0   -0.01    4.36    4.31   136.36640    12.74242    44.08164
   274  C   4.0   -0.04    4.22    4.03   136.16420     9.89649    43.59976
   275  C   4.0   -0.07    4.22    4.05   135.90909    14.28444    41.69113
   276  C   4.0   -0.07    4.01    3.63   133.50914     8.99510    42.94591
   277  H   1.0    0.07    1.05    1.44   139.88507    17.19462    44.52950
   278  H   1.0    0.05    1.09    1.44   139.29170    12.30590    46.94457
   279  H   1.0    0.05    1.06    1.44   134.89998    13.26210    45.43090
   280  H   1.0    0.07    1.04    1.43   137.39630     9.40706    42.02373
   281  H   1.0    0.05    1.04    1.43   136.76325     8.89683    45.29862
   282  H   1.0    0.03    1.03    1.43   134.04771    13.81957    40.93902
   283  H   1.0    0.04    1.00    1.43   135.99791    16.28944    42.15790
   284  H   1.0    0.07    1.03    1.43   137.36229    13.82146    40.30596
   285  H   1.0    0.06    1.00    1.43   133.54882     6.95986    42.63789
   286  H   1.0    0.05    1.00    1.43   132.24491     9.44296    44.50872
   287  H   1.0    0.04    1.00    1.43   132.87797     9.95319    41.23571
   288  N   5.0   -0.13    3.61    2.17   143.23745    11.87882    44.48037
   289  C   4.0    0.03    4.49    4.52   145.31237    10.99821    42.92701
   290  C   4.0    0.15    3.50    3.11   144.73789     8.22598    42.54718
   291  O   6.0   -0.29    1.31    1.80   142.64218     7.38883    43.10843
   292  C   4.0   -0.05    4.32    4.24   147.84649    11.32891    44.27250
   293  C   4.0   -0.05    4.26    4.11   147.92208    13.53044    46.09231
   294  C   4.0   -0.05    4.23    4.06   146.97533    15.94929    44.91690
   295  C   4.0   -0.04    4.14    3.89   146.30447    17.83901    46.97292
   296  N   5.0   -0.12    3.99    2.84   145.04969    20.16338    45.99026
   297  H   1.0    0.07    1.07    1.44   143.60783    11.96197    46.37010
   298  H   1.0    0.05    1.05    1.44   145.49567    12.03566    41.15823
   299  H   1.0    0.04    1.04    1.43   148.25278     9.61682    45.34397
   300  H   1.0    0.04    1.03    1.43   149.30914    11.63693    42.85521
   301  H   1.0    0.04    1.04    1.43   146.73155    13.10147    47.71936
   302  H   1.0    0.04    1.03    1.43   149.86661    13.83468    46.70269
   303  H   1.0    0.04    1.03    1.43   148.44364    16.76376    43.72448
   304  H   1.0    0.05    1.06    1.44   145.28969    15.56378    43.79629
   305  H   1.0    0.05    1.03    1.43   145.01568    16.94328    48.30706
   306  H   1.0    0.04    1.02    1.43   148.02979    18.41349    47.93857
   307  H   1.0    0.05    1.01    1.43   144.63584    21.38225    47.47559
   308  H   1.0    0.05    1.01    1.43   146.23644    21.08178    44.72036
   309  H   1.0    0.05    1.01    1.43   143.37918    19.68716    45.07185
   310  N   5.0   -0.14    3.46    2.05   146.64084     6.78601    41.71192
   311  C   4.0    0.04    4.34    4.27   146.12117     4.13094    41.18847
   312  C   4.0    0.07    3.18    3.03   148.32459     2.32436    41.70814
   313  O   6.0   -0.27    1.12    1.80   150.55258     3.02734    41.54374
   314  C   4.0   -0.03    4.31    4.22   145.17442     3.95331    38.46537
   315  C   4.0   -0.00    3.50    3.11   142.39085     4.47676    38.04585
   316  C   4.0   -0.03    3.46    3.10   141.53102     6.12649    36.18258
   317  C   4.0   -0.02    3.47    3.10   140.54081     3.29379    39.51795
   318  C   4.0   -0.03    3.40    3.08   138.99501     6.55735    35.73472
   319  C   4.0   -0.03    3.41    3.08   137.95755     3.70764    39.14756
   320  C   4.0    0.07    3.43    3.09   137.19410     5.32903    37.22949
   321  O   6.0   -0.24    2.08    1.84   134.63541     5.71453    36.82131
   322  H   1.0    0.09    1.05    1.44   148.44931     7.37749    41.40201
   323  H   1.0    0.04    1.08    1.44   144.72844     3.43741    42.53773
   324  H   1.0    0.05    1.04    1.43   146.22321     5.31769    37.33343
   325  H   1.0    0.05    1.04    1.43   145.53913     2.04468    37.78507
   326  H   1.0    0.06    1.03    1.43   142.90486     7.11104    35.03930
   327  H   1.0    0.05    1.03    1.43   141.13040     2.01445    40.99383
   328  H   1.0    0.06    1.03    1.43   138.41109     7.82724    34.24750
   329  H   1.0    0.06    1.03    1.43   136.57805     2.78168    40.33242
   330  H   1.0    0.12    1.02    1.43   133.64520     4.71487    38.02507
   331  H   1.0    0.11    1.08    1.44   116.51142    24.41073    33.23061
   332  H   1.0    0.06    1.05    1.44   123.01788    -5.15528    48.89844
   333  H   1.0    0.09    1.07    1.44   114.02775    -1.27173    43.43169
   334  H   1.0    0.06    1.05    1.44   109.51885     1.33718    36.01094
   335  H   1.0    0.10    1.07    1.44   104.50497     2.84354    38.14245
   336  H   1.0    0.07    1.05    1.44   105.85715     8.73519    31.20173
   337  H   1.0    0.10    1.07    1.44    98.70370    12.85872    34.93555
   338  H   1.0    0.08    1.04    1.44   101.16928    16.73571    30.67643
   339  H   1.0    0.10    1.07    1.44   143.37865    29.82735    40.04544
   340  H   1.0    0.07    1.05    1.44   146.19553    33.14721    44.85989
   341  H   1.0    0.09    1.08    1.44   141.49557    -2.03161    46.83490
   342  H   1.0    0.06    1.05    1.44   139.73951    16.17549    55.30085
   343  H   1.0    0.12    1.13    1.45   139.93972    19.01864    52.39803
   344  H   1.0    0.06    1.04    1.43   147.98140     0.53047    42.19315

  Z AO/shell   Hii/eV     exponent
  1     Wed Apr 25 08:07:45 CEST 2018   EN: 2.200 GM2: 0.406  GM3: 0.0800  RAES: 1.40
     1s    -10.707211    1.230000
  6     Wed Apr 25 08:07:45 CEST 2018   EN: 2.550 GM2: 0.538  GM3: 0.1500  RAES: 3.00
     2s    -13.970922    2.096432
     2p    -10.063292    1.800000
  7     Wed Apr 25 08:07:45 CEST 2018   EN: 3.040 GM2: 0.461  GM3:-0.0640  RAES: 1.90
     2s    -16.686243    2.339881
     2p    -12.523956    2.014332
  8     Wed Apr 25 08:07:45 CEST 2018   EN: 3.440 GM2: 0.452  GM3:-0.0517  RAES: 1.80
     2s    -20.229985    2.439742
     2p    -15.503117    2.137023
 no old-style atom pair restraining (fixing) potential

molecular fragmentation (1/2 indicates fragments):
111111111111111111111111111111111111111111111111111111111111111111111111
111111111111111111111111111111122222222222222222222222222222222222222222
222222222222222222222222222222222222222222222222222222222222222222222222
222222222222222222222222222222222222222222222222222222222222222222222222
22222222222222222222222222222222222222222211222222222222
# atoms in fragment 1/2:   105   239
 fragment masses (1/2) :      777.85     1548.97
CMA distance (Bohr)    :  12.722
constraining FC (au)   :  0.0500
           ------------------------------------------------- 
          |        Self-Consistent Charge Iterations        |
           ------------------------------------------------- 

 Ncao       : 842
 Nao        : 842
 Nshell     : 510
 Nel        : 918
 T(el)      :   500.0
 intcut     :    35.0
 scfconv/Eh :  0.100E-06
   qconv/e  :  0.100E-04
 intneglect :  0.100E-08
 broydamp   :      0.400
 iter      E             dE          RMSdq      gap      omega  full diag
   1   -520.6939748 -0.520694E+03  0.453E+00    2.83       0.0  T
   2   -521.8830697 -0.118909E+01  0.219E+00    1.47       1.0  T
   3   -521.9548516 -0.717819E-01  0.122E+00    1.70       1.0  T
   4   -522.0360398 -0.811882E-01  0.270E-01    1.08       1.0  T
   5   -522.0422052 -0.616540E-02  0.138E-01    1.33       1.0  T
   6   -522.0435833 -0.137810E-02  0.686E-02    1.32       1.0  T
   7   -522.0440104 -0.427135E-03  0.311E-02    1.28       1.0  T
   8   -522.0440810 -0.705442E-04  0.154E-02    1.27       1.0  T
   9   -522.0441001 -0.191464E-04  0.695E-03    1.26       1.0  T
  10   -522.0441040 -0.388828E-05  0.334E-03    1.26       1.6  T
  11   -522.0441049 -0.891609E-06  0.148E-03    1.26       3.7  T
  12   -522.0441051 -0.201732E-06  0.655E-04    1.26       8.2  T
  13   -522.0441051 -0.344598E-07  0.283E-04    1.26      19.0  T
  14   -522.0441051 -0.331238E-08  0.145E-04    1.26      37.1  T
  15   -522.0441051 -0.194029E-08  0.520E-05    1.26     103.8  T
  16   -522.0441051 -0.215778E-09  0.245E-05    1.26     219.6  T
speedup  1.14
cpu  time for SCC   15.83 s
wall time for SCC   13.83 s

   *** convergence criteria satisfied after 16 iterations ***

          eigenvalues
 #    :         447        448        449        450        451        452        453        454
 occ. :        2.000      2.000      2.000      2.000      2.000      2.000      2.000      2.000
 eps  :       -10.231    -10.174    -10.173    -10.072    -10.009     -9.992     -9.915     -9.877
 #    :         455        456        457        458        459        460        461        462
 occ. :        2.000      2.000      2.000      2.000      2.000      0.000      0.000      0.000
 eps  :        -9.874     -9.860     -9.784     -9.646     -9.521     -8.266     -8.146     -7.835
 #    :         463        464        465        466        467        468        469        470
 occ. :        0.000      0.000      0.000      0.000      0.000      0.000      0.000      0.000
 eps  :        -7.692     -7.587     -7.570     -7.563     -7.048     -6.778     -6.619     -6.550


   #   Z            q   n(s)   n(p)   n(d)      C6AA      α(0)
   1   7 N     -0.390  1.323  4.067  0.000    30.086     8.146
   2   6 C      0.047  1.050  2.903  0.000    19.789     6.335
   3   6 C      0.271  1.046  2.684  0.000    22.425     7.754
   4   8 O     -0.459  1.723  4.735  0.000    22.891     6.415
   5   6 C     -0.090  1.069  3.021  0.000    22.211     6.709
   6   6 C      0.368  1.023  2.610  0.000    20.764     7.457
   7   8 O     -0.661  1.781  4.880  0.000    27.672     7.053
   8   8 O     -0.658  1.776  4.882  0.000    27.575     7.040
   9   1 H      0.181  0.819  0.000  0.000     1.210     1.723
  10   1 H      0.025  0.975  0.000  0.000     2.665     2.553
  11   1 H      0.037  0.963  0.000  0.000     2.495     2.470
  12   1 H      0.011  0.989  0.000  0.000     2.875     2.652
  13   7 N     -0.164  1.233  3.931  0.000    24.551     7.359
  14   6 C      0.024  1.064  2.912  0.000    20.178     6.397
  15   6 C      0.275  1.040  2.685  0.000    22.356     7.743
  16   8 O     -0.481  1.767  4.714  0.000    23.375     6.482
  17   6 C     -0.073  1.053  3.021  0.000    21.895     6.661
  18   6 C      0.015  1.080  2.905  0.000    27.671     8.628
  19   6 C     -0.027  1.085  2.942  0.000    28.674     8.781
  20   6 C     -0.044  1.083  2.961  0.000    29.099     8.846
  21   6 C     -0.032  1.081  2.951  0.000    28.807     8.801
  22   6 C     -0.038  1.084  2.955  0.000    28.950     8.823
  23   6 C     -0.036  1.080  2.956  0.000    28.893     8.814
  24   1 H      0.170  0.830  0.000  0.000     1.270     1.765
  25   1 H      0.086  0.914  0.000  0.000     1.918     2.166
  26   1 H      0.059  0.941  0.000  0.000     2.214     2.327
  27   1 H      0.086  0.914  0.000  0.000     1.922     2.168
  28   1 H      0.027  0.973  0.000  0.000     2.628     2.535
  29   1 H      0.041  0.959  0.000  0.000     2.440     2.443
  30   1 H      0.022  0.978  0.000  0.000     2.709     2.574
  31   1 H      0.037  0.963  0.000  0.000     2.491     2.468
  32   1 H      0.032  0.968  0.000  0.000     2.564     2.504
  33   7 N     -0.196  1.253  3.943  0.000    25.264     7.465
  34   6 C      0.032  1.055  2.913  0.000    20.035     6.374
  35   6 C      0.265  1.044  2.691  0.000    22.537     7.775
  36   8 O     -0.484  1.750  4.734  0.000    23.425     6.489
  37   6 C     -0.121  1.040  3.081  0.000    22.884     6.821
  38   1 H      0.212  0.788  0.000  0.000     1.049     1.605
  39   1 H      0.058  0.942  0.000  0.000     2.219     2.330
  40   1 H      0.056  0.944  0.000  0.000     2.246     2.344
  41   1 H      0.050  0.950  0.000  0.000     2.326     2.385
  42   1 H      0.095  0.905  0.000  0.000     1.831     2.116
  43   7 N     -0.172  1.241  3.930  0.000    24.713     7.383
  44   6 C      0.014  1.055  2.932  0.000    20.340     6.420
  45   6 C      0.276  1.040  2.683  0.000    22.330     7.740
  46   8 O     -0.471  1.746  4.725  0.000    23.155     6.452
  47   6 C     -0.088  1.054  3.034  0.000    22.173     6.703
  48   6 C     -0.079  1.050  3.029  0.000    22.008     6.679
  49   6 C     -0.097  1.056  3.041  0.000    22.355     6.732
  50   6 C     -0.058  1.061  2.996  0.000    21.712     6.651
  51   7 N     -0.162  1.237  3.925  0.000    24.499     7.351
  52   1 H      0.222  0.778  0.000  0.000     1.000     1.567
  53   1 H      0.097  0.903  0.000  0.000     1.814     2.106
  54   1 H      0.091  0.909  0.000  0.000     1.865     2.135
  55   1 H      0.077  0.923  0.000  0.000     2.006     2.215
  56   1 H      0.029  0.971  0.000  0.000     2.605     2.524
  57   1 H      0.069  0.931  0.000  0.000     2.092     2.262
  58   1 H      0.086  0.914  0.000  0.000     1.914     2.163
  59   1 H      0.080  0.920  0.000  0.000     1.980     2.200
  60   1 H      0.107  0.893  0.000  0.000     1.725     2.054
  61   1 H      0.114  0.886  0.000  0.000     1.666     2.018
  62   1 H      0.301  0.699  0.000  0.000     0.711     1.321
  63   1 H      0.280  0.720  0.000  0.000     0.777     1.381
  64   1 H      0.299  0.701  0.000  0.000     0.716     1.325
  65   7 N     -0.234  1.269  3.965  0.000    26.115     7.590
  66   6 C      0.021  1.064  2.916  0.000    20.240     6.408
  67   6 C      0.273  1.053  2.674  0.000    22.388     7.749
  68   8 O     -0.492  1.755  4.737  0.000    23.611     6.515
  69   6 C     -0.047  1.053  2.994  0.000    21.418     6.588
  70   6 C     -0.089  1.065  3.023  0.000    22.191     6.707
  71   6 C      0.374  1.017  2.609  0.000    20.659     7.438
  72   8 O     -0.655  1.767  4.888  0.000    27.506     7.032
  73   8 O     -0.655  1.773  4.883  0.000    27.520     7.033
  74   1 H      0.230  0.770  0.000  0.000     0.964     1.538
  75   1 H      0.082  0.918  0.000  0.000     1.960     2.189
  76   1 H      0.030  0.970  0.000  0.000     2.586     2.515
  77   1 H      0.042  0.958  0.000  0.000     2.421     2.433
  78   1 H      0.038  0.962  0.000  0.000     2.482     2.464
  79   1 H      0.014  0.986  0.000  0.000     2.819     2.626
  80   7 N     -0.162  1.247  3.915  0.000    24.505     7.352
  81   6 C      0.009  1.063  2.928  0.000    20.422     6.434
  82   6 C      0.195  1.094  2.711  0.000    23.839     7.996
  83   8 O     -0.371  1.755  4.617  0.000    21.119     6.161
  84   6 C     -0.077  1.054  3.023  0.000    21.953     6.668
  85   6 C     -0.040  1.063  2.977  0.000    28.947     8.824
  86   6 C     -0.008  1.065  2.943  0.000    28.188     8.709
  87   6 C     -0.024  1.073  2.951  0.000    28.436     8.735
  88   7 N     -0.106  1.226  3.881  0.000    23.328     7.173
  89   6 C      0.047  1.061  2.891  0.000    26.866     8.498
  90   6 C     -0.047  1.080  2.967  0.000    29.166     8.856
  91   6 C     -0.052  1.069  2.983  0.000    29.297     8.875
  92   6 C     -0.048  1.079  2.969  0.000    29.201     8.861
  93   6 C     -0.040  1.076  2.964  0.000    28.991     8.830
  94   1 H      0.209  0.791  0.000  0.000     1.061     1.613
  95   1 H      0.127  0.873  0.000  0.000     1.556     1.951
  96   1 H      0.079  0.921  0.000  0.000     1.993     2.208
  97   1 H      0.080  0.920  0.000  0.000     1.977     2.199
  98   1 H      0.028  0.972  0.000  0.000     2.622     2.532
  99   1 H      0.170  0.830  0.000  0.000     1.274     1.768
 100   1 H      0.043  0.957  0.000  0.000     2.411     2.428
 101   1 H      0.018  0.982  0.000  0.000     2.767     2.601
 102   1 H      0.034  0.966  0.000  0.000     2.529     2.487
 103   1 H      0.026  0.974  0.000  0.000     2.645     2.543
 104   7 N     -0.373  1.313  4.059  0.000    29.620     8.083
 105   6 C     -0.007  1.040  2.967  0.000    20.771     6.502
 106   6 C      0.268  1.040  2.692  0.000    22.481     7.766
 107   8 O     -0.505  1.752  4.753  0.000    23.906     6.555
 108   1 H      0.157  0.843  0.000  0.000     1.355     1.824
 109   1 H      0.061  0.939  0.000  0.000     2.191     2.315
 110   1 H      0.035  0.965  0.000  0.000     2.517     2.481
 111   7 N     -0.171  1.246  3.926  0.000    24.702     7.382
 112   6 C      0.026  1.054  2.921  0.000    20.149     6.392
 113   6 C      0.208  1.085  2.707  0.000    23.588     7.954
 114   8 O     -0.368  1.753  4.615  0.000    21.061     6.153
 115   6 C     -0.082  1.060  3.022  0.000    22.040     6.681
 116   6 C     -0.013  1.050  2.962  0.000    20.766     6.481
 117   6 C     -0.123  1.046  3.076  0.000    22.904     6.823
 118   6 C     -0.129  1.046  3.083  0.000    23.035     6.843
 119   1 H      0.239  0.761  0.000  0.000     0.928     1.509
 120   1 H      0.078  0.922  0.000  0.000     2.000     2.212
 121   1 H      0.076  0.924  0.000  0.000     2.016     2.220
 122   1 H      0.065  0.935  0.000  0.000     2.143     2.289
 123   1 H      0.035  0.965  0.000  0.000     2.511     2.478
 124   1 H      0.050  0.950  0.000  0.000     2.315     2.380
 125   1 H      0.048  0.952  0.000  0.000     2.340     2.392
 126   1 H      0.047  0.953  0.000  0.000     2.352     2.398
 127   1 H      0.040  0.960  0.000  0.000     2.446     2.446
 128   1 H      0.036  0.964  0.000  0.000     2.497     2.471
 129   1 H      0.055  0.945  0.000  0.000     2.256     2.349
 130   7 N     -0.396  1.323  4.073  0.000    30.272     8.171
 131   6 C      0.035  1.057  2.908  0.000    20.003     6.369
 132   6 C      0.284  1.043  2.673  0.000    22.189     7.714
 133   8 O     -0.499  1.747  4.752  0.000    23.753     6.534
 134   6 C     -0.019  1.072  2.947  0.000    20.880     6.499
 135   6 C     -0.061  1.054  3.007  0.000    21.677     6.629
 136   6 C     -0.129  1.051  3.078  0.000    23.043     6.845
 137   6 C     -0.110  1.043  3.067  0.000    22.674     6.792
 138   1 H      0.170  0.830  0.000  0.000     1.274     1.768
 139   1 H      0.031  0.969  0.000  0.000     2.568     2.506
 140   1 H      0.041  0.959  0.000  0.000     2.431     2.438
 141   1 H      0.032  0.968  0.000  0.000     2.552     2.498
 142   1 H      0.025  0.975  0.000  0.000     2.652     2.547
 143   1 H      0.031  0.969  0.000  0.000     2.574     2.509
 144   1 H      0.079  0.921  0.000  0.000     1.988     2.205
 145   1 H      0.031  0.969  0.000  0.000     2.575     2.509
 146   1 H      0.045  0.955  0.000  0.000     2.381     2.413
 147   1 H      0.037  0.963  0.000  0.000     2.483     2.464
 148   1 H      0.041  0.959  0.000  0.000     2.439     2.442
 149   7 N     -0.169  1.248  3.921  0.000    24.647     7.373
 150   6 C      0.037  1.050  2.914  0.000    19.961     6.361
 151   6 C      0.214  1.075  2.711  0.000    23.477     7.935
 152   8 O     -0.364  1.752  4.612  0.000    20.980     6.141
 153   6 C     -0.071  1.047  3.024  0.000    21.842     6.652
 154   6 C     -0.084  1.050  3.033  0.000    22.089     6.691
 155   6 C      0.281  1.046  2.673  0.000    22.239     7.721
 156   8 O     -0.496  1.744  4.752  0.000    23.690     6.526
 157   7 N     -0.275  1.272  4.003  0.000    27.108     7.733
 158   1 H      0.228  0.772  0.000  0.000     0.975     1.547
 159   1 H      0.053  0.947  0.000  0.000     2.284     2.363
 160   1 H      0.075  0.925  0.000  0.000     2.035     2.231
 161   1 H      0.077  0.923  0.000  0.000     2.008     2.216
 162   1 H      0.044  0.956  0.000  0.000     2.393     2.419
 163   1 H      0.051  0.949  0.000  0.000     2.308     2.376
 164   1 H      0.226  0.774  0.000  0.000     0.981     1.552
 165   1 H      0.256  0.744  0.000  0.000     0.862     1.455
 166   7 N     -0.410  1.334  4.077  0.000    30.659     8.223
 167   6 C      0.039  1.062  2.900  0.000    19.940     6.361
 168   6 C      0.206  1.094  2.700  0.000    23.620     7.959
 169   8 O     -0.391  1.756  4.635  0.000    21.501     6.217
 170   6 C     -0.014  1.068  2.946  0.000    20.789     6.485
 171   6 C     -0.055  1.049  3.006  0.000    21.561     6.611
 172   6 C     -0.104  1.039  3.065  0.000    22.554     6.772
 173   6 C     -0.096  1.037  3.059  0.000    22.398     6.749
 174   1 H      0.190  0.810  0.000  0.000     1.160     1.687
 175   1 H      0.038  0.962  0.000  0.000     2.472     2.459
 176   1 H      0.039  0.961  0.000  0.000     2.467     2.456
 177   1 H      0.038  0.962  0.000  0.000     2.470     2.458
 178   1 H      0.033  0.967  0.000  0.000     2.542     2.493
 179   1 H      0.043  0.957  0.000  0.000     2.403     2.424
 180   1 H      0.027  0.973  0.000  0.000     2.632     2.537
 181   1 H      0.043  0.957  0.000  0.000     2.406     2.426
 182   1 H      0.043  0.957  0.000  0.000     2.404     2.425
 183   1 H      0.026  0.974  0.000  0.000     2.651     2.546
 184   1 H      0.036  0.964  0.000  0.000     2.503     2.474
 185   7 N     -0.411  1.344  4.067  0.000    30.682     8.227
 186   6 C      0.032  1.055  2.913  0.000    20.055     6.379
 187   6 C      0.200  1.090  2.711  0.000    23.746     7.981
 188   8 O     -0.406  1.772  4.634  0.000    21.803     6.260
 189   6 C     -0.080  1.057  3.023  0.000    22.026     6.681
 190   6 C     -0.092  1.053  3.039  0.000    22.254     6.716
 191   6 C     -0.109  1.058  3.051  0.000    22.575     6.764
 192   6 C     -0.078  1.062  3.016  0.000    22.077     6.706
 193   7 N     -0.139  1.227  3.912  0.000    24.001     7.276
 194   1 H      0.176  0.824  0.000  0.000     1.239     1.744
 195   1 H      0.075  0.925  0.000  0.000     2.027     2.226
 196   1 H      0.062  0.938  0.000  0.000     2.174     2.306
 197   1 H      0.056  0.944  0.000  0.000     2.244     2.343
 198   1 H      0.057  0.943  0.000  0.000     2.234     2.337
 199   1 H      0.077  0.923  0.000  0.000     2.007     2.215
 200   1 H      0.090  0.910  0.000  0.000     1.876     2.142
 201   1 H      0.085  0.915  0.000  0.000     1.925     2.170
 202   1 H      0.140  0.860  0.000  0.000     1.459     1.889
 203   1 H      0.119  0.881  0.000  0.000     1.622     1.991
 204   1 H      0.296  0.704  0.000  0.000     0.726     1.335
 205   1 H      0.294  0.706  0.000  0.000     0.732     1.340
 206   1 H      0.295  0.705  0.000  0.000     0.729     1.338
 207   7 N     -0.395  1.323  4.071  0.000    30.228     8.165
 208   6 C      0.023  1.058  2.919  0.000    20.197     6.400
 209   6 C      0.276  1.046  2.678  0.000    22.339     7.739
 210   8 O     -0.482  1.751  4.731  0.000    23.394     6.485
 211   6 C     -0.070  1.056  3.013  0.000    21.818     6.648
 212   6 C     -0.044  1.069  2.975  0.000    29.046     8.839
 213   6 C     -0.012  1.064  2.948  0.000    28.292     8.725
 214   6 C     -0.028  1.075  2.952  0.000    28.527     8.749
 215   7 N     -0.118  1.231  3.887  0.000    23.555     7.208
 216   6 C      0.046  1.062  2.892  0.000    26.900     8.504
 217   6 C     -0.045  1.079  2.966  0.000    29.115     8.848
 218   6 C     -0.054  1.070  2.983  0.000    29.332     8.881
 219   6 C     -0.047  1.080  2.967  0.000    29.164     8.856
 220   6 C     -0.039  1.078  2.961  0.000    28.960     8.825
 221   1 H      0.145  0.855  0.000  0.000     1.438     1.878
 222   1 H      0.051  0.949  0.000  0.000     2.306     2.375
 223   1 H      0.061  0.939  0.000  0.000     2.191     2.315
 224   1 H      0.051  0.949  0.000  0.000     2.311     2.377
 225   1 H      0.031  0.969  0.000  0.000     2.568     2.506
 226   1 H      0.185  0.815  0.000  0.000     1.184     1.705
 227   1 H      0.030  0.970  0.000  0.000     2.589     2.516
 228   1 H      0.023  0.977  0.000  0.000     2.682     2.561
 229   1 H      0.041  0.959  0.000  0.000     2.434     2.440
 230   1 H      0.027  0.973  0.000  0.000     2.631     2.537
 231   7 N     -0.195  1.241  3.954  0.000    25.233     7.460
 232   6 C      0.024  1.058  2.918  0.000    20.180     6.398
 233   6 C      0.279  1.040  2.682  0.000    22.283     7.730
 234   8 O     -0.505  1.762  4.743  0.000    23.903     6.555
 235   6 C      0.086  1.034  2.879  0.000    19.351     6.301
 236   8 O     -0.481  1.718  4.763  0.000    22.491     6.402
 237   1 H      0.213  0.787  0.000  0.000     1.042     1.599
 238   1 H      0.078  0.922  0.000  0.000     2.004     2.214
 239   1 H      0.048  0.952  0.000  0.000     2.341     2.393
 240   1 H      0.019  0.981  0.000  0.000     2.748     2.592
 241   1 H      0.345  0.655  0.000  0.000     0.599     1.216
 242   7 N     -0.182  1.256  3.926  0.000    24.942     7.417
 243   6 C      0.030  1.061  2.909  0.000    20.087     6.383
 244   6 C      0.191  1.091  2.717  0.000    23.911     8.008
 245   8 O     -0.322  1.732  4.590  0.000    20.176     6.022
 246   6 C     -0.075  1.052  3.022  0.000    21.914     6.663
 247   6 C      0.010  1.081  2.909  0.000    27.786     8.646
 248   6 C     -0.042  1.082  2.961  0.000    29.054     8.839
 249   6 C     -0.045  1.086  2.960  0.000    29.122     8.850
 250   6 C     -0.034  1.084  2.950  0.000    28.844     8.807
 251   6 C     -0.037  1.084  2.953  0.000    28.910     8.817
 252   6 C     -0.036  1.083  2.953  0.000    28.890     8.814
 253   1 H      0.250  0.750  0.000  0.000     0.885     1.473
 254   1 H      0.071  0.929  0.000  0.000     2.078     2.255
 255   1 H      0.061  0.939  0.000  0.000     2.183     2.311
 256   1 H      0.078  0.922  0.000  0.000     2.001     2.212
 257   1 H      0.017  0.983  0.000  0.000     2.772     2.604
 258   1 H      0.078  0.922  0.000  0.000     1.995     2.209
 259   1 H      0.014  0.986  0.000  0.000     2.819     2.625
 260   1 H      0.052  0.948  0.000  0.000     2.301     2.372
 261   1 H      0.022  0.978  0.000  0.000     2.703     2.571
 262   7 N     -0.437  1.334  4.103  0.000    31.399     8.322
 263   6 C     -0.043  1.057  2.987  0.000    21.438     6.608
 264   6 C      0.262  1.048  2.690  0.000    22.594     7.791
 265   8 O     -0.479  1.765  4.714  0.000    23.328     6.476
 266   1 H      0.191  0.809  0.000  0.000     1.155     1.683
 267   1 H      0.106  0.894  0.000  0.000     1.733     2.058
 268   1 H      0.079  0.921  0.000  0.000     1.985     2.203
 269   7 N     -0.158  1.241  3.917  0.000    24.414     7.338
 270   6 C     -0.005  1.066  2.940  0.000    20.659     6.469
 271   6 C      0.269  1.034  2.697  0.000    22.457     7.761
 272   8 O     -0.453  1.749  4.704  0.000    22.762     6.397
 273   6 C     -0.033  1.065  2.969  0.000    21.130     6.538
 274   6 C     -0.061  1.045  3.015  0.000    21.664     6.626
 275   6 C     -0.177  1.057  3.119  0.000    24.009     6.987
 276   6 C     -0.109  1.040  3.069  0.000    22.650     6.787
 277   1 H      0.242  0.758  0.000  0.000     0.913     1.497
 278   1 H      0.057  0.943  0.000  0.000     2.239     2.340
 279   1 H      0.064  0.936  0.000  0.000     2.150     2.293
 280   1 H      0.047  0.953  0.000  0.000     2.360     2.402
 281   1 H      0.017  0.983  0.000  0.000     2.782     2.609
 282   1 H      0.078  0.922  0.000  0.000     1.998     2.211
 283   1 H      0.086  0.914  0.000  0.000     1.920     2.167
 284   1 H      0.120  0.880  0.000  0.000     1.617     1.989
 285   1 H      0.018  0.982  0.000  0.000     2.759     2.598
 286   1 H      0.034  0.966  0.000  0.000     2.534     2.489
 287   1 H      0.059  0.941  0.000  0.000     2.207     2.323
 288   7 N     -0.152  1.231  3.921  0.000    24.279     7.318
 289   6 C      0.003  1.060  2.938  0.000    20.532     6.451
 290   6 C      0.276  1.038  2.686  0.000    22.334     7.741
 291   8 O     -0.480  1.761  4.718  0.000    23.336     6.477
 292   6 C     -0.089  1.053  3.036  0.000    22.196     6.706
 293   6 C     -0.079  1.048  3.031  0.000    22.000     6.677
 294   6 C     -0.109  1.053  3.056  0.000    22.581     6.765
 295   6 C     -0.060  1.062  2.998  0.000    21.753     6.656
 296   7 N     -0.134  1.230  3.903  0.000    23.889     7.259
 297   1 H      0.206  0.794  0.000  0.000     1.077     1.626
 298   1 H      0.111  0.889  0.000  0.000     1.687     2.031
 299   1 H      0.045  0.955  0.000  0.000     2.387     2.416
 300   1 H      0.073  0.927  0.000  0.000     2.051     2.239
 301   1 H      0.051  0.949  0.000  0.000     2.310     2.377
 302   1 H      0.079  0.921  0.000  0.000     1.991     2.207
 303   1 H      0.096  0.904  0.000  0.000     1.821     2.110
 304   1 H      0.082  0.918  0.000  0.000     1.959     2.189
 305   1 H      0.107  0.893  0.000  0.000     1.727     2.055
 306   1 H      0.125  0.875  0.000  0.000     1.577     1.964
 307   1 H      0.294  0.706  0.000  0.000     0.731     1.339
 308   1 H      0.311  0.689  0.000  0.000     0.682     1.294
 309   1 H      0.282  0.718  0.000  0.000     0.770     1.375
 310   7 N     -0.174  1.239  3.935  0.000    24.775     7.393
 311   6 C      0.031  1.054  2.915  0.000    20.054     6.376
 312   6 C      0.191  1.090  2.718  0.000    23.908     8.007
 313   8 O     -0.364  1.763  4.601  0.000    20.977     6.141
 314   6 C     -0.069  1.053  3.016  0.000    21.817     6.649
 315   6 C      0.003  1.078  2.919  0.000    27.950     8.671
 316   6 C     -0.041  1.083  2.958  0.000    29.013     8.833
 317   6 C     -0.031  1.083  2.949  0.000    28.783     8.798
 318   6 C     -0.056  1.075  2.981  0.000    29.399     8.891
 319   6 C     -0.065  1.080  2.985  0.000    29.620     8.924
 320   6 C      0.143  1.051  2.806  0.000    24.875     8.174
 321   8 O     -0.428  1.718  4.710  0.000    21.407     6.246
 322   1 H      0.220  0.780  0.000  0.000     1.012     1.576
 323   1 H      0.085  0.915  0.000  0.000     1.926     2.170
 324   1 H      0.079  0.921  0.000  0.000     1.990     2.206
 325   1 H      0.057  0.943  0.000  0.000     2.239     2.340
 326   1 H      0.052  0.948  0.000  0.000     2.290     2.366
 327   1 H      0.019  0.981  0.000  0.000     2.756     2.596
 328   1 H      0.067  0.933  0.000  0.000     2.117     2.275
 329   1 H      0.032  0.968  0.000  0.000     2.559     2.502
 330   1 H      0.325  0.675  0.000  0.000     0.651     1.267
 331   1 H      0.168  0.832  0.000  0.000     1.286     1.776
 332   1 H      0.095  0.905  0.000  0.000     1.828     2.114
 333   1 H      0.188  0.812  0.000  0.000     1.171     1.695
 334   1 H      0.077  0.923  0.000  0.000     2.007     2.215
 335   1 H      0.180  0.820  0.000  0.000     1.211     1.724
 336   1 H      0.075  0.925  0.000  0.000     2.028     2.227
 337   1 H      0.178  0.822  0.000  0.000     1.224     1.733
 338   1 H      0.068  0.932  0.000  0.000     2.106     2.269
 339   1 H      0.192  0.808  0.000  0.000     1.150     1.680
 340   1 H      0.067  0.933  0.000  0.000     2.122     2.278
 341   1 H      0.184  0.816  0.000  0.000     1.192     1.710
 342   1 H      0.083  0.917  0.000  0.000     1.945     2.181
 343   1 H      0.180  0.820  0.000  0.000     1.213     1.725
 344   1 H      0.073  0.927  0.000  0.000     2.056     2.242

 Mol. C6AA /au·bohr⁶  :    1117337.145465
 Mol. C8AA /au·bohr⁸  :   25203953.804214
 Mol. α(0) /au        :       1602.507068

 
molecular dipole:
                 x           y           z       tot (Debye)
 q only:      190.530      26.011      46.356
   full:      189.820      24.077      48.081     501.471
molecular quadrupole (traceless):
                xx          xy          yy          xz          yz          zz
 q only:    30934.235    6793.315  -16475.599   12705.607    1934.427  -14458.636
  q+dip:    30718.354    6385.682  -16518.902   12982.691    1804.991  -14199.453
   full:    30712.499    6384.636  -16519.021   12984.899    1811.615  -14193.478
speedup  1.16
cpu  time for grad   20.02 s
wall time for grad   17.29 s

SCC energy    :    -522.0634260
rep           :       6.8059920
ES            :       1.8948264
AES           :      -0.0550403
AXC           :       0.2093090
disp          :      -0.4182754
XB            :       0.0000000
fix           :       0.0000000
Gborn         :       0.0000000
Gsasa         :       0.0000000
Ghb           :       0.0000000
Gshift        :       0.0000000
Gsolv         :      -0.7784353     -488.48
Etot ala COSMO:    -522.0634260
grad norm     :       0.6429065
total E       :    -515.2275425
atomizationE  :      97.3789487    61106.21
(atE without considering molecular charge,
 total energy contains solvation terms)
H-L gap (eV)  :          1.2557

------------------------------------------------------------------------
 * finished run on 2019/05/04 at 15:59:22.264     
------------------------------------------------------------------------
 total:
 * wall-time:     0 d,  0 h,  0 min, 19.408 sec
 *  cpu-time:     0 d,  0 h,  0 min, 21.691 sec
 * ratio c/w:     1.118 speedup
 SCF:
 * wall-time:     0 d,  0 h,  0 min, 18.647 sec
 *  cpu-time:     0 d,  0 h,  0 min, 21.229 sec
 * ratio c/w:     1.138 speedup

