      -----------------------------------------------------------      
     |                   =====================                   |     
     |                           x T B                           |     
     |                   =====================                   |     
     |                         S. Grimme                         |     
     |          Mulliken Center for Theoretical Chemistry        |     
     |                    University of Bonn                     |     
     |                 Version 6.0.1 (SAW181210)                 |     
      -----------------------------------------------------------      

   This program is distributed in the hope that it will be useful,
   but WITHOUT ANY WARRANTY; without even the implied warranty of
   MERCHANTABILITY or FITNESS FOR A PARTICULAR PURPOSE.
   
   FOR NON-COMMERCIAL, ACADEMIA USE ONLY.
   
   Cite this work as:
   S. Grimme, C. Bannwarth, P. Shushkov, J. Comput. Theory Chem., 2017,
   13, 1989-2009.
   C. Bannwarth, S. Ehlert and S. Grimme., ChemRxiv, 2018, preprint.
   http://doi.org/10.26434/chemrxiv.7246238.v1
   
   for sTDA-xTB:
   S. Grimme and C. Bannwarth, J. Chem. Phys., 2016, 145, 054103.
   
   in the mass-spec context:
   V. Asgeirsson, C. Bauer and S. Grimme, Chem. Sci., 2017, 8, 4879.
   
   if GBSA is used:
   P. Shushkov, F. März and S. Grimme, unpublished.
   
   for ANC optimizer:
   S. Grimme, unpublished.
   Rational Function algorithm used in ANCopt:
   F. Eckert, P. Pulay, H.-J. Werner, J. Comput. Chem., 1997, 18, 1473.
   
   with help from (in alphabetical order)
   C. Bannwarth, F. Bohle, G. Brandenburg, E. Caldeweyher, M. Checinski,
   S. Dohm, S. Ehlert, S. Ehrlich, F. März, H. Neugebauer, J. Pisarek,
   P. Pracht, P. Shushkov, and S. Spicher.
   
 * started run on 2019/05/12 at 13:11:13.843     
========================================================================
 # omp threads = 2
========================================================================
number of atoms            : 472
number of electrons        : 1228
charge                     : 2
spin                       : .0
first test random number   : .3695

########################################################################
# WARNING! Please study the warnings concerning your input carefully
#  - Process number higher than OMP_NUM_THREADS, I hope you know what you are doing.
########################################################################

           ------------------------------------------------- 
          |                 G F N 2 - x T B                 |
          | Geometry, Frequencies, Noncovalent interactions |
          |            JCTC 2018 parametrisation            |
           ------------------------------------------------- 
 
      method parameters     
 k(s)        :  1.8500
 k(p)        :  2.2300
 k(d)        :  2.2300
 k(f)        :  2.0000
 kEN (H0ij)  : -2.0000
 D4 a1       :  0.5200
 D4 a2       :  5.0000
 D4 s6       :  1.0000
 D4 s8       :  2.7000
 D4 s9       :  5.0000
 alphaj      :  2.0000

 Solvent             : h2o
 Using internal parameter file: .param_gbsa2_h2o
 Gsolv ref. state (COSMO-RS): gsolv [1 M gas/solution]
 temperature (mdtemp)       :    298.150000000000     
 dielectric constant        :    80.2000000000000     
 rho                        :    1.00000000000000     
 mass                       :    18.0000000000000     
 surface tension            :    15.5689454083859     
 probe radius               :   0.975313790000000     
 vdW radii scaling          :    1.00000000000000     
 Gshift (Eh)                :   1.857443126794793E-003
 c1                         :    1.55243817000000     
 soset                      :   0.130326360000000     
 HB correction              :  T

            Z     q(EN)     CN     RAES       Cart. coordinates
     1  N   5.0   -0.22    3.23    1.96   124.09896   101.78395   395.79161
     2  C   4.0    0.03    4.39    4.36   122.31787    99.69075   395.52225
     3  C   4.0    0.08    3.24    3.04   121.21259    98.91574   398.08239
     4  O   6.0   -0.32    1.14    1.80   118.93122    98.39421   398.31860
     5  C   4.0   -0.03    4.47    4.50   123.41550    97.46606   394.07532
     6  C   4.0   -0.06    4.34    4.28   124.36113    98.21476   391.51225
     7  C   4.0   -0.08    4.29    4.18   121.50663    95.38819   394.06050
     8  C   4.0   -0.08    4.16    3.91   125.75762    96.16822   390.15103
     9  H   1.0    0.10    1.07    1.44   125.67218   101.44423   395.21867
    10  H   1.0    0.04    1.12    1.45   120.88415   100.37013   394.47752
    11  H   1.0    0.05    1.12    1.45   124.96210    96.82934   395.01642
    12  H   1.0    0.04    1.09    1.44   122.86413    98.65494   390.45876
    13  H   1.0    0.04    1.10    1.44   125.47581    99.68836   391.65776
    14  H   1.0    0.05    1.05    1.44   122.21113    93.87108   393.15600
    15  H   1.0    0.05    1.06    1.44   121.06978    94.85460   395.80906
    16  H   1.0    0.05    1.06    1.44   119.97066    95.94386   393.17888
    17  H   1.0    0.05    1.05    1.44   126.19858    96.69911   388.43426
    18  H   1.0    0.05    1.05    1.44   127.35365    95.77408   391.10325
    19  H   1.0    0.05    1.05    1.44   124.72223    94.60467   390.09076
    20  N   5.0   -0.21    3.30    1.98   116.46369   104.26773   400.74970
    21  C   4.0    0.03    4.52    4.56   114.20098   104.31266   399.26906
    22  C   4.0    0.15    3.51    3.12   112.57087   101.99683   399.84049
    23  O   6.0   -0.31    1.28    1.80   110.25222   102.12560   400.21197
    24  C   4.0   -0.03    4.52    4.57   114.79831   104.60948   396.53165
    25  C   4.0   -0.06    4.34    4.28   115.54407   107.32640   396.06101
    26  C   4.0   -0.09    4.25    4.11   112.67592   103.58821   394.80820
    27  C   4.0   -0.09    4.21    4.02   116.33732   107.50707   393.34010
    28  H   1.0    0.10    1.08    1.44   117.87604   104.22426   399.80366
    29  H   1.0    0.05    1.12    1.45   113.13808   105.80893   399.83331
    30  H   1.0    0.04    1.13    1.45   116.25642   103.49036   396.05904
    31  H   1.0    0.04    1.09    1.44   114.09390   108.44130   396.28655
    32  H   1.0    0.05    1.09    1.44   116.96508   107.80810   397.11289
    33  H   1.0    0.03    1.05    1.44   113.10947   103.83847   393.04194
    34  H   1.0    0.05    1.05    1.44   112.38726   101.78339   395.17778
    35  H   1.0    0.04    1.05    1.44   111.09579   104.54761   395.22348
    36  H   1.0    0.04    1.05    1.44   116.86902   109.32682   393.02141
    37  H   1.0    0.04    1.05    1.44   117.82237   106.42773   393.05384
    38  H   1.0    0.04    1.06    1.44   114.95772   107.08385   392.22933
    39  N   5.0   -0.16    3.53    2.10   113.73740    99.80443   399.88983
    40  C   4.0    0.04    4.40    4.39   112.51353    97.48075   400.60234
    41  C   4.0    0.10    3.23    3.04   111.24477    97.74008   403.21395
    42  O   6.0   -0.29    1.12    1.80   109.18186    96.74703   403.61843
    43  C   4.0    0.03    4.29    4.18   114.42964    95.37766   400.43182
    44  O   6.0   -0.27    2.14    1.84   113.19633    93.11626   400.33819
    45  H   1.0    0.11    1.15    1.45   115.40824    99.61160   399.48191
    46  H   1.0    0.06    1.13    1.45   111.10410    97.08840   399.43635
    47  H   1.0    0.05    1.08    1.44   115.48846    95.59483   398.93438
    48  H   1.0    0.05    1.07    1.44   115.53143    95.43902   401.98585
    49  H   1.0    0.12    1.07    1.44   114.33401    91.83329   400.31870
    50  N   5.0   -0.21    3.31    1.98   105.45166   102.10063   402.66552
    51  C   4.0    0.03    4.57    4.63   103.33896   100.80599   401.49930
    52  C   4.0    0.15    3.52    3.12   102.02895    99.00204   403.29170
    53  O   6.0   -0.29    1.40    1.80    99.73144    98.73595   403.25345
    54  C   4.0   -0.04    4.25    4.10   103.93722    99.38714   399.16512
    55  S   6.0   -0.07    2.55    3.10   104.87122   101.37526   396.77927
    56  H   1.0    0.13    1.09    1.44   106.99562   101.51747   402.12594
    57  H   1.0    0.04    1.15    1.45   102.14924   102.22392   401.05414
    58  H   1.0    0.06    1.16    1.45   105.38312    98.19534   399.53085
    59  H   1.0    0.05    1.17    1.46   102.48938    98.40228   398.57460
    60  H   1.0    0.06    1.00    1.43   106.72361   102.61659   397.43552
    61  N   5.0   -0.15    3.50    2.08   103.37396    97.63031   404.82835
    62  C   4.0    0.04    4.42    4.42   102.09174    95.98235   406.62920
    63  C   4.0    0.10    3.26    3.04   100.35944    97.51957   408.29460
    64  O   6.0   -0.23    1.10    1.80    98.15386    96.71667   408.82803
    65  C   4.0   -0.05    4.22    4.05   103.94641    94.19741   408.00642
    66  C   4.0   -0.05    4.20    4.01   104.03595    91.58191   406.46358
    67  C   4.0   -0.05    4.21    4.01   106.56886    90.68525   405.31170
    68  C   4.0   -0.03    4.23    4.07   106.27953    88.76112   403.18422
    69  N   5.0   -0.14    4.11    3.18   108.67937    87.70744   402.23521
    70  H   1.0    0.11    1.12    1.45   105.10159    97.57635   404.91729
    71  H   1.0    0.07    1.13    1.45   100.92876    94.75952   405.70232
    72  H   1.0    0.06    1.08    1.44   105.64793    94.95641   407.94994
    73  H   1.0    0.06    1.08    1.44   103.39044    93.89914   409.71259
    74  H   1.0    0.06    1.07    1.44   103.44324    90.23618   407.63324
    75  H   1.0    0.05    1.09    1.44   102.83108    91.70344   405.02875
    76  H   1.0    0.07    1.08    1.44   107.49986    92.17191   404.67337
    77  H   1.0    0.05    1.07    1.44   107.60148    89.90447   406.71668
    78  H   1.0    0.05    1.08    1.44   105.26557    87.30621   403.84747
    79  H   1.0    0.06    1.08    1.44   105.39127    89.55695   401.78502
    80  H   1.0    0.07    1.07    1.44   108.42104    86.56229   400.96480
    81  H   1.0    0.08    1.08    1.44   109.70123    88.99186   401.60020
    82  H   1.0    0.07    1.07    1.44   109.58915    86.91734   403.50542
    83  N   5.0   -0.19    3.25    1.97    95.97631   102.69863   402.95126
    84  C   4.0    0.05    4.48    4.51    95.16077   101.52401   400.59692
    85  C   4.0    0.09    3.24    3.04    93.04828    99.69305   401.30705
    86  O   6.0   -0.24    1.11    1.80    93.48595    97.38251   401.87016
    87  C   4.0   -0.03    4.26    4.12    97.38121   100.19855   399.26476
    88  S   6.0   -0.04    2.66    3.10    96.95920   100.55936   396.22961
    89  H   1.0    0.13    1.08    1.44    97.20690   101.74515   403.78421
    90  H   1.0    0.05    1.18    1.46    94.51811   102.80318   399.45576
    91  H   1.0    0.05    1.20    1.47    98.98921   100.99922   399.78896
    92  H   1.0    0.08    1.18    1.46    97.40343    98.38866   399.74596
    93  H   1.0    0.04    1.00    1.43    98.35715    99.04050   395.06444
    94  N   5.0   -0.21    3.26    1.97    96.27262    91.46696   394.23610
    95  C   4.0    0.03    4.34    4.28    98.68335    92.54798   395.07155
    96  C   4.0    0.15    3.51    3.12   100.63979    91.45458   393.23485
    97  O   6.0   -0.27    1.25    1.80   100.54701    89.15580   392.74140
    98  C   4.0    0.03    4.23    4.05    99.15192    91.93926   397.85607
    99  O   6.0   -0.26    2.07    1.83   101.36057    93.04343   398.86719
   100  H   1.0    0.12    1.08    1.44    96.41229    89.80731   393.81249
   101  H   1.0    0.04    1.11    1.45    98.72801    94.43084   394.95903
   102  H   1.0    0.06    1.07    1.44    97.70578    92.54541   398.85192
   103  H   1.0    0.06    1.07    1.44    99.26866    90.06117   397.99890
   104  H   1.0    0.14    1.07    1.44   102.13924    91.88742   399.80736
   105  N   5.0   -0.09    3.73    2.31   102.32286    92.99400   392.13995
   106  C   4.0    0.04    4.77    4.82   104.10494    92.07686   390.32962
   107  C   4.0    0.16    3.48    3.11   106.35519    90.67628   391.34193
   108  O   6.0   -0.29    1.28    1.80   107.06291    90.94894   393.49894
   109  C   4.0   -0.05    4.60    4.66   105.05068    94.41961   389.06006
   110  C   4.0   -0.05    4.51    4.55   104.55116    96.41471   390.67445
   111  C   4.0   -0.01    4.53    4.58   103.01826    95.50432   392.86168
   112  H   1.0    0.07    1.11    1.45   103.16626    90.90744   389.12859
   113  H   1.0    0.05    1.11    1.44   106.84833    94.27308   388.60590
   114  H   1.0    0.05    1.08    1.44   104.08179    94.66630   387.37670
   115  H   1.0    0.04    1.10    1.44   106.18525    97.13693   391.27124
   116  H   1.0    0.04    1.10    1.44   103.59983    97.78813   389.78580
   117  H   1.0    0.05    1.07    1.44   104.06344    95.54109   394.48648
   118  H   1.0    0.03    1.07    1.44   101.51185    96.60825   393.19139
   119  N   5.0   -0.14    3.52    2.09   107.59962    89.17700   389.80281
   120  C   4.0    0.04    4.46    4.48   109.69108    87.57025   390.53489
   121  C   4.0    0.17    3.54    3.13   112.17426    89.01507   390.38008
   122  O   6.0   -0.31    1.30    1.80   112.46909    90.80753   388.91029
   123  C   4.0    0.03    4.24    4.08   109.92065    85.19825   388.96596
   124  O   6.0   -0.27    2.12    1.84   111.54324    85.56696   386.78840
   125  H   1.0    0.12    1.14    1.45   107.20973    89.03766   388.09576
   126  H   1.0    0.05    1.13    1.45   109.35450    87.05794   392.31503
   127  H   1.0    0.04    1.06    1.44   110.62225    83.80400   390.00040
   128  H   1.0    0.06    1.06    1.44   108.21251    84.68071   388.33968
   129  H   1.0    0.13    1.06    1.44   111.67423    84.12840   385.95969
   130  N   5.0   -0.17    3.54    2.11   113.99912    88.19484   391.88044
   131  C   4.0    0.03    4.53    4.58   116.40675    89.40017   391.81132
   132  C   4.0    0.16    3.49    3.11   117.59136    89.28497   389.24093
   133  O   6.0   -0.30    1.26    1.80   118.71199    91.12986   388.36686
   134  C   4.0   -0.06    4.34    4.27   118.08334    88.36156   393.88888
   135  C   4.0   -0.06    4.21    4.02   117.48012    89.26028   396.67681
   136  C   4.0   -0.05    4.22    4.05   116.85516    87.06620   398.44727
   137  C   4.0   -0.04    4.23    4.06   114.13470    85.98989   397.98497
   138  N   5.0   -0.15    4.11    3.18   113.59992    83.70111   399.43159
   139  H   1.0    0.08    1.13    1.45   113.85133    86.90020   392.98320
   140  H   1.0    0.05    1.13    1.45   116.21792    91.25480   392.21325
   141  H   1.0    0.05    1.09    1.44   117.97000    86.47789   393.87629
   142  H   1.0    0.05    1.08    1.44   119.89171    88.82734   393.54620
   143  H   1.0    0.05    1.08    1.44   118.91968    90.19401   397.35016
   144  H   1.0    0.05    1.08    1.44   115.97314    90.37949   396.57410
   145  H   1.0    0.05    1.08    1.44   118.06216    85.66192   398.12231
   146  H   1.0    0.05    1.08    1.44   116.98424    87.62358   400.19680
   147  H   1.0    0.05    1.07    1.44   112.90429    87.32214   398.50021
   148  H   1.0    0.04    1.08    1.44   113.92287    85.61623   396.18244
   149  H   1.0    0.07    1.08    1.44   111.98172    83.14452   399.18588
   150  H   1.0    0.07    1.08    1.44   114.69795    82.41748   399.01551
   151  H   1.0    0.07    1.07    1.44   113.79448    83.99236   401.16847
   152  N   5.0   -0.15    3.49    2.07   117.36505    87.13989   387.95507
   153  C   4.0    0.03    4.38    4.35   118.17875    86.82625   385.28973
   154  C   4.0    0.16    3.42    3.08   117.06686    88.95815   383.66119
   155  O   6.0   -0.30    1.22    1.80   118.47379    90.29634   382.28752
   156  C   4.0   -0.06    4.28    4.16   117.44168    84.16182   384.31839
   157  C   4.0   -0.05    4.20    4.00   117.70670    83.35491   381.48072
   158  C   4.0   -0.05    4.23    4.06   120.35060    83.40191   380.36304
   159  C   4.0   -0.03    4.24    4.07   122.16130    81.34617   381.28625
   160  N   5.0   -0.15    4.10    3.15   121.87855    78.81998   380.13617
   161  H   1.0    0.09    1.12    1.45   116.68892    85.69681   388.58344
   162  H   1.0    0.06    1.11    1.45   120.03914    86.98639   385.16616
   163  H   1.0    0.05    1.08    1.44   118.48046    82.94735   385.29729
   164  H   1.0    0.05    1.09    1.44   115.63869    83.93047   384.76539
   165  H   1.0    0.05    1.09    1.44   117.07415    81.62930   381.30403
   166  H   1.0    0.05    1.08    1.44   116.64886    84.53344   380.46459
   167  H   1.0    0.05    1.08    1.44   120.24195    83.25176   378.49691
   168  H   1.0    0.05    1.08    1.44   121.15541    85.08684   380.75971
   169  H   1.0    0.05    1.07    1.44   123.93251    81.92380   380.97799
   170  H   1.0    0.05    1.08    1.44   121.90945    81.15832   383.13295
   171  H   1.0    0.08    1.07    1.44   123.09893    77.73518   380.71797
   172  H   1.0    0.08    1.08    1.44   120.32449    78.16453   380.48415
   173  H   1.0    0.08    1.08    1.44   122.05086    78.93446   378.39561
   174  N   5.0   -0.15    3.51    2.08   114.55210    89.37870   383.88303
   175  C   4.0    0.03    4.44    4.45   113.14860    91.12075   382.33132
   176  C   4.0    0.15    3.40    3.08   113.89726    93.88545   382.82375
   177  O   6.0   -0.31    1.21    1.80   113.91532    95.46041   381.05034
   178  C   4.0   -0.04    4.39    4.37   110.31026    90.74215   382.70697
   179  C   4.0   -0.03    4.28    4.15   109.28800    88.15677   382.07180
   180  C   4.0    0.26    3.13    3.03   106.52826    87.79929   382.87403
   181  O   6.0   -0.30    1.24    1.80   105.76113    89.11387   384.65161
   182  O   6.0   -0.26    1.16    1.80   105.16291    86.22334   381.73927
   183  H   1.0    0.11    1.14    1.45   113.57170    88.59301   385.06827
   184  H   1.0    0.06    1.12    1.45   113.58170    90.76598   380.52371
   185  H   1.0    0.07    1.09    1.44   109.92674    91.07108   384.51167
   186  H   1.0    0.06    1.09    1.44   109.40053    92.01456   381.65637
   187  H   1.0    0.06    1.08    1.44   109.35894    87.92097   380.18577
   188  H   1.0    0.06    1.10    1.44   110.30583    86.85139   382.88405
   189  N   5.0   -0.15    3.52    2.09   114.42198    94.51765   385.24988
   190  C   4.0    0.03    4.58    4.64   115.25867    96.99170   386.07369
   191  C   4.0    0.16    3.51    3.12   117.75527    97.63197   384.90927
   192  O   6.0   -0.32    1.31    1.80   118.14057    99.65609   383.81263
   193  C   4.0   -0.03    4.49    4.52   115.30962    97.22081   388.95149
   194  C   4.0   -0.05    4.37    4.33   112.60028    96.85503   389.95424
   195  C   4.0   -0.09    4.27    4.14   116.42816    99.63718   389.82053
   196  C   4.0   -0.08    4.19    3.99   112.44284    96.33900   392.59943
   197  H   1.0    0.12    1.13    1.45   114.29355    93.37847   386.55626
   198  H   1.0    0.05    1.12    1.45   113.97045    98.23176   385.40588
   199  H   1.0    0.05    1.13    1.45   116.38655    95.84804   389.62805
   200  H   1.0    0.03    1.10    1.44   111.64662    98.44892   389.63990
   201  H   1.0    0.06    1.10    1.44   111.77922    95.46098   389.02369
   202  H   1.0    0.04    1.06    1.44   116.36620    99.76189   391.64961
   203  H   1.0    0.04    1.06    1.44   118.20512    99.74907   389.21337
   204  H   1.0    0.04    1.05    1.44   115.45990   101.07276   389.04656
   205  H   1.0    0.05    1.06    1.44   110.65181    96.14471   393.14099
   206  H   1.0    0.05    1.06    1.44   113.33571    94.70147   392.98405
   207  H   1.0    0.04    1.06    1.44   113.24337    97.68936   393.60318
   208  N   5.0   -0.15    3.46    2.05   119.55511    95.92707   385.10177
   209  C   4.0    0.02    4.36    4.31   121.99943    96.21350   383.90424
   210  C   4.0    0.17    3.39    3.07   121.91664    96.42953   381.09526
   211  O   6.0   -0.27    1.23    1.80   123.29578    97.95983   379.94481
   212  H   1.0    0.11    1.12    1.45   119.39632    94.42452   385.98029
   213  H   1.0    0.05    1.09    1.44   122.80715    97.77284   384.59772
   214  H   1.0    0.05    1.08    1.44   123.11525    94.76038   384.36219
   215  N   5.0   -0.14    3.51    2.08   120.27745    94.92903   379.90875
   216  C   4.0    0.04    4.42    4.41   119.76895    95.14476   377.18280
   217  C   4.0    0.16    3.45    3.10   119.11999    97.81705   376.47879
   218  O   6.0   -0.24    1.18    1.80   120.26789    98.98821   374.71692
   219  C   4.0   -0.07    4.22    4.04   117.73306    93.31176   376.37471
   220  H   1.0    0.12    1.14    1.45   119.36177    93.69385   380.65508
   221  H   1.0    0.07    1.12    1.45   121.36926    94.68809   376.26522
   222  H   1.0    0.06    1.05    1.44   117.48035    93.43469   374.52652
   223  H   1.0    0.06    1.05    1.44   118.24924    91.55740   376.80560
   224  H   1.0    0.06    1.05    1.44   116.15011    93.72643   377.25706
   225  N   5.0   -0.15    3.48    2.07   117.20269    98.86501   377.85714
   226  C   4.0    0.04    4.49    4.53   116.43829   101.51035   377.69358
   227  C   4.0    0.16    3.51    3.12   118.69489   103.27443   378.06749
   228  O   6.0   -0.25    1.22    1.80   119.40304   104.82314   376.38422
   229  C   4.0   -0.05    4.53    4.58   114.36946   102.15104   379.41737
   230  C   4.0   -0.04    4.24    4.08   113.50353   104.79251   379.22078
   231  S   6.0   -0.05    2.68    3.10   111.21482   105.68453   381.59169
   232  C   4.0   -0.08    4.02    3.66   113.30103   105.90198   384.09645
   233  H   1.0    0.12    1.13    1.45   116.29168    97.99434   379.00143
   234  H   1.0    0.06    1.12    1.45   115.82733   101.73288   375.87685
   235  H   1.0    0.05    1.10    1.44   112.89872   101.01681   379.11858
   236  H   1.0    0.06    1.12    1.45   114.96289   101.89461   381.19203
   237  H   1.0    0.05    1.15    1.45   114.93936   105.95943   379.33346
   238  H   1.0    0.05    1.13    1.45   112.66023   105.03713   377.52383
   239  H   1.0    0.04    1.11    1.44   112.33913   106.40960   385.67382
   240  H   1.0    0.04    1.11    1.45   114.06507   104.21880   384.43380
   241  H   1.0    0.04    1.11    1.45   114.60877   107.14985   383.77040
   242  N   5.0   -0.15    3.52    2.09   119.87791   103.09286   380.29476
   243  C   4.0    0.04    4.48    4.51   122.01076   104.68775   380.89423
   244  C   4.0    0.11    3.28    3.05   124.03050   104.61145   378.86044
   245  O   6.0   -0.24    1.11    1.80   125.01281   106.61540   378.12307
   246  C   4.0   -0.05    4.57    4.62   123.06766   104.14975   383.40094
   247  C   4.0   -0.03    4.37    4.32   121.76601   105.39104   385.52875
   248  C   4.0   -0.09    4.22    4.03   122.95707   104.36471   388.00498
   249  C   4.0   -0.08    4.28    4.16   121.95722   108.16569   385.32852
   250  H   1.0    0.12    1.16    1.45   119.46210   101.97980   381.50929
   251  H   1.0    0.06    1.14    1.45   121.31823   106.45662   380.89568
   252  H   1.0    0.06    1.10    1.44   123.05072   102.28322   383.67656
   253  H   1.0    0.06    1.11    1.44   124.88514   104.71193   383.43309
   254  H   1.0    0.04    1.12    1.45   119.91908   105.00350   385.59070
   255  H   1.0    0.04    1.04    1.43   122.08863   105.13063   389.48323
   256  H   1.0    0.04    1.05    1.44   122.73414   102.50631   388.06721
   257  H   1.0    0.05    1.05    1.44   124.75340   104.79429   388.03480
   258  H   1.0    0.04    1.05    1.44   121.22147   108.98820   386.86132
   259  H   1.0    0.05    1.06    1.44   123.76123   108.65819   385.20319
   260  H   1.0    0.05    1.06    1.44   121.04079   108.75207   383.82426
   261  N   5.0   -0.21    3.23    1.96   121.32478   119.75915   388.72638
   262  C   4.0    0.03    4.35    4.29   118.76580   118.86447   388.27502
   263  C   4.0    0.09    3.27    3.05   117.06936   119.50182   390.44658
   264  O   6.0   -0.30    1.17    1.80   114.82911   119.24051   390.23822
   265  C   4.0   -0.05    4.71    4.77   118.69838   116.05986   387.72710
   266  C   4.0   -0.03    4.57    4.63   116.26869   114.93515   387.31977
   267  C   4.0   -0.06    4.67    4.74   116.46506   112.95073   385.60973
   268  C   4.0   -0.06    4.71    4.77   115.45310   113.63654   389.31722
   269  H   1.0    0.10    1.07    1.44   122.40393   118.49356   389.14805
   270  H   1.0    0.06    1.12    1.45   118.10054   119.73581   386.73683
   271  H   1.0    0.04    1.11    1.45   119.77588   115.72935   386.20914
   272  H   1.0    0.04    1.11    1.45   119.53611   115.19008   389.20554
   273  H   1.0    0.06    1.17    1.46   115.09622   116.33100   386.85827
   274  H   1.0    0.03    1.08    1.44   114.82642   112.08259   385.31272
   275  H   1.0    0.04    1.06    1.44   117.02469   113.63985   383.87830
   276  H   1.0    0.03    1.08    1.44   117.74529   111.69675   386.11846
   277  H   1.0    0.03    1.09    1.44   113.74625   112.89814   389.06377
   278  H   1.0    0.03    1.10    1.44   116.63675   112.32157   389.85926
   279  H   1.0    0.05    1.07    1.44   115.25440   114.85165   390.85943
   280  N   5.0   -0.21    3.16    1.95   103.84001    95.83281   367.57950
   281  C   4.0    0.01    4.24    4.07   104.30761    94.73676   370.04426
   282  C   4.0    0.16    3.37    3.07   105.41678    96.59014   371.93557
   283  O   6.0   -0.29    1.27    1.80   104.66391    96.67059   374.10405
   284  H   1.0    0.12    1.07    1.44   104.80333    95.17187   366.33488
   285  H   1.0    0.05    1.08    1.44   102.68907    94.07873   370.74835
   286  H   1.0    0.06    1.08    1.44   105.48804    93.27507   369.88615
   287  N   5.0   -0.15    3.53    2.10   107.23668    98.07440   371.17391
   288  C   4.0    0.04    4.38    4.34   108.33809    99.99113   372.73701
   289  C   4.0    0.10    3.22    3.04   106.41905   102.06112   373.40308
   290  O   6.0   -0.31    1.16    1.80   106.14440   102.75461   375.51007
   291  C   4.0   -0.05    4.31    4.22   110.78568   101.00546   371.48990
   292  C   4.0   -0.03    4.23    4.07   112.81023    99.00793   370.68288
   293  C   4.0    0.25    3.14    3.03   112.38284    97.87636   368.09196
   294  O   6.0   -0.25    1.17    1.80   110.95669    98.87892   366.43194
   295  O   6.0   -0.25    1.19    1.80   113.38620    95.79258   367.73684
   296  H   1.0    0.11    1.13    1.45   107.92975    98.00062   369.55689
   297  H   1.0    0.06    1.13    1.45   108.85708    99.22944   374.36655
   298  H   1.0    0.07    1.08    1.44   110.28399   101.97309   369.95803
   299  H   1.0    0.05    1.08    1.44   111.60326   102.18269   372.70277
   300  H   1.0    0.07    1.09    1.44   114.45142    99.79183   370.69292
   301  H   1.0    0.06    1.09    1.44   112.71616    97.60362   371.92157
   302  N   5.0   -0.21    3.26    1.97   100.65585   101.16383   374.17776
   303  C   4.0    0.03    4.38    4.34    98.95352   100.06540   376.04066
   304  C   4.0    0.15    3.40    3.08   100.06815   100.20697   378.74721
   305  O   6.0   -0.30    1.20    1.80    98.73787   100.92550   380.57041
   306  C   4.0   -0.05    4.39    4.36    98.26760    97.43936   375.35517
   307  C   4.0   -0.05    4.25    4.10    96.21719    97.16787   373.35464
   308  C   4.0   -0.05    4.24    4.08    96.27994    94.53830   371.98823
   309  C   4.0   -0.03    4.26    4.13    93.67502    93.48863   371.48634
   310  N   5.0   -0.15    4.13    3.22    93.59943    91.52318   369.55203
   311  H   1.0    0.11    1.07    1.44   101.28179   100.03460   373.05897
   312  H   1.0    0.05    1.12    1.45    97.37694   101.10487   376.08728
   313  H   1.0    0.06    1.09    1.44    99.81491    96.55761   374.70557
   314  H   1.0    0.05    1.09    1.44    97.68739    96.50949   376.89549
   315  H   1.0    0.05    1.08    1.44    94.54093    97.36399   374.15113
   316  H   1.0    0.05    1.08    1.44    96.45831    98.48573   372.05664
   317  H   1.0    0.05    1.08    1.44    97.19287    94.68725   370.38484
   318  H   1.0    0.05    1.08    1.44    97.19214    93.31077   373.11110
   319  H   1.0    0.05    1.08    1.44    92.96453    92.77617   373.07333
   320  H   1.0    0.05    1.08    1.44    92.56102    94.91011   370.92891
   321  H   1.0    0.08    1.08    1.44    91.97527    90.98380   369.26384
   322  H   1.0    0.08    1.08    1.44    94.23320    92.14167   368.04207
   323  H   1.0    0.08    1.08    1.44    94.56211    90.16669   370.02355
   324  N   5.0   -0.14    3.49    2.07   102.49233    99.56358   378.99811
   325  C   4.0    0.04    4.51    4.56   104.01353    99.88951   381.22359
   326  C   4.0    0.15    3.51    3.12   103.95518   102.63974   382.15354
   327  O   6.0   -0.32    1.29    1.80   103.50247   103.19926   384.44963
   328  C   4.0    0.05    4.35    4.30   106.75995    99.05148   380.88074
   329  O   6.0   -0.26    2.16    1.85   107.03692    96.65714   379.68266
   330  C   4.0   -0.08    4.25    4.11   108.04996    98.84459   383.32112
   331  H   1.0    0.12    1.12    1.45   103.43016    98.86774   377.68224
   332  H   1.0    0.06    1.12    1.45   103.19646    98.79084   382.55024
   333  H   1.0    0.05    1.11    1.45   107.52975   100.38314   379.79600
   334  H   1.0    0.15    1.08    1.44   108.60001    96.28420   379.49477
   335  H   1.0    0.05    1.05    1.44   109.85268    98.34233   383.10982
   336  H   1.0    0.04    1.05    1.44   108.04409   100.49104   384.25972
   337  H   1.0    0.05    1.05    1.44   107.23121    97.57169   384.43218
   338  N   5.0   -0.16    3.57    2.13   104.49728   104.40072   380.55966
   339  C   4.0    0.04    4.63    4.69   104.60839   107.01673   381.26748
   340  C   4.0    0.17    3.59    3.16   102.17409   107.96193   382.33151
   341  O   6.0   -0.31    1.31    1.80   102.17005   109.42428   384.13540
   342  C   4.0   -0.04    4.51    4.55   105.33371   108.63165   379.15988
   343  C   4.0   -0.01    3.90    3.46   105.00676   111.33028   379.56395
   344  C   4.0    0.00    3.73    3.27   103.59646   112.99343   378.16011
   345  C   4.0    0.02    4.06    3.72   106.16925   112.77614   381.39757
   346  N   5.0   -0.12    3.59    2.15   103.93645   115.30999   378.97967
   347  C   4.0    0.04    4.07    3.74   105.46961   115.28546   381.03539
   348  C   4.0   -0.05    3.54    3.13   107.86554   112.26602   383.24993
   349  C   4.0   -0.05    3.50    3.11   106.28519   117.21485   382.56611
   350  C   4.0   -0.05    3.48    3.11   108.74499   114.15683   384.74625
   351  C   4.0   -0.04    3.50    3.11   107.87853   116.61583   384.41813
   352  H   1.0    0.11    1.14    1.45   104.81318   104.10828   378.86123
   353  H   1.0    0.05    1.14    1.45   105.92224   107.14438   382.61496
   354  H   1.0    0.05    1.10    1.44   107.14540   108.33599   378.69139
   355  H   1.0    0.05    1.10    1.44   104.28910   108.15586   377.62434
   356  H   1.0    0.06    1.07    1.44   102.49969   112.49970   376.75260
   357  H   1.0    0.09    1.09    1.44   103.16086   116.74359   378.33923
   358  H   1.0    0.05    1.09    1.44   108.46898   110.53115   383.53949
   359  H   1.0    0.06    1.09    1.44   105.72216   118.94629   382.33062
   360  H   1.0    0.05    1.08    1.44   109.94811   113.79868   386.09148
   361  H   1.0    0.06    1.09    1.44   108.49426   117.92725   385.56927
   362  N   5.0   -0.15    3.43    2.04   100.04945   107.17093   381.23087
   363  C   4.0    0.02    4.31    4.21    97.57559   107.82200   382.15135
   364  C   4.0    0.16    3.34    3.06    97.06621   106.91092   384.88353
   365  O   6.0   -0.27    1.20    1.80    96.09086   108.39241   386.45472
   366  H   1.0    0.10    1.11    1.45   100.00122   106.15903   379.82686
   367  H   1.0    0.06    1.09    1.44    97.37342   109.67146   382.14912
   368  H   1.0    0.05    1.08    1.44    96.24038   107.06560   381.07773
   369  N   5.0   -0.14    3.46    2.05    97.68643   104.51046   385.45615
   370  C   4.0    0.04    4.48    4.51    97.77616   103.55010   388.02417
   371  C   4.0    0.16    3.46    3.10    99.50458   105.17908   389.69932
   372  O   6.0   -0.28    1.19    1.80    98.72960   106.05393   391.83566
   373  C   4.0   -0.05    4.58    4.64    98.61657   100.86472   388.22520
   374  C   4.0   -0.02    4.42    4.41    96.74871    98.97962   387.42137
   375  C   4.0   -0.07    4.35    4.29    98.19245    96.66110   386.82874
   376  C   4.0   -0.07    4.32    4.24    94.82682    98.29189   389.25426
   377  H   1.0    0.11    1.12    1.45    98.14180   103.34239   384.27711
   378  H   1.0    0.06    1.12    1.45    95.99811   103.73427   388.65001
   379  H   1.0    0.05    1.12    1.45   100.13909   100.66369   387.16441
   380  H   1.0    0.04    1.11    1.45    99.03584   100.50801   390.00706
   381  H   1.0    0.06    1.14    1.45    95.73486    99.66671   385.95397
   382  H   1.0    0.05    1.05    1.44    97.05619    95.28621   386.15177
   383  H   1.0    0.05    1.05    1.44    99.45182    97.02695   385.41536
   384  H   1.0    0.04    1.06    1.44    99.10737    96.03801   388.28282
   385  H   1.0    0.05    1.05    1.44    93.64503    97.00168   388.57839
   386  H   1.0    0.05    1.06    1.44    95.65950    97.58348   390.79488
   387  H   1.0    0.05    1.05    1.44    93.83684    99.80604   389.76867
   388  N   5.0   -0.16    3.52    2.09   101.92275   105.54178   388.88650
   389  C   4.0    0.04    4.70    4.76   103.74976   106.80621   390.49103
   390  C   4.0    0.16    3.57    3.15   102.93320   109.43430   391.10711
   391  O   6.0   -0.32    1.28    1.80   103.00294   110.16566   393.25800
   392  C   4.0   -0.03    4.50    4.53   106.31918   106.74309   389.37456
   393  C   4.0   -0.09    4.35    4.29   107.94241   108.57887   390.73766
   394  C   4.0   -0.09    4.32    4.24   107.28115   104.16787   389.51730
   395  H   1.0    0.12    1.15    1.45   102.45652   105.05885   387.36371
   396  H   1.0    0.05    1.14    1.45   103.76708   105.82153   392.10180
   397  H   1.0    0.05    1.13    1.45   106.34717   107.25679   387.54545
   398  H   1.0    0.03    1.05    1.44   109.74465   108.42805   390.13885
   399  H   1.0    0.05    1.07    1.44   107.36433   110.31479   390.43514
   400  H   1.0    0.05    1.06    1.44   107.90966   108.20166   392.56796
   401  H   1.0    0.04    1.05    1.44   108.97563   104.03906   388.64593
   402  H   1.0    0.04    1.06    1.44   107.48470   103.64279   391.28053
   403  H   1.0    0.05    1.06    1.44   106.11110   102.98606   388.63421
   404  N   5.0   -0.15    3.51    2.08   102.17731   110.90574   389.16218
   405  C   4.0    0.04    4.39    4.36   101.42642   113.50845   389.45383
   406  C   4.0    0.09    3.30    3.05    99.22768   113.70533   391.22502
   407  O   6.0   -0.27    1.11    1.80    99.06178   115.47029   392.82459
   408  C   4.0   -0.05    4.50    4.54   100.84921   114.87024   387.00706
   409  C   4.0   -0.03    4.43    4.43    99.95589   117.63928   387.22365
   410  C   4.0   -0.06    4.47    4.49   101.58383   119.36308   388.35032
   411  C   4.0   -0.06    4.48    4.50    99.66358   118.67889   384.78844
   412  H   1.0    0.12    1.15    1.45   102.10504   110.37739   387.51416
   413  H   1.0    0.05    1.12    1.45   102.94126   114.43553   390.21408
   414  H   1.0    0.05    1.09    1.44   102.36606   114.86004   385.91750
   415  H   1.0    0.06    1.09    1.44    99.47551   113.90231   386.14989
   416  H   1.0    0.06    1.15    1.45    98.41910   117.44572   388.28209
   417  H   1.0    0.06    1.08    1.44   100.86359   121.04784   388.41834
   418  H   1.0    0.05    1.05    1.44   101.92273   118.80877   390.20172
   419  H   1.0    0.04    1.07    1.44   103.25423   119.38090   387.51526
   420  H   1.0    0.05    1.07    1.44    99.09087   120.46480   384.85976
   421  H   1.0    0.04    1.07    1.44   101.20208   118.55937   383.75169
   422  H   1.0    0.05    1.05    1.44    98.26825   117.72190   383.80191
   423  N   5.0   -0.19    3.25    1.97    98.07612   110.46046   396.10723
   424  C   4.0    0.04    4.36    4.31    99.27206   110.38052   398.59110
   425  C   4.0    0.17    3.53    3.13   100.51879   112.86521   399.18172
   426  O   6.0   -0.25    1.34    1.80    99.86684   114.06115   401.01762
   427  C   4.0   -0.08    4.25    4.10   101.15649   108.28857   398.80366
   428  H   1.0    0.13    1.08    1.44    98.81350   109.37652   394.99801
   429  H   1.0    0.06    1.11    1.45    97.84439   110.06345   399.82450
   430  H   1.0    0.05    1.05    1.44   101.81953   108.20552   400.54505
   431  H   1.0    0.05    1.05    1.44   100.29969   106.62400   398.42324
   432  H   1.0    0.06    1.06    1.44   102.52300   108.54509   397.59483
   433  N   5.0   -0.15    3.57    2.13   102.33811   113.67080   397.80810
   434  C   4.0    0.04    4.47    4.50   103.47480   116.08717   398.19439
   435  C   4.0    0.11    3.28    3.05   101.53596   118.17355   398.90605
   436  O   6.0   -0.23    1.09    1.80   101.89324   119.58972   400.81670
   437  C   4.0   -0.05    4.57    4.63   105.00428   116.96929   396.01906
   438  C   4.0   -0.03    4.42    4.41   106.98411   115.09662   395.13733
   439  C   4.0   -0.08    4.26    4.13   108.10349   116.07195   392.67529
   440  C   4.0   -0.08    4.38    4.34   108.80285   114.90414   397.03831
   441  H   1.0    0.11    1.14    1.45   102.92618   112.83914   396.40633
   442  H   1.0    0.06    1.13    1.45   104.59342   115.89467   399.70782
   443  H   1.0    0.05    1.09    1.44   103.80713   117.26203   394.54236
   444  H   1.0    0.05    1.10    1.44   105.84791   118.57594   396.39647
   445  H   1.0    0.05    1.14    1.45   106.28928   113.39612   394.77678
   446  H   1.0    0.04    1.05    1.44   109.38321   114.86058   392.04959
   447  H   1.0    0.04    1.05    1.44   106.74383   116.24565   391.39225
   448  H   1.0    0.06    1.05    1.44   108.89349   117.72880   392.97139
   449  H   1.0    0.04    1.06    1.44   110.23239   113.77674   396.49340
   450  H   1.0    0.05    1.07    1.44   109.53124   116.59022   397.44852
   451  H   1.0    0.05    1.07    1.44   108.05747   114.17654   398.59702
   452  O   6.0   -0.31    1.99    1.83   108.10318    92.13074   398.72942
   453  H   1.0    0.15    1.01    1.43   109.56446    92.77190   398.17428
   454  H   1.0    0.15    1.01    1.43   106.98828    93.23964   398.10756
   455  H   1.0    0.09    1.07    1.44   123.53083   103.12867   394.91897
   456  H   1.0    0.06    1.04    1.43   122.32918    98.82131   399.60403
   457  H   1.0    0.10    1.08    1.44   116.53513   105.66283   401.71983
   458  H   1.0    0.07    1.04    1.43   112.09913    98.71846   404.58650
   459  H   1.0    0.10    1.08    1.44   105.37375   103.75944   402.29833
   460  H   1.0    0.07    1.04    1.43   100.94119    99.17913   408.98633
   461  H   1.0    0.10    1.07    1.44    96.63233   104.23299   402.62274
   462  H   1.0    0.07    1.04    1.43    91.25486   100.28755   401.34254
   463  H   1.0    0.11    1.08    1.44    95.12868    91.59518   395.48810
   464  H   1.0    0.09    1.04    1.43   124.56468   102.95651   378.12092
   465  H   1.0    0.11    1.07    1.44   121.92185   120.50507   387.31937
   466  H   1.0    0.07    1.05    1.44   117.80587   120.14325   392.06435
   467  H   1.0    0.10    1.08    1.44   102.21500    95.58110   367.14526
   468  H   1.0    0.06    1.05    1.44   105.37121   102.85107   372.04328
   469  H   1.0    0.10    1.08    1.44    99.82911   102.35100   373.28351
   470  H   1.0    0.08    1.05    1.44    97.84371   112.42025   391.15965
   471  H   1.0    0.11    1.07    1.44    96.43638   110.03305   396.25262
   472  H   1.0    0.08    1.04    1.43    99.98284   118.41742   397.85752

  Z AO/shell   Hii/eV     exponent
  1     Wed Apr 25 08:07:45 CEST 2018   EN: 2.200 GM2: 0.406  GM3: 0.0800  RAES: 1.40
     1s    -10.707211    1.230000
  6     Wed Apr 25 08:07:45 CEST 2018   EN: 2.550 GM2: 0.538  GM3: 0.1500  RAES: 3.00
     2s    -13.970922    2.096432
     2p    -10.063292    1.800000
  7     Wed Apr 25 08:07:45 CEST 2018   EN: 3.040 GM2: 0.461  GM3:-0.0640  RAES: 1.90
     2s    -16.686243    2.339881
     2p    -12.523956    2.014332
  8     Wed Apr 25 08:07:45 CEST 2018   EN: 3.440 GM2: 0.452  GM3:-0.0517  RAES: 1.80
     2s    -20.229985    2.439742
     2p    -15.503117    2.137023
 16     Tue Apr 24 11:44:34 CEST 2018   EN: 2.580 GM2: 0.340  GM3:-0.0502  RAES: 3.10
     3s    -20.029654    1.981333
     3p    -11.377694    2.025643
     3d     -0.420282    1.702555
 no old-style atom pair restraining (fixing) potential

molecular fragmentation (1/2 indicates fragments):
111111111111111111122222222222222222222222222222222222222222222222222222
222222222222222222222222222222222222222222222222222222222222222222222222
222222222222222222222222222222222222222222222222222222222222222222222222
222222222222222222222222222222222222222222222222222222222222222222222222
222222222222222222222222222222222222222222222222222222222222222222222222
222222222222222222222222222222222222222222222222222222222222222222222222
2222222222222222222222112222222222222222
# atoms in fragment 1/2:    21   451
 fragment masses (1/2) :      115.17     2994.78
CMA distance (Bohr)    :  16.066
constraining FC (au)   :  0.0500
           ------------------------------------------------- 
          |        Self-Consistent Charge Iterations        |
           ------------------------------------------------- 

 Ncao       : 1132
 Nao        : 1129
 Nshell     : 689
 Nel        : 1228
 T(el)      :   500.0
 intcut     :    35.0
 scfconv/Eh :  0.100E-06
   qconv/e  :  0.100E-04
 intneglect :  0.100E-08
 broydamp   :      0.400
 iter      E             dE          RMSdq      gap      omega  full diag
   1   -701.8650808 -0.701865E+03  0.455E+00    2.18       0.0  T
   2   -703.3857525 -0.152067E+01  0.218E+00    1.03       1.0  T
   3   -703.4628997 -0.771472E-01  0.124E+00    1.77       1.0  T
   4   -703.5955872 -0.132688E+00  0.283E-01    1.18       1.0  T
   5   -703.6053408 -0.975357E-02  0.139E-01    1.41       1.0  T
   6   -703.6069398 -0.159903E-02  0.621E-02    1.30       1.0  T
   7   -703.6073392 -0.399389E-03  0.278E-02    1.33       1.0  T
   8   -703.6073837 -0.445118E-04  0.138E-02    1.31       1.0  T
   9   -703.6074077 -0.239264E-04  0.628E-03    1.32       1.0  T
  10   -703.6074116 -0.397908E-05  0.298E-03    1.32       1.5  T
  11   -703.6074124 -0.791228E-06  0.138E-03    1.32       3.3  T
  12   -703.6074126 -0.160986E-06  0.679E-04    1.32       6.8  T
  13   -703.6074126 -0.373406E-07  0.303E-04    1.32      15.2  T
  14   -703.6074126 -0.456748E-08  0.148E-04    1.32      31.1  T
  15   -703.6074126 -0.192119E-08  0.615E-05    1.32      74.8  T
  16   -703.6074126 -0.328782E-09  0.309E-05    1.32     148.9  T
speedup  1.94
cpu  time for SCC   24.48 s
wall time for SCC   12.59 s

   *** convergence criteria satisfied after 16 iterations ***

          eigenvalues
 #    :         602        603        604        605        606        607        608        609
 occ. :        2.000      2.000      2.000      2.000      2.000      2.000      2.000      2.000
 eps  :       -10.103    -10.075    -10.053    -10.045    -10.003     -9.941     -9.927     -9.875
 #    :         610        611        612        613        614        615        616        617
 occ. :        2.000      2.000      2.000      2.000      2.000      0.000      0.000      0.000
 eps  :        -9.818     -9.778     -9.777     -9.632     -9.608     -8.287     -8.006     -7.986
 #    :         618        619        620        621        622        623        624        625
 occ. :        0.000      0.000      0.000      0.000      0.000      0.000      0.000      0.000
 eps  :        -7.932     -7.914     -7.841     -7.707     -7.675     -7.195     -6.885     -6.863


   #   Z            q   n(s)   n(p)   n(d)      C6AA      α(0)
   1   7 N     -0.413  1.294  4.118  0.000    30.730     8.233
   2   6 C      0.023  1.043  2.935  0.000    20.195     6.399
   3   6 C      0.190  1.102  2.708  0.000    23.936     8.012
   4   8 O     -0.372  1.746  4.626  0.000    21.131     6.163
   5   6 C     -0.032  1.039  2.992  0.000    21.096     6.531
   6   6 C     -0.079  1.004  3.075  0.000    21.991     6.674
   7   6 C     -0.153  0.988  3.165  0.000    23.474     6.902
   8   6 C     -0.144  0.985  3.159  0.000    23.316     6.881
   9   1 H      0.176  0.824  0.000  0.000     1.237     1.742
  10   1 H      0.071  0.929  0.000  0.000     2.079     2.255
  11   1 H      0.053  0.947  0.000  0.000     2.281     2.362
  12   1 H      0.045  0.955  0.000  0.000     2.389     2.417
  13   1 H      0.044  0.956  0.000  0.000     2.390     2.417
  14   1 H      0.065  0.935  0.000  0.000     2.137     2.286
  15   1 H      0.064  0.936  0.000  0.000     2.148     2.292
  16   1 H      0.067  0.933  0.000  0.000     2.113     2.273
  17   1 H      0.042  0.958  0.000  0.000     2.422     2.434
  18   1 H      0.046  0.954  0.000  0.000     2.371     2.408
  19   1 H      0.063  0.937  0.000  0.000     2.166     2.302
  20   7 N     -0.411  1.286  4.124  0.000    30.667     8.225
  21   6 C      0.025  1.034  2.941  0.000    20.143     6.389
  22   6 C      0.262  1.054  2.684  0.000    22.585     7.782
  23   8 O     -0.529  1.758  4.772  0.000    24.445     6.629
  24   6 C     -0.041  1.045  2.996  0.000    21.250     6.554
  25   6 C     -0.084  1.003  3.080  0.000    22.074     6.686
  26   6 C     -0.154  0.991  3.163  0.000    23.519     6.912
  27   6 C     -0.145  0.985  3.160  0.000    23.318     6.880
  28   1 H      0.179  0.821  0.000  0.000     1.217     1.728
  29   1 H      0.041  0.959  0.000  0.000     2.440     2.442
  30   1 H      0.058  0.942  0.000  0.000     2.222     2.331
  31   1 H      0.045  0.955  0.000  0.000     2.381     2.413
  32   1 H      0.049  0.951  0.000  0.000     2.331     2.387
  33   1 H      0.074  0.926  0.000  0.000     2.039     2.233
  34   1 H      0.062  0.938  0.000  0.000     2.180     2.309
  35   1 H      0.041  0.959  0.000  0.000     2.434     2.439
  36   1 H      0.036  0.964  0.000  0.000     2.507     2.476
  37   1 H      0.053  0.947  0.000  0.000     2.280     2.361
  38   1 H      0.064  0.936  0.000  0.000     2.154     2.295
  39   7 N     -0.168  1.217  3.951  0.000    24.631     7.371
  40   6 C      0.007  1.040  2.953  0.000    20.457     6.439
  41   6 C      0.199  1.089  2.712  0.000    23.759     7.982
  42   8 O     -0.346  1.742  4.604  0.000    20.636     6.091
  43   6 C      0.053  1.000  2.947  0.000    19.851     6.373
  44   8 O     -0.457  1.667  4.789  0.000    21.974     6.328
  45   1 H      0.234  0.766  0.000  0.000     0.949     1.526
  46   1 H      0.117  0.883  0.000  0.000     1.640     2.003
  47   1 H      0.084  0.916  0.000  0.000     1.939     2.177
  48   1 H      0.060  0.940  0.000  0.000     2.203     2.321
  49   1 H      0.361  0.639  0.000  0.000     0.563     1.178
  50   7 N     -0.417  1.301  4.116  0.000    30.850     8.249
  51   6 C      0.045  1.023  2.932  0.000    19.770     6.321
  52   6 C      0.262  1.042  2.696  0.000    22.586     7.784
  53   8 O     -0.525  1.760  4.765  0.000    24.342     6.615
  54   6 C     -0.000  1.009  2.992  0.000    20.565     6.453
  55  16 S     -0.347  1.895  4.406  0.046   156.244    21.038
  56   1 H      0.200  0.800  0.000  0.000     1.104     1.646
  57   1 H      0.030  0.970  0.000  0.000     2.592     2.518
  58   1 H      0.079  0.921  0.000  0.000     1.991     2.206
  59   1 H      0.067  0.933  0.000  0.000     2.116     2.274
  60   1 H      0.218  0.782  0.000  0.000     1.014     1.574
  61   7 N     -0.158  1.218  3.941  0.000    24.425     7.340
  62   6 C      0.015  1.047  2.938  0.000    20.312     6.415
  63   6 C      0.200  1.089  2.712  0.000    23.748     7.981
  64   8 O     -0.404  1.792  4.612  0.000    21.763     6.255
  65   6 C     -0.105  1.030  3.075  0.000    22.510     6.756
  66   6 C     -0.106  1.031  3.075  0.000    22.523     6.758
  67   6 C     -0.121  1.022  3.099  0.000    22.803     6.798
  68   6 C     -0.076  1.022  3.054  0.000    22.031     6.697
  69   7 N     -0.131  1.158  3.974  0.000    23.834     7.251
  70   1 H      0.243  0.757  0.000  0.000     0.909     1.493
  71   1 H      0.115  0.885  0.000  0.000     1.655     2.011
  72   1 H      0.105  0.895  0.000  0.000     1.742     2.064
  73   1 H      0.083  0.917  0.000  0.000     1.946     2.181
  74   1 H      0.080  0.920  0.000  0.000     1.983     2.202
  75   1 H      0.066  0.934  0.000  0.000     2.129     2.282
  76   1 H      0.107  0.893  0.000  0.000     1.725     2.054
  77   1 H      0.097  0.903  0.000  0.000     1.809     2.103
  78   1 H      0.125  0.875  0.000  0.000     1.570     1.959
  79   1 H      0.124  0.876  0.000  0.000     1.577     1.964
  80   1 H      0.294  0.706  0.000  0.000     0.731     1.339
  81   1 H      0.297  0.703  0.000  0.000     0.722     1.331
  82   1 H      0.298  0.702  0.000  0.000     0.718     1.328
  83   7 N     -0.394  1.305  4.089  0.000    30.194     8.161
  84   6 C      0.051  1.028  2.921  0.000    19.643     6.297
  85   6 C      0.191  1.103  2.705  0.000    23.908     8.008
  86   8 O     -0.375  1.779  4.596  0.000    21.186     6.171
  87   6 C      0.021  0.997  2.982  0.000    20.216     6.400
  88  16 S     -0.367  1.898  4.395  0.074   157.163    21.100
  89   1 H      0.189  0.811  0.000  0.000     1.166     1.691
  90   1 H      0.062  0.938  0.000  0.000     2.179     2.308
  91   1 H      0.060  0.940  0.000  0.000     2.193     2.315
  92   1 H      0.076  0.924  0.000  0.000     2.015     2.219
  93   1 H      0.201  0.799  0.000  0.000     1.094     1.636
  94   7 N     -0.415  1.311  4.104  0.000    30.786     8.241
  95   6 C      0.022  1.038  2.940  0.000    20.222     6.405
  96   6 C      0.258  1.050  2.693  0.000    22.664     7.797
  97   8 O     -0.525  1.759  4.766  0.000    24.344     6.615
  98   6 C      0.062  1.003  2.935  0.000    19.725     6.357
  99   8 O     -0.490  1.696  4.794  0.000    22.674     6.428
 100   1 H      0.186  0.814  0.000  0.000     1.183     1.703
 101   1 H      0.046  0.954  0.000  0.000     2.374     2.409
 102   1 H      0.041  0.959  0.000  0.000     2.428     2.437
 103   1 H      0.051  0.949  0.000  0.000     2.304     2.374
 104   1 H      0.344  0.656  0.000  0.000     0.602     1.218
 105   7 N     -0.069  1.225  3.844  0.000    22.575     7.057
 106   6 C      0.023  1.032  2.944  0.000    20.128     6.377
 107   6 C      0.273  1.035  2.692  0.000    22.388     7.749
 108   8 O     -0.452  1.703  4.749  0.000    22.741     6.394
 109   6 C     -0.065  0.998  3.067  0.000    21.702     6.623
 110   6 C     -0.086  0.996  3.090  0.000    22.082     6.680
 111   6 C     -0.013  1.014  2.999  0.000    20.802     6.491
 112   1 H      0.061  0.939  0.000  0.000     2.185     2.312
 113   1 H      0.068  0.932  0.000  0.000     2.102     2.267
 114   1 H      0.042  0.958  0.000  0.000     2.428     2.436
 115   1 H      0.087  0.913  0.000  0.000     1.905     2.158
 116   1 H      0.063  0.937  0.000  0.000     2.166     2.301
 117   1 H      0.086  0.914  0.000  0.000     1.915     2.164
 118   1 H      0.049  0.951  0.000  0.000     2.331     2.387
 119   7 N     -0.182  1.214  3.968  0.000    24.947     7.418
 120   6 C      0.003  1.038  2.959  0.000    20.530     6.451
 121   6 C      0.272  1.038  2.690  0.000    22.405     7.753
 122   8 O     -0.491  1.758  4.733  0.000    23.583     6.511
 123   6 C      0.048  1.012  2.940  0.000    19.955     6.393
 124   8 O     -0.502  1.700  4.803  0.000    22.942     6.466
 125   1 H      0.200  0.800  0.000  0.000     1.108     1.649
 126   1 H      0.121  0.879  0.000  0.000     1.604     1.980
 127   1 H      0.100  0.900  0.000  0.000     1.785     2.089
 128   1 H      0.055  0.945  0.000  0.000     2.260     2.351
 129   1 H      0.330  0.670  0.000  0.000     0.636     1.253
 130   7 N     -0.170  1.208  3.962  0.000    24.672     7.377
 131   6 C     -0.004  1.038  2.966  0.000    20.633     6.464
 132   6 C      0.272  1.038  2.690  0.000    22.405     7.751
 133   8 O     -0.505  1.756  4.748  0.000    23.884     6.552
 134   6 C     -0.122  1.031  3.091  0.000    22.823     6.800
 135   6 C     -0.117  1.026  3.091  0.000    22.735     6.788
 136   6 C     -0.131  1.030  3.101  0.000    23.013     6.829
 137   6 C     -0.098  1.028  3.070  0.000    22.448     6.761
 138   7 N     -0.133  1.156  3.977  0.000    23.872     7.257
 139   1 H      0.240  0.760  0.000  0.000     0.924     1.506
 140   1 H      0.108  0.892  0.000  0.000     1.714     2.047
 141   1 H      0.100  0.900  0.000  0.000     1.788     2.091
 142   1 H      0.084  0.916  0.000  0.000     1.938     2.177
 143   1 H      0.091  0.909  0.000  0.000     1.869     2.138
 144   1 H      0.089  0.911  0.000  0.000     1.886     2.147
 145   1 H      0.104  0.896  0.000  0.000     1.745     2.066
 146   1 H      0.112  0.888  0.000  0.000     1.677     2.025
 147   1 H      0.138  0.862  0.000  0.000     1.473     1.898
 148   1 H      0.120  0.880  0.000  0.000     1.616     1.988
 149   1 H      0.294  0.706  0.000  0.000     0.732     1.340
 150   1 H      0.293  0.707  0.000  0.000     0.733     1.341
 151   1 H      0.296  0.704  0.000  0.000     0.724     1.332
 152   7 N     -0.188  1.223  3.966  0.000    25.086     7.439
 153   6 C     -0.003  1.053  2.950  0.000    20.639     6.470
 154   6 C      0.265  1.054  2.681  0.000    22.533     7.773
 155   8 O     -0.515  1.770  4.745  0.000    24.124     6.585
 156   6 C     -0.120  1.028  3.092  0.000    22.792     6.796
 157   6 C     -0.102  1.018  3.084  0.000    22.439     6.743
 158   6 C     -0.110  1.019  3.091  0.000    22.591     6.766
 159   6 C     -0.075  1.023  3.052  0.000    22.012     6.694
 160   7 N     -0.140  1.159  3.980  0.000    24.018     7.279
 161   1 H      0.235  0.765  0.000  0.000     0.946     1.523
 162   1 H      0.110  0.890  0.000  0.000     1.692     2.034
 163   1 H      0.109  0.891  0.000  0.000     1.707     2.043
 164   1 H      0.079  0.921  0.000  0.000     1.991     2.207
 165   1 H      0.095  0.905  0.000  0.000     1.828     2.114
 166   1 H      0.053  0.947  0.000  0.000     2.283     2.362
 167   1 H      0.084  0.916  0.000  0.000     1.935     2.175
 168   1 H      0.087  0.913  0.000  0.000     1.909     2.161
 169   1 H      0.126  0.874  0.000  0.000     1.567     1.957
 170   1 H      0.139  0.861  0.000  0.000     1.467     1.894
 171   1 H      0.298  0.702  0.000  0.000     0.718     1.328
 172   1 H      0.292  0.708  0.000  0.000     0.737     1.345
 173   1 H      0.285  0.715  0.000  0.000     0.758     1.364
 174   7 N     -0.184  1.223  3.962  0.000    24.992     7.425
 175   6 C      0.019  1.042  2.938  0.000    20.252     6.408
 176   6 C      0.260  1.058  2.682  0.000    22.626     7.789
 177   8 O     -0.536  1.770  4.766  0.000    24.607     6.651
 178   6 C     -0.070  1.011  3.059  0.000    21.833     6.650
 179   6 C     -0.115  1.021  3.095  0.000    22.697     6.781
 180   6 C      0.371  1.022  2.607  0.000    20.703     7.446
 181   8 O     -0.631  1.758  4.873  0.000    26.901     6.954
 182   8 O     -0.674  1.788  4.887  0.000    28.022     7.097
 183   1 H      0.235  0.765  0.000  0.000     0.942     1.520
 184   1 H      0.069  0.931  0.000  0.000     2.093     2.262
 185   1 H      0.078  0.922  0.000  0.000     1.998     2.210
 186   1 H      0.041  0.959  0.000  0.000     2.440     2.443
 187   1 H      0.025  0.975  0.000  0.000     2.663     2.552
 188   1 H      0.076  0.924  0.000  0.000     2.017     2.221
 189   7 N     -0.185  1.229  3.956  0.000    25.005     7.427
 190   6 C      0.009  1.042  2.949  0.000    20.417     6.432
 191   6 C      0.274  1.037  2.689  0.000    22.363     7.744
 192   8 O     -0.515  1.748  4.766  0.000    24.112     6.584
 193   6 C     -0.045  1.043  3.002  0.000    21.340     6.569
 194   6 C     -0.090  1.004  3.086  0.000    22.208     6.706
 195   6 C     -0.147  0.983  3.164  0.000    23.359     6.887
 196   6 C     -0.142  0.979  3.163  0.000    23.265     6.873
 197   1 H      0.242  0.758  0.000  0.000     0.915     1.498
 198   1 H      0.079  0.921  0.000  0.000     1.987     2.204
 199   1 H      0.080  0.920  0.000  0.000     1.983     2.202
 200   1 H      0.052  0.948  0.000  0.000     2.292     2.367
 201   1 H      0.054  0.946  0.000  0.000     2.273     2.358
 202   1 H      0.091  0.909  0.000  0.000     1.869     2.138
 203   1 H      0.049  0.951  0.000  0.000     2.338     2.391
 204   1 H      0.052  0.948  0.000  0.000     2.291     2.367
 205   1 H      0.059  0.941  0.000  0.000     2.210     2.325
 206   1 H      0.062  0.938  0.000  0.000     2.177     2.307
 207   1 H      0.063  0.937  0.000  0.000     2.166     2.301
 208   7 N     -0.167  1.214  3.953  0.000    24.606     7.367
 209   6 C     -0.040  1.012  3.027  0.000    21.331     6.584
 210   6 C      0.275  1.036  2.688  0.000    22.341     7.740
 211   8 O     -0.524  1.775  4.750  0.000    24.333     6.614
 212   1 H      0.239  0.761  0.000  0.000     0.926     1.507
 213   1 H      0.103  0.897  0.000  0.000     1.761     2.075
 214   1 H      0.120  0.880  0.000  0.000     1.611     1.985
 215   7 N     -0.191  1.226  3.965  0.000    25.134     7.446
 216   6 C      0.027  1.037  2.936  0.000    20.125     6.387
 217   6 C      0.274  1.053  2.674  0.000    22.370     7.745
 218   8 O     -0.531  1.792  4.739  0.000    24.486     6.634
 219   6 C     -0.154  0.989  3.165  0.000    23.518     6.910
 220   1 H      0.240  0.760  0.000  0.000     0.924     1.505
 221   1 H      0.085  0.915  0.000  0.000     1.928     2.171
 222   1 H      0.065  0.935  0.000  0.000     2.143     2.289
 223   1 H      0.100  0.900  0.000  0.000     1.786     2.090
 224   1 H      0.076  0.924  0.000  0.000     2.024     2.225
 225   7 N     -0.199  1.229  3.970  0.000    25.326     7.474
 226   6 C      0.035  1.033  2.933  0.000    19.992     6.365
 227   6 C      0.270  1.050  2.680  0.000    22.443     7.758
 228   8 O     -0.538  1.786  4.752  0.000    24.651     6.657
 229   6 C     -0.084  1.002  3.082  0.000    22.051     6.678
 230   6 C     -0.020  1.019  3.001  0.000    20.915     6.509
 231  16 S     -0.207  1.903  4.256  0.048   149.873    20.605
 232   6 C     -0.078  0.991  3.087  0.000    22.031     6.690
 233   1 H      0.233  0.767  0.000  0.000     0.951     1.527
 234   1 H      0.056  0.944  0.000  0.000     2.250     2.346
 235   1 H      0.069  0.931  0.000  0.000     2.092     2.262
 236   1 H      0.086  0.914  0.000  0.000     1.921     2.167
 237   1 H      0.049  0.951  0.000  0.000     2.336     2.390
 238   1 H      0.041  0.959  0.000  0.000     2.440     2.442
 239   1 H      0.087  0.913  0.000  0.000     1.910     2.161
 240   1 H      0.071  0.929  0.000  0.000     2.074     2.252
 241   1 H      0.070  0.930  0.000  0.000     2.088     2.260
 242   7 N     -0.181  1.226  3.955  0.000    24.915     7.413
 243   6 C      0.032  1.030  2.938  0.000    20.026     6.370
 244   6 C      0.211  1.084  2.705  0.000    23.537     7.946
 245   8 O     -0.387  1.765  4.622  0.000    21.425     6.206
 246   6 C     -0.085  1.010  3.075  0.000    22.083     6.684
 247   6 C     -0.027  1.028  2.999  0.000    21.019     6.520
 248   6 C     -0.153  0.993  3.159  0.000    23.478     6.904
 249   6 C     -0.147  0.985  3.162  0.000    23.353     6.884
 250   1 H      0.250  0.750  0.000  0.000     0.881     1.471
 251   1 H      0.096  0.904  0.000  0.000     1.820     2.110
 252   1 H      0.076  0.924  0.000  0.000     2.017     2.221
 253   1 H      0.071  0.929  0.000  0.000     2.073     2.251
 254   1 H      0.059  0.941  0.000  0.000     2.205     2.322
 255   1 H      0.067  0.933  0.000  0.000     2.120     2.277
 256   1 H      0.058  0.942  0.000  0.000     2.218     2.329
 257   1 H      0.059  0.941  0.000  0.000     2.210     2.325
 258   1 H      0.065  0.935  0.000  0.000     2.143     2.289
 259   1 H      0.051  0.949  0.000  0.000     2.302     2.373
 260   1 H      0.042  0.958  0.000  0.000     2.416     2.430
 261   7 N     -0.424  1.307  4.117  0.000    31.037     8.274
 262   6 C      0.026  1.032  2.941  0.000    20.140     6.390
 263   6 C      0.204  1.079  2.717  0.000    23.662     7.967
 264   8 O     -0.371  1.742  4.630  0.000    21.118     6.161
 265   6 C     -0.082  1.017  3.065  0.000    22.004     6.667
 266   6 C     -0.005  0.975  3.031  0.000    20.626     6.458
 267   6 C     -0.129  0.987  3.142  0.000    22.876     6.793
 268   6 C     -0.116  0.979  3.137  0.000    22.617     6.754
 269   1 H      0.182  0.818  0.000  0.000     1.201     1.716
 270   1 H      0.068  0.932  0.000  0.000     2.102     2.267
 271   1 H      0.056  0.944  0.000  0.000     2.248     2.345
 272   1 H      0.052  0.948  0.000  0.000     2.291     2.367
 273   1 H      0.048  0.952  0.000  0.000     2.345     2.394
 274   1 H      0.054  0.946  0.000  0.000     2.266     2.354
 275   1 H      0.018  0.982  0.000  0.000     2.757     2.596
 276   1 H      0.057  0.943  0.000  0.000     2.229     2.335
 277   1 H      0.050  0.950  0.000  0.000     2.323     2.383
 278   1 H      0.053  0.947  0.000  0.000     2.279     2.360
 279   1 H      0.017  0.983  0.000  0.000     2.781     2.608
 280   7 N     -0.418  1.297  4.121  0.000    30.872     8.252
 281   6 C     -0.024  1.009  3.015  0.000    21.076     6.548
 282   6 C      0.267  1.039  2.693  0.000    22.489     7.766
 283   8 O     -0.495  1.733  4.761  0.000    23.662     6.522
 284   1 H      0.168  0.832  0.000  0.000     1.286     1.776
 285   1 H      0.082  0.918  0.000  0.000     1.957     2.187
 286   1 H      0.052  0.948  0.000  0.000     2.289     2.366
 287   7 N     -0.167  1.214  3.953  0.000    24.617     7.369
 288   6 C      0.019  1.039  2.943  0.000    20.262     6.409
 289   6 C      0.208  1.081  2.712  0.000    23.588     7.954
 290   8 O     -0.323  1.713  4.610  0.000    20.204     6.026
 291   6 C     -0.080  1.022  3.058  0.000    22.017     6.680
 292   6 C     -0.110  1.021  3.089  0.000    22.584     6.765
 293   6 C      0.366  1.025  2.609  0.000    20.800     7.464
 294   8 O     -0.671  1.784  4.886  0.000    27.918     7.084
 295   8 O     -0.652  1.770  4.881  0.000    27.420     7.021
 296   1 H      0.202  0.798  0.000  0.000     1.095     1.639
 297   1 H      0.089  0.911  0.000  0.000     1.884     2.146
 298   1 H      0.064  0.936  0.000  0.000     2.151     2.294
 299   1 H      0.056  0.944  0.000  0.000     2.247     2.344
 300   1 H      0.049  0.951  0.000  0.000     2.327     2.385
 301   1 H      0.052  0.948  0.000  0.000     2.295     2.369
 302   7 N     -0.416  1.297  4.119  0.000    30.822     8.245
 303   6 C      0.022  1.037  2.940  0.000    20.205     6.401
 304   6 C      0.251  1.062  2.687  0.000    22.775     7.814
 305   8 O     -0.518  1.759  4.759  0.000    24.197     6.595
 306   6 C     -0.093  1.015  3.078  0.000    22.248     6.712
 307   6 C     -0.097  1.020  3.077  0.000    22.338     6.728
 308   6 C     -0.113  1.020  3.093  0.000    22.644     6.774
 309   6 C     -0.069  1.018  3.050  0.000    21.887     6.674
 310   7 N     -0.139  1.159  3.980  0.000    24.001     7.276
 311   1 H      0.167  0.833  0.000  0.000     1.288     1.778
 312   1 H      0.067  0.933  0.000  0.000     2.113     2.273
 313   1 H      0.064  0.936  0.000  0.000     2.155     2.296
 314   1 H      0.057  0.943  0.000  0.000     2.236     2.338
 315   1 H      0.073  0.927  0.000  0.000     2.050     2.239
 316   1 H      0.068  0.932  0.000  0.000     2.106     2.269
 317   1 H      0.082  0.918  0.000  0.000     1.957     2.187
 318   1 H      0.078  0.922  0.000  0.000     1.998     2.210
 319   1 H      0.127  0.873  0.000  0.000     1.557     1.951
 320   1 H      0.127  0.873  0.000  0.000     1.556     1.950
 321   1 H      0.300  0.700  0.000  0.000     0.713     1.323
 322   1 H      0.292  0.708  0.000  0.000     0.739     1.346
 323   1 H      0.292  0.708  0.000  0.000     0.738     1.346
 324   7 N     -0.169  1.219  3.950  0.000    24.657     7.375
 325   6 C      0.009  1.045  2.946  0.000    20.424     6.434
 326   6 C      0.258  1.048  2.694  0.000    22.658     7.796
 327   8 O     -0.516  1.754  4.762  0.000    24.133     6.587
 328   6 C      0.113  1.018  2.869  0.000    18.802     6.188
 329   8 O     -0.488  1.678  4.810  0.000    22.627     6.421
 330   6 C     -0.154  0.986  3.168  0.000    23.508     6.908
 331   1 H      0.226  0.774  0.000  0.000     0.982     1.552
 332   1 H      0.091  0.909  0.000  0.000     1.868     2.137
 333   1 H      0.045  0.955  0.000  0.000     2.379     2.412
 334   1 H      0.315  0.685  0.000  0.000     0.676     1.291
 335   1 H      0.067  0.933  0.000  0.000     2.122     2.278
 336   1 H      0.075  0.925  0.000  0.000     2.036     2.231
 337   1 H      0.075  0.925  0.000  0.000     2.032     2.229
 338   7 N     -0.157  1.217  3.940  0.000    24.396     7.336
 339   6 C      0.017  1.028  2.955  0.000    20.269     6.406
 340   6 C      0.283  1.034  2.682  0.000    22.201     7.717
 341   8 O     -0.479  1.739  4.740  0.000    23.324     6.475
 342   6 C     -0.090  1.006  3.084  0.000    22.177     6.699
 343   6 C     -0.050  1.047  3.002  0.000    29.055     8.829
 344   6 C     -0.022  1.040  2.982  0.000    28.318     8.710
 345   6 C     -0.018  1.056  2.962  0.000    27.759     8.572
 346   7 N     -0.102  1.199  3.903  0.000    23.225     7.158
 347   6 C      0.031  1.055  2.914  0.000    26.708     8.416
 348   6 C     -0.051  1.053  2.998  0.000    29.256     8.871
 349   6 C     -0.067  1.042  3.025  0.000    29.674     8.933
 350   6 C     -0.062  1.055  3.007  0.000    29.549     8.915
 351   6 C     -0.054  1.052  3.002  0.000    29.342     8.885
 352   1 H      0.228  0.772  0.000  0.000     0.976     1.547
 353   1 H      0.111  0.889  0.000  0.000     1.689     2.032
 354   1 H      0.083  0.917  0.000  0.000     1.949     2.183
 355   1 H      0.062  0.938  0.000  0.000     2.180     2.309
 356   1 H      0.053  0.947  0.000  0.000     2.286     2.364
 357   1 H      0.196  0.804  0.000  0.000     1.128     1.664
 358   1 H      0.046  0.954  0.000  0.000     2.368     2.406
 359   1 H      0.044  0.956  0.000  0.000     2.392     2.419
 360   1 H      0.050  0.950  0.000  0.000     2.316     2.380
 361   1 H      0.044  0.956  0.000  0.000     2.398     2.421
 362   7 N     -0.175  1.208  3.967  0.000    24.786     7.394
 363   6 C     -0.043  1.014  3.029  0.000    21.401     6.597
 364   6 C      0.267  1.050  2.683  0.000    22.495     7.766
 365   8 O     -0.511  1.773  4.739  0.000    24.039     6.574
 366   1 H      0.210  0.790  0.000  0.000     1.055     1.609
 367   1 H      0.102  0.898  0.000  0.000     1.764     2.077
 368   1 H      0.101  0.899  0.000  0.000     1.774     2.082
 369   7 N     -0.184  1.223  3.962  0.000    24.991     7.425
 370   6 C      0.024  1.039  2.937  0.000    20.166     6.394
 371   6 C      0.258  1.065  2.677  0.000    22.663     7.796
 372   8 O     -0.528  1.786  4.742  0.000    24.415     6.625
 373   6 C     -0.098  1.012  3.087  0.000    22.332     6.721
 374   6 C     -0.015  1.013  3.002  0.000    20.799     6.485
 375   6 C     -0.138  0.990  3.148  0.000    23.141     6.845
 376   6 C     -0.146  0.986  3.161  0.000    23.321     6.876
 377   1 H      0.225  0.775  0.000  0.000     0.985     1.555
 378   1 H      0.080  0.920  0.000  0.000     1.973     2.197
 379   1 H      0.082  0.918  0.000  0.000     1.955     2.186
 380   1 H      0.077  0.923  0.000  0.000     2.011     2.218
 381   1 H      0.045  0.955  0.000  0.000     2.387     2.416
 382   1 H      0.051  0.949  0.000  0.000     2.309     2.376
 383   1 H      0.036  0.964  0.000  0.000     2.503     2.474
 384   1 H      0.064  0.936  0.000  0.000     2.156     2.296
 385   1 H      0.060  0.940  0.000  0.000     2.196     2.317
 386   1 H      0.053  0.947  0.000  0.000     2.282     2.362
 387   1 H      0.040  0.960  0.000  0.000     2.443     2.444
 388   7 N     -0.187  1.226  3.961  0.000    25.062     7.435
 389   6 C      0.017  1.038  2.945  0.000    20.266     6.404
 390   6 C      0.291  1.035  2.674  0.000    22.074     7.694
 391   8 O     -0.482  1.727  4.755  0.000    23.385     6.484
 392   6 C     -0.024  1.021  3.003  0.000    20.962     6.510
 393   6 C     -0.144  0.986  3.159  0.000    23.295     6.874
 394   6 C     -0.161  0.988  3.172  0.000    23.617     6.920
 395   1 H      0.234  0.766  0.000  0.000     0.947     1.524
 396   1 H      0.096  0.904  0.000  0.000     1.822     2.110
 397   1 H      0.054  0.946  0.000  0.000     2.268     2.355
 398   1 H      0.068  0.932  0.000  0.000     2.102     2.267
 399   1 H      0.046  0.954  0.000  0.000     2.363     2.404
 400   1 H      0.062  0.938  0.000  0.000     2.173     2.305
 401   1 H      0.067  0.933  0.000  0.000     2.119     2.276
 402   1 H      0.077  0.923  0.000  0.000     2.009     2.217
 403   1 H      0.064  0.936  0.000  0.000     2.149     2.292
 404   7 N     -0.209  1.228  3.980  0.000    25.543     7.506
 405   6 C      0.036  1.030  2.933  0.000    19.965     6.362
 406   6 C      0.206  1.087  2.707  0.000    23.635     7.962
 407   8 O     -0.394  1.771  4.622  0.000    21.555     6.225
 408   6 C     -0.094  1.023  3.071  0.000    22.260     6.713
 409   6 C     -0.006  0.998  3.008  0.000    20.647     6.462
 410   6 C     -0.134  0.979  3.155  0.000    23.005     6.816
 411   6 C     -0.134  0.986  3.148  0.000    23.000     6.814
 412   1 H      0.229  0.771  0.000  0.000     0.969     1.542
 413   1 H      0.089  0.911  0.000  0.000     1.888     2.148
 414   1 H      0.082  0.918  0.000  0.000     1.959     2.189
 415   1 H      0.059  0.941  0.000  0.000     2.215     2.327
 416   1 H      0.034  0.966  0.000  0.000     2.523     2.484
 417   1 H      0.063  0.937  0.000  0.000     2.165     2.301
 418   1 H      0.028  0.972  0.000  0.000     2.621     2.532
 419   1 H      0.061  0.939  0.000  0.000     2.187     2.312
 420   1 H      0.060  0.940  0.000  0.000     2.197     2.318
 421   1 H      0.063  0.937  0.000  0.000     2.159     2.297
 422   1 H      0.030  0.970  0.000  0.000     2.587     2.515
 423   7 N     -0.415  1.303  4.112  0.000    30.780     8.240
 424   6 C      0.038  1.031  2.931  0.000    19.936     6.358
 425   6 C      0.282  1.031  2.687  0.000    22.235     7.723
 426   8 O     -0.529  1.746  4.783  0.000    24.424     6.626
 427   6 C     -0.137  0.984  3.153  0.000    23.161     6.857
 428   1 H      0.182  0.818  0.000  0.000     1.204     1.719
 429   1 H      0.038  0.962  0.000  0.000     2.477     2.461
 430   1 H      0.052  0.948  0.000  0.000     2.294     2.368
 431   1 H      0.052  0.948  0.000  0.000     2.299     2.371
 432   1 H      0.078  0.922  0.000  0.000     2.001     2.212
 433   7 N     -0.158  1.209  3.949  0.000    24.423     7.340
 434   6 C      0.032  1.031  2.937  0.000    20.030     6.370
 435   6 C      0.202  1.097  2.701  0.000    23.703     7.973
 436   8 O     -0.406  1.780  4.626  0.000    21.804     6.260
 437   6 C     -0.094  1.018  3.076  0.000    22.248     6.708
 438   6 C     -0.018  1.017  3.001  0.000    20.851     6.494
 439   6 C     -0.147  0.990  3.157  0.000    23.357     6.884
 440   6 C     -0.143  0.979  3.164  0.000    23.242     6.862
 441   1 H      0.231  0.769  0.000  0.000     0.959     1.534
 442   1 H      0.092  0.908  0.000  0.000     1.857     2.131
 443   1 H      0.057  0.943  0.000  0.000     2.235     2.337
 444   1 H      0.078  0.922  0.000  0.000     2.003     2.213
 445   1 H      0.054  0.946  0.000  0.000     2.273     2.357
 446   1 H      0.065  0.935  0.000  0.000     2.144     2.289
 447   1 H      0.042  0.958  0.000  0.000     2.418     2.431
 448   1 H      0.060  0.940  0.000  0.000     2.204     2.321
 449   1 H      0.062  0.938  0.000  0.000     2.170     2.303
 450   1 H      0.054  0.946  0.000  0.000     2.273     2.357
 451   1 H      0.048  0.952  0.000  0.000     2.343     2.394
 452   8 O     -0.596  1.676  4.920  0.000    25.093     6.761
 453   1 H      0.318  0.682  0.000  0.000     0.669     1.284
 454   1 H      0.276  0.724  0.000  0.000     0.796     1.401
 455   1 H      0.172  0.828  0.000  0.000     1.258     1.757
 456   1 H      0.078  0.922  0.000  0.000     1.997     2.210
 457   1 H      0.174  0.826  0.000  0.000     1.250     1.751
 458   1 H      0.068  0.932  0.000  0.000     2.104     2.268
 459   1 H      0.169  0.831  0.000  0.000     1.281     1.773
 460   1 H      0.069  0.931  0.000  0.000     2.097     2.264
 461   1 H      0.185  0.815  0.000  0.000     1.187     1.707
 462   1 H      0.081  0.919  0.000  0.000     1.963     2.191
 463   1 H      0.177  0.823  0.000  0.000     1.229     1.736
 464   1 H      0.061  0.939  0.000  0.000     2.186     2.312
 465   1 H      0.179  0.821  0.000  0.000     1.219     1.729
 466   1 H      0.061  0.939  0.000  0.000     2.191     2.315
 467   1 H      0.202  0.798  0.000  0.000     1.096     1.640
 468   1 H      0.076  0.924  0.000  0.000     2.018     2.221
 469   1 H      0.184  0.816  0.000  0.000     1.188     1.708
 470   1 H      0.061  0.939  0.000  0.000     2.183     2.310
 471   1 H      0.172  0.828  0.000  0.000     1.261     1.759
 472   1 H      0.069  0.931  0.000  0.000     2.099     2.266

 Mol. C6AA /au·bohr⁶  :    1944758.800343
 Mol. C8AA /au·bohr⁸  :   43847190.307476
 Mol. α(0) /au        :       2085.062655

 
molecular dipole:
                 x           y           z       tot (Debye)
 q only:      234.680     141.548     795.412
   full:      235.312     139.713     791.544    2128.798
molecular quadrupole (traceless):
                xx          xy          yy          xz          yz          zz
 q only:  -135077.809   25257.041 -162884.532  140695.303   84880.818  297962.341
  q+dip:  -133253.908   25057.645 -161839.111  140443.167   83259.107  295093.019
   full:  -133255.464   25058.744 -161838.851  140443.244   83258.798  295094.315
speedup  1.95
cpu  time for grad   28.76 s
wall time for grad   14.73 s

SCC energy    :    -703.6249104
rep           :      13.3370443
ES            :       2.5521331
AES           :      -0.1305217
AXC           :       0.1477933
disp          :      -0.6104900
XB            :       0.0000000
fix           :       0.0000000
Gborn         :       0.0000000
Gsasa         :       0.0000000
Ghb           :       0.0000000
Gshift        :       0.0000000
Gsolv         :      -0.9213058     -578.13
Etot ala COSMO:    -703.6249104
grad norm     :       1.8603043
total E       :    -690.2225751
atomizationE  :     124.5467235    78154.25
(atE without considering molecular charge,
 total energy contains solvation terms)
H-L gap (eV)  :          1.3211

------------------------------------------------------------------------
 * finished run on 2019/05/12 at 13:11:29.327     
------------------------------------------------------------------------
 total:
 * wall-time:     0 d,  0 h,  0 min, 15.482 sec
 *  cpu-time:     0 d,  0 h,  0 min, 30.054 sec
 * ratio c/w:     1.941 speedup
 SCF:
 * wall-time:     0 d,  0 h,  0 min, 15.158 sec
 *  cpu-time:     0 d,  0 h,  0 min, 29.604 sec
 * ratio c/w:     1.953 speedup

