      -----------------------------------------------------------      
     |                   =====================                   |     
     |                           x T B                           |     
     |                   =====================                   |     
     |                         S. Grimme                         |     
     |          Mulliken Center for Theoretical Chemistry        |     
     |                    University of Bonn                     |     
     |                 Version 6.0.1 (SAW181210)                 |     
      -----------------------------------------------------------      

   This program is distributed in the hope that it will be useful,
   but WITHOUT ANY WARRANTY; without even the implied warranty of
   MERCHANTABILITY or FITNESS FOR A PARTICULAR PURPOSE.
   
   FOR NON-COMMERCIAL, ACADEMIA USE ONLY.
   
   Cite this work as:
   S. Grimme, C. Bannwarth, P. Shushkov, J. Comput. Theory Chem., 2017,
   13, 1989-2009.
   C. Bannwarth, S. Ehlert and S. Grimme., ChemRxiv, 2018, preprint.
   http://doi.org/10.26434/chemrxiv.7246238.v1
   
   for sTDA-xTB:
   S. Grimme and C. Bannwarth, J. Chem. Phys., 2016, 145, 054103.
   
   in the mass-spec context:
   V. Asgeirsson, C. Bauer and S. Grimme, Chem. Sci., 2017, 8, 4879.
   
   if GBSA is used:
   P. Shushkov, F. März and S. Grimme, unpublished.
   
   for ANC optimizer:
   S. Grimme, unpublished.
   Rational Function algorithm used in ANCopt:
   F. Eckert, P. Pulay, H.-J. Werner, J. Comput. Chem., 1997, 18, 1473.
   
   with help from (in alphabetical order)
   C. Bannwarth, F. Bohle, G. Brandenburg, E. Caldeweyher, M. Checinski,
   S. Dohm, S. Ehlert, S. Ehrlich, F. März, H. Neugebauer, J. Pisarek,
   P. Pracht, P. Shushkov, and S. Spicher.
   
 * started run on 2019/05/04 at 19:51:36.799     
========================================================================
 # omp threads = 2
========================================================================
number of atoms            : 375
number of electrons        : 1018
charge                     : 0
spin                       : .0
first test random number   : .4456

########################################################################
# WARNING! Please study the warnings concerning your input carefully
#  - Process number higher than OMP_NUM_THREADS, I hope you know what you are doing.
########################################################################

           ------------------------------------------------- 
          |                 G F N 2 - x T B                 |
          | Geometry, Frequencies, Noncovalent interactions |
          |            JCTC 2018 parametrisation            |
           ------------------------------------------------- 
 
      method parameters     
 k(s)        :  1.8500
 k(p)        :  2.2300
 k(d)        :  2.2300
 k(f)        :  2.0000
 kEN (H0ij)  : -2.0000
 D4 a1       :  0.5200
 D4 a2       :  5.0000
 D4 s6       :  1.0000
 D4 s8       :  2.7000
 D4 s9       :  5.0000
 alphaj      :  2.0000

 Solvent             : h2o
 Using internal parameter file: .param_gbsa2_h2o
 Gsolv ref. state (COSMO-RS): gsolv [1 M gas/solution]
 temperature (mdtemp)       :    298.150000000000     
 dielectric constant        :    80.2000000000000     
 rho                        :    1.00000000000000     
 mass                       :    18.0000000000000     
 surface tension            :    15.5689454083859     
 probe radius               :   0.975313790000000     
 vdW radii scaling          :    1.00000000000000     
 Gshift (Eh)                :   1.857443126794793E-003
 c1                         :    1.55243817000000     
 soset                      :   0.130326360000000     
 HB correction              :  T

            Z     q(EN)     CN     RAES       Cart. coordinates
     1  N   5.0   -0.15    3.46    2.05    20.52809    39.86566    13.94240
     2  C   4.0    0.03    4.46    4.47    19.59079    38.72993    11.62370
     3  C   4.0    0.14    3.39    3.08    16.82234    39.28929    11.11915
     4  O   6.0   -0.33    1.27    1.80    16.02677    39.41212     8.89494
     5  C   4.0   -0.04    4.32    4.24    19.97251    35.84999    12.13393
     6  C   4.0   -0.04    4.24    4.09    22.41404    35.85377    13.68162
     7  C   4.0   -0.01    4.29    4.18    22.04365    38.13845    15.48252
     8  H   1.0    0.06    1.05    1.44    20.70762    39.35354     9.99476
     9  H   1.0    0.04    1.03    1.43    18.39270    35.15835    13.25076
    10  H   1.0    0.04    1.02    1.43    20.08968    34.78230    10.38971
    11  H   1.0    0.04    1.02    1.43    22.67293    34.08877    14.70207
    12  H   1.0    0.06    1.02    1.43    24.03164    36.16746    12.45140
    13  H   1.0    0.05    1.02    1.43    20.95328    37.55452    17.13981
    14  H   1.0    0.04    1.02    1.43    23.82755    38.97371    16.05322
    15  N   5.0   -0.14    3.48    2.06    15.37481    39.60110    13.20540
    16  C   4.0    0.03    4.39    4.37    12.70274    40.32675    12.84258
    17  C   4.0    0.15    3.42    3.08    12.44196    42.90245    11.64449
    18  O   6.0   -0.31    1.24    1.80    10.62782    43.43346    10.21397
    19  C   4.0   -0.03    4.24    4.07    11.19663    40.03951    15.35402
    20  C   4.0    0.26    3.13    3.03    12.33802    41.45492    17.57256
    21  O   6.0   -0.29    1.26    1.80    14.70207    41.24327    17.89193
    22  O   6.0   -0.26    1.17    1.80    10.98687    42.67946    19.01064
    23  H   1.0    0.11    1.11    1.44    16.03810    40.02251    14.97041
    24  H   1.0    0.05    1.06    1.44    11.88071    38.99072    11.47064
    25  H   1.0    0.07    1.03    1.43     9.25777    40.65367    15.03088
    26  H   1.0    0.05    1.03    1.43    11.14938    38.02885    15.83968
    27  N   5.0   -0.13    3.33    1.99    14.04066    44.72603    12.59313
    28  C   4.0    0.01    4.23    4.06    13.94429    47.27338    11.38938
    29  C   4.0    0.15    3.35    3.06    14.54144    47.20535     8.57747
    30  O   6.0   -0.31    1.28    1.80    13.42272    48.48848     7.00143
    31  H   1.0    0.08    1.07    1.44    15.83779    44.14211    12.93895
    32  H   1.0    0.06    1.03    1.43    12.03189    48.01227    11.62559
    33  H   1.0    0.04    1.02    1.43    15.31245    48.45824    12.37015
    34  N   5.0   -0.14    3.51    2.08    16.44817    45.74271     7.86126
    35  C   4.0    0.03    4.48    4.51    17.15493    45.58019     5.19675
    36  C   4.0    0.16    3.46    3.10    15.01009    44.24415     3.70386
    37  O   6.0   -0.31    1.26    1.80    14.26554    45.06807     1.68375
    38  C   4.0   -0.02    4.27    4.15    19.54921    43.92101     4.96431
    39  C   4.0   -0.07    4.12    3.85    20.09724    43.34653     2.16941
    40  C   4.0   -0.07    4.12    3.84    21.75264    45.26839     6.19452
    41  H   1.0    0.08    1.07    1.44    17.41760    44.68257     9.11982
    42  H   1.0    0.05    1.05    1.44    17.41760    47.46803     4.40306
    43  H   1.0    0.05    1.05    1.44    19.17316    42.14278     5.96020
    44  H   1.0    0.04    1.00    1.43    21.92082    42.42057     2.00122
    45  H   1.0    0.05    1.00    1.43    18.66482    42.11632     1.36060
    46  H   1.0    0.05    1.00    1.43    20.11991    45.07941     1.06392
    47  H   1.0    0.05    1.00    1.43    23.43260    44.08542     6.11704
    48  H   1.0    0.04    1.00    1.43    22.13625    47.05040     5.24210
    49  H   1.0    0.05    1.00    1.43    21.36524    45.65578     8.17684
    50  N   5.0   -0.14    3.50    2.08    13.90838    42.19947     4.86415
    51  C   4.0    0.04    4.42    4.42    12.07157    40.71604     3.44686
    52  C   4.0    0.16    3.48    3.10     9.68485    42.31852     2.96309
    53  O   6.0   -0.32    1.34    1.80     8.32235    42.15034     1.06392
    54  C   4.0   -0.03    4.32    4.24    11.21741    38.46726     4.99455
    55  C   4.0   -0.03    4.21    4.02    12.99754    36.15802     4.70731
    56  C   4.0    0.15    3.23    3.04    12.54778    34.81820     2.23744
    57  O   6.0   -0.32    1.33    1.80    11.00009    35.56086     0.71432
    58  N   5.0   -0.18    3.20    1.96    13.84602    32.67714     1.86705
    59  H   1.0    0.11    1.10    1.44    14.71719    41.38122     6.39672
    60  H   1.0    0.06    1.05    1.44    12.82746    40.16046     1.60060
    61  H   1.0    0.05    1.03    1.43    11.10592    39.03040     6.97687
    62  H   1.0    0.06    1.04    1.43     9.32769    37.89090     4.38605
    63  H   1.0    0.05    1.03    1.43    14.95718    36.77596     4.85660
    64  H   1.0    0.05    1.03    1.43    12.63471    34.83521     6.24932
    65  H   1.0    0.10    1.05    1.44    14.97419    31.86834     3.18041
    66  H   1.0    0.12    1.05    1.44    13.59091    31.69448     0.23811
    67  N   5.0   -0.14    3.54    2.11     9.10659    43.84920     4.84337
    68  C   4.0    0.04    4.43    4.42     6.83892    45.44035     4.69219
    69  C   4.0    0.15    3.41    3.08     7.20930    47.88377     3.22009
    70  O   6.0   -0.29    1.24    1.80     5.51989    49.52027     3.14639
    71  C   4.0   -0.04    4.27    4.15     5.94886    45.97703     7.40584
    72  C   4.0   -0.04    4.21    4.01     4.59392    43.58842     8.37338
    73  C   4.0   -0.00    4.19    3.98     3.85882    43.83030    11.17395
    74  N   5.0   -0.14    3.41    2.02     1.84626    45.69735    11.34214
    75  C   4.0    0.09    3.34    3.06     1.53635    47.29039    13.28855
    76  N   5.0   -0.18    3.24    1.97     3.09537    47.29984    15.27654
    77  N   5.0   -0.18    3.24    1.97    -0.24944    49.04406    13.11470
    78  H   1.0    0.11    1.10    1.44    10.15728    43.89833     6.44208
    79  H   1.0    0.06    1.06    1.44     5.36304    44.38399     3.67552
    80  H   1.0    0.06    1.03    1.43     7.58914    46.39088     8.57180
    81  H   1.0    0.06    1.03    1.43     4.65628    47.57574     7.40395
    82  H   1.0    0.04    1.02    1.43     2.91207    43.19725     7.24332
    83  H   1.0    0.05    1.03    1.43     5.85437    41.96514     8.17306
    84  H   1.0    0.05    1.01    1.43     3.24466    41.98215    11.90149
    85  H   1.0    0.05    1.03    1.43     5.49910    44.43502    12.25865
    86  H   1.0    0.08    1.06    1.44     0.40251    45.51972    10.08358
    87  H   1.0    0.09    1.02    1.43     4.25188    45.83152    15.69228
    88  H   1.0    0.09    1.04    1.43     2.75711    48.67556    16.57668
    89  H   1.0    0.09    1.02    1.43    -1.53257    49.03839    11.68229
    90  H   1.0    0.09    1.03    1.43    -0.49133    50.24214    14.58302
    91  N   5.0   -0.13    3.39    2.02     9.43729    48.30140     2.11271
    92  C   4.0    0.03    4.27    4.13     9.69240    50.44623     0.44787
    93  C   4.0    0.16    3.32    3.06    10.16295    52.94445     1.87272
    94  O   6.0   -0.32    1.32    1.80     9.31068    54.90977     0.92408
    95  H   1.0    0.11    1.09    1.44    10.82057    46.98426     2.10138
    96  H   1.0    0.06    1.02    1.43    11.28544    50.17978    -0.83715
    97  H   1.0    0.07    1.04    1.43     7.94819    50.69946    -0.62361
    98  N   5.0   -0.14    3.48    2.06    11.48009    52.89910     4.02512
    99  C   4.0    0.04    4.40    4.38    11.63504    55.08740     5.66540
   100  C   4.0    0.14    3.41    3.08    14.28633    56.27604     5.65784
   101  O   6.0   -0.29    1.25    1.80    14.90238    57.90309     7.20741
   102  C   4.0   -0.04    4.36    4.31    10.96797    54.35230     8.39227
   103  C   4.0   -0.02    4.17    3.94     8.21842    53.45657     8.63038
   104  C   4.0   -0.07    4.09    3.79     7.76299    52.59674    11.40072
   105  C   4.0   -0.07    4.11    3.82     6.37216    55.59196     8.03511
   106  H   1.0    0.11    1.09    1.44    12.02055    51.21535     4.77534
   107  H   1.0    0.05    1.06    1.44    10.31034    56.50092     4.93974
   108  H   1.0    0.06    1.03    1.43    12.24353    52.83296     8.96108
   109  H   1.0    0.05    1.03    1.43    11.29111    55.99258     9.59225
   110  H   1.0    0.06    1.05    1.44     7.88583    51.87487     7.34536
   111  H   1.0    0.05    1.00    1.43     5.83925    51.91644    11.61615
   112  H   1.0    0.05    1.00    1.43     9.05746    51.08307    11.89394
   113  H   1.0    0.04    1.00    1.43     8.06913    54.18978    12.65549
   114  H   1.0    0.05    1.00    1.43     4.47298    55.08551     8.62849
   115  H   1.0    0.04    1.00    1.43     6.89750    57.31728     9.02344
   116  H   1.0    0.06    1.00    1.43     6.27767    55.98691     6.01878
   117  N   5.0   -0.14    3.42    2.03    15.96440    55.37464     3.89095
   118  C   4.0    0.04    4.37    4.32    18.50231    56.53304     3.92496
   119  C   4.0    0.09    3.23    3.04    18.57412    59.42054     3.53379
   120  O   6.0   -0.27    1.09    1.80    19.62291    60.98146     4.98132
   121  C   4.0   -0.02    4.27    4.15    20.22952    55.24047     1.91429
   122  C   4.0   -0.04    4.14    3.88    20.40526    52.38509     2.65695
   123  C   4.0   -0.07    4.09    3.78    22.82033    56.55194     1.70453
   124  C   4.0   -0.07    3.98    3.58    21.74508    50.81662     0.53857
   125  H   1.0    0.12    1.09    1.44    15.39749    54.56584     2.24310
   126  H   1.0    0.06    1.05    1.44    19.28843    56.17777     5.80713
   127  H   1.0    0.06    1.05    1.44    19.29410    55.37842     0.06614
   128  H   1.0    0.04    1.02    1.43    21.44272    52.20746     4.43330
   129  H   1.0    0.06    1.03    1.43    18.49475    51.67078     2.89506
   130  H   1.0    0.04    1.00    1.43    23.96739    55.67700     0.23811
   131  H   1.0    0.05    1.00    1.43    22.57467    58.52859     1.19431
   132  H   1.0    0.05    1.00    1.43    23.80866    56.47446     3.50922
   133  H   1.0    0.04    1.00    1.43    21.88492    48.84564     1.08470
   134  H   1.0    0.06    1.00    1.43    20.64337    50.94323    -1.19053
   135  H   1.0    0.04    1.00    1.43    23.63291    51.53472     0.16441
   136  N   5.0   -0.14    3.38    2.01    13.79122    63.78581     3.87016
   137  C   4.0    0.03    4.30    4.20    12.66872    65.35050     5.89406
   138  C   4.0    0.09    3.18    3.03    14.27499    65.56026     8.26755
   139  O   6.0   -0.27    1.11    1.80    14.29200    67.56526     9.46753
   140  C   4.0   -0.04    4.31    4.21    10.17806    63.89352     6.46853
   141  C   4.0   -0.04    4.24    4.07     9.55823    62.39119     4.10826
   142  C   4.0   -0.00    4.25    4.10    12.03377    61.89608     2.73821
   143  H   1.0    0.05    1.04    1.43    12.29834    67.24590     5.15328
   144  H   1.0    0.05    1.03    1.43    10.51632    62.61607     8.05023
   145  H   1.0    0.05    1.02    1.43     8.64739    65.16531     6.97309
   146  H   1.0    0.05    1.02    1.43     8.55101    60.65642     4.54857
   147  H   1.0    0.05    1.03    1.43     8.32991    63.49479     2.87427
   148  H   1.0    0.06    1.02    1.43    12.75943    60.00258     3.10671
   149  H   1.0    0.06    1.03    1.43    11.85992    62.21734     0.71432
   150  N   5.0   -0.20    3.14    1.94    22.92804    30.33955     8.93651
   151  C   4.0    0.00    4.18    3.96    22.96773    31.94960     6.71231
   152  C   4.0    0.14    3.42    3.09    25.07477    33.92436     7.01088
   153  O   6.0   -0.30    1.27    1.80    26.36735    33.95649     8.93273
   154  H   1.0    0.10    1.05    1.44    24.19983    30.82899    10.28389
   155  H   1.0    0.04    1.02    1.43    23.35890    30.78364     5.04179
   156  H   1.0    0.04    1.02    1.43    21.14792    32.90202     6.46853
   157  N   5.0   -0.09    3.65    2.21    25.27697    35.58543     5.16651
   158  C   4.0    0.03    4.44    4.45    27.34244    37.45815     5.17029
   159  C   4.0    0.08    3.29    3.05    26.83222    39.34031     7.21308
   160  O   6.0   -0.30    1.15    1.80    24.62691    39.80330     7.94441
   161  C   4.0   -0.05    4.31    4.21    27.04576    38.95859     2.65129
   162  C   4.0   -0.04    4.21    4.03    25.20894    37.41279     1.02612
   163  C   4.0   -0.02    4.34    4.27    23.82755    35.63645     2.81758
   164  H   1.0    0.05    1.04    1.43    29.17170    36.53218     5.38572
   165  H   1.0    0.04    1.04    1.43    26.25018    40.80674     3.08592
   166  H   1.0    0.04    1.02    1.43    28.86745    39.22504     1.73855
   167  H   1.0    0.04    1.02    1.43    23.88236    38.60710     0.00756
   168  H   1.0    0.04    1.02    1.43    26.24829    36.31675    -0.37795
   169  H   1.0    0.04    1.02    1.43    21.92460    36.34510     3.22576
   170  H   1.0    0.03    1.02    1.43    23.68016    33.74484     2.00500
   171  O   6.0   -0.29    1.94    1.82     3.95898    41.05619    -1.36438
   172  H   1.0    0.16    1.03    1.43     5.51044    41.43791    -0.47621
   173  H   1.0    0.14    0.97    1.43     3.44875    42.62277    -2.12972
   174  O   6.0   -0.32    2.01    1.83    17.70673    29.51374     3.35048
   175  H   1.0    0.12    0.97    1.43    18.87458    30.75529     2.72687
   176  H   1.0    0.12    0.96    1.43    18.51365    28.78431     4.84526
   177  O   6.0   -0.30    1.93    1.82     5.61060    58.77048     0.99400
   178  H   1.0    0.16    1.01    1.43     6.90884    57.49113     1.11305
   179  H   1.0    0.13    0.98    1.43     5.89217    59.55471    -0.61794
   180  O   6.0   -0.30    2.00    1.83    11.35347    45.93168    -4.72243
   181  H   1.0    0.15    1.01    1.43    11.30245    46.65544    -6.43263
   182  H   1.0    0.15    0.98    1.43     9.62059    45.77483    -4.18385
   183  O   6.0   -0.29    1.93    1.82     5.83169    47.63621    -4.16685
   184  H   1.0    0.13    0.97    1.43     6.74632    49.19902    -4.03268
   185  H   1.0    0.15    0.99    1.43     5.16651    47.65133    -5.88650
   186  O   6.0   -0.29    1.95    1.82    10.53396    41.07124    -3.69063
   187  H   1.0    0.15    1.03    1.43     9.64687    39.62951    -4.40495
   188  H   1.0    0.16    1.00    1.43     9.77277    41.41076    -2.04468
   189  O   6.0   -0.30    1.98    1.82    15.59434    48.16497    -2.49444
   190  H   1.0    0.15    0.99    1.43    15.55962    48.06637    -0.68219
   191  H   1.0    0.15    1.01    1.43    13.96736    47.44165    -2.97065
   192  O   6.0   -0.30    1.98    1.82    10.91573    47.71566    -9.57902
   193  H   1.0    0.16    1.01    1.43     9.48031    46.60762    -9.91539
   194  H   1.0    0.16    1.00    1.43    10.23891    49.42841    -9.79445
   195  O   6.0   -0.30    1.95    1.82     0.26645    47.42456    -3.45820
   196  H   1.0    0.13    0.97    1.43    -1.22265    48.45635    -3.25222
   197  H   1.0    0.14    0.98    1.43     1.71398    48.40155    -2.94230
   198  O   6.0   -0.30    1.94    1.82    10.06305    59.91863    -2.42074
   199  H   1.0    0.16    1.01    1.43    11.53479    58.86995    -2.09193
   200  H   1.0    0.13    0.97    1.43     8.95063    58.91633    -3.46198
   201  O   6.0   -0.29    1.89    1.82     6.63410    54.39089    -3.61694
   202  H   1.0    0.15    0.99    1.43     7.69588    54.71369    -2.07303
   203  H   1.0    0.13    0.96    1.43     6.05200    55.99249    -4.29724
   204  O   6.0   -0.29    2.02    1.83     2.39697    44.80922    -7.81213
   205  H   1.0    0.14    1.00    1.43     2.50335    43.07916    -7.20553
   206  H   1.0    0.15    1.00    1.43     1.70786    45.75333    -6.39672
   207  O   6.0   -0.28    1.94    1.82     3.90606    49.75837    -8.98187
   208  H   1.0    0.13    0.96    1.43     2.77412    51.07362    -8.36582
   209  H   1.0    0.16    0.99    1.43     5.46509    50.59552    -9.42784
   210  O   6.0   -0.32    1.97    1.82    19.91010    26.56228    -0.47243
   211  H   1.0    0.13    0.97    1.43    19.54992    24.80506    -0.15685
   212  H   1.0    0.14    1.01    1.43    18.91333    27.48369     0.76723
   213  O   6.0   -0.29    1.92    1.82    17.58584    46.35587    -7.12616
   214  H   1.0    0.15    0.97    1.43    16.00627    45.98506    -7.96708
   215  H   1.0    0.15    1.00    1.43    17.11847    47.08979    -5.51800
   216  O   6.0   -0.31    1.99    1.82     7.49854    27.03794     3.08592
   217  H   1.0    0.13    0.97    1.43     6.13865    26.52692     1.96909
   218  H   1.0    0.16    1.05    1.44     8.98536    26.99780     2.00878
   219  O   6.0   -0.31    2.02    1.83    10.79272    26.28002    -0.47432
   220  H   1.0    0.13    0.97    1.43    10.24138    24.81612    -1.40029
   221  H   1.0    0.16    1.00    1.43    11.46784    27.52953    -1.62516
   222  O   6.0   -0.29    1.99    1.83     6.82689    44.52142   -10.03256
   223  H   1.0    0.13    0.97    1.43     7.38957    43.38430    -8.73431
   224  H   1.0    0.16    1.04    1.43     5.15008    45.03712    -9.49209
   225  O   6.0   -0.28    1.93    1.82    13.92847    42.06659    -8.12393
   226  H   1.0    0.13    0.98    1.43    15.07032    41.04127    -7.14883
   227  H   1.0    0.15    0.99    1.43    12.80460    42.79242    -6.87482
   228  N   5.0   -0.20    3.20    1.96    13.84952    56.42919   -11.63126
   229  C   4.0    0.03    4.18    3.95    12.75959    54.58669    -9.81902
   230  C   4.0    0.08    3.19    3.03     9.89285    54.50267   -10.17428
   231  O   6.0   -0.30    1.17    1.80     8.65546    52.50739   -10.28389
   232  C   4.0   -0.04    4.28    4.16    13.50959    55.54777    -7.18852
   233  C   4.0   -0.03    4.13    3.85    13.23911    53.65031    -5.08714
   234  C   4.0    0.25    3.07    3.02    14.43744    54.73058    -2.51145
   235  O   6.0   -0.31    1.22    1.80    14.44783    57.08230    -2.23555
   236  O   6.0   -0.31    1.22    1.80    15.27098    53.14323    -1.02423
   237  H   1.0    0.09    1.03    1.43    14.86838    57.86189   -10.88104
   238  H   1.0    0.05    1.04    1.43    13.52744    52.69738   -10.18940
   239  H   1.0    0.05    1.03    1.43    15.48898    56.14069    -7.27356
   240  H   1.0    0.06    1.03    1.43    12.38617    57.22524    -6.74065
   241  H   1.0    0.06    1.02    1.43    11.25846    53.23342    -4.67518
   242  H   1.0    0.06    1.02    1.43    14.20731    51.87886    -5.49154
   243  N   5.0   -0.19    3.21    1.96    25.46069    29.63599    -6.81624
   244  C   4.0    0.03    4.29    4.17    23.35343    29.43839    -5.07013
   245  C   4.0    0.15    3.41    3.08    20.87260    29.38515    -6.63105
   246  O   6.0   -0.29    1.27    1.80    20.87565    29.91278    -8.86470
   247  C   4.0   -0.04    4.24    4.08    23.23725    31.47264    -2.99711
   248  C   4.0   -0.02    3.67    3.22    23.00351    34.16784    -3.98732
   249  C   4.0   -0.01    3.60    3.17    24.74620    35.54493    -5.32903
   250  C   4.0    0.01    3.90    3.46    20.86603    35.75735    -3.68686
   251  N   5.0   -0.12    3.48    2.07    23.90256    37.97746    -5.65973
   252  C   4.0    0.03    3.89    3.45    21.53159    38.15348    -4.68085
   253  C   4.0   -0.04    3.39    3.07    18.53446    35.34733    -2.54357
   254  C   4.0   -0.05    3.35    3.07    19.91125    40.25323    -4.50133
   255  C   4.0   -0.04    3.35    3.06    16.88934    37.38041    -2.38861
   256  C   4.0   -0.04    3.37    3.07    17.63541    39.80338    -3.25033
   257  H   1.0    0.10    1.03    1.43    25.15689    30.53635    -8.48865
   258  H   1.0    0.05    1.05    1.44    23.55465    27.62343    -4.08748
   259  H   1.0    0.05    1.03    1.43    21.63496    31.09962    -1.76311
   260  H   1.0    0.04    1.03    1.43    24.96348    31.33243    -1.86705
   261  H   1.0    0.05    1.02    1.43    26.62376    35.05567    -5.91484
   262  H   1.0    0.08    1.05    1.44    24.84504    39.45553    -6.40806
   263  H   1.0    0.06    1.02    1.43    17.98236    33.52949    -1.79524
   264  H   1.0    0.06    1.02    1.43    20.44552    42.12842    -5.10226
   265  H   1.0    0.07    1.03    1.43    15.06612    37.24642    -1.47021
   266  H   1.0    0.07    1.02    1.43    16.33764    41.36710    -2.91396
   267  N   5.0   -0.14    3.44    2.04    18.82626    28.66629    -5.37627
   268  C   4.0    0.04    4.44    4.45    16.40460    28.48792    -6.66317
   269  C   4.0    0.14    3.46    3.10    14.47754    30.19674    -5.31013
   270  O   6.0   -0.31    1.28    1.80    13.99938    29.82685    -3.02734
   271  C   4.0   -0.04    4.24    4.08    15.23328    25.81506    -6.58192
   272  C   4.0   -0.05    4.22    4.05    12.90809    25.91933    -8.37904
   273  C   4.0   -0.05    4.15    3.90    11.85359    23.33138    -9.07068
   274  C   4.0   -0.03    4.12    3.84     9.73365    23.61306   -11.01332
   275  N   5.0   -0.12    3.99    2.84     9.23607    21.18299   -12.36826
   276  H   1.0    0.10    1.09    1.44    18.94153    28.10004    -3.54891
   277  H   1.0    0.06    1.07    1.44    16.72648    29.10581    -8.60014
   278  H   1.0    0.05    1.02    1.43    16.60030    24.43752    -7.27167
   279  H   1.0    0.06    1.02    1.43    14.68288    25.35109    -4.66006
   280  H   1.0    0.06    1.03    1.43    11.42166    27.05773    -7.51355
   281  H   1.0    0.04    1.03    1.43    13.49995    26.86329   -10.11003
   282  H   1.0    0.04    1.03    1.43    13.39385    22.21315    -9.87382
   283  H   1.0    0.04    1.02    1.43    11.17133    22.37014    -7.38505
   284  H   1.0    0.05    1.02    1.43     8.02143    24.23923   -10.05145
   285  H   1.0    0.04    1.02    1.43    10.24509    25.03646   -12.41361
   286  H   1.0    0.06    1.00    1.43     7.97726    21.42068   -13.88760
   287  H   1.0    0.06    1.02    1.43    10.90858    20.52733   -13.12226
   288  H   1.0    0.06    1.02    1.43     8.55802    19.85541   -11.12482
   289  N   5.0   -0.14    3.38    2.01    13.43113    32.00160    -6.73876
   290  C   4.0    0.04    4.36    4.31    11.53021    33.68406    -5.57091
   291  C   4.0    0.16    3.44    3.09     9.07186    32.26909    -4.83203
   292  O   6.0   -0.29    1.22    1.80     8.01266    30.78910    -6.31735
   293  C   4.0    0.04    4.15    3.90    10.91715    35.81549    -7.40584
   294  O   6.0   -0.26    2.13    1.84     8.85683    37.29026    -6.54979
   295  H   1.0    0.08    1.04    1.44    13.83828    32.15812    -8.63227
   296  H   1.0    0.06    1.06    1.44    12.31564    34.47793    -3.82858
   297  H   1.0    0.05    1.01    1.43    12.58415    37.02886    -7.62882
   298  H   1.0    0.05    1.01    1.43    10.42580    34.98846    -9.24643
   299  H   1.0    0.12    1.01    1.43     8.08239    38.13274    -7.99543
   300  N   5.0   -0.14    3.48    2.07     8.07095    32.96336    -2.60971
   301  C   4.0    0.05    4.35    4.29     5.73619    31.90124    -1.78390
   302  C   4.0    0.15    3.44    3.09     3.51928    32.43024    -3.52245
   303  O   6.0   -0.29    1.21    1.80     1.61733    31.02666    -3.51300
   304  C   4.0   -0.07    4.10    3.80     5.01220    32.89068     0.88061
   305  H   1.0    0.12    1.13    1.45     8.97579    34.20804    -1.46643
   306  H   1.0    0.06    1.05    1.44     5.92730    29.83169    -1.68941
   307  H   1.0    0.05    1.00    1.43     3.19812    32.12480     1.47210
   308  H   1.0    0.05    1.00    1.43     6.45216    32.39970     2.25444
   309  H   1.0    0.05    1.00    1.43     4.84905    34.94582     0.82392
   310  N   5.0   -0.13    3.47    2.06     3.77500    34.43264    -5.05880
   311  C   4.0    0.04    4.37    4.33     1.74496    35.10662    -6.79923
   312  C   4.0    0.08    3.19    3.04     2.46471    34.59697    -9.53934
   313  O   6.0   -0.27    1.11    1.80     1.10842    35.45702   -11.33080
   314  C   4.0    0.06    4.23    4.05     0.79806    37.77848    -6.42696
   315  O   6.0   -0.24    2.14    1.85     2.85685    39.54537    -6.27956
   316  C   4.0   -0.06    4.07    3.75    -0.74079    38.05525    -3.99299
   317  H   1.0    0.10    1.07    1.44     5.08915    35.76961    -4.69408
   318  H   1.0    0.06    1.07    1.44     0.14779    33.84410    -6.34570
   319  H   1.0    0.06    1.04    1.43    -0.39769    38.27734    -8.06346
   320  H   1.0    0.13    1.01    1.43     3.99719    39.27855    -7.70252
   321  H   1.0    0.06    1.00    1.43    -1.36940    39.99440    -3.77378
   322  H   1.0    0.05    1.00    1.43    -2.38122    36.82230    -4.02701
   323  H   1.0    0.06    1.00    1.43     0.44236    37.59712    -2.37916
   324  N   5.0   -0.21    3.20    1.96    -3.77500    34.43264     5.05880
   325  C   4.0    0.03    4.27    4.13    -1.74496    35.10662     6.79923
   326  C   4.0    0.07    3.19    3.04    -2.46471    34.59697     9.53934
   327  O   6.0   -0.31    1.16    1.80    -1.10842    35.45702    11.33080
   328  C   4.0    0.05    4.23    4.05    -0.79806    37.77848     6.42696
   329  O   6.0   -0.25    2.10    1.84    -2.85685    39.54537     6.27956
   330  C   4.0   -0.07    4.07    3.75     0.74079    38.05525     3.99299
   331  H   1.0    0.09    1.02    1.43    -5.08915    35.76961     4.69408
   332  H   1.0    0.04    1.06    1.44    -0.14779    33.84410     6.34570
   333  H   1.0    0.05    1.04    1.43     0.39769    38.27734     8.06346
   334  H   1.0    0.12    1.01    1.43    -3.99719    39.27855     7.70252
   335  H   1.0    0.05    1.00    1.43     1.36940    39.99440     3.77378
   336  H   1.0    0.04    1.00    1.43     2.38122    36.82230     4.02701
   337  H   1.0    0.05    1.00    1.43    -0.44236    37.59712     2.37916
   338  N   5.0   -0.20    3.22    1.96     2.95915    32.69837    13.49075
   339  C   4.0    0.04    4.25    4.11     4.77041    34.72063    13.89138
   340  C   4.0    0.08    3.21    3.04     3.82727    36.68131    15.69795
   341  O   6.0   -0.28    1.13    1.80     5.37188    38.19636    16.61258
   342  C   4.0   -0.03    4.26    4.11     5.51117    35.94696    11.29678
   343  C   4.0   -0.02    3.69    3.23     6.71021    33.91927     9.73776
   344  C   4.0   -0.01    3.60    3.16     5.77316    32.51169     7.78945
   345  C   4.0   -0.00    3.86    3.41     9.32611    33.19671     9.99665
   346  N   5.0   -0.12    3.46    2.05     7.56998    30.92223     6.78223
   347  C   4.0    0.04    3.89    3.45     9.73899    31.27377     8.16929
   348  C   4.0   -0.05    3.38    3.07    11.25135    33.76099    11.73520
   349  C   4.0   -0.04    3.40    3.08    12.06564    30.07668     7.93118
   350  C   4.0   -0.04    3.37    3.07    13.54960    32.49956    11.49331
   351  C   4.0   -0.04    3.35    3.07    13.98210    30.72023     9.59981
   352  H   1.0    0.12    1.06    1.44     1.29440    33.25802    12.69140
   353  H   1.0    0.05    1.05    1.44     6.47675    33.86640    14.70963
   354  H   1.0    0.05    1.02    1.43     3.79182    36.66905    10.41428
   355  H   1.0    0.05    1.02    1.43     6.81101    37.50294    11.66150
   356  H   1.0    0.04    1.02    1.43     3.89066    32.54679     7.00899
   357  H   1.0    0.10    1.08    1.44     7.31169    29.60937     5.41029
   358  H   1.0    0.05    1.02    1.43    10.94326    35.15865    13.19596
   359  H   1.0    0.06    1.03    1.43    12.33490    28.69490     6.45341
   360  H   1.0    0.05    1.03    1.43    15.04734    32.96590    12.80289
   361  H   1.0    0.05    1.03    1.43    15.80426    29.82095     9.45997
   362  H   1.0    0.09    1.18    1.46    21.80522    40.92816    13.57825
   363  H   1.0    0.06    1.05    1.44    17.73780    60.19063     2.02428
   364  H   1.0    0.09    1.15    1.45    14.00532    64.73237     2.47347
   365  H   1.0    0.07    1.04    1.43    15.30487    64.08478     8.84493
   366  H   1.0    0.09    1.07    1.44    21.38886    30.40463     9.65709
   367  H   1.0    0.05    1.05    1.44    28.26639    40.26211     8.02826
   368  H   1.0    0.10    1.07    1.44    14.89911    55.62238   -12.69896
   369  H   1.0    0.06    1.05    1.44     8.91281    56.11066   -10.33229
   370  H   1.0    0.09    1.08    1.44    26.73287    30.48860    -6.07655
   371  H   1.0    0.07    1.04    1.43     4.00864    33.58277    -9.93775
   372  H   1.0    0.09    1.07    1.44    -3.11344    34.02117     3.54698
   373  H   1.0    0.06    1.04    1.43    -4.00864    33.58277     9.93775
   374  H   1.0    0.10    1.08    1.44     3.63360    31.52879    12.45646
   375  H   1.0    0.07    1.04    1.44     1.99214    36.75086    16.14350

  Z AO/shell   Hii/eV     exponent
  1     Wed Apr 25 08:07:45 CEST 2018   EN: 2.200 GM2: 0.406  GM3: 0.0800  RAES: 1.40
     1s    -10.707211    1.230000
  6     Wed Apr 25 08:07:45 CEST 2018   EN: 2.550 GM2: 0.538  GM3: 0.1500  RAES: 3.00
     2s    -13.970922    2.096432
     2p    -10.063292    1.800000
  7     Wed Apr 25 08:07:45 CEST 2018   EN: 3.040 GM2: 0.461  GM3:-0.0640  RAES: 1.90
     2s    -16.686243    2.339881
     2p    -12.523956    2.014332
  8     Wed Apr 25 08:07:45 CEST 2018   EN: 3.440 GM2: 0.452  GM3:-0.0517  RAES: 1.80
     2s    -20.229985    2.439742
     2p    -15.503117    2.137023
 no old-style atom pair restraining (fixing) potential

molecular fragmentation (1/2 indicates fragments):
111111111111111111111111111111111111111111111111111111111111111111111111
111111111111111111111111111111111111111111111111111111111111111222222222
222222222222222222222222222222222222222222222222222222222222222222222222
222222222222222222222222222222222222222222222222222222222222222222222222
222222222222222222222222222222222222222222222222222222222222222222222222
211222222222222
# atoms in fragment 1/2:   137   238
 fragment masses (1/2) :      938.09     1595.75
CMA distance (Bohr)    :  10.619
constraining FC (au)   :  0.0500
           ------------------------------------------------- 
          |        Self-Consistent Charge Iterations        |
           ------------------------------------------------- 

 Ncao       : 897
 Nao        : 897
 Nshell     : 549
 Nel        : 1018
 T(el)      :   500.0
 intcut     :    35.0
 scfconv/Eh :  0.100E-06
   qconv/e  :  0.100E-04
 intneglect :  0.100E-08
 broydamp   :      0.400
 iter      E             dE          RMSdq      gap      omega  full diag
   1   -591.7445946 -0.591745E+03  0.483E+00    2.51       0.0  T
   2   -593.1170233 -0.137243E+01  0.231E+00    1.08       1.0  T
   3   -593.2123627 -0.953395E-01  0.127E+00    1.67       1.0  T
   4   -593.3445549 -0.132192E+00  0.312E-01    1.15       1.0  T
   5   -593.3495501 -0.499519E-02  0.153E-01    1.37       1.0  T
   6   -593.3523411 -0.279109E-02  0.606E-02    1.33       1.0  T
   7   -593.3528367 -0.495596E-03  0.301E-02    1.33       1.0  T
   8   -593.3529009 -0.641756E-04  0.149E-02    1.33       1.0  T
   9   -593.3529239 -0.229504E-04  0.547E-03    1.34       1.0  T
  10   -593.3529268 -0.296214E-05  0.275E-03    1.34       1.9  T
  11   -593.3529273 -0.508486E-06  0.124E-03    1.34       4.2  T
  12   -593.3529275 -0.148846E-06  0.584E-04    1.34       8.8  T
  13   -593.3529275 -0.328696E-07  0.270E-04    1.34      19.2  T
  14   -593.3529275 -0.663420E-08  0.141E-04    1.34      36.5  T
  15   -593.3529275 -0.183786E-08  0.573E-05    1.34      90.1  T
  16   -593.3529275 -0.384034E-09  0.270E-05    1.34     191.1  T
speedup  1.26
cpu  time for SCC   13.52 s
wall time for SCC   10.71 s

   *** convergence criteria satisfied after 16 iterations ***

          eigenvalues
 #    :         497        498        499        500        501        502        503        504
 occ. :        2.000      2.000      2.000      2.000      2.000      2.000      2.000      2.000
 eps  :       -10.343    -10.253    -10.226    -10.175    -10.173    -10.061    -10.049     -9.976
 #    :         505        506        507        508        509        510        511        512
 occ. :        2.000      2.000      2.000      2.000      2.000      0.000      0.000      0.000
 eps  :        -9.865     -9.744     -9.738     -9.634     -9.621     -8.280     -8.251     -8.237
 #    :         513        514        515        516        517        518        519        520
 occ. :        0.000      0.000      0.000      0.000      0.000      0.000      0.000      0.000
 eps  :        -8.224     -7.854     -7.731     -7.688     -7.337     -6.736     -6.660     -6.516


   #   Z            q   n(s)   n(p)   n(d)      C6AA      α(0)
   1   7 N     -0.325  1.345  3.980  0.000    28.359     7.909
   2   6 C      0.030  1.063  2.907  0.000    20.064     6.376
   3   6 C      0.258  1.056  2.685  0.000    22.655     7.794
   4   8 O     -0.513  1.744  4.768  0.000    24.067     6.577
   5   6 C     -0.048  1.056  2.993  0.000    21.418     6.585
   6   6 C     -0.058  1.052  3.005  0.000    21.591     6.612
   7   6 C      0.011  1.049  2.940  0.000    20.442     6.447
   8   1 H      0.048  0.952  0.000  0.000     2.349     2.397
   9   1 H      0.039  0.961  0.000  0.000     2.466     2.456
  10   1 H      0.043  0.957  0.000  0.000     2.413     2.429
  11   1 H      0.040  0.960  0.000  0.000     2.455     2.450
  12   1 H      0.043  0.957  0.000  0.000     2.414     2.429
  13   1 H      0.033  0.967  0.000  0.000     2.549     2.497
  14   1 H      0.030  0.970  0.000  0.000     2.589     2.516
  15   7 N     -0.199  1.280  3.919  0.000    25.327     7.474
  16   6 C      0.040  1.061  2.899  0.000    19.916     6.355
  17   6 C      0.263  1.061  2.675  0.000    22.559     7.778
  18   8 O     -0.463  1.745  4.718  0.000    22.980     6.427
  19   6 C     -0.088  1.070  3.019  0.000    22.187     6.707
  20   6 C      0.371  1.018  2.611  0.000    20.703     7.446
  21   8 O     -0.645  1.774  4.871  0.000    27.247     6.998
  22   8 O     -0.614  1.764  4.850  0.000    26.470     6.898
  23   1 H      0.239  0.761  0.000  0.000     0.926     1.507
  24   1 H      0.073  0.927  0.000  0.000     2.055     2.242
  25   1 H      0.053  0.947  0.000  0.000     2.278     2.360
  26   1 H      0.051  0.949  0.000  0.000     2.306     2.375
  27   7 N     -0.197  1.308  3.889  0.000    25.279     7.467
  28   6 C     -0.032  1.058  2.974  0.000    21.214     6.571
  29   6 C      0.275  1.038  2.687  0.000    22.352     7.742
  30   8 O     -0.485  1.740  4.745  0.000    23.461     6.494
  31   1 H      0.193  0.807  0.000  0.000     1.141     1.673
  32   1 H      0.103  0.897  0.000  0.000     1.754     2.071
  33   1 H      0.097  0.903  0.000  0.000     1.811     2.105
  34   7 N     -0.174  1.242  3.932  0.000    24.765     7.391
  35   6 C      0.020  1.072  2.908  0.000    20.248     6.407
  36   6 C      0.276  1.051  2.673  0.000    22.339     7.740
  37   8 O     -0.469  1.745  4.724  0.000    23.100     6.444
  38   6 C     -0.017  1.063  2.954  0.000    20.850     6.494
  39   6 C     -0.115  1.039  3.076  0.000    22.752     6.802
  40   6 C     -0.118  1.039  3.079  0.000    22.811     6.809
  41   1 H      0.190  0.810  0.000  0.000     1.158     1.686
  42   1 H      0.073  0.927  0.000  0.000     2.050     2.239
  43   1 H      0.049  0.951  0.000  0.000     2.328     2.386
  44   1 H      0.061  0.939  0.000  0.000     2.186     2.312
  45   1 H      0.043  0.957  0.000  0.000     2.414     2.430
  46   1 H      0.048  0.952  0.000  0.000     2.342     2.393
  47   1 H      0.060  0.940  0.000  0.000     2.204     2.322
  48   1 H      0.053  0.947  0.000  0.000     2.284     2.363
  49   1 H      0.037  0.963  0.000  0.000     2.488     2.467
  50   7 N     -0.213  1.271  3.942  0.000    25.643     7.521
  51   6 C      0.035  1.056  2.910  0.000    19.995     6.367
  52   6 C      0.272  1.045  2.683  0.000    22.397     7.750
  53   8 O     -0.491  1.738  4.753  0.000    23.582     6.511
  54   6 C     -0.062  1.050  3.012  0.000    21.674     6.627
  55   6 C     -0.104  1.056  3.047  0.000    22.472     6.749
  56   6 C      0.286  1.035  2.679  0.000    22.162     7.708
  57   8 O     -0.485  1.729  4.757  0.000    23.457     6.494
  58   7 N     -0.285  1.267  4.019  0.000    27.358     7.768
  59   1 H      0.226  0.774  0.000  0.000     0.982     1.552
  60   1 H      0.080  0.920  0.000  0.000     1.976     2.198
  61   1 H      0.050  0.950  0.000  0.000     2.315     2.379
  62   1 H      0.074  0.926  0.000  0.000     2.047     2.238
  63   1 H      0.070  0.930  0.000  0.000     2.089     2.260
  64   1 H      0.077  0.923  0.000  0.000     2.006     2.215
  65   1 H      0.227  0.773  0.000  0.000     0.977     1.548
  66   1 H      0.236  0.764  0.000  0.000     0.941     1.519
  67   7 N     -0.171  1.247  3.924  0.000    24.691     7.380
  68   6 C      0.017  1.065  2.918  0.000    20.291     6.413
  69   6 C      0.270  1.044  2.686  0.000    22.441     7.758
  70   8 O     -0.492  1.753  4.739  0.000    23.605     6.514
  71   6 C     -0.084  1.059  3.025  0.000    22.097     6.692
  72   6 C     -0.083  1.059  3.024  0.000    22.073     6.688
  73   6 C     -0.017  1.051  2.966  0.000    20.959     6.533
  74   7 N     -0.145  1.220  3.925  0.000    24.139     7.297
  75   6 C      0.227  1.021  2.751  0.000    23.222     7.890
  76   7 N     -0.247  1.235  4.011  0.000    26.429     7.635
  77   7 N     -0.255  1.240  4.015  0.000    26.617     7.662
  78   1 H      0.216  0.784  0.000  0.000     1.030     1.590
  79   1 H      0.105  0.895  0.000  0.000     1.737     2.061
  80   1 H      0.070  0.930  0.000  0.000     2.083     2.257
  81   1 H      0.087  0.913  0.000  0.000     1.904     2.158
  82   1 H      0.076  0.924  0.000  0.000     2.024     2.225
  83   1 H      0.066  0.934  0.000  0.000     2.130     2.282
  84   1 H      0.069  0.931  0.000  0.000     2.094     2.263
  85   1 H      0.076  0.924  0.000  0.000     2.021     2.223
  86   1 H      0.241  0.759  0.000  0.000     0.918     1.501
  87   1 H      0.236  0.764  0.000  0.000     0.942     1.520
  88   1 H      0.253  0.747  0.000  0.000     0.870     1.461
  89   1 H      0.261  0.739  0.000  0.000     0.842     1.437
  90   1 H      0.257  0.743  0.000  0.000     0.855     1.449
  91   7 N     -0.165  1.236  3.928  0.000    24.560     7.360
  92   6 C     -0.024  1.048  2.976  0.000    21.059     6.544
  93   6 C      0.283  1.046  2.671  0.000    22.209     7.717
  94   8 O     -0.512  1.742  4.770  0.000    24.049     6.575
  95   1 H      0.203  0.797  0.000  0.000     1.092     1.637
  96   1 H      0.091  0.909  0.000  0.000     1.869     2.138
  97   1 H      0.103  0.897  0.000  0.000     1.758     2.074
  98   7 N     -0.168  1.248  3.920  0.000    24.633     7.371
  99   6 C      0.030  1.058  2.911  0.000    20.074     6.380
 100   6 C      0.270  1.054  2.676  0.000    22.448     7.759
 101   8 O     -0.482  1.754  4.728  0.000    23.393     6.485
 102   6 C     -0.073  1.059  3.014  0.000    21.879     6.658
 103   6 C     -0.013  1.059  2.954  0.000    20.780     6.484
 104   6 C     -0.127  1.048  3.078  0.000    22.991     6.837
 105   6 C     -0.119  1.041  3.078  0.000    22.824     6.812
 106   1 H      0.226  0.774  0.000  0.000     0.983     1.553
 107   1 H      0.081  0.919  0.000  0.000     1.973     2.197
 108   1 H      0.046  0.954  0.000  0.000     2.365     2.405
 109   1 H      0.066  0.934  0.000  0.000     2.131     2.283
 110   1 H      0.034  0.966  0.000  0.000     2.536     2.490
 111   1 H      0.066  0.934  0.000  0.000     2.136     2.285
 112   1 H      0.034  0.966  0.000  0.000     2.529     2.487
 113   1 H      0.054  0.946  0.000  0.000     2.270     2.356
 114   1 H      0.063  0.937  0.000  0.000     2.160     2.298
 115   1 H      0.040  0.960  0.000  0.000     2.455     2.450
 116   1 H      0.028  0.972  0.000  0.000     2.609     2.526
 117   7 N     -0.207  1.282  3.925  0.000    25.495     7.499
 118   6 C      0.036  1.065  2.899  0.000    19.978     6.365
 119   6 C      0.208  1.091  2.700  0.000    23.581     7.952
 120   8 O     -0.379  1.768  4.611  0.000    21.261     6.182
 121   6 C     -0.014  1.073  2.941  0.000    20.788     6.486
 122   6 C     -0.061  1.059  3.002  0.000    21.683     6.631
 123   6 C     -0.116  1.042  3.074  0.000    22.778     6.807
 124   6 C     -0.111  1.041  3.070  0.000    22.690     6.795
 125   1 H      0.221  0.779  0.000  0.000     1.006     1.571
 126   1 H      0.073  0.927  0.000  0.000     2.053     2.241
 127   1 H      0.044  0.956  0.000  0.000     2.403     2.424
 128   1 H      0.042  0.958  0.000  0.000     2.422     2.434
 129   1 H      0.040  0.960  0.000  0.000     2.450     2.448
 130   1 H      0.063  0.937  0.000  0.000     2.159     2.298
 131   1 H      0.030  0.970  0.000  0.000     2.583     2.513
 132   1 H      0.054  0.946  0.000  0.000     2.273     2.358
 133   1 H      0.048  0.952  0.000  0.000     2.343     2.394
 134   1 H      0.040  0.960  0.000  0.000     2.451     2.448
 135   1 H      0.048  0.952  0.000  0.000     2.347     2.396
 136   7 N     -0.324  1.353  3.971  0.000    28.320     7.904
 137   6 C      0.035  1.066  2.898  0.000    19.992     6.368
 138   6 C      0.206  1.090  2.703  0.000    23.617     7.959
 139   8 O     -0.385  1.757  4.628  0.000    21.381     6.199
 140   6 C     -0.054  1.057  2.997  0.000    21.528     6.603
 141   6 C     -0.057  1.048  3.009  0.000    21.589     6.613
 142   6 C      0.016  1.048  2.936  0.000    20.373     6.439
 143   1 H      0.048  0.952  0.000  0.000     2.350     2.397
 144   1 H      0.043  0.957  0.000  0.000     2.408     2.427
 145   1 H      0.058  0.942  0.000  0.000     2.222     2.331
 146   1 H      0.049  0.951  0.000  0.000     2.332     2.388
 147   1 H      0.049  0.951  0.000  0.000     2.332     2.388
 148   1 H      0.013  0.987  0.000  0.000     2.837     2.634
 149   1 H      0.046  0.954  0.000  0.000     2.371     2.408
 150   7 N     -0.381  1.309  4.072  0.000    29.859     8.116
 151   6 C     -0.016  1.051  2.965  0.000    20.948     6.532
 152   6 C      0.263  1.041  2.696  0.000    22.566     7.779
 153   8 O     -0.518  1.758  4.760  0.000    24.177     6.592
 154   1 H      0.160  0.840  0.000  0.000     1.333     1.808
 155   1 H      0.071  0.929  0.000  0.000     2.074     2.252
 156   1 H      0.044  0.956  0.000  0.000     2.398     2.421
 157   7 N     -0.078  1.231  3.847  0.000    22.758     7.085
 158   6 C      0.028  1.063  2.909  0.000    20.105     6.383
 159   6 C      0.202  1.083  2.715  0.000    23.707     7.975
 160   8 O     -0.385  1.765  4.620  0.000    21.385     6.200
 161   6 C     -0.064  1.060  3.004  0.000    21.708     6.631
 162   6 C     -0.070  1.049  3.021  0.000    21.837     6.651
 163   6 C     -0.015  1.055  2.959  0.000    20.895     6.518
 164   1 H      0.082  0.918  0.000  0.000     1.959     2.189
 165   1 H      0.058  0.942  0.000  0.000     2.227     2.334
 166   1 H      0.084  0.916  0.000  0.000     1.941     2.179
 167   1 H      0.070  0.930  0.000  0.000     2.088     2.260
 168   1 H      0.076  0.924  0.000  0.000     2.022     2.224
 169   1 H      0.067  0.933  0.000  0.000     2.118     2.276
 170   1 H      0.077  0.923  0.000  0.000     2.007     2.215
 171   8 O     -0.621  1.745  4.877  0.000    25.699     6.842
 172   1 H      0.307  0.693  0.000  0.000     0.701     1.315
 173   1 H      0.293  0.707  0.000  0.000     0.742     1.353
 174   8 O     -0.591  1.754  4.837  0.000    24.968     6.744
 175   1 H      0.310  0.690  0.000  0.000     0.693     1.307
 176   1 H      0.328  0.672  0.000  0.000     0.642     1.258
 177   8 O     -0.632  1.757  4.876  0.000    25.973     6.878
 178   1 H      0.306  0.694  0.000  0.000     0.704     1.318
 179   1 H      0.309  0.691  0.000  0.000     0.696     1.310
 180   8 O     -0.642  1.765  4.877  0.000    26.208     6.909
 181   1 H      0.321  0.679  0.000  0.000     0.661     1.277
 182   1 H      0.309  0.691  0.000  0.000     0.694     1.309
 183   8 O     -0.622  1.754  4.868  0.000    25.727     6.846
 184   1 H      0.281  0.719  0.000  0.000     0.781     1.388
 185   1 H      0.334  0.666  0.000  0.000     0.627     1.244
 186   8 O     -0.657  1.763  4.893  0.000    26.583     6.959
 187   1 H      0.313  0.687  0.000  0.000     0.683     1.298
 188   1 H      0.292  0.708  0.000  0.000     0.745     1.356
 189   8 O     -0.627  1.757  4.869  0.000    25.834     6.860
 190   1 H      0.292  0.708  0.000  0.000     0.745     1.356
 191   1 H      0.317  0.683  0.000  0.000     0.671     1.287
 192   8 O     -0.661  1.775  4.886  0.000    26.688     6.972
 193   1 H      0.334  0.666  0.000  0.000     0.628     1.245
 194   1 H      0.304  0.696  0.000  0.000     0.710     1.324
 195   8 O     -0.639  1.756  4.884  0.000    26.146     6.901
 196   1 H      0.336  0.664  0.000  0.000     0.622     1.239
 197   1 H      0.314  0.686  0.000  0.000     0.679     1.295
 198   8 O     -0.625  1.755  4.870  0.000    25.795     6.855
 199   1 H      0.305  0.695  0.000  0.000     0.707     1.320
 200   1 H      0.294  0.706  0.000  0.000     0.738     1.349
 201   8 O     -0.643  1.765  4.878  0.000    26.247     6.914
 202   1 H      0.307  0.693  0.000  0.000     0.701     1.316
 203   1 H      0.301  0.699  0.000  0.000     0.717     1.330
 204   8 O     -0.639  1.766  4.873  0.000    26.144     6.901
 205   1 H      0.320  0.680  0.000  0.000     0.663     1.279
 206   1 H      0.325  0.675  0.000  0.000     0.650     1.266
 207   8 O     -0.622  1.760  4.863  0.000    25.731     6.846
 208   1 H      0.318  0.682  0.000  0.000     0.670     1.286
 209   1 H      0.310  0.690  0.000  0.000     0.691     1.306
 210   8 O     -0.649  1.768  4.881  0.000    26.394     6.934
 211   1 H      0.330  0.670  0.000  0.000     0.637     1.253
 212   1 H      0.321  0.679  0.000  0.000     0.660     1.276
 213   8 O     -0.645  1.757  4.888  0.000    26.290     6.920
 214   1 H      0.311  0.689  0.000  0.000     0.688     1.303
 215   1 H      0.311  0.689  0.000  0.000     0.690     1.305
 216   8 O     -0.652  1.766  4.886  0.000    26.476     6.945
 217   1 H      0.311  0.689  0.000  0.000     0.688     1.303
 218   1 H      0.332  0.668  0.000  0.000     0.632     1.249
 219   8 O     -0.624  1.751  4.874  0.000    25.776     6.852
 220   1 H      0.335  0.665  0.000  0.000     0.624     1.240
 221   1 H      0.317  0.683  0.000  0.000     0.672     1.287
 222   8 O     -0.653  1.769  4.884  0.000    26.498     6.948
 223   1 H      0.306  0.694  0.000  0.000     0.704     1.317
 224   1 H      0.345  0.655  0.000  0.000     0.601     1.218
 225   8 O     -0.627  1.756  4.871  0.000    25.844     6.861
 226   1 H      0.293  0.707  0.000  0.000     0.742     1.353
 227   1 H      0.322  0.678  0.000  0.000     0.659     1.276
 228   7 N     -0.396  1.321  4.075  0.000    30.266     8.171
 229   6 C      0.036  1.063  2.901  0.000    19.999     6.371
 230   6 C      0.199  1.100  2.701  0.000    23.762     7.983
 231   8 O     -0.380  1.751  4.629  0.000    21.286     6.186
 232   6 C     -0.043  1.053  2.990  0.000    21.330     6.574
 233   6 C     -0.107  1.065  3.043  0.000    22.563     6.765
 234   6 C      0.366  1.030  2.604  0.000    20.800     7.463
 235   8 O     -0.638  1.774  4.864  0.000    27.062     6.975
 236   8 O     -0.583  1.757  4.826  0.000    25.712     6.798
 237   1 H      0.165  0.835  0.000  0.000     1.301     1.787
 238   1 H      0.060  0.940  0.000  0.000     2.194     2.316
 239   1 H      0.039  0.961  0.000  0.000     2.463     2.454
 240   1 H      0.044  0.956  0.000  0.000     2.390     2.418
 241   1 H      0.027  0.973  0.000  0.000     2.635     2.539
 242   1 H      0.041  0.959  0.000  0.000     2.437     2.441
 243   7 N     -0.388  1.318  4.070  0.000    30.053     8.142
 244   6 C      0.023  1.064  2.912  0.000    20.198     6.402
 245   6 C      0.276  1.043  2.681  0.000    22.340     7.740
 246   8 O     -0.504  1.747  4.757  0.000    23.878     6.552
 247   6 C     -0.082  1.059  3.022  0.000    22.059     6.687
 248   6 C     -0.038  1.071  2.966  0.000    28.889     8.815
 249   6 C     -0.010  1.068  2.942  0.000    28.222     8.713
 250   6 C     -0.022  1.070  2.951  0.000    28.362     8.721
 251   7 N     -0.117  1.229  3.888  0.000    23.554     7.208
 252   6 C      0.042  1.063  2.895  0.000    26.940     8.507
 253   6 C     -0.052  1.079  2.973  0.000    29.290     8.874
 254   6 C     -0.060  1.081  2.980  0.000    29.500     8.905
 255   6 C     -0.053  1.081  2.972  0.000    29.324     8.880
 256   6 C     -0.047  1.086  2.961  0.000    29.163     8.856
 257   1 H      0.155  0.845  0.000  0.000     1.370     1.833
 258   1 H      0.060  0.940  0.000  0.000     2.205     2.322
 259   1 H      0.060  0.940  0.000  0.000     2.202     2.321
 260   1 H      0.048  0.952  0.000  0.000     2.347     2.396
 261   1 H      0.039  0.961  0.000  0.000     2.458     2.451
 262   1 H      0.190  0.810  0.000  0.000     1.158     1.686
 263   1 H      0.041  0.959  0.000  0.000     2.440     2.443
 264   1 H      0.033  0.967  0.000  0.000     2.548     2.496
 265   1 H      0.024  0.976  0.000  0.000     2.667     2.554
 266   1 H      0.023  0.977  0.000  0.000     2.682     2.561
 267   7 N     -0.187  1.249  3.938  0.000    25.053     7.434
 268   6 C      0.014  1.066  2.920  0.000    20.337     6.420
 269   6 C      0.265  1.051  2.684  0.000    22.535     7.774
 270   8 O     -0.481  1.741  4.741  0.000    23.379     6.483
 271   6 C     -0.084  1.063  3.021  0.000    22.098     6.692
 272   6 C     -0.080  1.056  3.024  0.000    22.016     6.680
 273   6 C     -0.092  1.053  3.038  0.000    22.252     6.716
 274   6 C     -0.051  1.061  2.991  0.000    21.589     6.632
 275   7 N     -0.149  1.235  3.915  0.000    24.223     7.310
 276   1 H      0.232  0.768  0.000  0.000     0.957     1.532
 277   1 H      0.072  0.928  0.000  0.000     2.060     2.244
 278   1 H      0.071  0.929  0.000  0.000     2.080     2.255
 279   1 H      0.075  0.925  0.000  0.000     2.026     2.226
 280   1 H      0.053  0.947  0.000  0.000     2.289     2.366
 281   1 H      0.052  0.948  0.000  0.000     2.295     2.369
 282   1 H      0.081  0.919  0.000  0.000     1.971     2.195
 283   1 H      0.081  0.919  0.000  0.000     1.973     2.197
 284   1 H      0.118  0.882  0.000  0.000     1.628     1.995
 285   1 H      0.113  0.887  0.000  0.000     1.673     2.023
 286   1 H      0.304  0.696  0.000  0.000     0.702     1.313
 287   1 H      0.297  0.703  0.000  0.000     0.723     1.332
 288   1 H      0.301  0.699  0.000  0.000     0.710     1.320
 289   7 N     -0.165  1.256  3.909  0.000    24.577     7.363
 290   6 C      0.010  1.067  2.923  0.000    20.408     6.433
 291   6 C      0.268  1.045  2.687  0.000    22.482     7.765
 292   8 O     -0.492  1.748  4.745  0.000    23.612     6.515
 293   6 C      0.067  1.039  2.894  0.000    19.662     6.352
 294   8 O     -0.456  1.714  4.743  0.000    21.977     6.328
 295   1 H      0.215  0.785  0.000  0.000     1.034     1.593
 296   1 H      0.087  0.913  0.000  0.000     1.908     2.160
 297   1 H      0.061  0.939  0.000  0.000     2.184     2.311
 298   1 H      0.055  0.945  0.000  0.000     2.265     2.353
 299   1 H      0.334  0.666  0.000  0.000     0.628     1.245
 300   7 N     -0.182  1.252  3.930  0.000    24.939     7.417
 301   6 C      0.027  1.052  2.921  0.000    20.117     6.386
 302   6 C      0.275  1.046  2.678  0.000    22.342     7.741
 303   8 O     -0.502  1.761  4.741  0.000    23.820     6.544
 304   6 C     -0.133  1.045  3.088  0.000    23.118     6.856
 305   1 H      0.248  0.752  0.000  0.000     0.891     1.479
 306   1 H      0.088  0.912  0.000  0.000     1.900     2.156
 307   1 H      0.069  0.931  0.000  0.000     2.099     2.266
 308   1 H      0.080  0.920  0.000  0.000     1.983     2.202
 309   1 H      0.059  0.941  0.000  0.000     2.215     2.327
 310   7 N     -0.167  1.240  3.927  0.000    24.604     7.367
 311   6 C      0.013  1.059  2.928  0.000    20.369     6.427
 312   6 C      0.183  1.096  2.721  0.000    24.071     8.035
 313   8 O     -0.390  1.785  4.605  0.000    21.482     6.214
 314   6 C      0.112  1.047  2.841  0.000    18.846     6.199
 315   8 O     -0.451  1.726  4.725  0.000    21.864     6.312
 316   6 C     -0.133  1.042  3.092  0.000    23.125     6.857
 317   1 H      0.223  0.777  0.000  0.000     0.998     1.565
 318   1 H      0.131  0.869  0.000  0.000     1.527     1.933
 319   1 H      0.053  0.947  0.000  0.000     2.278     2.361
 320   1 H      0.307  0.693  0.000  0.000     0.702     1.316
 321   1 H      0.075  0.925  0.000  0.000     2.030     2.228
 322   1 H      0.057  0.943  0.000  0.000     2.239     2.340
 323   1 H      0.074  0.926  0.000  0.000     2.046     2.237
 324   7 N     -0.389  1.313  4.076  0.000    30.080     8.145
 325   6 C      0.028  1.058  2.915  0.000    20.127     6.390
 326   6 C      0.177  1.102  2.720  0.000    24.189     8.054
 327   8 O     -0.400  1.778  4.622  0.000    21.677     6.242
 328   6 C      0.114  1.048  2.838  0.000    18.818     6.194
 329   8 O     -0.480  1.732  4.748  0.000    22.478     6.400
 330   6 C     -0.127  1.041  3.086  0.000    22.995     6.838
 331   1 H      0.174  0.826  0.000  0.000     1.249     1.751
 332   1 H      0.087  0.913  0.000  0.000     1.904     2.158
 333   1 H      0.031  0.969  0.000  0.000     2.570     2.507
 334   1 H      0.321  0.679  0.000  0.000     0.662     1.278
 335   1 H      0.064  0.936  0.000  0.000     2.150     2.293
 336   1 H      0.053  0.947  0.000  0.000     2.285     2.364
 337   1 H      0.063  0.937  0.000  0.000     2.163     2.300
 338   7 N     -0.398  1.332  4.066  0.000    30.329     8.179
 339   6 C      0.043  1.058  2.900  0.000    19.870     6.349
 340   6 C      0.195  1.087  2.717  0.000    23.834     7.995
 341   8 O     -0.412  1.773  4.639  0.000    21.917     6.277
 342   6 C     -0.060  1.056  3.005  0.000    21.656     6.625
 343   6 C     -0.037  1.067  2.971  0.000    28.886     8.815
 344   6 C     -0.007  1.069  2.938  0.000    28.159     8.703
 345   6 C     -0.028  1.080  2.948  0.000    28.578     8.762
 346   7 N     -0.124  1.243  3.881  0.000    23.702     7.231
 347   6 C      0.044  1.065  2.890  0.000    26.887     8.498
 348   6 C     -0.046  1.081  2.966  0.000    29.154     8.853
 349   6 C     -0.063  1.078  2.985  0.000    29.564     8.916
 350   6 C     -0.047  1.077  2.970  0.000    29.162     8.855
 351   6 C     -0.046  1.076  2.970  0.000    29.142     8.852
 352   1 H      0.177  0.823  0.000  0.000     1.229     1.737
 353   1 H      0.065  0.935  0.000  0.000     2.146     2.291
 354   1 H      0.051  0.949  0.000  0.000     2.305     2.374
 355   1 H      0.039  0.961  0.000  0.000     2.457     2.451
 356   1 H      0.040  0.960  0.000  0.000     2.444     2.445
 357   1 H      0.231  0.769  0.000  0.000     0.961     1.536
 358   1 H      0.005  0.995  0.000  0.000     2.972     2.696
 359   1 H      0.062  0.938  0.000  0.000     2.176     2.307
 360   1 H      0.002  0.998  0.000  0.000     3.023     2.719
 361   1 H      0.033  0.967  0.000  0.000     2.547     2.496
 362   1 H      0.186  0.814  0.000  0.000     1.178     1.700
 363   1 H      0.062  0.938  0.000  0.000     2.170     2.304
 364   1 H      0.182  0.818  0.000  0.000     1.202     1.717
 365   1 H      0.072  0.928  0.000  0.000     2.068     2.249
 366   1 H      0.173  0.827  0.000  0.000     1.257     1.756
 367   1 H      0.073  0.927  0.000  0.000     2.056     2.242
 368   1 H      0.190  0.810  0.000  0.000     1.159     1.687
 369   1 H      0.088  0.912  0.000  0.000     1.897     2.154
 370   1 H      0.177  0.823  0.000  0.000     1.234     1.740
 371   1 H      0.098  0.902  0.000  0.000     1.800     2.098
 372   1 H      0.187  0.813  0.000  0.000     1.173     1.696
 373   1 H      0.093  0.907  0.000  0.000     1.848     2.126
 374   1 H      0.185  0.815  0.000  0.000     1.184     1.704
 375   1 H      0.080  0.920  0.000  0.000     1.973     2.197

 Mol. C6AA /au·bohr⁶  :    1206659.861574
 Mol. C8AA /au·bohr⁸  :   26278898.357312
 Mol. α(0) /au        :       1637.666906

 
molecular dipole:
                 x           y           z       tot (Debye)
 q only:      -11.190     -35.580     -12.874
   full:       -9.607     -34.712     -12.746      97.112
molecular quadrupole (traceless):
                xx          xy          yy          xz          yz          zz
 q only:     1319.465   -1430.701   -2708.927    -410.390    -442.658    1389.462
  q+dip:     1340.876   -1322.133   -2678.507    -386.856    -463.386    1337.630
   full:     1338.462   -1319.434   -2677.542    -389.681    -465.136    1339.080
speedup  1.27
cpu  time for grad   15.34 s
wall time for grad   12.07 s

SCC energy    :    -593.3642759
rep           :       6.5372593
ES            :       2.1420603
AES           :      -0.1097772
AXC           :       0.1663703
disp          :      -0.4684730
XB            :       0.0000000
fix           :       0.0000000
Gborn         :       0.0000000
Gsasa         :       0.0000000
Ghb           :       0.0000000
Gshift        :       0.0000000
Gsolv         :      -0.4339518     -272.31
Etot ala COSMO:    -593.3642759
grad norm     :       0.6656204
total E       :    -586.7769619
atomizationE  :     100.0784548    62800.18
(atE without considering molecular charge,
 total energy contains solvation terms)
H-L gap (eV)  :          1.3407

------------------------------------------------------------------------
 * finished run on 2019/05/04 at 19:51:49.705     
------------------------------------------------------------------------
 total:
 * wall-time:     0 d,  0 h,  0 min, 12.904 sec
 *  cpu-time:     0 d,  0 h,  0 min, 16.250 sec
 * ratio c/w:     1.259 speedup
 SCF:
 * wall-time:     0 d,  0 h,  0 min, 12.474 sec
 *  cpu-time:     0 d,  0 h,  0 min, 15.996 sec
 * ratio c/w:     1.282 speedup

