      -----------------------------------------------------------      
     |                   =====================                   |     
     |                           x T B                           |     
     |                   =====================                   |     
     |                         S. Grimme                         |     
     |          Mulliken Center for Theoretical Chemistry        |     
     |                    University of Bonn                     |     
     |                 Version 6.0.1 (SAW181210)                 |     
      -----------------------------------------------------------      

   This program is distributed in the hope that it will be useful,
   but WITHOUT ANY WARRANTY; without even the implied warranty of
   MERCHANTABILITY or FITNESS FOR A PARTICULAR PURPOSE.
   
   FOR NON-COMMERCIAL, ACADEMIA USE ONLY.
   
   Cite this work as:
   S. Grimme, C. Bannwarth, P. Shushkov, J. Comput. Theory Chem., 2017,
   13, 1989-2009.
   C. Bannwarth, S. Ehlert and S. Grimme., ChemRxiv, 2018, preprint.
   http://doi.org/10.26434/chemrxiv.7246238.v1
   
   for sTDA-xTB:
   S. Grimme and C. Bannwarth, J. Chem. Phys., 2016, 145, 054103.
   
   in the mass-spec context:
   V. Asgeirsson, C. Bauer and S. Grimme, Chem. Sci., 2017, 8, 4879.
   
   if GBSA is used:
   P. Shushkov, F. März and S. Grimme, unpublished.
   
   for ANC optimizer:
   S. Grimme, unpublished.
   Rational Function algorithm used in ANCopt:
   F. Eckert, P. Pulay, H.-J. Werner, J. Comput. Chem., 1997, 18, 1473.
   
   with help from (in alphabetical order)
   C. Bannwarth, F. Bohle, G. Brandenburg, E. Caldeweyher, M. Checinski,
   S. Dohm, S. Ehlert, S. Ehrlich, F. März, H. Neugebauer, J. Pisarek,
   P. Pracht, P. Shushkov, and S. Spicher.
   
 * started run on 2019/05/10 at 00:42:06.629     
========================================================================
 # omp threads = 2
========================================================================
number of atoms            : 248
number of electrons        : 704
charge                     : -2
spin                       : .0
first test random number   : .8070

########################################################################
# WARNING! Please study the warnings concerning your input carefully
#  - Process number higher than OMP_NUM_THREADS, I hope you know what you are doing.
########################################################################

           ------------------------------------------------- 
          |                 G F N 2 - x T B                 |
          | Geometry, Frequencies, Noncovalent interactions |
          |            JCTC 2018 parametrisation            |
           ------------------------------------------------- 
 
      method parameters     
 k(s)        :  1.8500
 k(p)        :  2.2300
 k(d)        :  2.2300
 k(f)        :  2.0000
 kEN (H0ij)  : -2.0000
 D4 a1       :  0.5200
 D4 a2       :  5.0000
 D4 s6       :  1.0000
 D4 s8       :  2.7000
 D4 s9       :  5.0000
 alphaj      :  2.0000

 Solvent             : h2o
 Using internal parameter file: .param_gbsa2_h2o
 Gsolv ref. state (COSMO-RS): gsolv [1 M gas/solution]
 temperature (mdtemp)       :    298.150000000000     
 dielectric constant        :    80.2000000000000     
 rho                        :    1.00000000000000     
 mass                       :    18.0000000000000     
 surface tension            :    15.5689454083859     
 probe radius               :   0.975313790000000     
 vdW radii scaling          :    1.00000000000000     
 Gshift (Eh)                :   1.857443126794793E-003
 c1                         :    1.55243817000000     
 soset                      :   0.130326360000000     
 HB correction              :  T

            Z     q(EN)     CN     RAES       Cart. coordinates
     1  N   5.0   -0.23    3.19    1.95    -5.27403   166.48511    18.72030
     2  C   4.0    0.03    4.25    4.10    -7.23824   165.49530    20.36840
     3  C   4.0    0.06    3.28    3.05    -9.53243   167.17565    20.46991
     4  O   6.0   -0.30    1.13    1.80   -11.57871   166.20697    20.99625
     5  C   4.0   -0.05    4.37    4.32    -6.42999   165.42399    23.12428
     6  C   4.0   -0.05    4.19    3.98    -4.29528   163.60049    23.68981
     7  C   4.0   -0.01    4.20    3.99    -3.76411   163.78376    26.52108
     8  N   5.0   -0.14    3.40    2.02    -1.62472   162.21030    27.19644
     9  C   4.0    0.10    3.32    3.06    -1.41132   160.26984    28.82399
    10  N   5.0   -0.19    3.20    1.95    -3.27715   159.56823    30.62209
    11  N   5.0   -0.18    3.26    1.97     0.75993   159.32626    29.07193
    12  H   1.0    0.07    1.02    1.43    -3.45452   166.12392    19.26752
    13  H   1.0    0.05    1.05    1.44    -7.79117   163.61533    19.72941
    14  H   1.0    0.03    1.03    1.43    -5.86733   167.33641    23.68020
    15  H   1.0    0.05    1.04    1.44    -8.08929   164.88191    24.20673
    16  H   1.0    0.07    1.03    1.43    -4.83885   161.66646    23.19857
    17  H   1.0    0.03    1.03    1.43    -2.60351   164.08709    22.63780
    18  H   1.0    0.03    1.03    1.43    -3.35129   165.70633    27.07488
    19  H   1.0    0.04    1.02    1.43    -5.43454   163.13653    27.57518
    20  H   1.0    0.07    1.10    1.44    -0.17234   162.37555    26.01222
    21  H   1.0    0.09    1.02    1.43    -5.07363   159.99851    30.06515
    22  H   1.0    0.09    1.05    1.44    -2.98871   157.96362    31.38023
    23  H   1.0    0.06    1.02    1.43     2.15848   159.63436    27.68428
    24  H   1.0    0.07    1.00    1.43     1.22340   157.59583    29.95990
    25  N   5.0   -0.23    3.26    1.97     0.50049   149.62320    15.17016
    26  C   4.0    0.03    4.41    4.39    -0.44368   149.08127    17.67453
    27  C   4.0    0.14    3.58    3.16    -2.92462   150.35418    18.13744
    28  O   6.0   -0.33    1.38    1.80    -4.67424   149.49312    19.27809
    29  C   4.0   -0.03    4.23    4.06     1.31153   149.70162    19.94709
    30  C   4.0   -0.09    4.09    3.79     3.82467   150.98147    19.15560
    31  C   4.0   -0.07    4.17    3.94    -0.06276   151.15802    22.03903
    32  H   1.0    0.06    1.02    1.43     2.41253   149.93421    14.94246
    33  H   1.0    0.04    1.04    1.44    -0.82098   147.00685    17.77884
    34  H   1.0    0.03    1.04    1.44     1.88583   147.88167    20.83038
    35  H   1.0    0.03    0.99    1.43     4.92081   151.38369    20.87063
    36  H   1.0    0.03    1.00    1.43     4.93534   149.75975    17.97433
    37  H   1.0    0.03    1.00    1.43     3.43744   152.73683    18.19019
    38  H   1.0    0.03    0.99    1.43     1.25152   151.37160    23.66752
    39  H   1.0    0.04    1.00    1.43    -0.51511   153.07392    21.43311
    40  H   1.0    0.05    1.02    1.43    -1.70223   150.21404    22.69142
    41  N   5.0   -0.15    3.61    2.16    -2.83451   152.73550    17.32422
    42  C   4.0    0.04    4.48    4.51    -4.91858   154.46536    17.63835
    43  C   4.0    0.09    3.44    3.09    -7.31414   153.19765    16.97885
    44  O   6.0   -0.31    1.18    1.80    -9.25287   153.68504    17.98308
    45  C   4.0   -0.03    4.33    4.25    -4.48634   156.71631    15.93466
    46  C   4.0   -0.08    4.18    3.95    -6.40997   156.84051    13.82402
    47  C   4.0   -0.07    4.13    3.85    -4.39918   159.08376    17.55416
    48  H   1.0    0.07    1.09    1.44    -1.25337   153.28617    16.38427
    49  H   1.0    0.06    1.08    1.44    -4.99327   155.12592    19.62238
    50  H   1.0    0.03    1.07    1.44    -2.59909   156.50828    15.07378
    51  H   1.0    0.03    0.98    1.43    -6.15540   158.65724    12.76819
    52  H   1.0    0.03    1.01    1.43    -6.14272   155.33530    12.48983
    53  H   1.0    0.05    1.02    1.43    -8.32750   156.83726    14.52389
    54  H   1.0    0.03    0.99    1.43    -4.12157   160.79228    16.38872
    55  H   1.0    0.06    1.00    1.43    -6.19343   159.30657    18.56132
    56  H   1.0    0.04    1.01    1.43    -2.93063   158.98428    18.95053
    57  N   5.0   -0.19    3.43    2.04    -8.46060   147.12334    17.33030
    58  C   4.0    0.05    4.61    4.67    -9.54752   145.65846    19.24984
    59  C   4.0    0.14    3.67    3.21   -10.86325   147.24804    21.10388
    60  O   6.0   -0.30    1.47    1.80   -12.75245   146.47186    22.29447
    61  C   4.0   -0.03    4.37    4.33    -7.64525   144.06314    20.68022
    62  C   4.0    0.15    3.37    3.07    -7.46355   141.96974    18.76094
    63  O   6.0   -0.32    1.29    1.80    -7.16371   142.60003    16.53851
    64  N   5.0   -0.20    3.13    1.94    -8.03021   139.49764    19.69348
    65  H   1.0    0.11    1.05    1.44    -6.56351   147.09083    16.98023
    66  H   1.0    0.05    1.08    1.44   -10.96613   144.35530    18.42776
    67  H   1.0    0.06    1.03    1.43    -5.86720   145.06495    20.86616
    68  H   1.0    0.07    1.03    1.43    -8.32733   143.41058    22.51436
    69  H   1.0    0.09    1.04    1.43    -7.81268   138.09581    18.59379
    70  H   1.0    0.10    1.02    1.43    -8.21305   139.37479    21.62409
    71  N   5.0   -0.14    3.67    2.23    -9.82075   149.43597    21.46260
    72  C   4.0    0.04    4.52    4.56   -10.64244   150.78023    23.72025
    73  C   4.0    0.19    3.52    3.12   -13.55263   150.53124    23.89375
    74  O   6.0   -0.28    1.19    1.80   -14.66546   149.95715    25.80051
    75  C   4.0   -0.03    4.28    4.15    -9.55020   153.46116    23.59321
    76  C   4.0   -0.03    4.21    4.03    -6.67596   153.28867    23.92510
    77  C   4.0    0.24    3.12    3.03    -5.69384   155.99891    24.38317
    78  O   6.0   -0.32    1.20    1.80    -6.05892   157.57975    22.65682
    79  O   6.0   -0.30    1.17    1.80    -4.64693   156.37528    26.52572
    80  H   1.0    0.11    1.12    1.45    -8.10211   149.77228    20.70559
    81  H   1.0    0.06    1.04    1.43    -9.92067   149.83889    25.45436
    82  H   1.0    0.08    1.05    1.44   -10.01761   154.36209    21.83885
    83  H   1.0    0.06    1.01    1.43   -10.38964   154.57447    25.15933
    84  H   1.0    0.05    1.02    1.43    -6.23322   152.15650    25.61563
    85  H   1.0    0.06    1.04    1.43    -5.81916   152.42972    22.30946
    86  N   5.0   -0.13    3.64    2.19   -14.50200   151.12198    21.55846
    87  C   4.0    0.04    4.45    4.46   -16.94558   150.52613    20.62234
    88  C   4.0    0.16    3.52    3.12   -17.62037   147.75164    20.64804
    89  O   6.0   -0.30    1.41    1.80   -19.29130   147.04487    22.13071
    90  C   4.0   -0.05    4.34    4.26   -17.15564   151.53825    17.97949
    91  C   4.0   -0.04    4.18    3.97   -16.78568   154.40903    18.07900
    92  C   4.0   -0.01    4.13    3.86   -19.19265   155.93338    18.89287
    93  N   5.0   -0.14    3.36    2.00   -20.13989   157.61888    16.83491
    94  C   4.0    0.09    3.32    3.06   -22.27820   158.17000    16.04284
    95  N   5.0   -0.19    3.22    1.96   -24.50749   157.16010    17.29381
    96  N   5.0   -0.19    3.24    1.97   -22.68224   159.43665    13.97926
    97  H   1.0    0.09    1.13    1.45   -13.14746   151.33369    20.22172
    98  H   1.0    0.06    1.06    1.44   -18.32553   151.43667    21.91194
    99  H   1.0    0.04    1.04    1.43   -15.67650   150.71097    16.83148
   100  H   1.0    0.04    1.03    1.43   -18.99113   151.04224    17.19135
   101  H   1.0    0.05    1.05    1.44   -15.26911   154.86131    19.36010
   102  H   1.0    0.04    1.02    1.43   -16.22550   155.07396    16.18571
   103  H   1.0    0.05    1.03    1.43   -20.70911   154.60505    19.31272
   104  H   1.0    0.06    1.02    1.43   -18.81188   156.99740    20.58897
   105  H   1.0    0.07    1.06    1.44   -18.61500   158.51385    15.90322
   106  H   1.0    0.11    1.03    1.43   -24.31001   155.85239    18.57532
   107  H   1.0    0.09    1.04    1.43   -26.12737   157.38507    16.49420
   108  H   1.0    0.07    1.02    1.43   -21.08980   160.32383    13.16287
   109  H   1.0    0.08    1.04    1.44   -24.32165   160.17412    13.56179
   110  N   5.0   -0.14    3.45    2.04   -16.62170   146.25889    18.90472
   111  C   4.0    0.03    4.34    4.27   -17.38731   143.60447    18.71688
   112  C   4.0    0.17    3.55    3.14   -18.31250   142.54762    21.31486
   113  O   6.0   -0.31    1.29    1.80   -20.25285   141.27988    21.47243
   114  C   4.0   -0.05    4.17    3.94   -15.38895   141.76230    17.69445
   115  C   4.0   -0.05    4.06    3.72   -14.40843   142.08824    14.88345
   116  C   4.0   -0.02    4.09    3.79   -15.86400   140.75241    12.72897
   117  N   5.0   -0.15    3.28    1.98   -16.37288   137.94255    12.84389
   118  C   4.0    0.08    3.31    3.05   -16.54059   136.34213    10.81561
   119  N   5.0   -0.20    3.22    1.96   -15.28181   136.80221     8.65489
   120  N   5.0   -0.20    3.22    1.96   -17.92129   134.24451    10.96802
   121  H   1.0    0.08    1.06    1.44   -15.07639   146.78456    17.91172
   122  H   1.0    0.05    1.04    1.43   -19.05576   143.52743    17.45485
   123  H   1.0    0.05    1.03    1.43   -13.74984   141.89693    18.94094
   124  H   1.0    0.05    1.03    1.43   -16.15200   139.86696    17.90554
   125  H   1.0    0.04    1.04    1.43   -14.36850   144.04623    14.40034
   126  H   1.0    0.05    1.02    1.43   -12.46311   141.37521    14.85938
   127  H   1.0    0.04    1.02    1.43   -17.74248   141.62777    12.60134
   128  H   1.0    0.03    1.03    1.43   -14.85265   141.14749    11.00260
   129  H   1.0    0.08    1.07    1.44   -17.36315   137.39571    14.34001
   130  H   1.0    0.07    1.01    1.43   -14.58159   138.60923     8.24942
   131  H   1.0    0.07    1.05    1.44   -15.56031   135.71234     7.19582
   132  H   1.0    0.07    1.02    1.43   -18.12247   133.23190    12.61040
   133  H   1.0    0.07    1.05    1.44   -17.75279   133.07871     9.48703
   134  N   5.0   -0.13    3.53    2.10   -16.81899   142.95863    23.30490
   135  C   4.0    0.04    4.48    4.51   -17.84295   142.39152    25.74042
   136  C   4.0    0.17    3.47    3.10   -20.38105   143.72008    26.32390
   137  O   6.0   -0.31    1.33    1.80   -22.29175   142.45831    26.30132
   138  C   4.0   -0.04    4.27    4.14   -15.84082   142.81575    27.73784
   139  C   4.0   -0.03    4.18    3.97   -14.19933   140.43133    27.98109
   140  C   4.0    0.26    3.09    3.02   -11.34962   141.11200    28.29447
   141  O   6.0   -0.28    1.15    1.80   -10.59729   141.62945    30.50082
   142  O   6.0   -0.28    1.17    1.80   -10.10809   141.10820    26.30039
   143  H   1.0    0.12    1.11    1.45   -15.31921   144.08633    23.20289
   144  H   1.0    0.06    1.06    1.44   -18.40636   140.36204    25.75197
   145  H   1.0    0.07    1.04    1.43   -14.67938   144.42856    27.23313
   146  H   1.0    0.05    1.02    1.43   -16.69905   143.23455    29.58645
   147  H   1.0    0.05    1.02    1.43   -14.77987   139.27939    29.60406
   148  H   1.0    0.05    1.04    1.43   -14.32623   139.30565    26.27103
   149  N   5.0   -0.14    3.50    2.08   -20.29927   146.14210    26.97197
   150  C   4.0    0.03    4.42    4.41   -22.46447   147.63414    27.72611
   151  C   4.0    0.16    3.53    3.13   -24.84051   146.83129    26.36349
   152  O   6.0   -0.32    1.26    1.80   -26.88408   146.75941    27.53822
   153  C   4.0   -0.03    4.32    4.23   -22.13055   150.42406    27.03952
   154  C   4.0   -0.03    4.15    3.91   -19.92767   151.68282    28.42595
   155  C   4.0    0.25    3.08    3.02   -19.21036   154.29476    27.17428
   156  O   6.0   -0.30    1.18    1.80   -21.02929   155.44874    26.19984
   157  O   6.0   -0.28    1.15    1.80   -16.94783   154.97881    27.29134
   158  H   1.0    0.10    1.07    1.44   -18.64220   147.09464    26.78654
   159  H   1.0    0.04    1.05    1.44   -22.76256   147.45483    29.77243
   160  H   1.0    0.06    1.03    1.43   -21.76817   150.56847    25.01193
   161  H   1.0    0.05    1.03    1.43   -23.85413   151.45931    27.44808
   162  H   1.0    0.04    1.02    1.43   -20.39309   152.01997    30.41167
   163  H   1.0    0.07    1.03    1.43   -18.21134   150.53710    28.37447
   164  N   5.0   -0.13    3.52    2.09   -24.61793   146.39036    23.91882
   165  C   4.0    0.04    4.36    4.31   -26.74795   145.71183    22.32958
   166  C   4.0    0.16    3.45    3.09   -27.52248   142.89314    22.70300
   167  O   6.0   -0.29    1.35    1.80   -29.54103   142.34956    23.54870
   168  C   4.0   -0.04    4.18    3.96   -26.25397   146.50055    19.62149
   169  C   4.0   -0.04    4.06    3.74   -28.49034   147.63879    18.10412
   170  C   4.0    0.24    3.02    3.02   -27.94455   150.26895    16.63527
   171  O   6.0   -0.30    1.13    1.80   -28.67936   150.42862    14.32485
   172  O   6.0   -0.30    1.15    1.80   -26.91460   151.96769    17.86334
   173  H   1.0    0.11    1.10    1.44   -22.85924   146.43332    23.14069
   174  H   1.0    0.06    1.07    1.44   -28.37535   146.77575    23.06482
   175  H   1.0    0.06    1.03    1.43   -24.78077   147.99069    19.67985
   176  H   1.0    0.05    1.02    1.43   -25.43930   144.91128    18.55310
   177  H   1.0    0.05    1.01    1.43   -29.16311   146.29040    16.66784
   178  H   1.0    0.05    1.03    1.43   -30.03551   148.06278    19.34436
   179  N   5.0   -0.15    3.46    2.05   -25.78179   141.11843    22.01137
   180  C   4.0    0.05    4.49    4.52   -26.50651   138.52639    22.40358
   181  C   4.0    0.18    3.56    3.14   -27.94709   138.15898    24.90826
   182  O   6.0   -0.27    1.24    1.80   -29.83669   136.88967    25.06178
   183  C   4.0    0.03    4.17    3.95   -24.28745   136.76556    22.33630
   184  O   6.0   -0.25    2.06    1.83   -25.21932   134.55769    21.14586
   185  H   1.0    0.11    1.08    1.44   -23.92597   141.53933    21.80885
   186  H   1.0    0.06    1.07    1.44   -27.78980   137.94567    20.89635
   187  H   1.0    0.06    1.01    1.43   -22.73019   137.59881    21.22005
   188  H   1.0    0.05    1.01    1.43   -23.55059   136.36810    24.24602
   189  H   1.0    0.11    1.00    1.43   -23.97886   133.17774    21.37802
   190  N   5.0   -0.13    3.50    2.07   -26.81167   139.26426    26.84556
   191  C   4.0    0.04    4.34    4.27   -28.12711   139.89415    29.14766
   192  C   4.0    0.17    3.54    3.13   -30.91073   140.48459    28.87300
   193  O   6.0   -0.28    1.33    1.80   -32.48857   138.88548    29.42504
   194  C   4.0   -0.07    4.16    3.92   -26.90419   142.05486    30.61189
   195  H   1.0    0.11    1.11    1.44   -25.25358   140.39330    26.51392
   196  H   1.0    0.05    1.05    1.44   -28.10195   138.16700    30.36200
   197  H   1.0    0.04    1.00    1.43   -27.92830   142.36956    32.36965
   198  H   1.0    0.05    0.99    1.43   -24.95186   141.54046    31.09671
   199  H   1.0    0.08    1.05    1.44   -26.85948   143.77230    29.54006
   200  N   5.0   -0.14    3.47    2.06   -31.60851   142.85269    28.39293
   201  C   4.0    0.04    4.30    4.20   -34.25155   143.41644    29.07170
   202  C   4.0    0.10    3.29    3.05   -36.05426   141.54418    27.74448
   203  O   6.0   -0.30    1.11    1.80   -38.02658   140.83247    28.74212
   204  C   4.0   -0.08    4.10    3.80   -34.98438   146.07892    28.40613
   205  H   1.0    0.10    1.07    1.44   -30.40166   144.24771    28.00287
   206  H   1.0    0.05    1.06    1.44   -34.50338   143.11064    31.09060
   207  H   1.0    0.04    1.01    1.43   -36.93959   146.40861    28.88179
   208  H   1.0    0.04    1.00    1.43   -33.79293   147.42568    29.39747
   209  H   1.0    0.05    0.99    1.43   -34.74303   146.39907    26.35699
   210  N   5.0   -0.24    3.26    1.97     4.55070   137.76999    29.11937
   211  C   4.0    0.03    4.22    4.05     1.90834   137.56200    29.28311
   212  C   4.0    0.11    3.19    3.03     0.73914   137.09278    26.62451
   213  O   6.0   -0.31    1.21    1.80    -0.46515   135.55810    26.06350
   214  C   4.0   -0.05    4.20    4.00     0.99640   139.71944    31.01058
   215  C   4.0   -0.03    4.07    3.75    -1.84631   140.24008    30.97736
   216  C   4.0    0.26    3.05    3.02    -3.71987   137.93536    30.20254
   217  O   6.0   -0.25    1.16    1.80    -4.55206   137.84237    27.99153
   218  O   6.0   -0.29    1.15    1.80    -4.22306   136.46505    31.96114
   219  H   1.0    0.07    1.06    1.44     5.37077   139.28904    29.61347
   220  H   1.0    0.05    1.04    1.43     1.35748   135.77120    30.30295
   221  H   1.0    0.03    1.04    1.43     1.52439   139.27994    32.91068
   222  H   1.0    0.03    1.03    1.43     1.96703   141.44648    30.39188
   223  H   1.0    0.05    1.02    1.43    -2.50612   140.99844    32.75962
   224  H   1.0    0.05    1.00    1.43    -2.25000   141.71522    29.48165
   225  N   5.0   -0.20    3.08    1.93    -4.12369   131.41526    24.43338
   226  C   4.0    0.04    4.27    4.14    -6.32120   131.63346    22.96282
   227  C   4.0    0.06    3.27    3.05    -6.30141   130.30255    20.38554
   228  O   6.0   -0.30    1.10    1.80    -8.26394   129.35244    19.41176
   229  C   4.0   -0.02    4.37    4.32    -7.19821   134.29352    22.12519
   230  C   4.0    0.16    3.26    3.05    -9.57110   134.85824    23.56772
   231  O   6.0   -0.27    1.21    1.80    -9.60093   134.26063    25.86897
   232  N   5.0   -0.19    3.15    1.95   -11.57854   135.66599    22.14245
   233  H   1.0    0.12    0.94    1.42    -3.51049   133.28751    25.33786
   234  H   1.0    0.06    1.08    1.44    -7.91726   130.76191    23.95575
   235  H   1.0    0.06    1.02    1.43    -5.69026   135.64893    22.60836
   236  H   1.0    0.04    1.05    1.44    -7.52474   134.37379    20.09373
   237  H   1.0    0.09    1.02    1.43   -13.13202   136.18020    23.18374
   238  H   1.0    0.09    1.04    1.44   -11.38902   136.23434    20.43456
   239  H   1.0    0.08    1.07    1.44    -5.44450   165.81356    17.16706
   240  H   1.0    0.04    1.04    1.44    -9.36615   169.02420    20.11455
   241  H   1.0    0.08    1.07    1.44     0.14753   148.31992    14.13603
   242  H   1.0    0.05    1.06    1.44    -7.34132   151.86881    15.63554
   243  H   1.0    0.09    1.09    1.44    -9.13456   146.68555    15.83141
   244  H   1.0    0.07    1.05    1.44   -35.62867   140.87853    26.02784
   245  H   1.0    0.08    1.09    1.44     5.27538   136.58073    30.09562
   246  H   1.0    0.05    1.08    1.44     1.08874   138.29884    25.21233
   247  H   1.0    0.10    1.08    1.44    -4.39031   130.30158    25.69084
   248  H   1.0    0.05    1.04    1.43    -4.69072   130.16139    19.40737

  Z AO/shell   Hii/eV     exponent
  1     Wed Apr 25 08:07:45 CEST 2018   EN: 2.200 GM2: 0.406  GM3: 0.0800  RAES: 1.40
     1s    -10.707211    1.230000
  6     Wed Apr 25 08:07:45 CEST 2018   EN: 2.550 GM2: 0.538  GM3: 0.1500  RAES: 3.00
     2s    -13.970922    2.096432
     2p    -10.063292    1.800000
  7     Wed Apr 25 08:07:45 CEST 2018   EN: 3.040 GM2: 0.461  GM3:-0.0640  RAES: 1.90
     2s    -16.686243    2.339881
     2p    -12.523956    2.014332
  8     Wed Apr 25 08:07:45 CEST 2018   EN: 3.440 GM2: 0.452  GM3:-0.0517  RAES: 1.80
     2s    -20.229985    2.439742
     2p    -15.503117    2.137023
 no old-style atom pair restraining (fixing) potential

molecular fragmentation (1/2 indicates fragments):
111111111111111111111111222222222222222222222222222222222222222222222222
222222222222222222222222222222222222222222222222222222222222222222222222
222222222222222222222222222222222222222222222222222222222222222222222222
22222222222222222222221122222222
# atoms in fragment 1/2:    26   222
 fragment masses (1/2) :      159.21     1618.70
CMA distance (Bohr)    :  21.227
constraining FC (au)   :  0.0500
           ------------------------------------------------- 
          |        Self-Consistent Charge Iterations        |
           ------------------------------------------------- 

 Ncao       : 620
 Nao        : 620
 Nshell     : 372
 Nel        : 704
 T(el)      :   500.0
 intcut     :    35.0
 scfconv/Eh :  0.100E-06
   qconv/e  :  0.100E-04
 intneglect :  0.100E-08
 broydamp   :      0.400
 iter      E             dE          RMSdq      gap      omega  full diag
   1   -406.9918741 -0.406992E+03  0.503E+00    2.85       0.0  T
   2   -408.1791472 -0.118727E+01  0.229E+00    1.56       1.0  T
   3   -408.2612302 -0.820830E-01  0.134E+00    2.17       1.0  T
   4   -408.3350856 -0.738554E-01  0.291E-01    1.35       1.0  T
   5   -408.3393671 -0.428146E-02  0.155E-01    1.57       1.0  T
   6   -408.3400553 -0.688260E-03  0.657E-02    1.54       1.0  T
   7   -408.3403137 -0.258341E-03  0.267E-02    1.61       1.0  T
   8   -408.3403374 -0.236771E-04  0.124E-02    1.61       1.0  T
   9   -408.3403454 -0.804543E-05  0.517E-03    1.62       1.2  T
  10   -408.3403464 -0.962497E-06  0.201E-03    1.62       3.2  T
  11   -408.3403466 -0.263408E-06  0.810E-04    1.62       7.8  T
  12   -408.3403467 -0.280514E-07  0.310E-04    1.62      20.5  T
  13   -408.3403467 -0.337832E-08  0.146E-04    1.62      43.4  T
  14   -408.3403467 -0.790294E-09  0.481E-05    1.62     132.0  T
  15   -408.3403467 -0.106411E-09  0.195E-05    1.62     325.8  T
speedup  1.78
cpu  time for SCC    6.53 s
wall time for SCC    3.67 s

   *** convergence criteria satisfied after 15 iterations ***

          eigenvalues
 #    :         340        341        342        343        344        345        346        347
 occ. :        2.000      2.000      2.000      2.000      2.000      2.000      2.000      2.000
 eps  :       -10.357    -10.336    -10.297    -10.260    -10.223    -10.062    -10.055     -9.986
 #    :         348        349        350        351        352        353        354        355
 occ. :        2.000      2.000      2.000      2.000      2.000      0.000      0.000      0.000
 eps  :        -9.960     -9.863     -9.757     -9.731     -9.723     -8.103     -7.563     -7.388
 #    :         356        357        358        359        360        361        362        363
 occ. :        0.000      0.000      0.000      0.000      0.000      0.000      0.000      0.000
 eps  :        -7.286     -7.025     -6.824     -6.810     -6.580     -6.489     -6.478     -6.420


   #   Z            q   n(s)   n(p)   n(d)      C6AA      α(0)
   1   7 N     -0.387  1.317  4.070  0.000    30.019     8.137
   2   6 C      0.042  1.048  2.910  0.000    19.878     6.350
   3   6 C      0.200  1.089  2.711  0.000    23.738     7.981
   4   8 O     -0.402  1.768  4.634  0.000    21.724     6.249
   5   6 C     -0.064  1.052  3.012  0.000    21.699     6.626
   6   6 C     -0.077  1.052  3.025  0.000    21.970     6.673
   7   6 C     -0.016  1.054  2.962  0.000    20.932     6.527
   8   7 N     -0.141  1.213  3.928  0.000    24.048     7.283
   9   6 C      0.248  1.028  2.724  0.000    22.836     7.824
  10   7 N     -0.274  1.271  4.003  0.000    27.098     7.731
  11   7 N     -0.219  1.248  3.971  0.000    25.778     7.541
  12   1 H      0.173  0.827  0.000  0.000     1.254     1.754
  13   1 H      0.044  0.956  0.000  0.000     2.393     2.419
  14   1 H      0.067  0.933  0.000  0.000     2.115     2.274
  15   1 H      0.041  0.959  0.000  0.000     2.431     2.438
  16   1 H      0.070  0.930  0.000  0.000     2.080     2.256
  17   1 H      0.068  0.932  0.000  0.000     2.108     2.270
  18   1 H      0.097  0.903  0.000  0.000     1.811     2.105
  19   1 H      0.060  0.940  0.000  0.000     2.202     2.321
  20   1 H      0.239  0.761  0.000  0.000     0.927     1.508
  21   1 H      0.210  0.790  0.000  0.000     1.058     1.611
  22   1 H      0.226  0.774  0.000  0.000     0.984     1.554
  23   1 H      0.262  0.738  0.000  0.000     0.840     1.436
  24   1 H      0.256  0.744  0.000  0.000     0.863     1.455
  25   7 N     -0.390  1.310  4.079  0.000    30.084     8.146
  26   6 C      0.031  1.056  2.914  0.000    20.062     6.377
  27   6 C      0.283  1.032  2.686  0.000    22.214     7.719
  28   8 O     -0.504  1.742  4.762  0.000    23.869     6.550
  29   6 C     -0.019  1.070  2.949  0.000    20.872     6.498
  30   6 C     -0.124  1.044  3.081  0.000    22.945     6.831
  31   6 C     -0.105  1.038  3.067  0.000    22.571     6.775
  32   1 H      0.181  0.819  0.000  0.000     1.206     1.720
  33   1 H      0.004  0.996  0.000  0.000     2.992     2.705
  34   1 H      0.026  0.974  0.000  0.000     2.648     2.545
  35   1 H      0.056  0.944  0.000  0.000     2.244     2.343
  36   1 H      0.058  0.942  0.000  0.000     2.221     2.331
  37   1 H      0.066  0.934  0.000  0.000     2.135     2.285
  38   1 H      0.039  0.961  0.000  0.000     2.465     2.455
  39   1 H      0.042  0.958  0.000  0.000     2.427     2.436
  40   1 H      0.016  0.984  0.000  0.000     2.790     2.612
  41   7 N     -0.189  1.255  3.934  0.000    25.090     7.439
  42   6 C      0.017  1.055  2.928  0.000    20.283     6.411
  43   6 C      0.224  1.065  2.711  0.000    23.295     7.905
  44   8 O     -0.381  1.734  4.647  0.000    21.307     6.189
  45   6 C     -0.015  1.061  2.954  0.000    20.807     6.487
  46   6 C     -0.127  1.041  3.086  0.000    22.992     6.837
  47   6 C     -0.116  1.043  3.073  0.000    22.769     6.803
  48   1 H      0.228  0.772  0.000  0.000     0.972     1.544
  49   1 H      0.091  0.909  0.000  0.000     1.866     2.137
  50   1 H      0.064  0.936  0.000  0.000     2.149     2.293
  51   1 H      0.063  0.937  0.000  0.000     2.169     2.303
  52   1 H      0.059  0.941  0.000  0.000     2.208     2.324
  53   1 H      0.044  0.956  0.000  0.000     2.397     2.421
  54   1 H      0.054  0.946  0.000  0.000     2.276     2.359
  55   1 H      0.049  0.951  0.000  0.000     2.327     2.386
  56   1 H      0.050  0.950  0.000  0.000     2.323     2.384
  57   7 N     -0.378  1.288  4.090  0.000    29.760     8.102
  58   6 C      0.066  1.036  2.898  0.000    19.420     6.265
  59   6 C      0.273  1.035  2.692  0.000    22.399     7.754
  60   8 O     -0.549  1.769  4.780  0.000    24.907     6.691
  61   6 C     -0.085  1.052  3.033  0.000    22.105     6.690
  62   6 C      0.276  1.057  2.667  0.000    22.339     7.745
  63   8 O     -0.435  1.728  4.707  0.000    22.398     6.345
  64   7 N     -0.309  1.269  4.040  0.000    27.966     7.854
  65   1 H      0.185  0.815  0.000  0.000     1.184     1.704
  66   1 H      0.038  0.962  0.000  0.000     2.472     2.459
  67   1 H      0.071  0.929  0.000  0.000     2.075     2.252
  68   1 H      0.028  0.972  0.000  0.000     2.621     2.532
  69   1 H      0.239  0.761  0.000  0.000     0.927     1.508
  70   1 H      0.182  0.818  0.000  0.000     1.200     1.716
  71   7 N     -0.176  1.261  3.916  0.000    24.814     7.398
  72   6 C      0.039  1.066  2.895  0.000    19.894     6.346
  73   6 C      0.309  1.036  2.655  0.000    21.756     7.638
  74   8 O     -0.501  1.757  4.745  0.000    23.817     6.543
  75   6 C     -0.054  1.052  3.001  0.000    21.533     6.606
  76   6 C     -0.084  1.060  3.023  0.000    22.098     6.692
  77   6 C      0.355  1.031  2.613  0.000    20.970     7.494
  78   8 O     -0.585  1.756  4.829  0.000    25.760     6.805
  79   8 O     -0.646  1.775  4.872  0.000    27.290     7.004
  80   1 H      0.251  0.749  0.000  0.000     0.878     1.468
  81   1 H      0.005  0.995  0.000  0.000     2.965     2.693
  82   1 H      0.088  0.912  0.000  0.000     1.898     2.154
  83   1 H      0.011  0.989  0.000  0.000     2.869     2.649
  84   1 H     -0.012  1.012  0.000  0.000     3.273     2.829
  85   1 H      0.041  0.959  0.000  0.000     2.430     2.438
  86   7 N     -0.207  1.256  3.951  0.000    25.495     7.499
  87   6 C      0.043  1.044  2.914  0.000    19.862     6.345
  88   6 C      0.277  1.045  2.678  0.000    22.307     7.735
  89   8 O     -0.522  1.760  4.762  0.000    24.288     6.608
  90   6 C     -0.091  1.058  3.033  0.000    22.217     6.708
  91   6 C     -0.091  1.061  3.031  0.000    22.241     6.714
  92   6 C     -0.020  1.059  2.961  0.000    21.030     6.547
  93   7 N     -0.106  1.213  3.893  0.000    23.327     7.173
  94   6 C      0.239  1.016  2.745  0.000    23.004     7.852
  95   7 N     -0.294  1.238  4.056  0.000    27.579     7.800
  96   7 N     -0.246  1.247  3.999  0.000    26.412     7.633
  97   1 H      0.218  0.782  0.000  0.000     1.020     1.582
  98   1 H      0.045  0.955  0.000  0.000     2.383     2.414
  99   1 H      0.082  0.918  0.000  0.000     1.957     2.188
 100   1 H      0.080  0.920  0.000  0.000     1.975     2.198
 101   1 H      0.071  0.929  0.000  0.000     2.070     2.250
 102   1 H      0.108  0.892  0.000  0.000     1.711     2.045
 103   1 H      0.067  0.933  0.000  0.000     2.119     2.276
 104   1 H      0.081  0.919  0.000  0.000     1.972     2.196
 105   1 H      0.258  0.742  0.000  0.000     0.853     1.447
 106   1 H      0.199  0.801  0.000  0.000     1.113     1.652
 107   1 H      0.228  0.772  0.000  0.000     0.974     1.546
 108   1 H      0.268  0.732  0.000  0.000     0.818     1.417
 109   1 H      0.267  0.733  0.000  0.000     0.820     1.418
 110   7 N     -0.163  1.241  3.922  0.000    24.535     7.357
 111   6 C      0.011  1.071  2.919  0.000    20.412     6.435
 112   6 C      0.284  1.045  2.672  0.000    22.198     7.716
 113   8 O     -0.488  1.735  4.753  0.000    23.523     6.503
 114   6 C     -0.083  1.057  3.025  0.000    22.087     6.692
 115   6 C     -0.086  1.058  3.028  0.000    22.146     6.702
 116   6 C     -0.030  1.062  2.968  0.000    21.214     6.576
 117   7 N     -0.158  1.233  3.925  0.000    24.417     7.339
 118   6 C      0.231  1.030  2.739  0.000    23.142     7.876
 119   7 N     -0.242  1.249  3.993  0.000    26.317     7.619
 120   7 N     -0.255  1.272  3.983  0.000    26.638     7.665
 121   1 H      0.215  0.785  0.000  0.000     1.032     1.591
 122   1 H      0.096  0.904  0.000  0.000     1.820     2.110
 123   1 H      0.039  0.961  0.000  0.000     2.456     2.451
 124   1 H      0.081  0.919  0.000  0.000     1.971     2.196
 125   1 H      0.082  0.918  0.000  0.000     1.957     2.188
 126   1 H      0.082  0.918  0.000  0.000     1.962     2.190
 127   1 H      0.089  0.911  0.000  0.000     1.891     2.150
 128   1 H      0.111  0.889  0.000  0.000     1.685     2.030
 129   1 H      0.217  0.783  0.000  0.000     1.024     1.585
 130   1 H      0.252  0.748  0.000  0.000     0.876     1.466
 131   1 H      0.262  0.738  0.000  0.000     0.837     1.433
 132   1 H      0.252  0.748  0.000  0.000     0.877     1.467
 133   1 H      0.259  0.741  0.000  0.000     0.851     1.445
 134   7 N     -0.178  1.245  3.933  0.000    24.854     7.404
 135   6 C      0.039  1.059  2.902  0.000    19.914     6.352
 136   6 C      0.281  1.041  2.678  0.000    22.243     7.723
 137   8 O     -0.473  1.720  4.753  0.000    23.200     6.458
 138   6 C     -0.041  1.046  2.994  0.000    21.295     6.569
 139   6 C     -0.085  1.070  3.015  0.000    22.116     6.696
 140   6 C      0.372  1.027  2.601  0.000    20.694     7.444
 141   8 O     -0.676  1.790  4.886  0.000    28.062     7.102
 142   8 O     -0.631  1.759  4.872  0.000    26.898     6.953
 143   1 H      0.209  0.791  0.000  0.000     1.059     1.612
 144   1 H      0.068  0.932  0.000  0.000     2.105     2.269
 145   1 H      0.021  0.979  0.000  0.000     2.724     2.581
 146   1 H      0.026  0.974  0.000  0.000     2.650     2.546
 147   1 H      0.017  0.983  0.000  0.000     2.780     2.607
 148   1 H      0.028  0.972  0.000  0.000     2.615     2.529
 149   7 N     -0.170  1.242  3.928  0.000    24.671     7.377
 150   6 C      0.033  1.057  2.910  0.000    20.024     6.372
 151   6 C      0.281  1.037  2.681  0.000    22.240     7.723
 152   8 O     -0.513  1.742  4.771  0.000    24.081     6.579
 153   6 C     -0.041  1.049  2.992  0.000    21.302     6.569
 154   6 C     -0.092  1.067  3.025  0.000    22.258     6.718
 155   6 C      0.371  1.027  2.603  0.000    20.719     7.449
 156   8 O     -0.626  1.763  4.863  0.000    26.756     6.935
 157   8 O     -0.644  1.779  4.865  0.000    27.233     6.997
 158   1 H      0.195  0.805  0.000  0.000     1.133     1.668
 159   1 H      0.060  0.940  0.000  0.000     2.194     2.317
 160   1 H      0.035  0.965  0.000  0.000     2.520     2.482
 161   1 H      0.056  0.944  0.000  0.000     2.249     2.345
 162   1 H      0.015  0.985  0.000  0.000     2.814     2.623
 163   1 H      0.015  0.985  0.000  0.000     2.809     2.621
 164   7 N     -0.169  1.246  3.922  0.000    24.648     7.373
 165   6 C      0.025  1.065  2.910  0.000    20.166     6.395
 166   6 C      0.282  1.043  2.675  0.000    22.233     7.722
 167   8 O     -0.450  1.734  4.716  0.000    22.708     6.389
 168   6 C     -0.057  1.055  3.002  0.000    21.603     6.618
 169   6 C     -0.103  1.075  3.027  0.000    22.478     6.754
 170   6 C      0.359  1.040  2.602  0.000    20.915     7.483
 171   8 O     -0.648  1.786  4.862  0.000    27.332     7.009
 172   8 O     -0.602  1.759  4.842  0.000    26.161     6.857
 173   1 H      0.209  0.791  0.000  0.000     1.060     1.613
 174   1 H      0.069  0.931  0.000  0.000     2.094     2.263
 175   1 H      0.042  0.958  0.000  0.000     2.427     2.436
 176   1 H      0.046  0.954  0.000  0.000     2.369     2.407
 177   1 H      0.028  0.972  0.000  0.000     2.615     2.529
 178   1 H      0.023  0.977  0.000  0.000     2.694     2.567
 179   7 N     -0.202  1.261  3.941  0.000    25.382     7.482
 180   6 C      0.018  1.058  2.923  0.000    20.252     6.405
 181   6 C      0.298  1.032  2.670  0.000    21.935     7.670
 182   8 O     -0.478  1.738  4.740  0.000    23.308     6.473
 183   6 C      0.071  1.041  2.887  0.000    19.590     6.339
 184   8 O     -0.475  1.733  4.742  0.000    22.368     6.384
 185   1 H      0.221  0.779  0.000  0.000     1.005     1.570
 186   1 H      0.093  0.907  0.000  0.000     1.848     2.126
 187   1 H      0.064  0.936  0.000  0.000     2.148     2.292
 188   1 H      0.021  0.979  0.000  0.000     2.715     2.577
 189   1 H      0.357  0.643  0.000  0.000     0.573     1.189
 190   7 N     -0.204  1.259  3.945  0.000    25.430     7.490
 191   6 C      0.035  1.054  2.911  0.000    19.993     6.367
 192   6 C      0.286  1.039  2.674  0.000    22.152     7.709
 193   8 O     -0.477  1.745  4.732  0.000    23.289     6.470
 194   6 C     -0.138  1.046  3.092  0.000    23.203     6.867
 195   1 H      0.213  0.787  0.000  0.000     1.044     1.601
 196   1 H      0.060  0.940  0.000  0.000     2.201     2.320
 197   1 H      0.064  0.936  0.000  0.000     2.158     2.297
 198   1 H      0.047  0.953  0.000  0.000     2.361     2.403
 199   1 H      0.077  0.923  0.000  0.000     2.013     2.218
 200   7 N     -0.171  1.248  3.924  0.000    24.711     7.383
 201   6 C      0.035  1.058  2.906  0.000    19.974     6.362
 202   6 C      0.219  1.083  2.698  0.000    23.376     7.918
 203   8 O     -0.379  1.746  4.632  0.000    21.258     6.182
 204   6 C     -0.127  1.039  3.088  0.000    22.993     6.837
 205   1 H      0.213  0.787  0.000  0.000     1.043     1.599
 206   1 H      0.084  0.916  0.000  0.000     1.940     2.178
 207   1 H      0.087  0.913  0.000  0.000     1.905     2.158
 208   1 H      0.077  0.923  0.000  0.000     2.009     2.216
 209   1 H      0.059  0.941  0.000  0.000     2.213     2.326
 210   7 N     -0.394  1.281  4.113  0.000    30.205     8.162
 211   6 C      0.034  1.058  2.908  0.000    20.035     6.378
 212   6 C      0.241  1.056  2.703  0.000    22.963     7.847
 213   8 O     -0.302  1.676  4.626  0.000    19.816     5.968
 214   6 C     -0.057  1.059  2.998  0.000    21.585     6.613
 215   6 C     -0.090  1.079  3.011  0.000    22.240     6.719
 216   6 C      0.369  1.034  2.597  0.000    20.741     7.452
 217   8 O     -0.645  1.781  4.864  0.000    27.245     6.998
 218   8 O     -0.643  1.768  4.875  0.000    27.190     6.991
 219   1 H      0.187  0.813  0.000  0.000     1.176     1.699
 220   1 H      0.008  0.992  0.000  0.000     2.920     2.673
 221   1 H      0.051  0.949  0.000  0.000     2.308     2.376
 222   1 H      0.046  0.954  0.000  0.000     2.371     2.408
 223   1 H      0.004  0.996  0.000  0.000     2.984     2.701
 224   1 H     -0.025  1.025  0.000  0.000     3.528     2.938
 225   7 N     -0.352  1.317  4.036  0.000    29.087     8.010
 226   6 C      0.062  1.040  2.898  0.000    19.548     6.297
 227   6 C      0.181  1.107  2.711  0.000    24.109     8.043
 228   8 O     -0.385  1.765  4.620  0.000    21.378     6.199
 229   6 C     -0.089  1.068  3.021  0.000    22.165     6.698
 230   6 C      0.289  1.042  2.669  0.000    22.095     7.697
 231   8 O     -0.522  1.792  4.730  0.000    24.270     6.605
 232   7 N     -0.281  1.260  4.021  0.000    27.254     7.753
 233   1 H      0.151  0.849  0.000  0.000     1.405     1.860
 234   1 H      0.042  0.958  0.000  0.000     2.419     2.432
 235   1 H      0.079  0.921  0.000  0.000     1.990     2.206
 236   1 H      0.079  0.921  0.000  0.000     1.994     2.208
 237   1 H      0.204  0.796  0.000  0.000     1.088     1.634
 238   1 H      0.250  0.750  0.000  0.000     0.885     1.474
 239   1 H      0.180  0.820  0.000  0.000     1.214     1.726
 240   1 H      0.086  0.914  0.000  0.000     1.914     2.163
 241   1 H      0.186  0.814  0.000  0.000     1.181     1.702
 242   1 H      0.067  0.933  0.000  0.000     2.114     2.273
 243   1 H      0.209  0.791  0.000  0.000     1.062     1.614
 244   1 H      0.063  0.937  0.000  0.000     2.164     2.300
 245   1 H      0.195  0.805  0.000  0.000     1.133     1.667
 246   1 H      0.030  0.970  0.000  0.000     2.581     2.512
 247   1 H      0.183  0.817  0.000  0.000     1.196     1.713
 248   1 H      0.100  0.900  0.000  0.000     1.787     2.090

 Mol. C6AA /au·bohr⁶  :     580917.334776
 Mol. C8AA /au·bohr⁸  :   12743477.600544
 Mol. α(0) /au        :       1133.527603

 
molecular dipole:
                 x           y           z       tot (Debye)
 q only:       46.375    -276.736     -79.447
   full:       48.605    -277.590     -77.379     742.823
molecular quadrupole (traceless):
                xx          xy          yy          xz          yz          zz
 q only:    19126.399   10120.544  -36262.289    2293.194  -16635.458   17135.890
  q+dip:    19126.576   10594.419  -36560.783    2338.021  -16214.432   17434.208
   full:    19126.386   10589.327  -36559.443    2340.864  -16214.803   17433.057
speedup  1.81
cpu  time for grad    7.74 s
wall time for grad    4.27 s

SCC energy    :    -408.3528942
rep           :       4.7361505
ES            :       2.1193017
AES           :      -0.1260112
AXC           :       0.1165105
disp          :      -0.3038456
XB            :       0.0000000
fix           :       0.0000000
Gborn         :       0.0000000
Gsasa         :       0.0000000
Ghb           :       0.0000000
Gshift        :       0.0000000
Gsolv         :      -0.8150485     -511.45
Etot ala COSMO:    -408.3528942
grad norm     :       0.8190506
total E       :    -403.5973034
atomizationE  :      69.9640927    43903.13
(atE without considering molecular charge,
 total energy contains solvation terms)
H-L gap (eV)  :          1.6207

------------------------------------------------------------------------
 * finished run on 2019/05/10 at 00:42:11.239     
------------------------------------------------------------------------
 total:
 * wall-time:     0 d,  0 h,  0 min,  4.609 sec
 *  cpu-time:     0 d,  0 h,  0 min,  8.205 sec
 * ratio c/w:     1.780 speedup
 SCF:
 * wall-time:     0 d,  0 h,  0 min,  4.400 sec
 *  cpu-time:     0 d,  0 h,  0 min,  7.997 sec
 * ratio c/w:     1.817 speedup

