      -----------------------------------------------------------      
     |                   =====================                   |     
     |                           x T B                           |     
     |                   =====================                   |     
     |                         S. Grimme                         |     
     |          Mulliken Center for Theoretical Chemistry        |     
     |                    University of Bonn                     |     
     |                 Version 6.0.1 (SAW181210)                 |     
      -----------------------------------------------------------      

   This program is distributed in the hope that it will be useful,
   but WITHOUT ANY WARRANTY; without even the implied warranty of
   MERCHANTABILITY or FITNESS FOR A PARTICULAR PURPOSE.
   
   FOR NON-COMMERCIAL, ACADEMIA USE ONLY.
   
   Cite this work as:
   S. Grimme, C. Bannwarth, P. Shushkov, J. Comput. Theory Chem., 2017,
   13, 1989-2009.
   C. Bannwarth, S. Ehlert and S. Grimme., ChemRxiv, 2018, preprint.
   http://doi.org/10.26434/chemrxiv.7246238.v1
   
   for sTDA-xTB:
   S. Grimme and C. Bannwarth, J. Chem. Phys., 2016, 145, 054103.
   
   in the mass-spec context:
   V. Asgeirsson, C. Bauer and S. Grimme, Chem. Sci., 2017, 8, 4879.
   
   if GBSA is used:
   P. Shushkov, F. März and S. Grimme, unpublished.
   
   for ANC optimizer:
   S. Grimme, unpublished.
   Rational Function algorithm used in ANCopt:
   F. Eckert, P. Pulay, H.-J. Werner, J. Comput. Chem., 1997, 18, 1473.
   
   with help from (in alphabetical order)
   C. Bannwarth, F. Bohle, G. Brandenburg, E. Caldeweyher, M. Checinski,
   S. Dohm, S. Ehlert, S. Ehrlich, F. März, H. Neugebauer, J. Pisarek,
   P. Pracht, P. Shushkov, and S. Spicher.
   
 * started run on 2019/05/04 at 18:56:01.659     
========================================================================
 # omp threads = 2
========================================================================
number of atoms            : 682
number of electrons        : 1892
charge                     : -4
spin                       : .0
first test random number   : .3610

########################################################################
# WARNING! Please study the warnings concerning your input carefully
#  - Process number higher than OMP_NUM_THREADS, I hope you know what you are doing.
########################################################################

           ------------------------------------------------- 
          |                 G F N 2 - x T B                 |
          | Geometry, Frequencies, Noncovalent interactions |
          |            JCTC 2018 parametrisation            |
           ------------------------------------------------- 
 
      method parameters     
 k(s)        :  1.8500
 k(p)        :  2.2300
 k(d)        :  2.2300
 k(f)        :  2.0000
 kEN (H0ij)  : -2.0000
 D4 a1       :  0.5200
 D4 a2       :  5.0000
 D4 s6       :  1.0000
 D4 s8       :  2.7000
 D4 s9       :  5.0000
 alphaj      :  2.0000

 Solvent             : h2o
 Using internal parameter file: .param_gbsa2_h2o
 Gsolv ref. state (COSMO-RS): gsolv [1 M gas/solution]
 temperature (mdtemp)       :    298.150000000000     
 dielectric constant        :    80.2000000000000     
 rho                        :    1.00000000000000     
 mass                       :    18.0000000000000     
 surface tension            :    15.5689454083859     
 probe radius               :   0.975313790000000     
 vdW radii scaling          :    1.00000000000000     
 Gshift (Eh)                :   1.857443126794793E-003
 c1                         :    1.55243817000000     
 soset                      :   0.130326360000000     
 HB correction              :  T

            Z     q(EN)     CN     RAES       Cart. coordinates
     1  N   5.0   -0.23    3.22    1.96   -64.49635   119.97303    36.61533
     2  C   4.0    0.03    4.26    4.13   -66.69221   120.70625    38.05908
     3  C   4.0    0.06    3.23    3.04   -69.10539   120.39444    36.55108
     4  O   6.0   -0.34    1.37    1.80   -70.87795   119.20013    37.44681
     5  C   4.0   -0.04    4.32    4.24   -66.38985   123.39721    39.02095
     6  C   4.0   -0.02    3.51    3.12   -64.89130   123.57296    41.45492
     7  C   4.0   -0.05    3.44    3.09   -65.83616   124.89577    43.52039
     8  C   4.0   -0.05    3.45    3.09   -62.52536   122.40511    41.71381
     9  C   4.0   -0.04    3.49    3.11   -64.47178   125.07151    45.78239
    10  C   4.0   -0.05    3.40    3.08   -61.13452   122.57329    43.98337
    11  C   4.0    0.06    3.41    3.08   -62.12852   123.91500    46.01105
    12  O   6.0   -0.24    2.12    1.84   -60.81894   124.12854    48.26360
    13  H   1.0    0.07    1.03    1.43   -63.63085   121.44135    35.71582
    14  H   1.0    0.04    1.07    1.44   -66.84906   119.49304    39.71637
    15  H   1.0    0.03    1.03    1.43   -65.40719   124.50837    37.59232
    16  H   1.0    0.04    1.04    1.43   -68.25690   124.19279    39.37055
    17  H   1.0    0.04    1.03    1.43   -67.65786   125.80473    43.37677
    18  H   1.0    0.04    1.03    1.43   -61.75246   121.35631    40.14345
    19  H   1.0    0.05    1.11    1.44   -65.24657   126.11275    47.35653
    20  H   1.0    0.05    1.02    1.43   -59.31283   121.66623    44.14400
    21  H   1.0    0.12    1.03    1.43   -59.20889   123.22147    48.14833
    22  N   5.0   -0.21    3.23    1.96   -69.85561   114.19425    36.86288
    23  C   4.0    0.03    4.39    4.36   -70.66819   113.23427    39.29874
    24  C   4.0    0.15    3.44    3.09   -73.40451   113.94481    39.88834
    25  O   6.0   -0.31    1.35    1.80   -74.81236   112.38578    40.86154
    26  C   4.0   -0.05    4.31    4.22   -68.86539   114.03929    41.40201
    27  C   4.0   -0.04    4.06    3.73   -69.43987   112.89412    43.98715
    28  S   6.0   -0.04    2.62    3.10   -70.70599   109.71371    43.96447
    29  C   4.0   -0.07    3.88    3.43   -70.70410   108.97861    47.28283
    30  H   1.0    0.10    1.06    1.44   -69.08460   115.96114    36.88745
    31  H   1.0    0.04    1.10    1.44   -70.55292   111.17825    39.25906
    32  H   1.0    0.03    1.03    1.43   -66.95677   113.46859    40.88044
    33  H   1.0    0.05    1.03    1.43   -68.95988   116.08775    41.59665
    34  H   1.0    0.03    1.07    1.44   -67.69187   112.84499    45.07374
    35  H   1.0    0.06    1.10    1.44   -70.82315   114.09220    44.93201
    36  H   1.0    0.04    1.04    1.43   -71.43920   107.07187    47.54739
    37  H   1.0    0.03    1.04    1.43   -68.77469   109.09199    47.99337
    38  H   1.0    0.05    1.04    1.43   -71.89840   110.33543    48.27116
    39  N   5.0   -0.14    3.50    2.08   -74.15852   116.27295    39.30630
    40  C   4.0    0.04    4.36    4.31   -76.79090   117.04963    39.61244
    41  C   4.0    0.08    3.31    3.06   -78.49166   115.20903    38.26506
    42  O   6.0   -0.32    1.24    1.80   -79.99210   113.85032    39.42535
    43  C   4.0   -0.05    4.41    4.39   -77.24822   119.63855    38.45403
    44  C   4.0   -0.03    4.20    4.01   -77.52790   121.92323    40.17935
    45  C   4.0   -0.08    4.16    3.92   -79.92974   123.27060    39.45559
    46  C   4.0   -0.08    4.17    3.93   -77.57325   121.23159    42.95536
    47  H   1.0    0.12    1.22    1.47   -73.00200   117.65434    38.62411
    48  H   1.0    0.05    1.08    1.44   -77.21609   117.11766    41.62688
    49  H   1.0    0.05    1.04    1.43   -75.65896   120.04484    37.20870
    50  H   1.0    0.05    1.07    1.44   -78.98865   119.52328    37.35988
    51  H   1.0    0.04    1.06    1.44   -75.89139   123.15155    39.94314
    52  H   1.0    0.04    1.00    1.43   -80.16784   124.91655    40.67068
    53  H   1.0    0.04    1.00    1.43   -79.79935   123.86398    37.48649
    54  H   1.0    0.05    1.02    1.43   -81.51900   121.98370    39.69747
    55  H   1.0    0.04    1.00    1.43   -77.77734   122.95124    44.07219
    56  H   1.0    0.04    1.01    1.43   -79.16440   119.97303    43.30685
    57  H   1.0    0.04    1.01    1.43   -75.80825   120.28484    43.43913
    58  N   5.0   -0.21    3.26    1.97   -78.36127   108.84066    40.56864
    59  C   4.0    0.04    4.27    4.13   -79.81635   108.38901    42.82875
    60  C   4.0    0.08    3.23    3.04   -82.50543   109.27907    42.38277
    61  O   6.0   -0.31    1.15    1.80   -83.87360   109.91402    44.14400
    62  C   4.0   -0.02    4.29    4.18   -78.58614   109.62300    45.12477
    63  C   4.0    0.24    3.13    3.03   -78.15907   107.76351    47.27527
    64  O   6.0   -0.31    1.21    1.80   -79.19841   105.63568    47.17323
    65  O   6.0   -0.32    1.22    1.80   -76.76634   108.42114    49.06862
    66  H   1.0    0.13    1.07    1.44   -78.16473   110.69259    40.06786
    67  H   1.0    0.05    1.09    1.44   -79.87494   106.38023    43.27850
    68  H   1.0    0.06    1.04    1.43   -76.75689   110.39590    44.57486
    69  H   1.0    0.06    1.06    1.44   -79.80880   111.12911    45.81641
    70  N   5.0   -0.21    3.25    1.97   -85.06601   114.20559    39.80897
    71  C   4.0    0.03    4.48    4.50   -85.65939   116.64522    40.88233
    72  C   4.0    0.14    3.50    3.11   -86.16205   118.65967    38.92646
    73  O   6.0   -0.31    1.23    1.80   -84.59547   119.16234    37.27673
    74  C   4.0   -0.02    4.40    4.37   -83.59203   117.51639    42.67757
    75  C   4.0   -0.05    4.24    4.08   -83.60337   115.85154    45.03595
    76  C   4.0   -0.08    4.25    4.11   -84.02288   120.22625    43.39567
    77  C   4.0   -0.07    4.04    3.69   -81.04090   115.37533    46.15089
    78  H   1.0    0.12    1.08    1.44   -83.30290   114.05630    39.04174
    79  H   1.0    0.03    1.08    1.44   -87.45463   116.39011    41.85743
    80  H   1.0    0.06    1.07    1.44   -81.76466   117.35387    41.74216
    81  H   1.0    0.04    1.04    1.43   -84.75043   116.76806    46.48159
    82  H   1.0    0.06    1.05    1.44   -84.41784   114.02417    44.54462
    83  H   1.0    0.03    1.01    1.43   -82.53000   120.82530    44.68068
    84  H   1.0    0.06    1.03    1.43   -83.99076   121.38466    41.69302
    85  H   1.0    0.04    1.03    1.43   -85.85592   120.39066    44.32163
    86  H   1.0    0.04    1.00    1.43   -81.24499   114.17724    47.81385
    87  H   1.0    0.06    1.01    1.43   -79.86360   114.43424    44.74682
    88  H   1.0    0.04    1.00    1.43   -80.19619   117.17624    46.68379
    89  N   5.0   -0.15    3.49    2.07   -88.39760   119.77650    39.14378
    90  C   4.0    0.04    4.46    4.47   -88.99664   122.10275    37.85310
    91  C   4.0    0.16    3.58    3.15   -87.36770   124.16066    39.03985
    92  O   6.0   -0.31    1.31    1.80   -87.46786   124.55940    41.32831
    93  C   4.0   -0.03    4.29    4.17   -91.80100   122.73014    38.18002
    94  C   4.0    0.24    3.12    3.03   -92.63248   125.01671    36.63612
    95  O   6.0   -0.31    1.22    1.80   -91.14904   126.83652    36.32431
    96  O   6.0   -0.31    1.17    1.80   -94.81889   124.99025    35.74984
    97  H   1.0    0.07    1.07    1.44   -89.84513   119.09620    40.21904
    98  H   1.0    0.04    1.07    1.44   -88.62815   121.95724    35.83109
    99  H   1.0    0.04    1.03    1.43   -92.92349   121.11254    37.57342
   100  H   1.0    0.05    1.03    1.43   -92.16760   123.13832    40.16613
   101  N   5.0   -0.09    3.69    2.26   -85.81057   125.43434    37.49783
   102  C   4.0    0.03    4.60    4.66   -84.40650   127.56406    38.50695
   103  C   4.0    0.16    3.45    3.09   -86.16394   129.49347    39.72771
   104  O   6.0   -0.30    1.33    1.80   -86.03166   129.87520    42.01806
   105  C   4.0   -0.05    4.39    4.36   -83.10259   128.68278    36.16746
   106  C   4.0   -0.05    4.31    4.22   -84.24776   127.36186    33.92814
   107  C   4.0   -0.01    4.37    4.33   -85.09247   124.87120    34.86922
   108  H   1.0    0.04    1.06    1.44   -82.97787   126.93289    39.85054
   109  H   1.0    0.04    1.03    1.43   -83.45786   130.71045    36.07865
   110  H   1.0    0.03    1.02    1.43   -81.07680   128.32562    36.26762
   111  H   1.0    0.04    1.03    1.43   -85.84269   128.45412    33.21760
   112  H   1.0    0.03    1.03    1.43   -82.83047   127.14265    32.45037
   113  H   1.0    0.04    1.03    1.43   -86.70819   124.18334    33.79208
   114  H   1.0    0.04    1.02    1.43   -83.56179   123.49548    34.79930
   115  N   5.0   -0.14    3.44    2.04   -87.83635   130.59707    38.19514
   116  C   4.0    0.04    4.41    4.39   -89.39916   132.78726    38.87733
   117  C   4.0    0.16    3.45    3.10   -89.74309   133.23891    41.70247
   118  O   6.0   -0.28    1.26    1.80   -88.28422   134.63730    42.85898
   119  C   4.0   -0.03    4.32    4.23   -91.96351   132.66254    37.53563
   120  C   4.0    0.14    3.20    3.04   -92.74964   135.24391    36.44903
   121  O   6.0   -0.30    1.22    1.80   -91.15282   136.87096    35.98227
   122  N   5.0   -0.20    3.15    1.95   -95.21573   135.62185    36.02385
   123  H   1.0    0.09    1.07    1.44   -88.17083   129.99803    36.39423
   124  H   1.0    0.06    1.08    1.44   -88.35792   134.44077    38.22538
   125  H   1.0    0.06    1.03    1.43   -91.85013   131.31706    35.98038
   126  H   1.0    0.04    1.05    1.44   -93.40348   132.06539    38.88111
   127  H   1.0    0.08    1.02    1.43   -95.82233   137.30371    35.30575
   128  H   1.0    0.07    1.02    1.43   -96.48752   134.22723    36.41880
   129  N   5.0   -0.14    3.48    2.06   -91.67250   132.04082    42.78717
   130  C   4.0    0.03    4.37    4.32   -92.20729   132.21279    45.50460
   131  C   4.0    0.16    3.41    3.08   -89.86403   131.73091    47.16756
   132  O   6.0   -0.30    1.24    1.80   -89.34813   133.16710    48.93823
   133  C   4.0   -0.05    4.24    4.07   -94.38614   130.42133    46.25671
   134  C   4.0   -0.03    4.19    3.98   -94.19906   127.73792    45.15122
   135  C   4.0    0.23    3.11    3.03   -95.21951   125.70457    46.91812
   136  O   6.0   -0.31    1.17    1.80   -94.09512   125.29450    48.97225
   137  O   6.0   -0.31    1.17    1.80   -97.13380   124.49137    46.23026
   138  H   1.0    0.07    1.08    1.44   -92.91971   130.92210    41.83475
   139  H   1.0    0.05    1.06    1.44   -92.81389   134.14787    45.86554
   140  H   1.0    0.05    1.03    1.43   -94.40882   130.24558    48.30895
   141  H   1.0    0.03    1.03    1.43   -96.15870   131.23769    45.60098
   142  H   1.0    0.05    1.03    1.43   -95.28565   127.66044    43.40323
   143  H   1.0    0.05    1.04    1.43   -92.22052   127.30895    44.77139
   144  N   5.0   -0.13    3.50    2.08   -88.43728   129.74669    46.55340
   145  C   4.0    0.04    4.44    4.45   -86.37181   128.86041    48.15967
   146  C   4.0    0.14    3.47    3.10   -84.27044   130.78037    48.49604
   147  O   6.0   -0.30    1.63    1.81   -82.86259   130.72368    50.35364
   148  C   4.0   -0.04    4.36    4.31   -85.33813   126.35464    47.17323
   149  C   4.0   -0.02    4.22    4.04   -86.84991   124.12287    48.21636
   150  C   4.0   -0.06    4.13    3.87   -88.79444   123.13454    46.33608
   151  C   4.0   -0.08    4.12    3.85   -85.08491   122.02338    49.03839
   152  H   1.0    0.10    1.07    1.44   -88.66405   128.70545    44.94713
   153  H   1.0    0.05    1.07    1.44   -87.13715   128.51648    50.03994
   154  H   1.0    0.07    1.04    1.43   -85.46475   126.32629    45.11721
   155  H   1.0    0.04    1.04    1.43   -83.37471   126.14677    47.76093
   156  H   1.0    0.04    1.07    1.44   -87.90438   124.78805    49.85664
   157  H   1.0    0.04    1.02    1.43   -89.80545   121.55473    47.18646
   158  H   1.0    0.06    1.00    1.43   -90.11347   124.64821    45.87877
   159  H   1.0    0.06    1.04    1.43   -87.82123   122.51093    44.63155
   160  H   1.0    0.04    1.00    1.43   -86.20174   120.45680    49.77349
   161  H   1.0    0.03    1.03    1.43   -83.98320   121.39788    47.41322
   162  H   1.0    0.04    1.00    1.43   -83.82824   122.73959    50.50482
   163  N   5.0   -0.13    3.55    2.12   -84.09280   132.50380    46.69513
   164  C   4.0    0.03    4.42    4.41   -82.27867   134.54282    46.85953
   165  C   4.0    0.15    3.42    3.08   -82.84748   136.18688    49.18390
   166  O   6.0   -0.31    1.22    1.80   -81.19774   136.63663    50.76371
   167  C   4.0   -0.05    4.33    4.25   -82.29568   136.06594    44.39155
   168  C   4.0   -0.02    4.21    4.02   -82.55268   134.53904    41.91790
   169  C   4.0   -0.07    4.08    3.76   -82.60937   136.23979    39.58598
   170  C   4.0   -0.07    4.09    3.78   -80.52500   132.48869    41.62121
   171  H   1.0    0.11    1.10    1.44   -85.17751   132.53971    45.10209
   172  H   1.0    0.05    1.06    1.44   -80.37193   133.79638    47.07874
   173  H   1.0    0.06    1.03    1.43   -83.88305   137.37552    44.46147
   174  H   1.0    0.03    1.03    1.43   -80.52500   137.11096    44.27628
   175  H   1.0    0.08    1.10    1.44   -84.36682   133.57150    42.04451
   176  H   1.0    0.04    1.00    1.43   -82.79267   135.06627    37.90412
   177  H   1.0    0.05    1.00    1.43   -84.21753   137.51914    39.72771
   178  H   1.0    0.04    1.00    1.43   -80.85759   137.32072    39.50094
   179  H   1.0    0.04    1.00    1.43   -80.82925   131.49847    39.84109
   180  H   1.0    0.04    1.00    1.43   -78.66740   133.37875    41.62121
   181  H   1.0    0.05    1.00    1.43   -80.67240   131.16777    43.19536
   182  N   5.0   -0.13    3.62    2.17   -85.22475   136.96923    49.42200
   183  C   4.0    0.04    4.43    4.43   -86.06001   138.67754    51.43078
   184  C   4.0    0.15    3.44    3.09   -86.00710   137.41898    54.00459
   185  O   6.0   -0.31    1.25    1.80   -85.88804   138.68888    55.95290
   186  C   4.0   -0.04    4.32    4.23   -88.76421   139.59784    50.93567
   187  C   4.0    0.15    3.30    3.05   -89.68828   139.01580    48.26927
   188  O   6.0   -0.29    1.33    1.80   -88.20674   138.85328    46.47781
   189  N   5.0   -0.19    3.17    1.95   -92.16571   138.69455    48.00471
   190  H   1.0    0.13    1.16    1.46   -86.65149   136.44766    48.23525
   191  H   1.0    0.05    1.06    1.44   -84.79767   140.30648    51.43645
   192  H   1.0    0.04    1.04    1.43   -90.03788   138.67187    52.26415
   193  H   1.0    0.04    1.03    1.43   -88.83413   141.63874    51.19835
   194  H   1.0    0.09    1.02    1.43   -92.90649   138.29959    46.26994
   195  H   1.0    0.07    1.03    1.43   -93.32601   138.84194    49.53728
   196  N   5.0   -0.13    3.51    2.09   -86.13560   134.91131    53.97435
   197  C   4.0    0.03    4.40    4.38   -86.30189   133.39198    56.25903
   198  C   4.0    0.16    3.47    3.10   -84.06446   133.90409    57.99002
   199  O   6.0   -0.30    1.22    1.80   -84.37626   134.66376    60.17454
   200  C   4.0    0.02    4.18    3.96   -86.35481   130.59707    55.54660
   201  O   6.0   -0.26    2.17    1.85   -84.03800   129.87897    54.40332
   202  H   1.0    0.10    1.08    1.44   -86.12804   133.85496    52.36242
   203  H   1.0    0.05    1.06    1.44   -88.03855   133.87197    57.25681
   204  H   1.0    0.04    1.01    1.43   -86.64393   129.47268    57.24925
   205  H   1.0    0.04    1.01    1.43   -87.89304   130.27015    54.21624
   206  H   1.0    0.17    1.36    1.52   -83.92462   130.59329    52.69879
   207  N   5.0   -0.14    3.56    2.12   -81.80435   133.49402    56.97902
   208  C   4.0    0.04    4.44    4.45   -79.50455   133.94378    58.39442
   209  C   4.0    0.16    3.42    3.08   -79.06991   136.75947    58.81016
   210  O   6.0   -0.26    1.26    1.80   -77.81514   137.49835    60.63186
   211  C   4.0   -0.05    4.39    4.36   -77.26711   132.75136    57.03760
   212  C   4.0   -0.04    4.06    3.73   -76.83815   130.01126    57.74058
   213  S   6.0   -0.04    2.66    3.10   -75.23944   128.27082    55.29338
   214  C   4.0   -0.07    3.90    3.46   -72.76390   130.40999    54.37875
   215  H   1.0    0.10    1.08    1.44   -81.51144   132.85151    55.18567
   216  H   1.0    0.06    1.07    1.44   -79.63872   133.02537    60.23312
   217  H   1.0    0.05    1.06    1.44   -77.59782   132.83829    55.00614
   218  H   1.0    0.05    1.04    1.43   -75.56069   133.80205    57.51948
   219  H   1.0    0.04    1.07    1.44   -75.68352   129.92622    59.44322
   220  H   1.0    0.04    1.07    1.44   -78.65984   129.10986    58.07884
   221  H   1.0    0.04    1.04    1.43   -71.64896   129.54449    52.87831
   222  H   1.0    0.04    1.04    1.43   -73.60861   132.16365    53.70412
   223  H   1.0    0.04    1.05    1.44   -71.56770   130.78982    56.01148
   224  N   5.0   -0.13    3.47    2.06   -80.14328   138.31282    57.14153
   225  C   4.0    0.04    4.33    4.25   -79.93919   141.06615    57.32862
   226  C   4.0    0.16    3.38    3.07   -81.10326   142.15086    59.75880
   227  O   6.0   -0.29    1.22    1.80   -80.11682   143.97822    60.81705
   228  C   4.0   -0.07    4.10    3.80   -81.08436   142.32282    55.00425
   229  H   1.0    0.10    1.07    1.44   -81.17696   137.72323    55.62408
   230  H   1.0    0.06    1.06    1.44   -77.93041   141.51591    57.39098
   231  H   1.0    0.05    1.00    1.43   -80.90862   144.36561    55.19134
   232  H   1.0    0.05    1.00    1.43   -80.07336   141.68220    53.32807
   233  H   1.0    0.06    1.01    1.43   -83.07235   141.79748    54.86819
   234  N   5.0   -0.13    3.45    2.04   -83.17629   141.01891    60.63753
   235  C   4.0    0.04    4.33    4.25   -84.46319   141.89763    62.93165
   236  C   4.0    0.15    3.37    3.07   -83.53345   140.61073    65.35617
   237  O   6.0   -0.31    1.22    1.80   -83.66762   141.72189    67.39897
   238  C   4.0   -0.08    4.09    3.79   -87.31857   141.62551    62.66142
   239  H   1.0    0.11    1.06    1.44   -84.01344   139.49201    59.80983
   240  H   1.0    0.06    1.07    1.44   -84.07202   143.90830    63.15653
   241  H   1.0    0.04    1.00    1.43   -88.22186   142.29069    64.38863
   242  H   1.0    0.04    1.00    1.43   -87.95163   142.75368    61.05894
   243  H   1.0    0.05    1.00    1.43   -87.77588   139.64130    62.34773
   244  N   5.0   -0.13    3.45    2.04   -82.61126   138.27692    65.12940
   245  C   4.0    0.04    4.31    4.22   -81.60970   136.88041    67.29314
   246  C   4.0    0.25    3.21    3.04   -78.93385   135.92799    66.79425
   247  O   6.0   -0.31    1.24    1.80   -77.42207   135.72957    68.54603
   248  C   4.0   -0.08    4.09    3.79   -83.35014   134.69400    67.99234
   249  O   6.0   -0.27    1.26    1.80   -78.28568   135.35729    64.63430
   250  H   1.0    0.11    1.06    1.44   -82.53189   137.29993    63.46834
   251  H   1.0    0.06    1.07    1.44   -81.52467   138.15975    68.90508
   252  H   1.0    0.04    1.00    1.43   -82.55457   133.69244    69.60617
   253  H   1.0    0.04    1.00    1.43   -85.20585   135.44233    68.47611
   254  H   1.0    0.05    1.00    1.43   -83.50510   133.41843    66.38229
   255  N   5.0   -0.22    3.22    1.96   -87.77816   110.18591    59.58148
   256  C   4.0    0.02    4.34    4.27   -87.49102   112.34621    57.92797
   257  C   4.0    0.14    3.48    3.10   -86.06252   114.42362    59.29614
   258  O   6.0   -0.33    1.33    1.80   -83.92327   115.04109    58.61583
   259  C   4.0   -0.06    4.33    4.25   -90.03482   113.31082    57.00579
   260  C   4.0   -0.05    4.23    4.07   -89.87204   115.81131    55.62818
   261  C   4.0   -0.02    4.25    4.11   -91.94491   116.04580    53.70822
   262  N   5.0   -0.15    3.40    2.02   -91.31191   114.81405    51.32149
   263  C   4.0    0.08    3.34    3.06   -91.44168   115.93855    49.07839
   264  N   5.0   -0.19    3.28    1.98   -92.19399   118.32803    48.90075
   265  N   5.0   -0.19    3.23    1.96   -90.82757   114.67407    47.00347
   266  H   1.0    0.06    1.03    1.43   -89.57596   109.50222    59.70432
   267  H   1.0    0.04    1.06    1.44   -86.42517   111.78103    56.25746
   268  H   1.0    0.03    1.04    1.43   -90.84003   111.92750    55.70944
   269  H   1.0    0.03    1.03    1.43   -91.27856   113.56411    58.62906
   270  H   1.0    0.04    1.03    1.43   -90.05714   117.35398    56.98122
   271  H   1.0    0.05    1.04    1.43   -88.06170   115.94225    54.65308
   272  H   1.0    0.03    1.03    1.43   -93.65382   115.16458    54.44899
   273  H   1.0    0.04    1.05    1.44   -92.28833   118.03991    53.32649
   274  H   1.0    0.07    1.06    1.44   -90.73387   112.97688    51.37818
   275  H   1.0    0.08    1.04    1.43   -92.67529   119.30853    50.49001
   276  H   1.0    0.08    1.03    1.43   -92.29004   119.18212    47.17543
   277  H   1.0    0.08    1.03    1.43   -90.25538   112.83809    47.12819
   278  H   1.0    0.07    1.03    1.43   -90.92733   115.53685    45.28382
   279  N   5.0   -0.15    3.53    2.10   -87.19898   115.44852    61.27657
   280  C   4.0    0.04    4.54    4.59   -86.08485   117.62015    62.53324
   281  C   4.0    0.15    3.46    3.10   -83.48347   117.16345    63.67085
   282  O   6.0   -0.32    1.26    1.80   -82.06236   118.94836    64.06769
   283  C   4.0    0.04    4.28    4.15   -87.83619   118.68365    64.49666
   284  O   6.0   -0.28    2.16    1.85   -89.52970   116.73307    65.29224
   285  C   4.0   -0.09    4.11    3.82   -89.34652   120.81469    63.35716
   286  H   1.0    0.08    1.08    1.44   -88.85725   114.83265    62.04191
   287  H   1.0    0.04    1.08    1.44   -85.82653   119.04646    61.07059
   288  H   1.0    0.04    1.05    1.44   -86.77497   119.39547    66.11238
   289  H   1.0    0.10    1.01    1.43   -90.69009   117.38774    66.57914
   290  H   1.0    0.03    1.00    1.43   -90.62584   121.60350    64.76500
   291  H   1.0    0.03    1.00    1.43   -88.08144   122.29910    62.69764
   292  H   1.0    0.04    1.00    1.43   -90.45149   120.12159    61.76412
   293  N   5.0   -0.14    3.50    2.08   -82.82999   114.79175    64.16029
   294  C   4.0    0.03    4.46    4.48   -80.26101   114.21847    64.95209
   295  C   4.0    0.16    3.52    3.12   -78.42008   114.90127    62.86772
   296  O   6.0   -0.31    1.27    1.80   -76.37716   115.88858    63.37038
   297  C   4.0   -0.06    4.30    4.20   -79.93723   111.44579    65.62294
   298  C   4.0   -0.05    4.22    4.04   -77.21158   110.78860    66.28812
   299  C   4.0   -0.02    4.22    4.05   -76.90101   108.04973    67.02323
   300  N   5.0   -0.15    3.40    2.02   -76.93032   106.36246    64.83681
   301  C   4.0    0.08    3.34    3.06   -78.93482   105.05620    64.06202
   302  N   5.0   -0.20    3.26    1.97   -81.12381   105.21807    65.28279
   303  N   5.0   -0.20    3.23    1.96   -78.74265   103.57491    62.05136
   304  H   1.0    0.08    1.06    1.44   -84.00266   113.26709    64.02990
   305  H   1.0    0.05    1.06    1.44   -79.86448   115.30969    66.65284
   306  H   1.0    0.03    1.03    1.43   -81.11937   111.00453    67.25188
   307  H   1.0    0.04    1.03    1.43   -80.49999   110.29344    64.01100
   308  H   1.0    0.05    1.04    1.43   -76.01127   111.15172    64.65351
   309  H   1.0    0.03    1.03    1.43   -76.60683   111.94944    67.87738
   310  H   1.0    0.02    1.03    1.43   -75.09841   107.81200    67.99076
   311  H   1.0    0.03    1.04    1.43   -78.44738   107.50673    68.27044
   312  H   1.0    0.07    1.06    1.44   -75.29674   106.17212    63.83148
   313  H   1.0    0.06    1.04    1.43   -81.28165   106.35441    66.83236
   314  H   1.0    0.06    1.02    1.43   -82.64577   104.20711    64.67052
   315  H   1.0    0.07    1.03    1.43   -77.06662   103.44299    61.10838
   316  H   1.0    0.06    1.03    1.43   -80.27116   102.56773    61.44664
   317  N   5.0   -0.14    3.55    2.12   -79.15200   114.34409    60.53202
   318  C   4.0    0.04    4.47    4.49   -77.64203   115.02813    58.34749
   319  C   4.0    0.16    3.49    3.11   -76.92232   117.79405    58.47033
   320  O   6.0   -0.32    1.34    1.80   -74.74156   118.46830    58.03569
   321  C   4.0   -0.05    4.33    4.25   -79.08314   114.48981    55.90786
   322  C   4.0   -0.05    4.24    4.09   -78.40225   112.01064    54.69087
   323  C   4.0   -0.05    4.22    4.05   -78.84213   109.81633    56.46344
   324  C   4.0   -0.04    4.15    3.90   -76.55764   108.10024    56.51446
   325  N   5.0   -0.11    4.05    2.99   -75.73221   107.33783    53.92364
   326  H   1.0    0.09    1.09    1.44   -80.78399   113.41847    60.09360
   327  H   1.0    0.05    1.06    1.44   -75.93302   113.87996    58.32671
   328  H   1.0    0.07    1.07    1.44   -81.09957   114.45168    56.32549
   329  H   1.0    0.04    1.04    1.43   -78.67238   115.98740    54.55481
   330  H   1.0    0.05    1.03    1.43   -79.56702   111.73174    53.01469
   331  H   1.0    0.04    1.04    1.44   -76.40887   112.03153    54.16931
   332  H   1.0    0.04    1.06    1.44   -79.17557   110.52381    58.36828
   333  H   1.0    0.04    1.03    1.43   -80.46876   108.72614    55.82282
   334  H   1.0    0.04    1.02    1.43   -74.99312   109.08663    57.42153
   335  H   1.0    0.03    1.02    1.43   -77.01996   106.39239    57.56893
   336  H   1.0    0.05    1.01    1.43   -74.84252   105.58693    53.98979
   337  H   1.0    0.08    1.04    1.43   -77.28959   107.21796    52.72934
   338  H   1.0    0.06    1.02    1.43   -74.47487   108.66523    53.20177
   339  N   5.0   -0.13    3.50    2.08   -78.76277   119.37597    59.11472
   340  C   4.0    0.03    4.47    4.49   -78.33185   122.08388    59.32448
   341  C   4.0    0.16    3.49    3.11   -76.19827   122.69154    61.12539
   342  O   6.0   -0.33    1.49    1.80   -74.39556   123.95065    60.39218
   343  C   4.0   -0.05    4.39    4.37   -80.73331   123.43109    60.14840
   344  C   4.0   -0.02    4.19    3.98   -82.38373   124.52579    58.05081
   345  C   4.0   -0.07    4.12    3.83   -82.12108   123.13255    55.51857
   346  C   4.0   -0.08    4.12    3.85   -85.09367   124.49965    58.97299
   347  H   1.0    0.09    1.07    1.44   -80.57279   118.84117    59.50401
   348  H   1.0    0.05    1.07    1.44   -77.80796   122.77207    57.45554
   349  H   1.0    0.06    1.06    1.44   -81.89440   122.08521    61.18964
   350  H   1.0    0.04    1.04    1.43   -80.19661   124.99562    61.37483
   351  H   1.0    0.05    1.06    1.44   -81.77042   126.44978    57.64452
   352  H   1.0    0.04    1.00    1.43   -83.35259   124.02686    54.13151
   353  H   1.0    0.04    1.00    1.43   -80.16129   123.24267    54.89307
   354  H   1.0    0.04    1.00    1.43   -82.66685   121.16303    55.77747
   355  H   1.0    0.04    1.00    1.43   -86.30954   125.27364    57.50279
   356  H   1.0    0.04    1.00    1.43   -85.64283   122.55827    59.38684
   357  H   1.0    0.04    1.00    1.43   -85.23388   125.64763    60.67753
   358  N   5.0   -0.14    3.47    2.06   -76.39574   121.77125    63.45920
   359  C   4.0    0.04    4.43    4.43   -74.36161   122.04792    65.29413
   360  C   4.0    0.17    3.46    3.10   -71.78012   121.59834    64.08848
   361  O   6.0   -0.31    1.29    1.80   -70.11152   123.21854    64.22643
   362  C   4.0   -0.04    4.30    4.20   -74.75169   120.24599    67.51833
   363  C   4.0   -0.04    4.22    4.04   -76.11696   121.42264    69.74443
   364  C   4.0    0.14    3.22    3.04   -74.45107   123.22333    71.25243
   365  O   6.0   -0.30    1.24    1.80   -72.86616   124.57764    70.20174
   366  N   5.0   -0.20    3.17    1.95   -74.81709   123.24700    73.73742
   367  H   1.0    0.10    1.06    1.44   -77.93569   120.82740    64.13194
   368  H   1.0    0.06    1.07    1.44   -74.41539   123.97300    66.02356
   369  H   1.0    0.06    1.04    1.43   -75.86754   118.63833    66.87772
   370  H   1.0    0.05    1.04    1.43   -72.90893   119.60539    68.17974
   371  H   1.0    0.04    1.03    1.43   -77.73867   122.48768    69.05090
   372  H   1.0    0.03    1.03    1.43   -76.74687   119.92719    71.01244
   373  H   1.0    0.06    1.03    1.43   -76.15237   122.10207    74.52544
   374  H   1.0    0.08    1.02    1.43   -73.76346   124.41052    74.85614
   375  N   5.0   -0.14    3.48    2.06   -71.50086   119.40997    62.87339
   376  C   4.0    0.03    4.41    4.40   -69.15398   118.64852    61.62995
   377  C   4.0    0.16    3.43    3.09   -68.38132   120.40632    59.47566
   378  O   6.0   -0.33    1.52    1.80   -66.15135   121.02597    59.15441
   379  C   4.0   -0.04    4.34    4.28   -69.42372   115.97411    60.60572
   380  C   4.0   -0.04    4.24    4.08   -69.34322   113.94414    62.59371
   381  C   4.0    0.14    3.23    3.04   -68.68205   111.40435    61.46743
   382  O   6.0   -0.31    1.21    1.80   -69.00666   110.98951    59.18086
   383  N   5.0   -0.20    3.16    1.95   -67.73291   109.68459    63.06236
   384  H   1.0    0.10    1.08    1.44   -72.89575   118.08998    62.71087
   385  H   1.0    0.05    1.06    1.44   -67.66574   118.71666    63.05291
   386  H   1.0    0.06    1.04    1.43   -71.23274   115.82278    59.63251
   387  H   1.0    0.06    1.04    1.43   -67.88230   115.61660    59.28669
   388  H   1.0    0.04    1.03    1.43   -67.91504   114.42227    63.99966
   389  H   1.0    0.05    1.03    1.43   -71.19115   113.79345    63.49133
   390  H   1.0    0.07    1.02    1.43   -67.49398   110.12489    64.92374
   391  H   1.0    0.08    1.02    1.43   -67.24871   107.93433    62.41607
   392  N   5.0   -0.13    3.54    2.11   -70.24256   121.16232    57.97333
   393  C   4.0    0.04    4.43    4.43   -69.80201   122.87401    55.87384
   394  C   4.0    0.16    3.49    3.11   -69.08274   125.43508    56.96232
   395  O   6.0   -0.32    1.38    1.80   -67.11522   126.49211    56.28580
   396  C   4.0   -0.04    4.37    4.33   -72.19660   123.08039    54.26380
   397  C   4.0   -0.02    3.49    3.11   -72.60201   120.99492    52.31927
   398  C   4.0   -0.05    3.44    3.09   -73.01985   121.59402    49.78515
   399  C   4.0   -0.03    3.45    3.10   -72.61341   118.43539    53.00713
   400  C   4.0   -0.04    3.41    3.08   -73.41663   119.70868    47.97668
   401  C   4.0   -0.05    3.41    3.08   -73.00114   116.53173    51.20433
   402  C   4.0    0.06    3.42    3.09   -73.39855   117.18886    48.69288
   403  O   6.0   -0.25    2.12    1.84   -73.77946   115.34236    46.89386
   404  H   1.0    0.12    1.11    1.45   -72.08262   120.62086    58.16230
   405  H   1.0    0.05    1.06    1.44   -68.30124   122.17774    54.64741
   406  H   1.0    0.06    1.05    1.44   -73.82433   123.05787    55.52613
   407  H   1.0    0.04    1.07    1.44   -72.12678   124.86429    53.23578
   408  H   1.0    0.04    1.03    1.43   -73.03691   123.55245    49.20878
   409  H   1.0    0.07    1.05    1.44   -72.31919   117.92076    54.95921
   410  H   1.0    0.05    1.03    1.43   -73.73761   120.21476    46.02648
   411  H   1.0    0.05    1.03    1.43   -72.99113   114.56863    51.76369
   412  H   1.0    0.11    1.03    1.43   -73.71239   113.66708    47.68188
   413  N   5.0   -0.14    3.61    2.16   -70.68769   126.37043    58.68197
   414  C   4.0    0.03    4.39    4.37   -70.19874   128.63460    60.20509
   415  C   4.0    0.16    3.51    3.12   -67.41397   128.56736    60.87406
   416  O   6.0   -0.31    1.22    1.80   -66.03597   130.40989    60.46777
   417  C   4.0   -0.04    4.28    4.16   -71.85499   128.63073    62.60316
   418  C   4.0   -0.05    4.15    3.90   -72.28189   131.19456    63.86171
   419  C   4.0   -0.00    4.20    4.01   -74.27235   131.03887    65.95931
   420  N   5.0   -0.13    3.38    2.01   -73.26128   130.06890    68.34792
   421  C   4.0    0.10    3.34    3.06   -74.48342   130.11771    70.55512
   422  N   5.0   -0.18    3.25    1.97   -73.38193   129.18718    72.60926
   423  N   5.0   -0.18    3.27    1.97   -76.79939   131.08388    70.72898
   424  H   1.0    0.12    1.22    1.47   -72.39808   125.57735    59.07693
   425  H   1.0    0.04    1.06    1.44   -70.68773   130.36145    59.19598
   426  H   1.0    0.06    1.04    1.43   -73.70814   127.88517    62.10238
   427  H   1.0    0.07    1.04    1.43   -70.95964   127.41117    63.99966
   428  H   1.0    0.05    1.03    1.43   -70.51564   131.84628    64.69508
   429  H   1.0    0.05    1.03    1.43   -72.93569   132.54523    62.45009
   430  H   1.0    0.08    1.04    1.43   -75.02363   132.92370    66.30891
   431  H   1.0    0.05    1.03    1.43   -75.78559   129.77848    65.35271
   432  H   1.0    0.08    1.06    1.44   -71.49479   129.29996    68.32336
   433  H   1.0    0.09    1.03    1.43   -71.60996   128.43908    72.49776
   434  H   1.0    0.07    1.03    1.43   -74.30951   129.22085    74.29867
   435  H   1.0    0.10    1.05    1.44   -77.66486   131.79959    69.16239
   436  H   1.0    0.07    1.02    1.43   -77.70897   131.10715    72.42784
   437  N   5.0   -0.13    3.53    2.10   -66.59725   126.37636    61.80002
   438  C   4.0    0.04    4.40    4.39   -63.96313   125.95748    62.41229
   439  C   4.0    0.16    3.41    3.08   -62.29873   125.84319    60.03880
   440  O   6.0   -0.33    1.42    1.80   -60.78044   127.55454    59.64385
   441  C   4.0   -0.04    4.26    4.12   -63.64707   123.66277    64.15840
   442  C   4.0   -0.03    4.18    3.97   -64.85878   124.05468    66.76622
   443  C   4.0    0.24    3.11    3.03   -63.85784   122.28101    68.80524
   444  O   6.0   -0.30    1.17    1.80   -64.32046   122.82523    71.06346
   445  O   6.0   -0.30    1.18    1.80   -62.63070   120.35493    68.18163
   446  H   1.0    0.11    1.10    1.44   -67.72912   124.85432    62.14395
   447  H   1.0    0.05    1.07    1.44   -63.26166   127.57309    63.47999
   448  H   1.0    0.06    1.03    1.43   -64.53942   122.02645    63.28157
   449  H   1.0    0.05    1.03    1.43   -61.63826   123.30598    64.43619
   450  H   1.0    0.05    1.03    1.43   -64.49226   125.98586    67.38227
   451  H   1.0    0.07    1.04    1.43   -66.88839   123.74049    66.60560
   452  N   5.0   -0.14    3.48    2.06   -62.63163   123.93624    58.41741
   453  C   4.0    0.04    4.41    4.40   -60.88749   123.57078    56.27257
   454  C   4.0    0.16    3.43    3.09   -60.62850   125.88263    54.53592
   455  O   6.0   -0.30    1.28    1.80   -58.72739   126.18591    53.23012
   456  C   4.0   -0.04    4.24    4.07   -61.49711   121.15807    54.77591
   457  C   4.0   -0.04    4.01    3.64   -59.56062   120.45681    52.66131
   458  S   6.0   -0.01    2.52    3.10   -56.16918   120.87722    53.21500
   459  C   4.0   -0.06    3.87    3.43   -54.77774   119.05048    50.69977
   460  H   1.0    0.13    1.29    1.49   -64.05151   122.63722    58.52324
   461  H   1.0    0.05    1.08    1.44   -59.02523   123.25497    57.09461
   462  H   1.0    0.04    1.03    1.43   -61.56579   119.57645    56.09494
   463  H   1.0    0.05    1.03    1.43   -63.33156   121.40110    53.87262
   464  H   1.0    0.03    1.07    1.44   -59.82523   118.46025    52.22856
   465  H   1.0    0.06    1.10    1.44   -60.01586   121.60339    51.01158
   466  H   1.0    0.05    1.04    1.43   -52.72629   119.16440    50.84339
   467  H   1.0    0.03    1.04    1.43   -55.38558   117.09061    50.87930
   468  H   1.0    0.05    1.04    1.43   -55.39805   119.81667    48.89130
   469  N   5.0   -0.13    3.54    2.10   -62.52496   127.51871    54.55292
   470  C   4.0    0.04    4.51    4.55   -62.28761   129.92160    53.26035
   471  C   4.0    0.16    3.47    3.10   -60.48141   131.64783    54.64930
   472  O   6.0   -0.29    1.27    1.80   -58.67647   132.61980    53.55137
   473  C   4.0   -0.05    4.40    4.37   -64.84068   131.22541    52.97689
   474  C   4.0   -0.03    4.21    4.02   -66.33030   130.58418    50.58639
   475  C   4.0   -0.08    4.12    3.84   -67.65779   132.92606    49.57161
   476  C   4.0   -0.08    4.32    4.24   -64.59645   129.53950    48.60974
   477  H   1.0    0.13    1.15    1.45   -64.21806   127.23935    55.42976
   478  H   1.0    0.06    1.10    1.44   -61.56361   129.54287    51.36874
   479  H   1.0    0.06    1.04    1.43   -66.01359   130.69809    54.58694
   480  H   1.0    0.05    1.05    1.44   -64.52550   133.26042    52.97122
   481  H   1.0    0.04    1.06    1.44   -67.75469   129.16775    51.04181
   482  H   1.0    0.04    1.00    1.43   -68.70333   132.41903    47.87085
   483  H   1.0    0.04    1.00    1.43   -68.95269   133.63876    51.00591
   484  H   1.0    0.04    1.01    1.43   -66.24598   134.35848    49.12752
   485  H   1.0    0.04    1.03    1.43   -65.69328   129.09482    46.92410
   486  H   1.0    0.04    1.01    1.43   -63.16155   130.94768    48.16376
   487  H   1.0    0.05    1.04    1.43   -63.70327   127.83242    49.33728
   488  N   5.0   -0.13    3.53    2.10   -60.96586   132.02572    57.07949
   489  C   4.0    0.04    4.49    4.52   -59.39929   133.73756    58.54025
   490  C   4.0    0.16    3.41    3.08   -56.76420   132.58714    58.96921
   491  O   6.0   -0.31    1.25    1.80   -54.90284   133.96295    59.24889
   492  C   4.0   -0.02    4.29    4.19   -60.75816   134.61157    61.00256
   493  C   4.0   -0.05    4.17    3.93   -59.80682   137.23067    61.81514
   494  C   4.0   -0.07    4.09    3.78   -60.62931   132.59732    63.08882
   495  C   4.0   -0.08    4.00    3.62   -61.79469   138.86716    63.11149
   496  H   1.0    0.11    1.07    1.44   -62.39586   131.19296    58.06781
   497  H   1.0    0.07    1.07    1.44   -59.11103   135.46517    57.45554
   498  H   1.0    0.05    1.07    1.44   -62.76714   134.82444    60.60383
   499  H   1.0    0.04    1.03    1.43   -58.24616   136.98206    63.13606
   500  H   1.0    0.05    1.03    1.43   -59.16100   138.24343    60.14273
   501  H   1.0    0.04    1.00    1.43   -61.60383   133.30179    64.76122
   502  H   1.0    0.07    1.00    1.43   -61.54033   130.87577    62.41607
   503  H   1.0    0.04    1.00    1.43   -58.65482   132.21889    63.53479
   504  H   1.0    0.03    1.00    1.43   -60.94868   140.67643    63.61605
   505  H   1.0    0.04    1.00    1.43   -63.36849   139.16481    61.81514
   506  H   1.0    0.03    1.00    1.43   -62.45459   137.90181    64.80847
   507  N   5.0   -0.14    3.53    2.10   -56.62889   130.07384    58.92008
   508  C   4.0    0.03    4.36    4.30   -54.26207   128.68553    59.24700
   509  C   4.0    0.15    3.47    3.10   -52.54175   129.02337    56.97933
   510  O   6.0   -0.31    1.22    1.80   -50.23914   129.21704    57.24389
   511  C   4.0   -0.07    4.12    3.85   -54.79947   125.91035    59.67597
   512  H   1.0    0.12    1.16    1.46   -58.14845   128.91965    58.65363
   513  H   1.0    0.05    1.06    1.44   -53.29357   129.41815    60.90996
   514  H   1.0    0.04    1.00    1.43   -53.01386   124.90998    59.91408
   515  H   1.0    0.04    1.00    1.43   -55.95056   125.70429    61.37105
   516  H   1.0    0.05    1.00    1.43   -55.81116   125.16339    58.04514
   517  N   5.0   -0.12    3.56    2.12   -53.68244   129.04696    54.74379
   518  C   4.0    0.04    4.45    4.47   -52.37221   129.83104    52.46856
   519  C   4.0    0.15    3.48    3.11   -52.65270   132.69002    52.23234
   520  O   6.0   -0.34    1.42    1.80   -52.89312   133.70601    50.15931
   521  C   4.0   -0.02    4.30    4.19   -53.43704   128.46668    50.14797
   522  C   4.0    0.25    3.14    3.03   -52.85472   125.64292    50.14041
   523  O   6.0   -0.30    1.21    1.80   -51.49151   124.74241    51.84684
   524  O   6.0   -0.31    1.18    1.80   -53.76165   124.31396    48.40753
   525  H   1.0    0.11    1.07    1.44   -55.51677   128.53056    54.45844
   526  H   1.0    0.06    1.06    1.44   -50.38196   129.30604    52.52903
   527  H   1.0    0.06    1.03    1.43   -55.48417   128.69285    50.11774
   528  H   1.0    0.05    1.03    1.43   -52.61205   129.29089    48.44911
   529  N   5.0   -0.13    3.44    2.04   -52.66162   133.95203    54.40930
   530  C   4.0    0.02    4.25    4.10   -52.75580   136.69908    54.57371
   531  C   4.0    0.16    3.33    3.06   -55.11594   137.90242    53.47200
   532  O   6.0   -0.29    1.25    1.80   -56.00412   139.89029    54.40175
   533  H   1.0    0.11    1.11    1.45   -52.60353   133.10022    56.13651
   534  H   1.0    0.06    1.03    1.43   -52.64344   137.24519    56.55603
   535  H   1.0    0.04    1.03    1.43   -51.13198   137.47449    53.57216
   536  N   5.0   -0.12    3.55    2.11   -56.13188   136.67567    51.50291
   537  C   4.0    0.03    4.49    4.53   -58.16753   137.74185    49.98168
   538  C   4.0    0.16    3.52    3.12   -59.97295   139.39956    51.49535
   539  O   6.0   -0.28    1.23    1.80   -60.94940   138.61915    53.46444
   540  C   4.0   -0.02    4.35    4.30   -59.62828   135.63506    48.56816
   541  C   4.0   -0.05    4.23    4.06   -58.16451   134.78777    46.23246
   542  C   4.0   -0.07    4.19    3.97   -62.24597   136.48304    47.79904
   543  C   4.0   -0.07    4.03    3.67   -57.21511   132.12739    46.37230
   544  H   1.0    0.12    1.21    1.47   -55.57150   134.92507    50.91898
   545  H   1.0    0.03    1.07    1.44   -57.27026   139.00874    48.62863
   546  H   1.0    0.06    1.08    1.44   -59.82212   134.05587    49.87774
   547  H   1.0    0.03    1.06    1.44   -59.40243   134.92642    44.59218
   548  H   1.0    0.04    1.04    1.43   -56.53513   136.02257    45.99058
   549  H   1.0    0.03    1.00    1.43   -63.18948   134.93953    46.81639
   550  H   1.0    0.06    1.01    1.43   -63.30831   136.99382    49.48846
   551  H   1.0    0.04    1.02    1.43   -62.08283   138.11486    46.55182
   552  H   1.0    0.04    1.00    1.43   -56.20027   131.68549    44.63564
   553  H   1.0    0.06    1.02    1.43   -55.95158   131.94996    47.98991
   554  H   1.0    0.04    1.00    1.43   -58.81888   130.85381    46.59151
   555  N   5.0   -0.14    3.45    2.05   -60.33956   141.71255    50.56938
   556  C   4.0    0.03    4.42    4.41   -62.28611   143.41682    51.52558
   557  C   4.0    0.15    3.50    3.12   -64.88970   142.48264    50.66954
   558  O   6.0   -0.30    1.27    1.80   -65.12060   141.37217    48.62863
   559  C   4.0   -0.04    4.27    4.14   -61.83814   146.11270    50.56938
   560  C   4.0    0.24    3.16    3.03   -63.87291   147.95519    51.45377
   561  O   6.0   -0.31    1.18    1.80   -63.60854   149.00269    53.56271
   562  O   6.0   -0.29    1.17    1.80   -65.75246   148.33554    50.05538
   563  H   1.0    0.07    1.06    1.44   -59.30413   142.47417    49.13319
   564  H   1.0    0.05    1.06    1.44   -62.23831   143.46560    53.58349
   565  H   1.0    0.04    1.03    1.43   -60.02164   146.78342    51.27236
   566  H   1.0    0.05    1.03    1.43   -61.83701   146.10332    48.50958
   567  N   5.0   -0.09    3.65    2.21   -66.85738   142.91823    52.22856
   568  C   4.0    0.03    4.56    4.62   -69.40432   142.12372    51.52747
   569  C   4.0    0.15    3.40    3.08   -70.35224   143.32781    49.07650
   570  O   6.0   -0.29    1.26    1.80   -69.83077   142.36775    47.01103
   571  C   4.0   -0.05    4.43    4.44   -71.02075   143.00896    53.78381
   572  C   4.0   -0.04    4.30    4.20   -69.41936   144.90581    55.16142
   573  C   4.0   -0.01    4.38    4.35   -66.79673   143.95679    54.81560
   574  H   1.0    0.05    1.05    1.44   -69.45893   140.07138    51.35362
   575  H   1.0    0.05    1.05    1.44   -72.75937   143.87529    53.09972
   576  H   1.0    0.04    1.02    1.43   -71.46340   141.40322    54.99701
   577  H   1.0    0.05    1.03    1.43   -69.65176   146.77473    54.32427
   578  H   1.0    0.04    1.03    1.43   -69.93527   144.95710    57.15508
   579  H   1.0    0.06    1.04    1.43   -65.43041   145.49185    54.96299
   580  H   1.0    0.04    1.02    1.43   -66.35582   142.48682    56.19132
   581  N   5.0   -0.14    3.50    2.08   -71.67345   145.45003    49.36185
   582  C   4.0    0.04    4.38    4.35   -73.20736   146.65204    47.39275
   583  C   4.0    0.16    3.42    3.08   -72.20674   146.43874    44.68289
   584  O   6.0   -0.30    1.26    1.80   -73.19959   144.97609    43.16166
   585  C   4.0   -0.04    4.31    4.22   -73.71559   149.42648    48.10329
   586  C   4.0    0.14    3.26    3.05   -74.35820   149.76476    50.89819
   587  O   6.0   -0.31    1.21    1.80   -76.00258   148.47752    51.92431
   588  N   5.0   -0.19    3.17    1.95   -73.05351   151.51432    52.13218
   589  H   1.0    0.08    1.11    1.45   -71.72765   146.43707    51.01536
   590  H   1.0    0.05    1.07    1.44   -74.97424   145.59482    47.32850
   591  H   1.0    0.04    1.04    1.43   -72.03236   150.54290    47.69700
   592  H   1.0    0.04    1.03    1.43   -75.30614   150.12221    46.99591
   593  H   1.0    0.08    1.02    1.43   -73.39432   151.83110    54.00301
   594  H   1.0    0.07    1.03    1.43   -71.70914   152.54272    51.21000
   595  N   5.0   -0.14    3.44    2.04   -70.23230   147.89327    44.11219
   596  C   4.0    0.03    4.38    4.34   -69.08477   147.98356    41.59507
   597  C   4.0    0.16    3.46    3.10   -69.00885   145.39762    40.29305
   598  O   6.0   -0.30    1.23    1.80   -70.11416   145.05165    38.26538
   599  C   4.0   -0.05    4.26    4.12   -66.40659   149.08852    41.77460
   600  C   4.0   -0.04    4.12    3.84   -65.05548   149.52387    39.21591
   601  C   4.0    0.23    3.08    3.02   -62.12423   149.40041    39.55795
   602  O   6.0   -0.31    1.15    1.80   -61.10928   147.35245    40.33274
   603  O   6.0   -0.31    1.15    1.80   -60.82690   151.33753    39.03260
   604  H   1.0    0.08    1.06    1.44   -69.36149   149.05761    45.37641
   605  H   1.0    0.04    1.06    1.44   -70.24559   149.22328    40.43100
   606  H   1.0    0.04    1.03    1.43   -66.51989   150.91050    42.72702
   607  H   1.0    0.06    1.03    1.43   -65.24156   147.79182    42.87064
   608  H   1.0    0.05    1.02    1.43   -65.62242   148.06190    37.87987
   609  H   1.0    0.04    1.02    1.43   -65.55349   151.38248    38.48080
   610  N   5.0   -0.13    3.47    2.06   -67.73968   143.59346    41.50626
   611  C   4.0    0.04    4.43    4.43   -67.18406   141.14298    40.36486
   612  C   4.0    0.16    3.46    3.10   -69.52223   139.59514    39.75637
   613  O   6.0   -0.29    1.25    1.80   -69.58658   138.19867    37.89877
   614  C   4.0   -0.05    4.38    4.34   -65.39439   139.63184    42.04861
   615  C   4.0   -0.02    4.22    4.04   -62.64371   140.43528    41.73302
   616  C   4.0   -0.06    4.12    3.84   -61.76735   142.05901    43.93455
   617  C   4.0   -0.09    4.13    3.86   -60.98557   138.12943    41.44389
   618  H   1.0    0.09    1.06    1.44   -67.06196   143.76952    43.30150
   619  H   1.0    0.05    1.07    1.44   -66.24224   141.51569    38.57151
   620  H   1.0    0.06    1.04    1.43   -65.92332   139.91758    44.01770
   621  H   1.0    0.04    1.04    1.43   -65.53876   137.63568    41.56106
   622  H   1.0    0.05    1.07    1.44   -62.47311   141.58493    40.03227
   623  H   1.0    0.04    1.00    1.43   -59.80006   142.59030    43.63409
   624  H   1.0    0.06    1.00    1.43   -62.94352   143.74837    44.03282
   625  H   1.0    0.05    1.02    1.43   -61.94492   140.97667    45.67877
   626  H   1.0    0.03    1.00    1.43   -59.02826   138.73413    41.22091
   627  H   1.0    0.03    1.02    1.43   -61.17034   136.95524    43.12575
   628  H   1.0    0.04    1.00    1.43   -61.58820   137.07430    39.78094
   629  N   5.0   -0.13    3.56    2.12   -71.44665   139.84865    41.32673
   630  C   4.0    0.04    4.44    4.45   -73.77507   138.49156    40.89398
   631  C   4.0    0.16    3.46    3.10   -74.78812   139.17464    38.28049
   632  O   6.0   -0.31    1.22    1.80   -75.63786   137.52899    36.86698
   633  C   4.0   -0.05    4.35    4.29   -75.68476   139.10316    42.97079
   634  C   4.0   -0.02    4.22    4.03   -74.65515   139.40118    45.67688
   635  C   4.0   -0.07    4.10    3.81   -76.81278   139.97263    47.49102
   636  C   4.0   -0.07    4.10    3.80   -73.18593   137.09312    46.60474
   637  H   1.0    0.10    1.09    1.44   -71.44893   140.96719    42.89709
   638  H   1.0    0.05    1.06    1.44   -73.45597   136.45912    40.97524
   639  H   1.0    0.05    1.03    1.43   -76.60505   140.88045    42.48135
   640  H   1.0    0.03    1.03    1.43   -77.07141   137.58202    43.02182
   641  H   1.0    0.07    1.08    1.44   -73.31986   140.96942    45.64853
   642  H   1.0    0.05    1.00    1.43   -76.05290   140.17762    49.39397
   643  H   1.0    0.04    1.00    1.43   -77.73226   141.72108    46.90898
   644  H   1.0    0.05    1.00    1.43   -78.16255   138.41710    47.43811
   645  H   1.0    0.04    1.00    1.43   -72.52126   137.44691    48.52281
   646  H   1.0    0.04    1.00    1.43   -74.43154   135.45346    46.58395
   647  H   1.0    0.05    1.00    1.43   -71.58129   136.77329    45.35374
   648  N   5.0   -0.14    3.46    2.06   -74.61560   141.59751    37.63232
   649  C   4.0    0.05    4.33    4.26   -75.38835   142.50407    35.14922
   650  C   4.0    0.10    3.25    3.04   -73.69189   141.48534    33.05918
   651  O   6.0   -0.29    1.20    1.80   -74.59088   140.93734    30.98426
   652  C   4.0   -0.03    4.30    4.20   -75.43571   145.39647    35.07363
   653  C   4.0    0.14    3.21    3.04   -77.05542   146.43853    32.92123
   654  O   6.0   -0.29    1.22    1.80   -77.01581   145.49046    30.79340
   655  N   5.0   -0.20    3.17    1.95   -78.47872   148.42549    33.47870
   656  H   1.0    0.11    1.07    1.44   -73.94631   142.98730    38.78883
   657  H   1.0    0.05    1.07    1.44   -77.30331   141.82910    34.80907
   658  H   1.0    0.04    1.03    1.43   -76.20795   146.09981    36.84808
   659  H   1.0    0.06    1.03    1.43   -73.51363   146.09132    34.81663
   660  H   1.0    0.08    1.02    1.43   -79.60569   149.21362    32.12755
   661  H   1.0    0.07    1.03    1.43   -78.44707   149.16440    35.25882
   662  N   5.0   -0.20    3.20    1.96   -76.47867   136.25787    31.24126
   663  C   4.0    0.04    4.14    3.88   -79.12921   136.72768    30.61765
   664  C   4.0    0.08    3.17    3.03   -79.49794   137.72174    27.90968
   665  O   6.0   -0.31    1.11    1.80   -81.59153   137.56887    26.86466
   666  C   4.0   -0.06    4.10    3.80   -80.31618   138.51928    32.53951
   667  H   1.0    0.12    1.09    1.44   -75.58238   137.77627    32.02172
   668  H   1.0    0.04    1.06    1.44   -80.17523   134.95750    30.74994
   669  H   1.0    0.05    1.00    1.43   -82.28672   138.83652    32.03117
   670  H   1.0    0.05    1.00    1.43   -80.20231   137.66581    34.41033
   671  H   1.0    0.06    1.01    1.43   -79.28791   140.30406    32.51683
   672  H   1.0    0.08    1.08    1.44   -63.34606   119.26731    37.65039
   673  H   1.0    0.04    1.04    1.44   -69.24988   121.16147    34.83008
   674  H   1.0    0.08    1.07    1.44   -68.67155   113.16140    36.21189
   675  H   1.0    0.05    1.05    1.44   -78.42371   115.06399    36.38214
   676  H   1.0    0.10    1.08    1.44   -76.78780   108.22885    40.77472
   677  H   1.0    0.05    1.05    1.44   -83.19570   109.35706    40.62535
   678  H   1.0    0.10    1.08    1.44   -85.17199   113.01296    41.01684
   679  H   1.0    0.08    1.07    1.44   -86.80322   108.90943    59.02233
   680  H   1.0    0.07    1.04    1.44   -71.84159   141.25964    33.36988
   681  H   1.0    0.10    1.07    1.44   -76.37642   134.98149    32.36062
   682  H   1.0    0.06    1.04    1.43   -78.04553   138.49650    26.98161

  Z AO/shell   Hii/eV     exponent
  1     Wed Apr 25 08:07:45 CEST 2018   EN: 2.200 GM2: 0.406  GM3: 0.0800  RAES: 1.40
     1s    -10.707211    1.230000
  6     Wed Apr 25 08:07:45 CEST 2018   EN: 2.550 GM2: 0.538  GM3: 0.1500  RAES: 3.00
     2s    -13.970922    2.096432
     2p    -10.063292    1.800000
  7     Wed Apr 25 08:07:45 CEST 2018   EN: 3.040 GM2: 0.461  GM3:-0.0640  RAES: 1.90
     2s    -16.686243    2.339881
     2p    -12.523956    2.014332
  8     Wed Apr 25 08:07:45 CEST 2018   EN: 3.440 GM2: 0.452  GM3:-0.0517  RAES: 1.80
     2s    -20.229985    2.439742
     2p    -15.503117    2.137023
 16     Tue Apr 24 11:44:34 CEST 2018   EN: 2.580 GM2: 0.340  GM3:-0.0502  RAES: 3.10
     3s    -20.029654    1.981333
     3p    -11.377694    2.025643
     3d     -0.420282    1.702555
 no old-style atom pair restraining (fixing) potential

molecular fragmentation (1/2 indicates fragments):
111111111111111111111222222222222222222222222222222222222222222222222222
222222222222222222222222222222222222222222222222222222222222222222222222
222222222222222222222222222222222222222222222222222222222222222222222222
222222222222222222222222222222222222222222222222222222222222222222222222
222222222222222222222222222222222222222222222222222222222222222222222222
222222222222222222222222222222222222222222222222222222222222222222222222
222222222222222222222222222222222222222222222222222222222222222222222222
222222222222222222222222222222222222222222222222222222222222222222222222
222222222222222222222222222222222222222222222222222222222222222222222222
2222222222222222222222211222222222
# atoms in fragment 1/2:    23   659
 fragment masses (1/2) :      165.19     4662.36
CMA distance (Bohr)    :  15.361
constraining FC (au)   :  0.0500
           ------------------------------------------------- 
          |        Self-Consistent Charge Iterations        |
           ------------------------------------------------- 

 Ncao       : 1708
 Nao        : 1705
 Nshell     : 1021
 Nel        : 1892
 T(el)      :   500.0
 intcut     :    35.0
 scfconv/Eh :  0.100E-06
   qconv/e  :  0.100E-04
 intneglect :  0.100E-08
 broydamp   :      0.400
 iter      E             dE          RMSdq      gap      omega  full diag
   1  -1085.0116896 -0.108501E+04  0.476E+00    2.83       0.0  T
   2  -1087.9221059 -0.291042E+01  0.220E+00    1.47       1.0  T
   3  -1088.1024609 -0.180355E+00  0.125E+00    1.41       1.0  T
   4  -1088.2713856 -0.168925E+00  0.277E-01    0.70       1.0  T
   5  -1088.2825421 -0.111565E-01  0.145E-01    0.87       1.0  T
   6  -1088.2841443 -0.160217E-02  0.642E-02    0.86       1.0  T
   7  -1088.2848589 -0.714671E-03  0.294E-02    0.85       1.0  T
   8  -1088.2849369 -0.779349E-04  0.165E-02    0.84       1.0  T
   9  -1088.2849772 -0.403451E-04  0.800E-03    0.82       1.0  T
  10  -1088.2849852 -0.800318E-05  0.409E-03    0.82       1.0  T
  11  -1088.2849876 -0.240574E-05  0.189E-03    0.82       2.0  T
  12  -1088.2849881 -0.456191E-06  0.918E-04    0.81       4.2  T
  13  -1088.2849882 -0.125482E-06  0.450E-04    0.81       8.5  T
  14  -1088.2849882 -0.286898E-07  0.211E-04    0.81      18.1  T
  15  -1088.2849882 -0.869704E-08  0.105E-04    0.81      36.5  T
  16  -1088.2849882 -0.177170E-08  0.522E-05    0.81      73.3  T
  17  -1088.2849882 -0.433829E-09  0.249E-05    0.81     154.0  T
speedup  1.02
cpu  time for SCC    1 m 37.2 s
wall time for SCC    1 m 35.5 s

   *** convergence criteria satisfied after 17 iterations ***

          eigenvalues
 #    :         934        935        936        937        938        939        940        941
 occ. :        2.000      2.000      2.000      2.000      2.000      2.000      2.000      2.000
 eps  :        -9.878     -9.831     -9.793     -9.772     -9.765     -9.700     -9.683     -9.625
 #    :         942        943        944        945        946        947        948        949
 occ. :        2.000      2.000      2.000      2.000      2.000      0.000      0.000      0.000
 eps  :        -9.584     -9.494     -9.229     -9.187     -9.155     -8.341     -7.868     -7.761
 #    :         950        951        952        953        954        955        956        957
 occ. :        0.000      0.000      0.000      0.000      0.000      0.000      0.000      0.000
 eps  :        -7.518     -7.153     -6.870     -6.722     -6.696     -6.629     -6.558     -6.510


   #   Z            q   n(s)   n(p)   n(d)      C6AA      α(0)
   1   7 N     -0.382  1.318  4.064  0.000    29.868     8.117
   2   6 C      0.041  1.048  2.911  0.000    19.901     6.354
   3   6 C      0.197  1.095  2.708  0.000    23.795     7.989
   4   8 O     -0.344  1.732  4.612  0.000    20.594     6.085
   5   6 C     -0.076  1.057  3.019  0.000    21.940     6.667
   6   6 C      0.000  1.082  2.918  0.000    28.017     8.682
   7   6 C     -0.045  1.088  2.957  0.000    29.120     8.849
   8   6 C     -0.049  1.088  2.961  0.000    29.210     8.863
   9   6 C     -0.086  1.091  2.995  0.000    30.157     9.005
  10   6 C     -0.069  1.083  2.986  0.000    29.716     8.939
  11   6 C      0.144  1.049  2.807  0.000    24.852     8.170
  12   8 O     -0.439  1.733  4.706  0.000    21.613     6.276
  13   1 H      0.169  0.831  0.000  0.000     1.279     1.771
  14   1 H      0.061  0.939  0.000  0.000     2.185     2.311
  15   1 H      0.068  0.932  0.000  0.000     2.107     2.270
  16   1 H      0.052  0.948  0.000  0.000     2.290     2.367
  17   1 H      0.045  0.955  0.000  0.000     2.379     2.412
  18   1 H      0.060  0.940  0.000  0.000     2.200     2.320
  19   1 H      0.079  0.921  0.000  0.000     1.994     2.208
  20   1 H      0.032  0.968  0.000  0.000     2.560     2.502
  21   1 H      0.302  0.698  0.000  0.000     0.716     1.329
  22   7 N     -0.405  1.328  4.077  0.000    30.500     8.202
  23   6 C      0.039  1.054  2.908  0.000    19.937     6.360
  24   6 C      0.274  1.045  2.681  0.000    22.368     7.745
  25   8 O     -0.491  1.744  4.747  0.000    23.596     6.513
  26   6 C     -0.060  1.053  3.007  0.000    21.641     6.620
  27   6 C     -0.015  1.063  2.952  0.000    20.853     6.503
  28  16 S     -0.244  1.919  4.261  0.064   151.536    20.719
  29   6 C     -0.058  1.052  3.005  0.000    21.685     6.643
  30   1 H      0.155  0.845  0.000  0.000     1.366     1.831
  31   1 H      0.052  0.948  0.000  0.000     2.299     2.371
  32   1 H      0.038  0.962  0.000  0.000     2.474     2.460
  33   1 H      0.028  0.972  0.000  0.000     2.611     2.527
  34   1 H      0.037  0.963  0.000  0.000     2.489     2.467
  35   1 H      0.055  0.945  0.000  0.000     2.256     2.349
  36   1 H      0.084  0.916  0.000  0.000     1.938     2.177
  37   1 H      0.063  0.937  0.000  0.000     2.168     2.303
  38   1 H      0.054  0.946  0.000  0.000     2.266     2.354
  39   7 N     -0.217  1.269  3.948  0.000    25.741     7.535
  40   6 C      0.035  1.050  2.915  0.000    19.987     6.366
  41   6 C      0.203  1.082  2.715  0.000    23.680     7.970
  42   8 O     -0.362  1.748  4.614  0.000    20.932     6.134
  43   6 C     -0.085  1.059  3.026  0.000    22.109     6.691
  44   6 C     -0.010  1.049  2.961  0.000    20.728     6.475
  45   6 C     -0.110  1.045  3.065  0.000    22.652     6.784
  46   6 C     -0.120  1.044  3.075  0.000    22.845     6.815
  47   1 H      0.260  0.740  0.000  0.000     0.845     1.439
  48   1 H      0.087  0.913  0.000  0.000     1.910     2.161
  49   1 H      0.064  0.936  0.000  0.000     2.153     2.295
  50   1 H      0.059  0.941  0.000  0.000     2.205     2.322
  51   1 H      0.030  0.970  0.000  0.000     2.584     2.514
  52   1 H      0.030  0.970  0.000  0.000     2.582     2.513
  53   1 H      0.034  0.966  0.000  0.000     2.531     2.488
  54   1 H      0.051  0.949  0.000  0.000     2.310     2.377
  55   1 H      0.039  0.961  0.000  0.000     2.469     2.457
  56   1 H      0.056  0.944  0.000  0.000     2.245     2.343
  57   1 H      0.047  0.953  0.000  0.000     2.364     2.404
  58   7 N     -0.402  1.319  4.083  0.000    30.430     8.193
  59   6 C      0.047  1.048  2.904  0.000    19.796     6.337
  60   6 C      0.199  1.092  2.709  0.000    23.753     7.982
  61   8 O     -0.393  1.737  4.655  0.000    21.536     6.222
  62   6 C     -0.105  1.065  3.040  0.000    22.499     6.753
  63   6 C      0.360  1.029  2.611  0.000    20.896     7.481
  64   8 O     -0.649  1.777  4.872  0.000    27.353     7.012
  65   8 O     -0.622  1.739  4.883  0.000    26.671     6.924
  66   1 H      0.168  0.832  0.000  0.000     1.287     1.777
  67   1 H      0.081  0.919  0.000  0.000     1.973     2.196
  68   1 H      0.037  0.963  0.000  0.000     2.487     2.466
  69   1 H      0.056  0.944  0.000  0.000     2.241     2.341
  70   7 N     -0.404  1.328  4.076  0.000    30.488     8.201
  71   6 C      0.035  1.057  2.908  0.000    19.988     6.365
  72   6 C      0.279  1.042  2.679  0.000    22.275     7.729
  73   8 O     -0.509  1.753  4.756  0.000    23.983     6.566
  74   6 C     -0.019  1.057  2.962  0.000    20.865     6.496
  75   6 C     -0.076  1.052  3.024  0.000    21.942     6.668
  76   6 C     -0.123  1.048  3.075  0.000    22.911     6.823
  77   6 C     -0.105  1.038  3.068  0.000    22.567     6.774
  78   1 H      0.175  0.825  0.000  0.000     1.246     1.748
  79   1 H      0.029  0.971  0.000  0.000     2.594     2.519
  80   1 H      0.031  0.969  0.000  0.000     2.570     2.507
  81   1 H      0.054  0.946  0.000  0.000     2.275     2.359
  82   1 H      0.055  0.945  0.000  0.000     2.263     2.353
  83   1 H      0.054  0.946  0.000  0.000     2.272     2.357
  84   1 H      0.017  0.983  0.000  0.000     2.778     2.606
  85   1 H      0.065  0.935  0.000  0.000     2.141     2.288
  86   1 H      0.053  0.947  0.000  0.000     2.287     2.365
  87   1 H      0.037  0.963  0.000  0.000     2.486     2.466
  88   1 H      0.034  0.966  0.000  0.000     2.533     2.489
  89   7 N     -0.189  1.252  3.937  0.000    25.098     7.441
  90   6 C      0.045  1.049  2.906  0.000    19.818     6.339
  91   6 C      0.272  1.045  2.682  0.000    22.398     7.751
  92   8 O     -0.497  1.742  4.755  0.000    23.717     6.529
  93   6 C     -0.091  1.066  3.025  0.000    22.236     6.713
  94   6 C      0.365  1.023  2.613  0.000    20.812     7.466
  95   8 O     -0.639  1.764  4.875  0.000    27.105     6.980
  96   8 O     -0.641  1.771  4.870  0.000    27.153     6.986
  97   1 H      0.206  0.794  0.000  0.000     1.078     1.626
  98   1 H      0.038  0.962  0.000  0.000     2.471     2.458
  99   1 H      0.043  0.957  0.000  0.000     2.411     2.428
 100   1 H      0.033  0.967  0.000  0.000     2.546     2.495
 101   7 N     -0.088  1.240  3.849  0.000    22.961     7.117
 102   6 C      0.023  1.063  2.915  0.000    20.175     6.391
 103   6 C      0.285  1.038  2.677  0.000    22.174     7.711
 104   8 O     -0.490  1.742  4.748  0.000    23.560     6.508
 105   6 C     -0.075  1.055  3.020  0.000    21.908     6.659
 106   6 C     -0.069  1.043  3.026  0.000    21.792     6.641
 107   6 C     -0.000  1.048  2.952  0.000    20.619     6.471
 108   1 H      0.072  0.928  0.000  0.000     2.066     2.248
 109   1 H      0.048  0.952  0.000  0.000     2.345     2.395
 110   1 H      0.067  0.933  0.000  0.000     2.120     2.277
 111   1 H      0.051  0.949  0.000  0.000     2.310     2.377
 112   1 H      0.079  0.921  0.000  0.000     1.986     2.204
 113   1 H      0.059  0.941  0.000  0.000     2.212     2.326
 114   1 H      0.078  0.922  0.000  0.000     2.003     2.213
 115   7 N     -0.173  1.250  3.923  0.000    24.751     7.389
 116   6 C      0.027  1.055  2.918  0.000    20.131     6.390
 117   6 C      0.285  1.036  2.679  0.000    22.174     7.711
 118   8 O     -0.474  1.752  4.722  0.000    23.224     6.461
 119   6 C     -0.109  1.065  3.044  0.000    22.571     6.763
 120   6 C      0.283  1.040  2.676  0.000    22.201     7.715
 121   8 O     -0.498  1.758  4.741  0.000    23.745     6.533
 122   7 N     -0.283  1.270  4.013  0.000    27.308     7.761
 123   1 H      0.223  0.777  0.000  0.000     0.997     1.564
 124   1 H      0.088  0.912  0.000  0.000     1.899     2.155
 125   1 H      0.099  0.901  0.000  0.000     1.793     2.094
 126   1 H      0.059  0.941  0.000  0.000     2.206     2.323
 127   1 H      0.256  0.744  0.000  0.000     0.861     1.454
 128   1 H      0.232  0.768  0.000  0.000     0.959     1.534
 129   7 N     -0.188  1.247  3.942  0.000    25.083     7.438
 130   6 C      0.021  1.067  2.912  0.000    20.238     6.407
 131   6 C      0.278  1.044  2.678  0.000    22.293     7.731
 132   8 O     -0.510  1.744  4.765  0.000    23.997     6.568
 133   6 C     -0.064  1.056  3.009  0.000    21.733     6.637
 134   6 C     -0.084  1.061  3.024  0.000    22.112     6.695
 135   6 C      0.365  1.023  2.612  0.000    20.806     7.465
 136   8 O     -0.627  1.763  4.864  0.000    26.788     6.939
 137   8 O     -0.646  1.774  4.871  0.000    27.269     7.001
 138   1 H      0.200  0.800  0.000  0.000     1.107     1.648
 139   1 H      0.073  0.927  0.000  0.000     2.054     2.241
 140   1 H      0.060  0.940  0.000  0.000     2.202     2.320
 141   1 H      0.059  0.941  0.000  0.000     2.215     2.328
 142   1 H      0.006  0.994  0.000  0.000     2.953     2.687
 143   1 H      0.022  0.978  0.000  0.000     2.701     2.570
 144   7 N     -0.166  1.249  3.918  0.000    24.601     7.366
 145   6 C      0.029  1.060  2.911  0.000    20.081     6.380
 146   6 C      0.270  1.038  2.691  0.000    22.432     7.756
 147   8 O     -0.486  1.741  4.745  0.000    23.389     6.488
 148   6 C     -0.080  1.058  3.022  0.000    22.012     6.678
 149   6 C     -0.013  1.057  2.957  0.000    20.779     6.483
 150   6 C     -0.126  1.047  3.079  0.000    22.980     6.835
 151   6 C     -0.146  1.051  3.095  0.000    23.372     6.893
 152   1 H      0.213  0.787  0.000  0.000     1.043     1.600
 153   1 H      0.075  0.925  0.000  0.000     2.028     2.227
 154   1 H      0.070  0.930  0.000  0.000     2.083     2.257
 155   1 H      0.060  0.940  0.000  0.000     2.193     2.316
 156   1 H      0.033  0.967  0.000  0.000     2.550     2.497
 157   1 H      0.048  0.952  0.000  0.000     2.339     2.392
 158   1 H      0.011  0.989  0.000  0.000     2.879     2.654
 159   1 H      0.070  0.930  0.000  0.000     2.089     2.260
 160   1 H      0.065  0.935  0.000  0.000     2.144     2.290
 161   1 H      0.065  0.935  0.000  0.000     2.146     2.291
 162   1 H      0.051  0.949  0.000  0.000     2.309     2.376
 163   7 N     -0.168  1.250  3.919  0.000    24.644     7.373
 164   6 C      0.025  1.059  2.916  0.000    20.151     6.392
 165   6 C      0.271  1.044  2.685  0.000    22.416     7.753
 166   8 O     -0.505  1.750  4.754  0.000    23.887     6.553
 167   6 C     -0.084  1.059  3.026  0.000    22.108     6.694
 168   6 C     -0.022  1.060  2.962  0.000    20.927     6.507
 169   6 C     -0.110  1.042  3.068  0.000    22.663     6.788
 170   6 C     -0.115  1.043  3.072  0.000    22.757     6.803
 171   1 H      0.236  0.764  0.000  0.000     0.940     1.519
 172   1 H      0.064  0.936  0.000  0.000     2.148     2.292
 173   1 H      0.065  0.935  0.000  0.000     2.143     2.289
 174   1 H      0.048  0.952  0.000  0.000     2.339     2.392
 175   1 H      0.056  0.944  0.000  0.000     2.247     2.344
 176   1 H      0.039  0.961  0.000  0.000     2.459     2.452
 177   1 H      0.046  0.954  0.000  0.000     2.366     2.405
 178   1 H      0.038  0.962  0.000  0.000     2.473     2.459
 179   1 H      0.042  0.958  0.000  0.000     2.420     2.433
 180   1 H      0.037  0.963  0.000  0.000     2.489     2.467
 181   1 H      0.035  0.965  0.000  0.000     2.520     2.482
 182   7 N     -0.190  1.249  3.941  0.000    25.123     7.444
 183   6 C      0.028  1.057  2.916  0.000    20.116     6.386
 184   6 C      0.273  1.039  2.688  0.000    22.386     7.748
 185   8 O     -0.485  1.746  4.739  0.000    23.458     6.494
 186   6 C     -0.112  1.063  3.049  0.000    22.631     6.771
 187   6 C      0.288  1.035  2.677  0.000    22.114     7.700
 188   8 O     -0.488  1.762  4.726  0.000    23.519     6.502
 189   7 N     -0.270  1.265  4.006  0.000    27.001     7.717
 190   1 H      0.240  0.760  0.000  0.000     0.924     1.506
 191   1 H      0.080  0.920  0.000  0.000     1.983     2.202
 192   1 H      0.084  0.916  0.000  0.000     1.935     2.175
 193   1 H      0.112  0.888  0.000  0.000     1.684     2.029
 194   1 H      0.229  0.771  0.000  0.000     0.971     1.543
 195   1 H      0.246  0.754  0.000  0.000     0.898     1.485
 196   7 N     -0.174  1.241  3.933  0.000    24.769     7.392
 197   6 C      0.008  1.063  2.930  0.000    20.455     6.440
 198   6 C      0.282  1.035  2.682  0.000    22.220     7.719
 199   8 O     -0.498  1.748  4.749  0.000    23.736     6.532
 200   6 C      0.065  1.041  2.894  0.000    19.697     6.356
 201   8 O     -0.515  1.725  4.790  0.000    23.211     6.504
 202   1 H      0.201  0.799  0.000  0.000     1.101     1.644
 203   1 H      0.086  0.914  0.000  0.000     1.923     2.169
 204   1 H      0.082  0.918  0.000  0.000     1.963     2.191
 205   1 H      0.040  0.960  0.000  0.000     2.455     2.450
 206   1 H      0.342  0.658  0.000  0.000     0.594     1.204
 207   7 N     -0.174  1.247  3.927  0.000    24.777     7.393
 208   6 C      0.026  1.057  2.917  0.000    20.133     6.388
 209   6 C      0.278  1.036  2.686  0.000    22.301     7.733
 210   8 O     -0.486  1.769  4.717  0.000    23.486     6.498
 211   6 C     -0.057  1.047  3.010  0.000    21.571     6.607
 212   6 C     -0.021  1.063  2.958  0.000    20.948     6.517
 213  16 S     -0.166  1.891  4.224  0.051   148.080    20.481
 214   6 C     -0.050  1.048  3.002  0.000    21.548     6.622
 215   1 H      0.223  0.777  0.000  0.000     0.994     1.562
 216   1 H      0.092  0.908  0.000  0.000     1.859     2.132
 217   1 H      0.055  0.945  0.000  0.000     2.258     2.350
 218   1 H      0.033  0.967  0.000  0.000     2.541     2.493
 219   1 H      0.052  0.948  0.000  0.000     2.296     2.370
 220   1 H      0.084  0.916  0.000  0.000     1.934     2.175
 221   1 H      0.047  0.953  0.000  0.000     2.353     2.399
 222   1 H      0.036  0.964  0.000  0.000     2.498     2.472
 223   1 H      0.026  0.974  0.000  0.000     2.644     2.543
 224   7 N     -0.189  1.248  3.941  0.000    25.101     7.441
 225   6 C      0.030  1.059  2.911  0.000    20.082     6.382
 226   6 C      0.282  1.042  2.676  0.000    22.227     7.720
 227   8 O     -0.511  1.755  4.757  0.000    24.037     6.573
 228   6 C     -0.130  1.045  3.085  0.000    23.055     6.847
 229   1 H      0.202  0.798  0.000  0.000     1.094     1.639
 230   1 H      0.055  0.945  0.000  0.000     2.256     2.349
 231   1 H      0.075  0.925  0.000  0.000     2.028     2.227
 232   1 H      0.062  0.938  0.000  0.000     2.170     2.304
 233   1 H      0.075  0.925  0.000  0.000     2.037     2.232
 234   7 N     -0.174  1.247  3.927  0.000    24.767     7.391
 235   6 C      0.021  1.061  2.919  0.000    20.234     6.406
 236   6 C      0.274  1.043  2.683  0.000    22.374     7.746
 237   8 O     -0.513  1.746  4.768  0.000    24.083     6.580
 238   6 C     -0.129  1.046  3.083  0.000    23.044     6.845
 239   1 H      0.210  0.790  0.000  0.000     1.056     1.610
 240   1 H      0.077  0.923  0.000  0.000     2.012     2.218
 241   1 H      0.081  0.919  0.000  0.000     1.972     2.196
 242   1 H      0.076  0.924  0.000  0.000     2.016     2.221
 243   1 H      0.064  0.936  0.000  0.000     2.150     2.293
 244   7 N     -0.172  1.249  3.922  0.000    24.715     7.384
 245   6 C      0.013  1.065  2.922  0.000    20.371     6.428
 246   6 C      0.362  1.017  2.621  0.000    20.858     7.474
 247   8 O     -0.626  1.747  4.879  0.000    26.772     6.937
 248   6 C     -0.118  1.044  3.074  0.000    22.819     6.811
 249   8 O     -0.618  1.771  4.847  0.000    26.575     6.912
 250   1 H      0.190  0.810  0.000  0.000     1.161     1.688
 251   1 H      0.043  0.957  0.000  0.000     2.411     2.428
 252   1 H      0.065  0.935  0.000  0.000     2.136     2.285
 253   1 H      0.060  0.940  0.000  0.000     2.205     2.322
 254   1 H      0.049  0.951  0.000  0.000     2.334     2.389
 255   7 N     -0.391  1.317  4.074  0.000    30.117     8.150
 256   6 C      0.017  1.055  2.928  0.000    20.292     6.415
 257   6 C      0.260  1.048  2.692  0.000    22.622     7.789
 258   8 O     -0.497  1.745  4.752  0.000    23.713     6.529
 259   6 C     -0.095  1.060  3.035  0.000    22.305     6.722
 260   6 C     -0.087  1.047  3.039  0.000    22.148     6.699
 261   6 C     -0.029  1.054  2.975  0.000    21.154     6.561
 262   7 N     -0.141  1.211  3.930  0.000    24.049     7.283
 263   6 C      0.231  1.016  2.752  0.000    23.148     7.877
 264   7 N     -0.239  1.227  4.012  0.000    26.256     7.610
 265   7 N     -0.243  1.230  4.013  0.000    26.353     7.624
 266   1 H      0.169  0.831  0.000  0.000     1.277     1.770
 267   1 H      0.056  0.944  0.000  0.000     2.248     2.345
 268   1 H      0.069  0.931  0.000  0.000     2.101     2.267
 269   1 H      0.067  0.933  0.000  0.000     2.120     2.277
 270   1 H      0.063  0.937  0.000  0.000     2.159     2.298
 271   1 H      0.070  0.930  0.000  0.000     2.084     2.257
 272   1 H      0.100  0.900  0.000  0.000     1.789     2.092
 273   1 H      0.073  0.927  0.000  0.000     2.053     2.241
 274   1 H      0.248  0.752  0.000  0.000     0.892     1.479
 275   1 H      0.237  0.763  0.000  0.000     0.935     1.515
 276   1 H      0.209  0.791  0.000  0.000     1.060     1.613
 277   1 H      0.263  0.737  0.000  0.000     0.833     1.430
 278   1 H      0.219  0.781  0.000  0.000     1.014     1.578
 279   7 N     -0.161  1.237  3.924  0.000    24.474     7.347
 280   6 C      0.009  1.057  2.934  0.000    20.423     6.432
 281   6 C      0.271  1.039  2.690  0.000    22.428     7.756
 282   8 O     -0.502  1.752  4.749  0.000    23.823     6.544
 283   6 C      0.112  1.040  2.848  0.000    18.822     6.192
 284   8 O     -0.473  1.715  4.759  0.000    22.324     6.378
 285   6 C     -0.141  1.047  3.094  0.000    23.278     6.878
 286   1 H      0.245  0.755  0.000  0.000     0.902     1.488
 287   1 H      0.073  0.927  0.000  0.000     2.052     2.240
 288   1 H      0.037  0.963  0.000  0.000     2.491     2.468
 289   1 H      0.344  0.656  0.000  0.000     0.602     1.219
 290   1 H      0.055  0.945  0.000  0.000     2.261     2.351
 291   1 H      0.049  0.951  0.000  0.000     2.338     2.391
 292   1 H      0.065  0.935  0.000  0.000     2.145     2.291
 293   7 N     -0.170  1.240  3.930  0.000    24.686     7.379
 294   6 C      0.004  1.060  2.936  0.000    20.505     6.446
 295   6 C      0.268  1.038  2.693  0.000    22.469     7.763
 296   8 O     -0.499  1.754  4.746  0.000    23.765     6.536
 297   6 C     -0.104  1.060  3.043  0.000    22.469     6.747
 298   6 C     -0.089  1.050  3.039  0.000    22.202     6.708
 299   6 C     -0.035  1.056  2.979  0.000    21.282     6.582
 300   7 N     -0.145  1.212  3.933  0.000    24.144     7.298
 301   6 C      0.223  1.019  2.758  0.000    23.302     7.903
 302   7 N     -0.245  1.230  4.015  0.000    26.392     7.630
 303   7 N     -0.252  1.235  4.017  0.000    26.552     7.653
 304   1 H      0.236  0.764  0.000  0.000     0.939     1.518
 305   1 H      0.090  0.910  0.000  0.000     1.876     2.142
 306   1 H      0.091  0.909  0.000  0.000     1.869     2.138
 307   1 H      0.086  0.914  0.000  0.000     1.920     2.167
 308   1 H      0.067  0.933  0.000  0.000     2.117     2.275
 309   1 H      0.073  0.927  0.000  0.000     2.056     2.242
 310   1 H      0.096  0.904  0.000  0.000     1.823     2.111
 311   1 H      0.095  0.905  0.000  0.000     1.828     2.114
 312   1 H      0.233  0.767  0.000  0.000     0.953     1.529
 313   1 H      0.242  0.758  0.000  0.000     0.914     1.498
 314   1 H      0.259  0.741  0.000  0.000     0.851     1.445
 315   1 H      0.243  0.757  0.000  0.000     0.911     1.495
[...]
 396   6 C     -0.086  1.059  3.027  0.000    22.142     6.698
 397   6 C     -0.001  1.083  2.917  0.000    28.042     8.686
 398   6 C     -0.041  1.088  2.953  0.000    29.024     8.835
 399   6 C     -0.050  1.092  2.957  0.000    29.236     8.867
 400   6 C     -0.062  1.076  2.986  0.000    29.543     8.913
 401   6 C     -0.074  1.081  2.992  0.000    29.838     8.957
 402   6 C      0.142  1.048  2.810  0.000    24.893     8.177
 403   8 O     -0.422  1.727  4.695  0.000    21.275     6.227
 404   1 H      0.266  0.734  0.000  0.000     0.825     1.422
 405   1 H      0.064  0.936  0.000  0.000     2.157     2.297
 406   1 H      0.089  0.911  0.000  0.000     1.887     2.148
 407   1 H      0.047  0.953  0.000  0.000     2.351     2.398
 408   1 H      0.024  0.976  0.000  0.000     2.669     2.555
 409   1 H      0.085  0.915  0.000  0.000     1.923     2.169
 410   1 H      0.046  0.954  0.000  0.000     2.376     2.411
 411   1 H      0.069  0.931  0.000  0.000     2.091     2.261
 412   1 H      0.324  0.676  0.000  0.000     0.653     1.269
 413   7 N     -0.214  1.268  3.946  0.000    25.669     7.525
 414   6 C      0.035  1.058  2.907  0.000    19.992     6.367
 415   6 C      0.289  1.037  2.674  0.000    22.109     7.700
 416   8 O     -0.536  1.762  4.774  0.000    24.598     6.650
 417   6 C     -0.084  1.060  3.024  0.000    22.091     6.691
 418   6 C     -0.063  1.048  3.016  0.000    21.720     6.635
 419   6 C     -0.014  1.053  2.961  0.000    20.909     6.525
 420   7 N     -0.145  1.214  3.931  0.000    24.137     7.297
 421   6 C      0.238  1.017  2.745  0.000    23.020     7.855
 422   7 N     -0.247  1.232  4.016  0.000    26.445     7.637
 423   7 N     -0.236  1.230  4.006  0.000    26.176     7.599
 424   1 H      0.283  0.717  0.000  0.000     0.764     1.369
 425   1 H      0.038  0.962  0.000  0.000     2.478     2.462
 426   1 H      0.078  0.922  0.000  0.000     2.000     2.212
 427   1 H      0.075  0.925  0.000  0.000     2.031     2.229
 428   1 H      0.043  0.957  0.000  0.000     2.414     2.430
 429   1 H      0.040  0.960  0.000  0.000     2.445     2.445
 430   1 H      0.100  0.900  0.000  0.000     1.789     2.092
 431   1 H      0.068  0.932  0.000  0.000     2.105     2.269
 432   1 H      0.212  0.788  0.000  0.000     1.047     1.603
 433   1 H      0.242  0.758  0.000  0.000     0.914     1.497
 434   1 H      0.263  0.737  0.000  0.000     0.835     1.432
 435   1 H      0.222  0.778  0.000  0.000     0.999     1.566
 436   1 H      0.261  0.739  0.000  0.000     0.842     1.437
 437   7 N     -0.184  1.250  3.935  0.000    24.991     7.425
 438   6 C      0.037  1.057  2.906  0.000    19.961     6.362
 439   6 C      0.277  1.047  2.676  0.000    22.315     7.735
 440   8 O     -0.519  1.744  4.774  0.000    24.201     6.596
 441   6 C     -0.054  1.052  3.002  0.000    21.540     6.608
 442   6 C     -0.092  1.064  3.029  0.000    22.260     6.717
 443   6 C      0.370  1.024  2.606  0.000    20.733     7.452
 444   8 O     -0.652  1.767  4.884  0.000    27.429     7.022
 445   8 O     -0.651  1.771  4.880  0.000    27.402     7.018
 446   1 H      0.236  0.764  0.000  0.000     0.941     1.520
 447   1 H      0.047  0.953  0.000  0.000     2.360     2.403
 448   1 H      0.054  0.946  0.000  0.000     2.266     2.354
 449   1 H      0.030  0.970  0.000  0.000     2.584     2.514
 450   1 H      0.012  0.988  0.000  0.000     2.864     2.647
 451   1 H      0.061  0.939  0.000  0.000     2.190     2.314
 452   7 N     -0.232  1.284  3.948  0.000    26.083     7.585
 453   6 C      0.037  1.059  2.904  0.000    19.956     6.362
 454   6 C      0.290  1.037  2.673  0.000    22.079     7.695
 455   8 O     -0.530  1.763  4.767  0.000    24.454     6.630
 456   6 C     -0.069  1.060  3.009  0.000    21.820     6.651
 457   6 C     -0.017  1.068  2.949  0.000    20.898     6.511
 458  16 S     -0.263  1.932  4.254  0.078   152.390    20.777
 459   6 C     -0.034  1.048  2.986  0.000    21.252     6.576
 460   1 H      0.281  0.719  0.000  0.000     0.768     1.371
 461   1 H      0.052  0.948  0.000  0.000     2.292     2.368
 462   1 H      0.085  0.915  0.000  0.000     1.928     2.171
 463   1 H      0.061  0.939  0.000  0.000     2.191     2.315
 464   1 H      0.078  0.922  0.000  0.000     2.003     2.213
 465   1 H      0.054  0.946  0.000  0.000     2.272     2.357
 466   1 H      0.056  0.944  0.000  0.000     2.252     2.347
 467   1 H      0.074  0.926  0.000  0.000     2.047     2.237
 468   1 H      0.039  0.961  0.000  0.000     2.461     2.453
 469   7 N     -0.210  1.263  3.947  0.000    25.580     7.512
 470   6 C      0.038  1.050  2.912  0.000    19.935     6.356
 471   6 C      0.284  1.038  2.678  0.000    22.198     7.716
 472   8 O     -0.524  1.756  4.768  0.000    24.317     6.611
 473   6 C     -0.067  1.053  3.013  0.000    21.762     6.640
 474   6 C     -0.006  1.050  2.956  0.000    20.644     6.462
 475   6 C     -0.118  1.045  3.073  0.000    22.808     6.809
 476   6 C     -0.121  1.049  3.072  0.000    22.864     6.816
 477   1 H      0.246  0.754  0.000  0.000     0.897     1.484
 478   1 H      0.072  0.928  0.000  0.000     2.059     2.244
 479   1 H      0.047  0.953  0.000  0.000     2.358     2.401
 480   1 H      0.026  0.974  0.000  0.000     2.643     2.542
 481   1 H      0.035  0.965  0.000  0.000     2.523     2.484
 482   1 H      0.058  0.942  0.000  0.000     2.225     2.333
 483   1 H      0.028  0.972  0.000  0.000     2.619     2.531
 484   1 H      0.038  0.962  0.000  0.000     2.472     2.459
 485   1 H      0.073  0.927  0.000  0.000     2.055     2.242
 486   1 H      0.031  0.969  0.000  0.000     2.574     2.509
 487   1 H      0.060  0.940  0.000  0.000     2.202     2.320
 488   7 N     -0.181  1.250  3.931  0.000    24.927     7.415
 489   6 C      0.034  1.062  2.903  0.000    19.999     6.367
 490   6 C      0.282  1.046  2.673  0.000    22.227     7.720
 491   8 O     -0.520  1.746  4.774  0.000    24.227     6.599
 492   6 C     -0.019  1.068  2.952  0.000    20.888     6.501
 493   6 C     -0.059  1.051  3.009  0.000    21.643     6.624
 494   6 C     -0.114  1.044  3.071  0.000    22.752     6.803
 495   6 C     -0.111  1.043  3.068  0.000    22.692     6.794
 496   1 H      0.217  0.783  0.000  0.000     1.023     1.585
 497   1 H      0.052  0.948  0.000  0.000     2.292     2.367
 498   1 H      0.045  0.955  0.000  0.000     2.385     2.415
 499   1 H      0.048  0.952  0.000  0.000     2.348     2.396
 500   1 H      0.020  0.980  0.000  0.000     2.727     2.582
 501   1 H      0.060  0.940  0.000  0.000     2.201     2.320
 502   1 H      0.055  0.945  0.000  0.000     2.264     2.353
 503   1 H      0.031  0.969  0.000  0.000     2.567     2.505
 504   1 H      0.055  0.945  0.000  0.000     2.256     2.349
 505   1 H      0.029  0.971  0.000  0.000     2.594     2.519
 506   1 H      0.056  0.944  0.000  0.000     2.248     2.345
 507   7 N     -0.210  1.263  3.947  0.000    25.579     7.511
 508   6 C      0.031  1.055  2.915  0.000    20.065     6.378
 509   6 C      0.280  1.039  2.682  0.000    22.267     7.728
 510   8 O     -0.498  1.741  4.757  0.000    23.748     6.534
 511   6 C     -0.116  1.042  3.074  0.000    22.772     6.803
 512   1 H      0.240  0.760  0.000  0.000     0.924     1.506
 513   1 H      0.076  0.924  0.000  0.000     2.023     2.224
 514   1 H      0.079  0.921  0.000  0.000     1.993     2.208
 515   1 H      0.073  0.927  0.000  0.000     2.050     2.239
 516   1 H      0.042  0.958  0.000  0.000     2.426     2.436
 517   7 N     -0.169  1.242  3.927  0.000    24.649     7.374
 518   6 C      0.043  1.051  2.906  0.000    19.856     6.344
 519   6 C      0.271  1.046  2.683  0.000    22.420     7.754
 520   8 O     -0.477  1.737  4.741  0.000    23.290     6.470
 521   6 C     -0.083  1.061  3.023  0.000    22.085     6.690
 522   6 C      0.377  1.020  2.603  0.000    20.620     7.431
 523   8 O     -0.639  1.770  4.869  0.000    27.090     6.978
 524   8 O     -0.639  1.757  4.882  0.000    27.096     6.979
 525   1 H      0.193  0.807  0.000  0.000     1.145     1.676
 526   1 H      0.077  0.923  0.000  0.000     2.010     2.217
 527   1 H      0.031  0.969  0.000  0.000     2.568     2.506
 528   1 H      0.043  0.957  0.000  0.000     2.403     2.424
 529   7 N     -0.171  1.243  3.928  0.000    24.695     7.381
 530   6 C     -0.026  1.052  2.974  0.000    21.100     6.553
 531   6 C      0.280  1.042  2.679  0.000    22.264     7.726
 532   8 O     -0.532  1.766  4.766  0.000    24.505     6.637
 533   1 H      0.208  0.792  0.000  0.000     1.066     1.617
 534   1 H      0.100  0.900  0.000  0.000     1.783     2.088
 535   1 H      0.095  0.905  0.000  0.000     1.828     2.115
 536   7 N     -0.194  1.268  3.927  0.000    25.213     7.458
 537   6 C      0.035  1.064  2.901  0.000    19.995     6.367
 538   6 C      0.304  1.037  2.660  0.000    21.847     7.654
 539   8 O     -0.515  1.752  4.762  0.000    24.110     6.583
 540   6 C     -0.015  1.060  2.955  0.000    20.801     6.487
 541   6 C     -0.076  1.054  3.022  0.000    21.949     6.669
 542   6 C     -0.107  1.043  3.064  0.000    22.605     6.779
 543   6 C     -0.106  1.039  3.067  0.000    22.575     6.775
 544   1 H      0.259  0.741  0.000  0.000     0.848     1.442
 545   1 H      0.030  0.970  0.000  0.000     2.593     2.518
 546   1 H      0.048  0.952  0.000  0.000     2.350     2.397
 547   1 H      0.064  0.936  0.000  0.000     2.158     2.297
 548   1 H      0.039  0.961  0.000  0.000     2.466     2.456
 549   1 H      0.056  0.944  0.000  0.000     2.243     2.342
 550   1 H      0.015  0.985  0.000  0.000     2.806     2.620
 551   1 H      0.061  0.939  0.000  0.000     2.188     2.313
 552   1 H      0.050  0.950  0.000  0.000     2.321     2.382
 553   1 H      0.040  0.960  0.000  0.000     2.454     2.450
 554   1 H      0.025  0.975  0.000  0.000     2.659     2.550
 555   7 N     -0.185  1.251  3.934  0.000    25.020     7.429
 556   6 C      0.050  1.051  2.899  0.000    19.739     6.327
 557   6 C      0.265  1.050  2.686  0.000    22.537     7.774
 558   8 O     -0.489  1.747  4.742  0.000    23.549     6.506
 559   6 C     -0.088  1.063  3.025  0.000    22.179     6.704
 560   6 C      0.367  1.023  2.610  0.000    20.774     7.459
 561   8 O     -0.626  1.766  4.860  0.000    26.767     6.937
 562   8 O     -0.636  1.764  4.872  0.000    27.028     6.970
 563   1 H      0.196  0.804  0.000  0.000     1.129     1.664
 564   1 H      0.044  0.956  0.000  0.000     2.401     2.423
 565   1 H      0.036  0.964  0.000  0.000     2.506     2.475
 566   1 H      0.020  0.980  0.000  0.000     2.727     2.582
 567   7 N     -0.103  1.245  3.858  0.000    23.254     7.162
 568   6 C      0.032  1.061  2.908  0.000    20.025     6.369
 569   6 C      0.281  1.040  2.679  0.000    22.233     7.721
 570   8 O     -0.477  1.751  4.726  0.000    23.271     6.468
 571   6 C     -0.085  1.058  3.028  0.000    22.093     6.686
 572   6 C     -0.063  1.043  3.020  0.000    21.675     6.623
 573   6 C      0.002  1.048  2.950  0.000    20.565     6.461
 574   1 H      0.056  0.944  0.000  0.000     2.252     2.347
 575   1 H      0.070  0.930  0.000  0.000     2.082     2.257
 576   1 H      0.065  0.935  0.000  0.000     2.138     2.287
 577   1 H      0.051  0.949  0.000  0.000     2.303     2.373
 578   1 H      0.082  0.918  0.000  0.000     1.956     2.187
 579   1 H      0.064  0.936  0.000  0.000     2.158     2.297
 580   1 H      0.052  0.948  0.000  0.000     2.294     2.369
 581   7 N     -0.177  1.244  3.932  0.000    24.822     7.400
 582   6 C      0.024  1.061  2.916  0.000    20.187     6.399
 583   6 C      0.279  1.039  2.681  0.000    22.273     7.728
 584   8 O     -0.474  1.742  4.733  0.000    23.227     6.462
 585   6 C     -0.117  1.066  3.050  0.000    22.723     6.786
 586   6 C      0.283  1.033  2.683  0.000    22.202     7.715
 587   8 O     -0.492  1.753  4.739  0.000    23.609     6.514
 588   7 N     -0.274  1.269  4.005  0.000    27.097     7.731
 589   1 H      0.213  0.787  0.000  0.000     1.042     1.599
 590   1 H      0.093  0.907  0.000  0.000     1.849     2.126
 591   1 H      0.066  0.934  0.000  0.000     2.131     2.283
 592   1 H      0.116  0.884  0.000  0.000     1.650     2.009
 593   1 H      0.249  0.751  0.000  0.000     0.888     1.476
 594   1 H      0.229  0.771  0.000  0.000     0.971     1.543
 595   7 N     -0.174  1.248  3.926  0.000    24.760     7.390
 596   6 C      0.019  1.067  2.915  0.000    20.271     6.412
 597   6 C      0.285  1.039  2.676  0.000    22.167     7.710
 598   8 O     -0.488  1.739  4.750  0.000    23.530     6.504
 599   6 C     -0.052  1.053  2.999  0.000    21.498     6.601
 600   6 C     -0.090  1.069  3.022  0.000    22.227     6.714
 601   6 C      0.357  1.038  2.605  0.000    20.943     7.489
 602   8 O     -0.656  1.790  4.865  0.000    27.534     7.035
 603   8 O     -0.639  1.775  4.864  0.000    27.100     6.979
 604   1 H      0.203  0.797  0.000  0.000     1.089     1.635
 605   1 H      0.086  0.914  0.000  0.000     1.917     2.165
 606   1 H      0.049  0.951  0.000  0.000     2.338     2.391
 607   1 H      0.023  0.977  0.000  0.000     2.689     2.564
 608   1 H      0.024  0.976  0.000  0.000     2.675     2.558
 609   1 H      0.044  0.956  0.000  0.000     2.396     2.421
 610   7 N     -0.170  1.246  3.924  0.000    24.684     7.379
 611   6 C      0.030  1.060  2.910  0.000    20.077     6.380
 612   6 C      0.280  1.036  2.684  0.000    22.262     7.727
 613   8 O     -0.502  1.745  4.756  0.000    23.823     6.544
 614   6 C     -0.078  1.059  3.019  0.000    21.977     6.673
 615   6 C     -0.006  1.052  2.954  0.000    20.650     6.463
 616   6 C     -0.097  1.041  3.056  0.000    22.400     6.748
 617   6 C     -0.129  1.049  3.080  0.000    23.030     6.842
 618   1 H      0.192  0.808  0.000  0.000     1.149     1.680
 619   1 H      0.065  0.935  0.000  0.000     2.144     2.290
 620   1 H      0.064  0.936  0.000  0.000     2.156     2.296
 621   1 H      0.062  0.938  0.000  0.000     2.178     2.308
 622   1 H      0.028  0.972  0.000  0.000     2.610     2.526
 623   1 H      0.027  0.973  0.000  0.000     2.631     2.536
 624   1 H      0.010  0.990  0.000  0.000     2.888     2.658
 625   1 H      0.048  0.952  0.000  0.000     2.344     2.394
 626   1 H      0.046  0.954  0.000  0.000     2.371     2.408
 627   1 H      0.056  0.944  0.000  0.000     2.249     2.345
 628   1 H      0.054  0.946  0.000  0.000     2.272     2.357
 629   7 N     -0.174  1.243  3.931  0.000    24.774     7.392
 630   6 C      0.026  1.057  2.917  0.000    20.129     6.387
 631   6 C      0.279  1.040  2.680  0.000    22.274     7.729
 632   8 O     -0.478  1.739  4.739  0.000    23.308     6.473
 633   6 C     -0.079  1.059  3.019  0.000    21.997     6.676
 634   6 C     -0.019  1.058  2.962  0.000    20.887     6.501
 635   6 C     -0.111  1.042  3.069  0.000    22.675     6.789
 636   6 C     -0.110  1.042  3.068  0.000    22.653     6.787
 637   1 H      0.216  0.784  0.000  0.000     1.027     1.587
 638   1 H      0.072  0.928  0.000  0.000     2.065     2.247
 639   1 H      0.055  0.945  0.000  0.000     2.255     2.348
 640   1 H      0.061  0.939  0.000  0.000     2.182     2.310
 641   1 H      0.040  0.960  0.000  0.000     2.443     2.444
 642   1 H      0.033  0.967  0.000  0.000     2.540     2.492
 643   1 H      0.042  0.958  0.000  0.000     2.416     2.431
 644   1 H      0.053  0.947  0.000  0.000     2.282     2.362
 645   1 H      0.026  0.974  0.000  0.000     2.644     2.543
 646   1 H      0.049  0.951  0.000  0.000     2.328     2.386
 647   1 H      0.033  0.967  0.000  0.000     2.547     2.496
 648   7 N     -0.173  1.242  3.930  0.000    24.740     7.387
 649   6 C      0.040  1.052  2.908  0.000    19.912     6.354
 650   6 C      0.208  1.078  2.714  0.000    23.597     7.955
 651   8 O     -0.324  1.749  4.575  0.000    20.222     6.029
 652   6 C     -0.105  1.062  3.043  0.000    22.494     6.751
 653   6 C      0.287  1.033  2.680  0.000    22.132     7.703
 654   8 O     -0.499  1.759  4.740  0.000    23.761     6.536
 655   7 N     -0.278  1.270  4.009  0.000    27.197     7.745
 656   1 H      0.210  0.790  0.000  0.000     1.055     1.609
 657   1 H      0.095  0.905  0.000  0.000     1.836     2.119
 658   1 H      0.083  0.917  0.000  0.000     1.945     2.181
 659   1 H      0.088  0.912  0.000  0.000     1.900     2.155
 660   1 H      0.256  0.744  0.000  0.000     0.862     1.454
 661   1 H      0.237  0.763  0.000  0.000     0.938     1.517
 662   7 N     -0.398  1.323  4.075  0.000    30.318     8.178
 663   6 C      0.042  1.055  2.903  0.000    19.884     6.352
 664   6 C      0.201  1.098  2.700  0.000    23.717     7.975
 665   8 O     -0.386  1.757  4.629  0.000    21.402     6.202
 666   6 C     -0.113  1.045  3.068  0.000    22.722     6.797
 667   1 H      0.159  0.841  0.000  0.000     1.339     1.812
 668   1 H      0.068  0.932  0.000  0.000     2.103     2.268
 669   1 H      0.055  0.945  0.000  0.000     2.261     2.351
 670   1 H      0.057  0.943  0.000  0.000     2.236     2.338
 671   1 H      0.046  0.954  0.000  0.000     2.373     2.409
 672   1 H      0.188  0.812  0.000  0.000     1.170     1.694
 673   1 H      0.096  0.904  0.000  0.000     1.823     2.111
 674   1 H      0.186  0.814  0.000  0.000     1.177     1.700
 675   1 H      0.061  0.939  0.000  0.000     2.184     2.311
 676   1 H      0.172  0.828  0.000  0.000     1.258     1.757
 677   1 H      0.056  0.944  0.000  0.000     2.240     2.340
 678   1 H      0.193  0.807  0.000  0.000     1.140     1.673
 679   1 H      0.198  0.802  0.000  0.000     1.114     1.653
 680   1 H      0.063  0.937  0.000  0.000     2.163     2.300
 681   1 H      0.182  0.818  0.000  0.000     1.204     1.719
 682   1 H      0.079  0.921  0.000  0.000     1.990     2.206

 Mol. C6AA /au·bohr⁶  :    4441079.934022
 Mol. C8AA /au·bohr⁸  :  100006026.774480
 Mol. α(0) /au        :       3147.901499

 
molecular dipole:
                 x           y           z       tot (Debye)
 q only:      237.260    -592.130    -167.166
   full:      238.356    -588.552    -168.556    1669.903
molecular quadrupole (traceless):
                xx          xy          yy          xz          yz          zz
 q only:    32118.170   54258.232  -75371.132   13286.226  -38913.513   43252.962
  q+dip:    31669.641   54097.977  -74326.848   13534.875  -38886.321   42657.207
   full:    31668.306   54094.888  -74320.839   13530.708  -38886.838   42652.534
speedup  1.02
cpu  time for grad    1 m 56.0 s
wall time for grad    1 m 53.4 s

SCC energy    :   -1088.3113382
rep           :      12.4359478
ES            :       4.5750620
AES           :      -0.1784490
AXC           :       0.3183582
disp          :      -0.9871837
XB            :       0.0000000
fix           :       0.0000000
Gborn         :       0.0000000
Gsasa         :       0.0000000
Ghb           :       0.0000000
Gshift        :       0.0000000
Gsolv         :      -1.5660793     -982.73
Etot ala COSMO:   -1088.3113382
grad norm     :       0.6306470
total E       :   -1075.7732542
atomizationE  :     193.5480109   121453.21
(atE without considering molecular charge,
 total energy contains solvation terms)
H-L gap (eV)  :          0.8137

------------------------------------------------------------------------
 * finished run on 2019/05/04 at 18:58:03.085     
------------------------------------------------------------------------
 total:
 * wall-time:     0 d,  0 h,  2 min,  1.425 sec
 *  cpu-time:     0 d,  0 h,  2 min,  1.590 sec
 * ratio c/w:     1.001 speedup
 SCF:
 * wall-time:     0 d,  0 h,  1 min, 58.036 sec
 *  cpu-time:     0 d,  0 h,  1 min, 59.787 sec
 * ratio c/w:     1.015 speedup

