      -----------------------------------------------------------      
     |                   =====================                   |     
     |                           x T B                           |     
     |                   =====================                   |     
     |                         S. Grimme                         |     
     |          Mulliken Center for Theoretical Chemistry        |     
     |                    University of Bonn                     |     
     |                 Version 6.0.1 (SAW181210)                 |     
      -----------------------------------------------------------      

   This program is distributed in the hope that it will be useful,
   but WITHOUT ANY WARRANTY; without even the implied warranty of
   MERCHANTABILITY or FITNESS FOR A PARTICULAR PURPOSE.
   
   FOR NON-COMMERCIAL, ACADEMIA USE ONLY.
   
   Cite this work as:
   S. Grimme, C. Bannwarth, P. Shushkov, J. Comput. Theory Chem., 2017,
   13, 1989-2009.
   C. Bannwarth, S. Ehlert and S. Grimme., ChemRxiv, 2018, preprint.
   http://doi.org/10.26434/chemrxiv.7246238.v1
   
   for sTDA-xTB:
   S. Grimme and C. Bannwarth, J. Chem. Phys., 2016, 145, 054103.
   
   in the mass-spec context:
   V. Asgeirsson, C. Bauer and S. Grimme, Chem. Sci., 2017, 8, 4879.
   
   if GBSA is used:
   P. Shushkov, F. März and S. Grimme, unpublished.
   
   for ANC optimizer:
   S. Grimme, unpublished.
   Rational Function algorithm used in ANCopt:
   F. Eckert, P. Pulay, H.-J. Werner, J. Comput. Chem., 1997, 18, 1473.
   
   with help from (in alphabetical order)
   C. Bannwarth, F. Bohle, G. Brandenburg, E. Caldeweyher, M. Checinski,
   S. Dohm, S. Ehlert, S. Ehrlich, F. März, H. Neugebauer, J. Pisarek,
   P. Pracht, P. Shushkov, and S. Spicher.
   
 * started run on 2019/05/06 at 00:09:36.929     
========================================================================
 # omp threads = 2
========================================================================
number of atoms            : 1456
number of electrons        : 3890
charge                     : 4
spin                       : .0
first test random number   : .0240

########################################################################
# WARNING! Please study the warnings concerning your input carefully
#  - Process number higher than OMP_NUM_THREADS, I hope you know what you are doing.
########################################################################

           ------------------------------------------------- 
          |                 G F N 2 - x T B                 |
          | Geometry, Frequencies, Noncovalent interactions |
          |            JCTC 2018 parametrisation            |
           ------------------------------------------------- 
 
      method parameters     
 k(s)        :  1.8500
 k(p)        :  2.2300
 k(d)        :  2.2300
 k(f)        :  2.0000
 kEN (H0ij)  : -2.0000
 D4 a1       :  0.5200
 D4 a2       :  5.0000
 D4 s6       :  1.0000
 D4 s8       :  2.7000
 D4 s9       :  5.0000
 alphaj      :  2.0000

 Solvent             : h2o
 Using internal parameter file: .param_gbsa2_h2o
 Gsolv ref. state (COSMO-RS): gsolv [1 M gas/solution]
 temperature (mdtemp)       :    298.150000000000     
 dielectric constant        :    80.2000000000000     
 rho                        :    1.00000000000000     
 mass                       :    18.0000000000000     
 surface tension            :    15.5689454083859     
 probe radius               :   0.975313790000000     
 vdW radii scaling          :    1.00000000000000     
 Gshift (Eh)                :   1.857443126794793E-003
 c1                         :    1.55243817000000     
 soset                      :   0.130326360000000     
 HB correction              :  T

            Z     q(EN)     CN     RAES       Cart. coordinates
     1  N   5.0   -0.20    3.23    1.96    39.24016    74.92385   143.73822
     2  C   4.0    0.03    4.27    4.15    37.21626    75.62305   142.04314
     3  C   4.0    0.08    3.30    3.05    36.19581    78.18552   142.76124
     4  O   6.0   -0.28    1.22    1.80    34.43270    79.16251   141.55559
     5  C   4.0   -0.03    4.41    4.40    35.10733    73.73522   142.32660
     6  C   4.0    0.00    3.64    3.19    32.69982    74.54780   141.10206
     7  C   4.0   -0.02    3.53    3.13    30.88190    76.01612   142.40786
     8  C   4.0   -0.03    3.46    3.10    32.22550    73.84104   138.64919
     9  C   4.0   -0.04    3.36    3.07    28.65391    76.75500   141.22867
    10  C   4.0   -0.03    3.38    3.07    29.98428    74.54402   137.49457
    11  C   4.0   -0.04    3.37    3.07    28.21361    76.01990   138.75880
    12  H   1.0    0.09    1.04    1.43    38.51261    73.97710   145.25190
    13  H   1.0    0.05    1.05    1.44    37.85310    75.62683   140.08538
    14  H   1.0    0.04    1.04    1.43    35.68558    71.95698   141.46299
    15  H   1.0    0.04    1.04    1.43    34.73127    73.45365   144.33160
    16  H   1.0    0.05    1.03    1.43    31.23150    76.56792   144.34105
    17  H   1.0    0.05    1.03    1.43    33.60122    72.73744   137.62118
    18  H   1.0    0.05    1.04    1.43    27.28386    77.88883   142.22833
    19  H   1.0    0.06    1.03    1.43    29.60445    73.93742   135.58406
    20  H   1.0    0.05    1.03    1.43    26.49774    76.59059   137.81393
    21  N   5.0   -0.21    3.23    1.96    29.42870    94.36724   134.48802
    22  C   4.0    0.03    4.26    4.12    27.72228    94.90204   132.41121
    23  C   4.0    0.15    3.42    3.08    27.56543    92.81389   130.45156
    24  O   6.0   -0.27    1.23    1.80    25.85334    92.88192   128.87364
    25  C   4.0   -0.05    4.12    3.84    28.45171    97.37758   131.14320
    26  H   1.0    0.09    1.03    1.43    31.20693    95.05322   134.19889
    27  H   1.0    0.05    1.06    1.44    25.82688    95.12314   133.18788
    28  H   1.0    0.07    1.00    1.43    27.14969    97.74419   129.58985
    29  H   1.0    0.06    1.00    1.43    28.34022    98.89881   132.52837
    30  H   1.0    0.06    1.00    1.43    30.37545    97.22073   130.42511
    31  N   5.0   -0.14    3.52    2.09    29.32477    91.00731   130.53471
    32  C   4.0    0.03    4.39    4.36    29.10745    88.76799   128.94923
    33  C   4.0    0.15    3.32    3.06    26.88702    87.18062   130.12653
    34  O   6.0   -0.28    1.19    1.80    25.24107    86.26032   128.74136
    35  C   4.0   -0.03    4.23    4.05    31.73795    87.39605   128.48436
    36  C   4.0   -0.04    4.18    3.96    34.01885    89.23853   128.59207
    37  C   4.0   -0.06    4.12    3.84    31.76629    85.93718   125.98614
    38  C   4.0   -0.06    4.03    3.68    35.42669    89.73553   126.13354
    39  H   1.0    0.07    1.07    1.44    30.88946    91.04322   131.65910
    40  H   1.0    0.07    1.07    1.44    28.61423    89.21018   126.99903
    41  H   1.0    0.05    1.05    1.44    31.93826    86.06001   130.03960
    42  H   1.0    0.05    1.06    1.44    33.33099    91.06022   129.26481
    43  H   1.0    0.05    1.03    1.43    35.39268    88.46941   129.92055
    44  H   1.0    0.05    1.00    1.43    33.60311    85.03578   125.75748
    45  H   1.0    0.06    1.00    1.43    30.28286    84.50854   126.02771
    46  H   1.0    0.05    1.00    1.43    31.43181    87.25243   124.43656
    47  H   1.0    0.06    1.00    1.43    36.96682    91.05267   126.49826
    48  H   1.0    0.05    1.00    1.43    36.17880    87.95540   125.41922
    49  H   1.0    0.06    1.00    1.43    34.11900    90.54622   124.76349
    50  N   5.0   -0.14    3.43    2.03    26.71695    87.12015   132.66254
    51  C   4.0    0.03    4.38    4.34    25.01997    85.40238   134.11952
    52  C   4.0    0.15    3.49    3.11    22.58034    86.58157   135.03604
    53  O   6.0   -0.32    1.31    1.80    20.72462    85.26255   135.54437
    54  C   4.0   -0.05    4.29    4.18    26.39758    84.38382   136.46089
    55  C   4.0   -0.04    4.21    4.02    26.70372    86.27355   138.61140
    56  C   4.0   -0.01    4.23    4.07    29.46650    86.53622   139.35595
    57  N   5.0   -0.13    3.41    2.03    29.82743    87.02944   142.05070
    58  C   4.0    0.11    3.34    3.06    32.05542    86.93495   143.22422
    59  N   5.0   -0.17    3.26    1.97    34.13223    86.36992   141.92787
    60  N   5.0   -0.16    3.22    1.96    32.21227    87.39038   145.69787
    61  H   1.0    0.07    1.06    1.44    27.75441    88.26532   133.81338
    62  H   1.0    0.06    1.06    1.44    24.52864    83.85281   132.85529
    63  H   1.0    0.05    1.03    1.43    25.33556    82.77945   137.19599
    64  H   1.0    0.04    1.04    1.43    28.28353    83.78100   135.89586
    65  H   1.0    0.05    1.05    1.44    26.01019    88.11792   138.01047
    66  H   1.0    0.06    1.03    1.43    25.64358    85.62348   140.25357
    67  H   1.0    0.05    1.04    1.43    30.45104    84.78633   138.89675
    68  H   1.0    0.04    1.03    1.43    30.29420    88.10658   138.30904
    69  H   1.0    0.12    1.14    1.45    28.27408    87.47541   143.10139
    70  H   1.0    0.09    1.03    1.43    34.02074    86.00899   140.03814
    71  H   1.0    0.10    1.02    1.43    35.83676    86.29623   142.82360
    72  H   1.0    0.11    1.02    1.43    30.62301    87.81368   146.70320
    73  H   1.0    0.10    1.02    1.43    33.92247    87.31479   146.58604
    74  N   5.0   -0.15    3.58    2.14    22.66915    89.06089   135.35162
    75  C   4.0    0.03    4.49    4.52    20.57156    90.48953   136.28326
    76  C   4.0    0.16    3.50    3.11    18.25853    89.88104   134.68266
    77  O   6.0   -0.31    1.26    1.80    16.14393    89.61647   135.66343
    78  C   4.0   -0.05    4.32    4.23    21.19706    93.29766   136.09239
    79  C   4.0   -0.03    4.23    4.05    19.42638    95.01353   137.54748
    80  C   4.0    0.15    3.24    3.04    18.98230    94.14237   140.24601
    81  O   6.0   -0.27    1.19    1.80    19.96873    95.25164   142.05070
    82  N   5.0   -0.19    3.22    1.96    17.44406    92.17705   140.54081
    83  H   1.0    0.08    1.08    1.44    24.21495    90.14371   134.96423
    84  H   1.0    0.05    1.08    1.44    20.18794    90.04544   138.25802
    85  H   1.0    0.05    1.03    1.43    23.09812    93.59813   136.82939
    86  H   1.0    0.05    1.03    1.43    21.11391    93.85513   134.11196
    87  H   1.0    0.06    1.03    1.43    20.23708    96.90704   137.61740
    88  H   1.0    0.06    1.03    1.43    17.60469    95.06266   136.58939
    89  H   1.0    0.10    1.06    1.44    16.63904    91.34368   139.00068
    90  H   1.0    0.09    1.02    1.43    17.06989    91.50242   142.30770
    91  N   5.0   -0.13    3.49    2.07    18.72151    89.62970   132.21657
    92  C   4.0    0.04    4.37    4.33    16.82801    88.75098   130.41188
    93  C   4.0    0.16    3.41    3.08    15.61481    86.29623   131.38320
    94  O   6.0   -0.31    1.48    1.80    13.34902    86.24709   131.94445
    95  C   4.0   -0.04    4.25    4.10    18.00909    88.38626   127.76059
    96  C   4.0   -0.02    4.15    3.90    16.14204    88.26343   125.54394
    97  C   4.0    0.26    3.10    3.02    15.51843    90.84480   124.38932
    98  O   6.0   -0.25    1.17    1.80    15.20662    92.72318   125.80473
    99  O   6.0   -0.24    1.17    1.80    15.31623    90.99975   122.03661
   100  H   1.0    0.09    1.07    1.44    20.42038    90.02654   131.39642
   101  H   1.0    0.07    1.06    1.44    15.36158    90.18339   130.20590
   102  H   1.0    0.07    1.03    1.43    19.28087    89.96607   127.39965
   103  H   1.0    0.06    1.03    1.43    19.06545    86.61937   127.76437
   104  H   1.0    0.07    1.03    1.43    16.95651    87.09180   124.05673
   105  H   1.0    0.06    1.03    1.43    14.37892    87.43195   126.20913
   106  N   5.0   -0.13    3.46    2.05    17.17194    84.32524   131.67043
   107  C   4.0    0.03    4.42    4.41    16.35936    81.74954   132.37341
   108  C   4.0    0.16    3.46    3.10    14.73041    81.67018   134.72423
   109  O   6.0   -0.31    1.28    1.80    12.81045    80.34926   134.80738
   110  C   4.0   -0.04    4.32    4.24    18.67427    80.09981   132.80049
   111  C   4.0   -0.03    4.21    4.02    18.16405    77.32948   132.39987
   112  C   4.0    0.24    3.13    3.03    20.35424    76.01990   131.08462
   113  O   6.0   -0.27    1.17    1.80    20.15771    75.60227   128.76026
   114  O   6.0   -0.29    1.17    1.80    22.27420    75.41518   132.34129
   115  H   1.0    0.09    1.07    1.44    19.08056    84.44051   131.42288
   116  H   1.0    0.05    1.06    1.44    15.23119    81.02956   130.80872
   117  H   1.0    0.06    1.04    1.43    20.15204    80.67051   131.48335
   118  H   1.0    0.05    1.04    1.43    19.32434    80.35115   134.73935
   119  H   1.0    0.05    1.03    1.43    17.87303    76.42241   134.22534
   120  H   1.0    0.05    1.04    1.43    16.48408    77.11027   131.22824
   121  N   5.0   -0.13    3.53    2.10    15.59024    83.07235   136.63097
   122  C   4.0    0.03    4.52    4.57    14.20696    83.51266   138.96289
   123  C   4.0    0.16    3.54    3.13    11.50843    84.21564   138.34306
   124  O   6.0   -0.31    1.24    1.80     9.71886    82.95519   139.11596
   125  C   4.0   -0.02    4.36    4.32    15.28221    85.79923   140.38963
   126  C   4.0   -0.07    4.16    3.93    13.88571    86.12615   142.86895
   127  C   4.0   -0.07    4.14    3.88    18.12058    85.56868   140.78647
   128  H   1.0    0.10    1.10    1.44    17.30233    83.95863   136.61207
   129  H   1.0    0.05    1.05    1.44    14.34491    81.78923   140.08161
   130  H   1.0    0.06    1.08    1.44    15.00064    87.49431   139.25391
   131  H   1.0    0.04    1.02    1.43    14.66238    87.75320   143.86673
   132  H   1.0    0.05    1.01    1.43    11.88638    86.43040   142.47778
   133  H   1.0    0.04    1.00    1.43    14.12759    84.42540   144.00468
   134  H   1.0    0.04    1.01    1.43    18.79332    87.22975   141.80315
   135  H   1.0    0.04    1.00    1.43    18.50798    83.86982   141.88440
   136  H   1.0    0.07    1.03    1.43    19.04655    85.44585   138.95155
   137  N   5.0   -0.14    3.55    2.12    11.27222    86.29811   136.95411
   138  C   4.0    0.04    4.35    4.29     8.85148    87.26565   136.09995
   139  C   4.0    0.17    3.42    3.08     7.60993    85.32869   134.36518
   140  O   6.0   -0.29    1.23    1.80     5.42162    84.62760   134.76581
   141  C   4.0   -0.06    4.12    3.83     9.21241    89.77899   134.74502
   142  H   1.0    0.11    1.08    1.44    12.75943    87.37904   136.37774
   143  H   1.0    0.06    1.06    1.44     7.62126    87.61336   137.71378
   144  H   1.0    0.06    1.00    1.43     7.37749    90.47252   134.11952
   145  H   1.0    0.06    1.00    1.43    10.06657    91.12636   136.04704
   146  H   1.0    0.07    1.00    1.43    10.44641    89.49364   133.11985
   147  N   5.0   -0.13    3.41    2.03     9.07824    84.42351   132.52081
   148  C   4.0    0.02    4.23    4.07     8.21086    82.66228   130.58195
   149  C   4.0    0.16    3.31    3.06     6.80679    80.33792   131.51737
   150  O   6.0   -0.30    1.23    1.80     4.76400    79.77100   130.56306
   151  H   1.0    0.14    1.25    1.48    10.93773    84.88838   132.31105
   152  H   1.0    0.06    1.03    1.43     6.94663    83.67140   129.30639
   153  H   1.0    0.05    1.03    1.43     9.84925    82.00466   129.52182
   154  N   5.0   -0.14    3.44    2.04     7.88583    78.98299   133.35985
   155  C   4.0    0.03    4.45    4.46     6.74254    76.60193   134.26881
   156  C   4.0    0.15    3.48    3.11     4.75455    77.11216   136.31727
   157  O   6.0   -0.30    1.24    1.80     2.92719    75.67219   136.64041
   158  C   4.0   -0.02    4.29    4.18     8.74565    74.60260   135.09840
   159  C   4.0   -0.05    4.18    3.97     8.18629    71.99289   133.94378
   160  C   4.0   -0.07    4.14    3.88     8.93084    74.39284   137.95944
   161  C   4.0   -0.08    4.00    3.62     9.14816    71.62250   131.26414
   162  H   1.0    0.12    1.09    1.44     9.52422    79.46298   134.25558
   163  H   1.0    0.05    1.07    1.44     5.78256    75.72132   132.67388
   164  H   1.0    0.05    1.06    1.44    10.55979    75.26589   134.38030
   165  H   1.0    0.04    1.03    1.43     9.07257    70.55481   135.12296
   166  H   1.0    0.04    1.03    1.43     6.14539    71.71699   133.91165
   167  H   1.0    0.04    1.00    1.43    10.35003    72.97744   138.43754
   168  H   1.0    0.05    1.00    1.43     9.47509    76.22210   138.73234
   169  H   1.0    0.05    1.01    1.43     7.09781    73.82970   138.71155
   170  H   1.0    0.04    1.00    1.43     8.65683    69.72522   130.63109
   171  H   1.0    0.05    1.00    1.43     8.26755    73.02279   130.03582
   172  H   1.0    0.04    1.00    1.43    11.19474    71.86061   131.24714
   173  N   5.0   -0.14    3.55    2.11     5.09092    79.20219   137.66276
   174  C   4.0    0.04    4.49    4.52     3.15206    80.02800   139.40508
   175  C   4.0    0.17    3.49    3.11     0.78235    80.61382   137.95755
   176  O   6.0   -0.32    1.41    1.80    -1.25289    80.52689   138.99690
   177  C   4.0   -0.04    4.28    4.16     3.95898    82.32780   140.93576
   178  C   4.0   -0.05    4.18    3.95     4.48243    81.71742   143.70232
   179  C   4.0   -0.00    4.18    3.96     2.20153    80.65728   145.15363
   180  N   5.0   -0.13    3.37    2.01     2.39239    81.27144   147.86539
   181  C   4.0    0.11    3.32    3.06     0.93919    80.36815   149.72677
   182  N   5.0   -0.15    3.30    1.98    -0.88817    78.72220   149.26567
   183  N   5.0   -0.18    3.23    1.96     1.33793    81.11838   152.10026
   184  H   1.0    0.10    1.07    1.44     6.64995    80.33225   137.58528
   185  H   1.0    0.06    1.07    1.44     2.81380    78.54268   140.79214
   186  H   1.0    0.07    1.05    1.44     5.68430    83.10070   140.11940
   187  H   1.0    0.06    1.04    1.43     2.45664    83.73376   140.86962
   188  H   1.0    0.05    1.03    1.43     5.98476    80.30957   143.79303
   189  H   1.0    0.05    1.03    1.43     5.07580    83.44463   144.65663
   190  H   1.0    0.06    1.02    1.43     0.46676    81.48687   144.41286
   191  H   1.0    0.06    1.02    1.43     2.14484    78.60882   144.94765
   192  H   1.0    0.08    1.06    1.44     3.77567    82.51299   148.37372
   193  H   1.0    0.11    1.08    1.44    -1.20942    78.11938   147.46287
   194  H   1.0    0.09    1.03    1.43    -1.97476    78.05702   150.71320
   195  H   1.0    0.08    1.03    1.43     2.74577    82.37504   152.48955
   196  H   1.0    0.08    1.02    1.43     0.23433    80.43430   153.52512
   197  N   5.0   -0.13    3.52    2.09     1.05825    81.16184   135.53492
   198  C   4.0    0.04    4.34    4.28    -1.10549    81.75332   133.95511
   199  C   4.0    0.16    3.37    3.07    -2.60971    79.41384   133.08206
   200  O   6.0   -0.28    1.23    1.80    -4.92463    79.44597   133.15954
   201  C   4.0   -0.05    4.10    3.79    -0.29291    83.36715   131.70823
   202  H   1.0    0.11    1.09    1.44     2.74766    81.21286   134.60896
   203  H   1.0    0.07    1.07    1.44    -2.40940    82.86070   135.10218
   204  H   1.0    0.06    1.00    1.43    -1.94453    83.78667   130.55172
   205  H   1.0    0.06    1.00    1.43     0.53857    85.11704   132.40554
   206  H   1.0    0.07    1.00    1.43     1.09415    82.32402   130.59896
   207  N   5.0   -0.14    3.41    2.03    -1.32659    77.41829   132.23168
   208  C   4.0    0.04    4.40    4.38    -2.64373    75.19597   131.23580
   209  C   4.0    0.15    3.41    3.08    -3.68497    73.33271   133.18977
   210  O   6.0   -0.29    1.22    1.80    -5.74099    72.30091   132.82506
   211  C   4.0   -0.05    4.33    4.25    -0.93541    73.58026   129.52560
   212  C   4.0   -0.04    4.19    3.99    -2.37728    72.10816   127.51304
   213  C   4.0   -0.05    4.19    3.97    -0.86172    69.87451   126.54361
   214  C   4.0   -0.04    4.16    3.93     1.73855    70.71732   125.65355
   215  N   5.0   -0.12    4.00    2.86     3.47710    68.52713   125.34930
   216  H   1.0    0.09    1.05    1.44     0.59526    77.28034   132.20523
   217  H   1.0    0.07    1.07    1.44    -4.20464    76.05769   130.20401
   218  H   1.0    0.05    1.03    1.43     0.40062    74.81803   128.56373
   219  H   1.0    0.04    1.04    1.43     0.07937    72.22155   130.69534
   220  H   1.0    0.06    1.03    1.43    -4.13472    71.39574   128.31806
   221  H   1.0    0.05    1.03    1.43    -2.78546    73.35160   125.92189
   222  H   1.0    0.05    1.03    1.43    -0.61983    68.49690   128.05728
   223  H   1.0    0.05    1.03    1.43    -1.84815    69.01090   124.95624
   224  H   1.0    0.05    1.02    1.43     1.56280    71.66408   123.83374
   225  H   1.0    0.04    1.04    1.43     2.55113    72.00423   127.04250
   226  H   1.0    0.06    1.01    1.43     5.24021    69.14696   124.74081
   227  H   1.0    0.05    1.02    1.43     3.68875    67.59361   127.06517
   228  H   1.0    0.06    1.02    1.43     2.74955    67.27046   124.02460
   229  N   5.0   -0.12    3.62    2.18    -2.33570    72.96043   135.28926
   230  C   4.0    0.03    4.38    4.34    -3.28812    71.32960   137.34339
   231  C   4.0    0.16    3.64    3.19    -2.62861    73.42152   139.29737
   232  O   6.0   -0.30    1.29    1.80    -0.65762    73.27412   140.45577
   233  C   4.0   -0.03    4.34    4.28    -1.41352    69.15263   137.84984
   234  C   4.0   -0.01    3.50    3.12    -0.91652    67.42542   135.59918
   235  C   4.0   -0.04    3.45    3.10    -2.42830    65.31649   135.13808
   236  C   4.0   -0.04    3.44    3.09     1.15273    67.82604   134.01747
   237  C   4.0   -0.04    3.36    3.07    -1.95020    63.69699   133.10663
   238  C   4.0   -0.05    3.36    3.07     1.65162    66.20088   131.98602
   239  C   4.0   -0.04    3.35    3.06     0.08882    64.14486   131.51548
   240  H   1.0    0.10    1.09    1.44    -0.60660    73.74278   135.62563
   241  H   1.0    0.05    1.03    1.43    -5.17407    70.51701   137.19032
   242  H   1.0    0.06    1.05    1.44     0.39306    69.96521   138.41487
   243  H   1.0    0.04    1.03    1.43    -2.16563    67.98478   139.36918
   244  H   1.0    0.05    1.08    1.44    -4.00244    64.92531   136.37774
   245  H   1.0    0.05    1.03    1.43     2.39050    69.41152   134.36329
   246  H   1.0    0.05    1.03    1.43    -3.16907    62.09450   132.77403
   247  H   1.0    0.04    1.03    1.43     3.25978    66.54859   130.78037
   248  H   1.0    0.05    1.03    1.43     0.45542    62.91087   129.93189
   249  N   5.0   -0.10    3.69    2.26    -4.41818    75.10905   139.92854
   250  C   4.0    0.05    4.76    4.81    -4.02890    77.30302   141.52536
   251  C   4.0    0.14    3.42    3.08    -4.35393    77.19531   144.32215
   252  O   6.0   -0.30    1.33    1.80    -3.98354    79.11716   145.54102
   253  C   4.0   -0.01    4.51    4.55    -5.64839    79.20030   140.18743
   254  C   4.0   -0.04    4.38    4.35    -8.00866    77.68852   139.96444
   255  C   4.0   -0.01    4.40    4.38    -7.09025    75.12417   139.13863
   256  H   1.0    0.08    1.11    1.45    -2.04657    77.85293   141.41386
   257  H   1.0    0.06    1.03    1.43    -5.91106    80.89728   141.32316
   258  H   1.0    0.08    1.05    1.44    -4.86038    79.69730   138.35062
   259  H   1.0    0.05    1.03    1.43    -8.96675    77.58837   141.78614
   260  H   1.0    0.05    1.03    1.43    -9.25966    78.52189   138.55660
   261  H   1.0    0.05    1.02    1.43    -8.14283    73.62939   140.08727
   262  H   1.0    0.06    1.02    1.43    -7.25088    74.91252   137.09584
   263  N   5.0   -0.14    3.61    2.17    -5.23454    75.09204   145.30670
   264  C   4.0    0.04    4.43    4.42    -6.31546    74.79913   147.83893
   265  C   4.0    0.15    3.42    3.09    -4.64684    72.78846   149.06347
   266  O   6.0   -0.29    1.20    1.80    -5.44997    71.26723   150.66218
   267  C   4.0   -0.03    4.33    4.25    -9.07824    73.98844   147.67074
   268  C   4.0    0.16    3.27    3.05    -9.40139    71.32204   146.64840
   269  O   6.0   -0.30    1.24    1.80    -7.92362    70.34883   145.12339
   270  N   5.0   -0.18    3.20    1.96   -11.36103    70.12017   147.51957
   271  H   1.0    0.10    1.08    1.44    -5.23643    73.42152   144.34483
   272  H   1.0    0.05    1.05    1.44    -6.35704    76.53201   148.95198
   273  H   1.0    0.05    1.03    1.43    -9.91161    74.05269   149.55291
   274  H   1.0    0.05    1.03    1.43   -10.07980    75.27723   146.41408
   275  H   1.0    0.09    1.03    1.43   -11.72575    68.31926   146.93564
   276  H   1.0    0.08    1.03    1.43   -12.53266    70.97811   148.78568
   277  N   5.0   -0.13    3.53    2.10    -2.27523    72.87917   148.18097
   278  C   4.0    0.04    4.34    4.27    -0.17574    71.13117   148.73277
   279  C   4.0    0.14    3.38    3.07     2.31491    72.58815   149.21087
   280  O   6.0   -0.30    1.23    1.80     2.77223    74.61016   148.11105
   281  C   4.0   -0.04    4.28    4.16     0.29858    69.40208   146.46888
   282  C   4.0   -0.04    4.20    4.00    -1.99744    68.02069   145.41252
   283  C   4.0   -0.04    4.15    3.91    -2.34137    65.38452   146.49722
   284  C   4.0   -0.04    4.13    3.87    -0.55747    63.51180   145.19520
   285  N   5.0   -0.12    3.98    2.82    -1.58926    60.93988   144.69443
   286  H   1.0    0.10    1.10    1.44    -1.69130    74.26245   146.97155
   287  H   1.0    0.06    1.05    1.44    -0.65573    70.06726   150.42974
   288  H   1.0    0.06    1.03    1.43     1.07336    70.54536   144.94009
   289  H   1.0    0.05    1.04    1.43     1.66107    67.96588   147.03391
   290  H   1.0    0.07    1.04    1.43    -3.69063    69.10917   145.85094
   291  H   1.0    0.04    1.03    1.43    -1.78579    67.83927   143.37162
   292  H   1.0    0.05    1.03    1.43    -1.91429    65.40530   148.51167
   293  H   1.0    0.05    1.03    1.43    -4.28212    64.76091   146.19487
   294  H   1.0    0.03    1.03    1.43    -0.00945    64.30737   143.37540
   295  H   1.0    0.04    1.02    1.43     1.10360    63.27369   146.38951
   296  H   1.0    0.05    1.02    1.43    -0.22866    59.83061   143.81192
   297  H   1.0    0.06    1.01    1.43    -2.11082    60.08384   146.38573
   298  H   1.0    0.06    1.01    1.43    -3.16718    61.06460   143.52847
   299  N   5.0   -0.14    3.46    2.05     3.96087    71.49589   150.77556
   300  C   4.0    0.03    4.54    4.59     6.37594    72.65618   151.46720
   301  C   4.0    0.14    3.57    3.15     8.70975    71.46188   150.29557
   302  O   6.0   -0.32    1.36    1.80     9.09525    69.19043   150.46943
   303  C   4.0   -0.02    4.40    4.39     6.85593    72.42186   154.31124
   304  C   4.0   -0.05    4.23    4.07     4.60337    73.46310   155.77767
   305  C   4.0   -0.08    4.16    3.93     9.25399    73.82214   155.04446
   306  C   4.0   -0.07    4.02    3.66     4.64873    72.92263   158.58013
   307  H   1.0    0.11    1.10    1.44     3.66796    69.78191   151.60515
   308  H   1.0    0.05    1.09    1.44     6.19452    74.56859   150.72076
   309  H   1.0    0.05    1.06    1.44     7.09403    70.42820   154.77422
   310  H   1.0    0.04    1.03    1.43     4.55802    75.50967   155.54145
   311  H   1.0    0.05    1.04    1.43     2.88183    72.62784   155.01422
   312  H   1.0    0.04    1.00    1.43     9.55067    73.62561   157.07402
   313  H   1.0    0.05    1.01    1.43    10.84514    73.00956   154.01833
   314  H   1.0    0.04    1.00    1.43     9.04423    75.81203   154.55502
   315  H   1.0    0.04    1.00    1.43     2.96876    73.74089   159.44752
   316  H   1.0    0.05    1.00    1.43     4.66762    70.88362   158.86926
   317  H   1.0    0.05    1.00    1.43     6.34192    73.76356   159.39838
   318  N   5.0   -0.10    3.74    2.33    10.28389    72.99066   149.08615
   319  C   4.0    0.04    4.63    4.70    12.41928    71.99856   147.69342
   320  C   4.0    0.15    3.49    3.11    14.57168    71.78880   149.57370
   321  O   6.0   -0.32    1.29    1.80    15.16316    73.62561   150.87572
   322  C   4.0   -0.05    4.39    4.37    12.84258    74.03946   145.71488
   323  C   4.0   -0.03    4.33    4.26    12.27566    76.42241   147.13406
   324  C   4.0   -0.01    4.38    4.35    10.12515    75.75911   148.90285
   325  H   1.0    0.06    1.05    1.44    12.09614    70.22789   146.69187
   326  H   1.0    0.04    1.03    1.43    14.79277    74.00356   145.05158
   327  H   1.0    0.04    1.03    1.43    11.55378    73.78246   144.12940
   328  H   1.0    0.06    1.03    1.43    13.93862    77.01767   148.19231
   329  H   1.0    0.04    1.03    1.43    11.71252    77.90206   145.81692
   330  H   1.0    0.05    1.02    1.43    10.39727    76.63406   150.74722
   331  H   1.0    0.05    1.02    1.43     8.31479    76.33926   148.10727
   332  N   5.0   -0.14    3.54    2.11    15.76220    69.60806   149.72866
   333  C   4.0    0.04    4.64    4.71    18.02610    69.42475   151.21965
   334  C   4.0    0.14    3.53    3.13    20.28243    68.92020   149.59071
   335  O   6.0   -0.30    1.29    1.80    20.10101    67.52936   147.71799
   336  C   4.0   -0.02    4.36    4.31    17.80689    67.28936   153.08670
   337  C   4.0   -0.07    4.19    3.98    20.35046    66.78292   154.32258
   338  C   4.0   -0.08    4.16    3.91    15.83779    67.98667   155.01989
   339  H   1.0    0.12    1.15    1.45    15.20851    67.97911   148.85938
   340  H   1.0    0.06    1.09    1.44    18.29066    71.24078   152.15506
   341  H   1.0    0.04    1.06    1.44    17.23619    65.55081   152.13995
   342  H   1.0    0.03    1.00    1.43    20.14826    65.23334   155.66429
   343  H   1.0    0.05    1.02    1.43    21.71484    66.27647   152.86560
   344  H   1.0    0.06    1.00    1.43    20.97029    68.48556   155.30335
   345  H   1.0    0.04    1.00    1.43    15.66394    66.45221   156.38238
   346  H   1.0    0.04    1.00    1.43    16.41983    69.71388   155.97798
   347  H   1.0    0.05    1.01    1.43    14.03688    68.28525   154.06558
   348  N   5.0   -0.14    3.53    2.10    22.38002    70.08427   150.33337
   349  C   4.0    0.04    4.55    4.60    24.82911    69.49845   149.29024
   350  C   4.0    0.14    3.58    3.15    26.20483    67.96399   151.24233
   351  O   6.0   -0.32    1.34    1.80    26.46750    68.79547   153.40795
   352  C   4.0   -0.02    4.34    4.27    26.40703    71.88140   148.91040
   353  C   4.0   -0.07    4.16    3.92    29.19816    71.20676   148.66285
   354  C   4.0   -0.07    4.10    3.81    25.47917    73.37239   146.63329
   355  H   1.0    0.10    1.08    1.44    22.42349    71.46377   151.67885
   356  H   1.0    0.07    1.07    1.44    24.56644    68.49312   147.51201
   357  H   1.0    0.05    1.06    1.44    26.19727    73.09460   150.56203
   358  H   1.0    0.04    1.00    1.43    30.28475    72.93586   148.39451
   359  H   1.0    0.06    1.02    1.43    29.81232    70.25056   150.38061
   360  H   1.0    0.04    1.00    1.43    29.44571    69.96143   147.03958
   361  H   1.0    0.04    1.00    1.43    26.64325    75.05802   146.41597
   362  H   1.0    0.04    1.00    1.43    25.63035    72.19131   144.95143
   363  H   1.0    0.05    1.00    1.43    23.51386    73.91096   146.93942
   364  N   5.0   -0.15    3.46    2.05    27.13835    65.75868   150.51100
   365  C   4.0    0.04    4.48    4.50    28.46872    64.20533   152.35160
   366  C   4.0    0.08    3.32    3.06    31.16347    63.76691   151.50122
   367  O   6.0   -0.30    1.19    1.80    31.60189    62.07183   149.97810
   368  C   4.0   -0.01    4.35    4.29    27.21772    61.62207   152.61238
   369  C   4.0   -0.07    4.20    4.00    28.98840    59.88731   154.01833
   370  C   4.0   -0.08    4.11    3.82    24.64959    61.82805   153.88227
   371  H   1.0    0.10    1.07    1.44    27.00796    65.02925   148.73088
   372  H   1.0    0.06    1.08    1.44    28.50085    65.26547   154.11660
   373  H   1.0    0.05    1.06    1.44    26.85490    60.81705   150.75100
   374  H   1.0    0.03    1.00    1.43    28.10400    58.03726   154.20920
   375  H   1.0    0.07    1.04    1.43    30.74584    59.71912   152.95631
   376  H   1.0    0.04    1.00    1.43    29.36634    60.68099   155.88160
   377  H   1.0    0.03    1.00    1.43    23.82189    59.94778   154.03156
   378  H   1.0    0.04    1.00    1.43    24.89336    62.63875   155.76066
   379  H   1.0    0.05    1.00    1.43    23.43449    63.04126   152.74466
   380  N   5.0   -0.17    3.23    1.96    36.38100    52.03927   145.95865
   381  C   4.0    0.03    4.25    4.10    33.91113    51.29283   145.03836
   382  C   4.0    0.09    3.22    3.04    33.80153    51.48558   142.20755
   383  O   6.0   -0.25    1.13    1.80    35.03741    53.07673   141.02269
   384  C   4.0   -0.04    4.44    4.45    31.87590    52.67233   146.46321
   385  C   4.0   -0.03    4.22    4.04    31.28252    51.82951   149.10883
   386  C   4.0   -0.07    4.14    3.88    31.05009    54.21246   150.68864
   387  C   4.0   -0.08    4.13    3.86    28.85612    50.29695   149.04269
   388  H   1.0    0.10    1.03    1.43    36.41502    53.88176   146.52557
   389  H   1.0    0.04    1.07    1.44    33.50862    49.30673   145.40496
   390  H   1.0    0.06    1.06    1.44    32.43337    54.65087   146.58604
   391  H   1.0    0.05    1.05    1.44    30.12979    52.49659   145.38418
   392  H   1.0    0.05    1.06    1.44    32.72816    50.62387   149.94408
   393  H   1.0    0.04    1.00    1.43    30.61734    53.68900   152.63316
   394  H   1.0    0.05    1.00    1.43    32.83399    55.24047   150.61872
   395  H   1.0    0.04    1.00    1.43    29.53642    55.38031   149.92141
   396  H   1.0    0.05    1.00    1.43    28.40447    49.67523   150.95320
   397  H   1.0    0.04    1.00    1.43    27.33678    51.47802   148.31136
   398  H   1.0    0.05    1.00    1.43    29.12824    48.66422   147.81814
   399  N   5.0   -0.19    3.22    1.96    28.67470    53.73247   139.69043
   400  C   4.0    0.03    4.30    4.20    27.64291    56.24391   139.25579
   401  C   4.0    0.15    3.50    3.12    26.97017    57.84640   141.54614
   402  O   6.0   -0.31    1.30    1.80    26.39191    56.86752   143.53602
   403  C   4.0   -0.05    4.41    4.39    24.90092    56.09463   138.28448
   404  C   4.0   -0.05    4.26    4.12    24.16582    53.80428   136.69900
   405  C   4.0   -0.05    4.18    3.95    24.73273    54.09341   133.87763
   406  C   4.0   -0.03    4.13    3.86    23.83511    51.77660   132.43388
   407  N   5.0   -0.12    4.06    3.04    24.22440    49.46925   134.02503
   408  H   1.0    0.09    1.02    1.43    28.09834    52.85752   141.30804
   409  H   1.0    0.05    1.05    1.44    29.16036    57.04705   138.11818
   410  H   1.0    0.05    1.07    1.44    23.65181    56.10785   139.92098
   411  H   1.0    0.03    1.04    1.43    24.55321    57.75758   137.12040
   412  H   1.0    0.04    1.06    1.44    25.21083    52.16400   137.38119
   413  H   1.0    0.04    1.03    1.43    22.14192    53.48302   136.89931
   414  H   1.0    0.04    1.03    1.43    23.75197    55.74692   133.14064
   415  H   1.0    0.05    1.03    1.43    26.76419    54.29561   133.59796
   416  H   1.0    0.04    1.02    1.43    21.83011    51.95613   132.00114
   417  H   1.0    0.05    1.02    1.43    24.91604    51.57629   130.69345
   418  H   1.0    0.06    1.01    1.43    24.04676    47.85353   132.92143
   419  H   1.0    0.06    1.02    1.43    26.01964    49.49948   134.82628
   420  H   1.0    0.05    1.02    1.43    22.88458    49.41066   135.46311
   421  N   5.0   -0.14    3.52    2.09    26.94938    60.32950   141.17576
   422  C   4.0    0.04    4.47    4.50    27.46906    62.36285   142.93698
   423  C   4.0    0.13    3.48    3.11    25.15603    63.92754   143.50201
   424  O   6.0   -0.32    1.30    1.80    24.84990    64.90642   145.59394
   425  C   4.0    0.05    4.26    4.12    29.49295    64.09950   141.82393
   426  O   6.0   -0.23    2.11    1.84    31.58866    62.56316   141.09261
   427  C   4.0   -0.07    4.09    3.78    30.36034    66.06104   143.75712
   428  H   1.0    0.07    1.08    1.44    26.52419    61.07783   139.45233
   429  H   1.0    0.06    1.06    1.44    28.18337    61.58995   144.70765
   430  H   1.0    0.04    1.04    1.43    28.74273    65.12752   140.20444
   431  H   1.0    0.12    1.01    1.43    32.92470    63.61951   140.36506
   432  H   1.0    0.04    1.00    1.43    31.80031    67.27802   142.92753
   433  H   1.0    0.05    1.00    1.43    28.76352    67.22133   144.34861
   434  H   1.0    0.06    1.00    1.43    31.15024    65.11996   145.41063
   435  N   5.0   -0.14    3.57    2.13    23.53654    64.18832   141.62929
   436  C   4.0    0.04    4.46    4.48    21.35579    65.77758   141.95054
   437  C   4.0    0.15    3.43    3.09    19.08434    64.05415   142.27369
   438  O   6.0   -0.32    1.30    1.80    18.11491    62.99401   140.45010
   439  C   4.0   -0.04    4.26    4.12    21.10824    67.63518   139.72445
   440  C   4.0   -0.05    4.26    4.12    22.20239    66.55237   137.29993
   441  C   4.0   -0.05    4.18    3.96    21.80744    68.20399   134.99446
   442  C   4.0   -0.04    4.14    3.89    21.74130    66.61284   132.57561
   443  N   5.0   -0.12    4.00    2.86    20.49597    68.02069   130.47613
   444  H   1.0    0.07    1.08    1.44    23.69149    63.33605   139.90775
   445  H   1.0    0.07    1.08    1.44    21.51642    66.90953   143.66453
   446  H   1.0    0.05    1.05    1.44    19.11647    68.04903   139.40508
   447  H   1.0    0.04    1.03    1.43    22.12491    69.36995   140.17420
   448  H   1.0    0.04    1.04    1.43    24.23196    66.30103   137.54559
   449  H   1.0    0.05    1.04    1.43    21.30666    64.73445   136.92576
   450  H   1.0    0.04    1.07    1.44    20.01409    69.20365   135.16643
   451  H   1.0    0.05    1.03    1.43    23.35512    69.55325   134.84328
   452  H   1.0    0.04    1.02    1.43    23.66693    66.15553   132.00303
   453  H   1.0    0.03    1.06    1.44    20.67927    64.88185   132.92143
   454  H   1.0    0.06    1.01    1.43    20.46573    66.91520   128.85096
   455  H   1.0    0.05    1.02    1.43    18.64971    68.47422   130.97313
   456  H   1.0    0.07    1.01    1.43    21.48051    69.67986   130.10196
   457  N   5.0   -0.13    3.64    2.20    18.26987    63.71211   144.61506
   458  C   4.0    0.04    4.53    4.58    15.94551    62.30049   145.10639
   459  C   4.0    0.16    3.48    3.11    13.81579    64.10328   145.52780
   460  O   6.0   -0.32    1.38    1.80    14.18617    66.14986   146.56903
   461  C   4.0   -0.03    4.44    4.45    16.21574    60.73201   147.45532
   462  C   4.0   -0.02    3.65    3.20    18.55522    59.27692   147.46854
   463  C   4.0   -0.03    3.61    3.17    20.85880    60.52414   147.22855
   464  C   4.0   -0.05    3.48    3.10    18.49286    56.69178   147.58760
   465  C   4.0   -0.02    3.38    3.07    23.11135    59.20889   147.14162
   466  C   4.0   -0.05    3.38    3.07    20.73407    55.34629   147.52335
   467  C   4.0   -0.03    3.41    3.08    23.05466    56.59918   147.30603
   468  H   1.0    0.10    1.13    1.45    19.15804    64.37540   146.19109
   469  H   1.0    0.06    1.08    1.44    15.53544    61.07972   143.49823
   470  H   1.0    0.05    1.04    1.43    16.22141    61.97356   149.09938
   471  H   1.0    0.05    1.04    1.44    14.63782    59.41298   147.57248
   472  H   1.0    0.07    1.09    1.44    20.88525    62.56127   147.10761
   473  H   1.0    0.05    1.03    1.43    16.70896    55.71101   147.73122
   474  H   1.0    0.07    1.03    1.43    24.88580    60.19911   146.94887
   475  H   1.0    0.05    1.03    1.43    20.69250    53.30917   147.64240
   476  H   1.0    0.06    1.03    1.43    24.79509    55.53338   147.26634
   477  N   5.0   -0.13    3.57    2.13    11.57646    63.34361   144.71710
   478  C   4.0    0.04    4.51    4.55     9.29178    64.64941   145.46543
   479  C   4.0    0.15    3.50    3.11     8.45274    63.35495   147.83137
   480  O   6.0   -0.32    1.35    1.80     9.15761    61.20444   148.23388
   481  C   4.0   -0.05    4.40    4.38     7.28111    64.34517   143.46044
   482  C   4.0   -0.03    4.24    4.07     7.78756    66.16497   141.28725
   483  C   4.0   -0.08    4.08    3.77     6.62916    65.30704   138.76825
   484  C   4.0   -0.08    4.11    3.82     6.99010    68.81815   142.07338
   485  H   1.0    0.11    1.11    1.45    11.28922    61.83939   143.54736
   486  H   1.0    0.05    1.07    1.44     9.57902    66.67142   145.73944
   487  H   1.0    0.05    1.03    1.43     7.31135    62.41765   142.73478
   488  H   1.0    0.04    1.03    1.43     5.43107    64.76658   144.26357
   489  H   1.0    0.04    1.12    1.45     9.80957    66.19521   140.89041
   490  H   1.0    0.04    1.00    1.43     7.07135    66.70166   137.31694
   491  H   1.0    0.05    1.00    1.43     7.42662    63.47967   138.25235
   492  H   1.0    0.04    1.00    1.43     4.58825    65.14641   138.98934
   493  H   1.0    0.04    1.00    1.43     7.35292    70.11639   140.51624
   494  H   1.0    0.04    1.00    1.43     4.98132    68.80870   142.52502
   495  H   1.0    0.04    1.00    1.43     8.08047    69.38318   143.72689
   496  N   5.0   -0.13    3.53    2.10     7.02033    64.64563   149.43575
   497  C   4.0    0.04    4.53    4.58     6.10759    63.52503   151.79980
   498  C   4.0    0.13    3.49    3.11     3.41096    64.49446   152.13995
   499  O   6.0   -0.32    1.29    1.80     2.74388    66.51268   151.09304
   500  C   4.0   -0.02    4.25    4.09     8.11826    63.46456   153.93330
   501  C   4.0   -0.08    4.15    3.89     8.84770    60.77170   154.57391
   502  C   4.0   -0.06    4.18    3.95    10.45396    64.99712   153.26433
   503  H   1.0    0.11    1.08    1.44     6.45530    66.46733   149.16174
   504  H   1.0    0.04    1.16    1.46     5.78256    61.49168   151.83570
   505  H   1.0    0.04    1.06    1.44     7.27167    64.33194   155.59814
   506  H   1.0    0.04    1.00    1.43    10.25932    60.79815   156.07436
   507  H   1.0    0.03    1.00    1.43     7.17151    59.75502   155.20508
   508  H   1.0    0.04    1.03    1.43     9.62437    59.87030   152.89395
   509  H   1.0    0.03    1.00    1.43    11.79567    64.88941   154.82336
   510  H   1.0    0.06    1.01    1.43    11.29867    64.22045   151.55413
   511  H   1.0    0.08    1.05    1.44     9.90216    66.95677   152.94686
   512  N   5.0   -0.10    3.61    2.17     1.88784    63.06771   153.65173
   513  C   4.0    0.03    4.50    4.54    -0.41574    63.53448   155.08414
   514  C   4.0    0.15    3.46    3.10    -0.24000    65.55270   157.15906
   515  O   6.0   -0.30    1.28    1.80     1.62516    65.75112   158.55179
   516  C   4.0   -0.03    4.36    4.31    -0.95998    60.95122   156.30112
   517  C   4.0   -0.05    4.28    4.15     0.24755    59.03882   154.62683
   518  C   4.0   -0.02    4.53    4.58     1.95020    60.41643   152.79946
   519  H   1.0    0.05    1.06    1.44    -1.85760    64.12407   153.73676
   520  H   1.0    0.06    1.03    1.43    -0.14173    60.88886   158.19085
   521  H   1.0    0.06    1.03    1.43    -2.99522    60.64886   156.40506
   522  H   1.0    0.04    1.03    1.43     1.34737    57.73113   155.77767
   523  H   1.0    0.04    1.03    1.43    -1.21698    58.01648   153.60259
   524  H   1.0    0.03    1.05    1.44     3.86827    59.66999   152.89584
   525  H   1.0    0.04    1.03    1.43     1.22832    60.25769   150.87761
   526  N   5.0   -0.14    3.52    2.09    -2.27523    66.97945   157.40094
   527  C   4.0    0.04    4.42    4.41    -2.29602    69.10917   159.08091
   528  C   4.0    0.15    3.40    3.08    -1.42485    68.30414   161.74164
   529  O   6.0   -0.34    1.69    1.81    -0.34771    69.82726   163.13059
   530  C   4.0   -0.04    4.26    4.12    -4.74510    70.63985   158.66895
   531  C   4.0   -0.03    4.23    4.06    -4.56558    73.35160   159.54578
   532  C   4.0    0.15    3.23    3.04    -6.03578    75.12417   157.82991
   533  O   6.0   -0.28    1.20    1.80    -8.35826    75.19597   157.89038
   534  N   5.0   -0.18    3.17    1.95    -4.68085    76.54902   156.27278
   535  H   1.0    0.08    1.07    1.44    -3.93063    66.69977   156.45419
   536  H   1.0    0.05    1.09    1.44    -0.91652    70.58504   158.67651
   537  H   1.0    0.06    1.04    1.43    -5.18541    70.65685   156.65639
   538  H   1.0    0.05    1.03    1.43    -6.27389    69.74034   159.71586
   539  H   1.0    0.05    1.03    1.43    -5.34037    73.50278   161.44874
   540  H   1.0    0.04    1.04    1.43    -2.59081    73.93742   159.54011
   541  H   1.0    0.08    1.03    1.43    -2.75711    76.41674   156.27278
   542  H   1.0    0.10    1.02    1.43    -5.56335    77.77545   155.07658
   543  N   5.0   -0.11    3.81    2.44    -1.78957    65.87585   162.37848
   544  C   4.0    0.03    4.42    4.41    -1.91807    64.82327   164.95607
   545  C   4.0    0.15    3.53    3.13    -0.67085    62.32316   164.26254
   546  O   6.0   -0.27    1.33    1.80    -1.75933    60.67532   163.00209
   547  C   4.0   -0.04    4.22    4.04    -4.64306    64.86862   165.99731
   548  C   4.0   -0.03    4.21    4.01    -6.68774    64.61729   163.97152
   549  C   4.0    0.26    3.27    3.05    -5.97720    62.75969   161.88337
   550  O   6.0   -0.30    1.65    1.81    -4.35015    63.35306   160.28656
   551  O   6.0   -0.27    1.18    1.80    -7.02789    60.66020   161.86070
   552  H   1.0    0.14    1.38    1.53    -2.02012    64.48879   161.05945
   553  H   1.0    0.03    1.08    1.44    -0.95998    65.74168   166.53210
   554  H   1.0    0.05    1.03    1.43    -4.87171    63.30015   167.31445
   555  H   1.0    0.04    1.03    1.43    -4.94541    66.65819   166.97241
   556  H   1.0    0.06    1.03    1.43    -8.42440    63.94833   164.85213
   557  H   1.0    0.05    1.03    1.43    -7.00143    66.45977   163.10414
   558  N   5.0   -0.14    3.51    2.09     1.65540    62.07561   165.12425
   559  C   4.0    0.04    4.44    4.45     3.03490    59.72857   165.09402
   560  C   4.0    0.15    3.46    3.10     4.98699    59.82872   167.21996
   561  O   6.0   -0.29    1.28    1.80     6.50255    61.58617   167.32578
   562  C   4.0   -0.04    4.39    4.36     4.30669    59.41109   162.51076
   563  C   4.0   -0.02    4.20    4.00     4.65062    56.67288   161.69818
   564  C   4.0   -0.06    4.14    3.87     2.06169    55.40488   161.70385
   565  C   4.0   -0.08    4.10    3.79     5.96020    56.52359   159.14516
   566  H   1.0    0.07    1.14    1.45     2.66829    63.52881   165.88392
   567  H   1.0    0.05    1.08    1.44     1.79902    58.11852   165.43984
   568  H   1.0    0.05    1.04    1.43     3.14828    60.34651   161.08780
   569  H   1.0    0.05    1.04    1.43     6.17184    60.28226   162.58446
   570  H   1.0    0.05    1.06    1.44     5.87327    55.65243   163.00398
   571  H   1.0    0.05    1.00    1.43     2.27523    53.43956   161.12559
   572  H   1.0    0.06    1.01    1.43     1.27557    55.49558   163.60491
   573  H   1.0    0.05    1.00    1.43     0.82770    56.39509   160.38482
   574  H   1.0    0.04    1.00    1.43     6.17751    54.54505   158.61793
   575  H   1.0    0.04    1.00    1.43     4.81124    57.50247   157.74298
   576  H   1.0    0.03    1.00    1.43     7.80835    57.42121   159.28689
   577  N   5.0   -0.13    3.50    2.08     4.90951    58.00325   168.94717
   578  C   4.0    0.04    4.46    4.48     6.88049    57.79349   170.84256
   579  C   4.0    0.18    3.56    3.14     9.39950    57.56294   169.46306
   580  O   6.0   -0.30    1.32    1.80     9.62626    56.15132   167.59601
   581  C   4.0    0.06    4.21    4.02     6.60081    55.42566   172.54521
   582  O   6.0   -0.25    2.31    1.89     8.22220    53.43767   171.65326
   583  C   4.0   -0.07    4.12    3.84     3.85882    54.48836   172.70394
   584  H   1.0    0.09    1.11    1.44     3.52623    56.66532   169.07567
   585  H   1.0    0.06    1.05    1.44     6.77656    59.44322   172.07089
   586  H   1.0    0.04    1.04    1.43     7.15450    55.94534   174.45950
   587  H   1.0    0.11    1.02    1.43     7.62315    51.80117   172.28065
   588  H   1.0    0.05    1.00    1.43     3.75111    52.82729   173.91526
   589  H   1.0    0.05    1.00    1.43     2.65318    55.96423   173.48629
   590  H   1.0    0.07    1.06    1.44     3.17474    53.99136   170.82556
   591  N   5.0   -0.15    3.47    2.06    11.26844    58.96890   170.36635
   592  C   4.0    0.03    4.43    4.43    13.84980    58.47757   169.66149
   593  C   4.0    0.09    3.30    3.05    14.48286    55.69589   169.88069
   594  O   6.0   -0.32    1.47    1.80    15.80378    54.69434   168.24797
   595  C   4.0   -0.04    4.49    4.52    15.59213    59.86841   171.39625
   596  C   4.0   -0.04    4.10    3.81    15.59024    62.63308   170.84256
   597  S   6.0   -0.05    2.57    3.10    17.84846    63.29070   168.38970
   598  C   4.0   -0.06    3.91    3.47    20.60557    61.47467   169.25708
   599  H   1.0    0.08    1.06    1.44    11.04356    60.44855   171.58145
   600  H   1.0    0.05    1.07    1.44    14.09925    59.12952   167.72263
   601  H   1.0    0.04    1.04    1.43    14.97986    59.59251   173.34456
   602  H   1.0    0.04    1.10    1.44    17.51020    59.15598   171.15248
   603  H   1.0    0.05    1.08    1.44    13.72130    63.21700   170.20384
   604  H   1.0    0.04    1.07    1.44    16.11558    63.68565   172.53387
   605  H   1.0    0.04    1.04    1.43    22.07767    61.77514   167.84735
   606  H   1.0    0.05    1.04    1.43    21.26698    62.10017   171.10524
   607  H   1.0    0.04    1.05    1.44    20.09913    59.47912   169.33078
   608  N   5.0   -0.18    3.28    1.98    11.02088    50.68056   168.87536
   609  C   4.0    0.03    4.30    4.20    10.23287    49.49003   166.50753
   610  C   4.0    0.15    3.46    3.10    12.03377    50.39899   164.45907
   611  O   6.0   -0.31    1.30    1.80    13.30367    48.83241   163.23831
   612  C   4.0   -0.04    4.28    4.16     7.51166    50.19490   165.80455
   613  C   4.0   -0.03    4.20    4.01     5.48587    49.34641   167.68672
   614  C   4.0    0.15    3.23    3.04     3.11049    50.99425   167.62625
   615  O   6.0   -0.32    1.31    1.80     3.27112    53.28838   167.36169
   616  N   5.0   -0.19    3.17    1.95     0.90140    49.82829   167.87758
   617  H   1.0    0.12    1.17    1.46     9.64327    51.68023   169.77865
   618  H   1.0    0.05    1.05    1.44    10.26688    47.43968   166.70973
   619  H   1.0    0.07    1.04    1.43     7.39072    52.24525   165.65527
   620  H   1.0    0.05    1.03    1.43     7.06569    49.32941   163.99042
   621  H   1.0    0.05    1.03    1.43     4.92652    47.41511   167.24075
   622  H   1.0    0.05    1.03    1.43     6.26633    49.43145   169.59157
   623  H   1.0    0.09    1.02    1.43     0.84093    47.91400   168.09868
   624  H   1.0    0.10    1.02    1.43    -0.73510    50.84686   167.84924
   625  N   5.0   -0.14    3.50    2.08    12.24542    52.90477   164.17372
   626  C   4.0    0.04    4.54    4.59    13.86681    53.87987   162.21030
   627  C   4.0    0.16    3.62    3.18    16.40471    52.64588   162.27833
   628  O   6.0   -0.31    1.30    1.80    17.32501    51.69156   160.32435
   629  C   4.0   -0.04    4.40    4.39    14.34680    56.66721   162.36147
   630  C   4.0   -0.02    3.56    3.15    15.64504    57.66688   160.03144
   631  C   4.0   -0.04    3.48    3.11    14.89671    56.89776   157.61826
   632  C   4.0   -0.05    3.46    3.10    17.60847    59.36574   160.21097
   633  C   4.0   -0.05    3.37    3.07    16.08913    57.83128   155.46397
   634  C   4.0   -0.05    3.38    3.07    18.78388    60.35218   158.03778
   635  C   4.0   -0.05    3.37    3.07    18.05633    59.55471   155.66618
   636  H   1.0    0.11    1.10    1.44    11.34402    54.23325   165.24142
   637  H   1.0    0.04    1.07    1.44    12.83691    53.49625   160.46797
   638  H   1.0    0.04    1.04    1.43    12.54967    57.65176   162.56745
   639  H   1.0    0.05    1.04    1.44    15.55244    57.05650   163.98475
   640  H   1.0    0.04    1.03    1.43    13.36981    55.55794   157.41984
   641  H   1.0    0.04    1.03    1.43    18.25853    59.95156   162.05345
   642  H   1.0    0.04    1.03    1.43    15.47686    57.20767   153.61960
   643  H   1.0    0.04    1.03    1.43    20.26542    61.74302   158.22864
   644  H   1.0    0.04    1.03    1.43    18.99930    60.25769   153.99755
   645  N   5.0   -0.14    3.55    2.12    17.55555    52.70824   164.51198
   646  C   4.0    0.04    4.32    4.23    19.95362    51.42511   164.85402
   647  C   4.0    0.10    3.29    3.05    19.74197    48.77572   163.70885
   648  O   6.0   -0.30    1.17    1.80    21.23863    48.11620   162.03644
   649  C   4.0   -0.05    4.31    4.21    20.78699    51.32307   167.61680
   650  C   4.0   -0.03    4.15    3.90    23.61213    50.97914   168.27632
   651  C   4.0   -0.07    4.08    3.77    23.98629    50.95646   171.15248
   652  C   4.0   -0.06    4.07    3.75    24.92926    48.66044   167.13114
   653  H   1.0    0.13    1.33    1.51    16.88659    53.61153   166.07857
   654  H   1.0    0.04    1.06    1.44    21.43516    52.50037   163.91105
   655  H   1.0    0.05    1.04    1.43    20.20495    53.09374   168.49363
   656  H   1.0    0.05    1.04    1.43    19.79677    49.74326   168.49363
   657  H   1.0    0.04    1.06    1.44    24.53998    52.59863   167.40704
   658  H   1.0    0.05    1.00    1.43    25.98940    50.71269   171.56633
   659  H   1.0    0.05    1.00    1.43    23.32111    52.74414   171.92916
   660  H   1.0    0.05    1.00    1.43    22.90726    49.39744   171.95750
   661  H   1.0    0.05    1.00    1.43    26.89836    48.63966   167.73774
   662  H   1.0    0.06    1.00    1.43    23.97495    46.95591   167.78499
   663  H   1.0    0.06    1.00    1.43    24.82911    48.77761   165.07701
   664  N   5.0   -0.18    3.27    1.97    16.07023    46.11309   159.40027
   665  C   4.0    0.03    4.41    4.39    15.97763    46.21892   156.63371
   666  C   4.0    0.16    3.50    3.12    18.44184    47.18268   155.55090
   667  O   6.0   -0.32    1.29    1.80    18.92938    46.84442   153.32480
   668  C   4.0   -0.02    4.38    4.34    13.88760    47.89510   155.51311
   669  C   4.0   -0.04    4.26    4.12    11.99031    48.74548   157.49921
   670  C   4.0   -0.07    4.12    3.84    12.60447    46.52883   153.32858
   671  C   4.0   -0.07    4.03    3.67    10.07413    50.60875   156.46553
   672  H   1.0    0.11    1.08    1.44    14.73986    47.18835   160.28656
   673  H   1.0    0.05    1.07    1.44    15.56378    44.27250   156.10270
   674  H   1.0    0.05    1.08    1.44    14.77010    49.61287   154.79501
   675  H   1.0    0.05    1.03    1.43    10.96797    47.09953   158.20030
   676  H   1.0    0.06    1.05    1.44    12.99942    49.65822   159.04501
   677  H   1.0    0.04    1.00    1.43    11.12860    47.74015   152.55569
   678  H   1.0    0.05    1.00    1.43    14.00854    46.11687   151.87727
   679  H   1.0    0.05    1.00    1.43    11.78055    44.77517   154.02589
   680  H   1.0    0.05    1.00    1.43     8.77589    51.14165   157.97353
   681  H   1.0    0.04    1.00    1.43    11.06624    52.27549   155.77200
   682  H   1.0    0.05    1.00    1.43     9.03478    49.71869   154.92540
   683  N   5.0   -0.13    3.53    2.10    20.01220    48.39588   157.05890
   684  C   4.0    0.05    4.59    4.66    22.54443    48.67745   156.15561
   685  C   4.0    0.09    3.37    3.07    24.28109    46.44379   156.56002
   686  O   6.0   -0.30    1.17    1.80    25.38469    45.57263   154.74210
   687  C   4.0   -0.02    4.46    4.49    23.86157    50.91111   157.30457
   688  C   4.0   -0.05    4.28    4.17    23.06788    53.23169   155.86082
   689  C   4.0   -0.07    4.26    4.13    26.66403    50.62009   157.09103
   690  C   4.0   -0.07    4.05    3.71    22.07578    55.24047   157.59936
   691  H   1.0    0.13    1.11    1.45    19.60213    49.14421   158.78611
   692  H   1.0    0.06    1.11    1.45    22.21940    48.90800   154.13550
   693  H   1.0    0.06    1.07    1.44    23.35512    51.05851   159.29634
   694  H   1.0    0.03    1.04    1.43    24.69116    53.99325   154.84792
   695  H   1.0    0.04    1.05    1.44    21.57878    52.73091   154.53045
   696  H   1.0    0.04    1.00    1.43    27.57488    52.26226   157.93574
   697  H   1.0    0.05    1.03    1.43    27.23851    48.90989   158.08502
   698  H   1.0    0.05    1.01    1.43    27.17426    50.48025   155.10115
   699  H   1.0    0.04    1.02    1.43    21.52398    56.88075   156.48254
   700  H   1.0    0.06    1.00    1.43    20.44306    54.50159   158.61604
   701  H   1.0    0.03    1.00    1.43    23.55543    55.76392   158.93351
   702  N   5.0   -0.19    3.22    1.96    24.15448    41.42279   151.33681
   703  C   4.0    0.04    4.22    4.05    25.35634    41.46626   148.81403
   704  C   4.0    0.09    3.19    3.03    28.21928    41.11666   148.83482
   705  O   6.0   -0.26    1.12    1.80    29.44949    41.29618   146.84304
   706  C   4.0   -0.04    4.35    4.29    24.68549    43.88511   147.42130
   707  C   4.0   -0.04    4.25    4.09    22.01153    44.70903   147.92019
   708  C   4.0   -0.01    4.25    4.10    21.77720    47.38866   147.00556
   709  N   5.0   -0.14    3.37    2.01    20.43361    47.67590   144.58860
   710  C   4.0    0.09    3.33    3.06    21.52587    47.78361   142.31337
   711  N   5.0   -0.18    3.26    1.97    24.00141    47.56251   142.07527
   712  N   5.0   -0.19    3.23    1.96    20.13881    48.10675   140.23845
   713  H   1.0    0.12    1.05    1.44    24.24329    43.09898   152.28546
   714  H   1.0    0.06    1.06    1.44    24.58156    39.87133   147.76712
   715  H   1.0    0.05    1.04    1.43    25.94783    45.39122   148.03924
   716  H   1.0    0.05    1.03    1.43    24.89525    43.57708   145.39551
   717  H   1.0    0.05    1.03    1.43    20.68872    43.51472   146.88840
   718  H   1.0    0.06    1.05    1.44    21.60335    44.63533   149.93842
   719  H   1.0    0.05    1.03    1.43    20.74730    48.47714   148.41908
   720  H   1.0    0.04    1.05    1.44    23.66882    48.16533   146.75801
   721  H   1.0    0.08    1.06    1.44    18.51176    47.80251   144.65474
   722  H   1.0    0.08    1.04    1.43    25.10123    47.30740   143.63807
   723  H   1.0    0.08    1.03    1.43    24.81399    47.64755   140.32916
   724  H   1.0    0.08    1.02    1.43    18.22263    48.27494   140.37640
   725  H   1.0    0.08    1.03    1.43    20.99108    48.18612   138.51124
   726  N   5.0   -0.19    3.20    1.96    30.49451    57.67066   170.85201
   727  C   4.0    0.03    4.30    4.20    29.64224    59.26370   168.76576
   728  C   4.0    0.08    3.25    3.04    29.26997    61.93010   169.77298
   729  O   6.0   -0.28    1.12    1.80    27.45961    62.44032   171.21106
   730  C   4.0   -0.04    4.41    4.40    27.19883    58.26592   167.64893
   731  C   4.0   -0.03    4.26    4.11    26.40703    59.87408   165.41527
   732  C   4.0   -0.08    4.19    3.98    28.61990    59.90242   163.60113
   733  C   4.0   -0.08    4.11    3.82    24.05999    58.83473   164.11703
   734  H   1.0    0.10    1.02    1.43    29.36634    57.71790   172.41482
   735  H   1.0    0.04    1.07    1.44    31.08221    59.30149   167.29366
   736  H   1.0    0.04    1.03    1.43    27.47473    56.32895   167.00642
   737  H   1.0    0.05    1.03    1.43    25.71161    58.33206   169.07189
   738  H   1.0    0.04    1.06    1.44    25.91759    61.77703   166.03132
   739  H   1.0    0.04    1.00    1.43    28.12668    61.04382   161.95896
   740  H   1.0    0.04    1.02    1.43    30.25640    60.71123   164.55356
   741  H   1.0    0.04    1.00    1.43    29.03186    57.97112   163.01532
   742  H   1.0    0.04    1.01    1.43    23.57433    60.05549   162.52966
   743  H   1.0    0.04    1.00    1.43    24.45494    56.92988   163.44240
   744  H   1.0    0.04    1.00    1.43    22.50853    58.79315   165.47007
   745  N   5.0   -0.18    3.25    1.97    28.69738    69.87451   169.20984
   746  C   4.0    0.03    4.37    4.32    27.86401    71.95509   167.69428
   747  C   4.0    0.09    3.26    3.05    30.00129    73.85805   167.49964
   748  O   6.0   -0.25    1.12    1.80    31.09544    74.66496   169.40826
   749  C   4.0   -0.02    4.31    4.22    25.44138    73.12484   168.67883
   750  C   4.0   -0.07    4.17    3.93    24.80454    75.40951   167.09146
   751  C   4.0   -0.08    4.14    3.89    23.31166    71.21054   168.46907
   752  H   1.0    0.10    1.03    1.43    28.05676    69.85939   171.02776
   753  H   1.0    0.04    1.07    1.44    27.43504    71.26534   165.80078
   754  H   1.0    0.06    1.06    1.44    25.67004    73.68419   170.64792
   755  H   1.0    0.04    1.00    1.43    23.06222    76.25233   167.79822
   756  H   1.0    0.06    1.01    1.43    26.34656    76.76823   167.22374
   757  H   1.0    0.05    1.00    1.43    24.55510    74.81803   165.13370
   758  H   1.0    0.04    1.00    1.43    21.57500    72.05903   169.17961
   759  H   1.0    0.04    1.00    1.43    23.07733    70.68142   166.49242
   760  H   1.0    0.05    1.00    1.43    23.78976    69.54947   169.58779
   761  N   5.0   -0.20    3.24    1.97     7.92551    62.69733   177.21472
   762  C   4.0    0.04    4.29    4.18     7.15450    65.17476   176.44749
   763  C   4.0    0.16    3.45    3.09     6.19074    65.11996   173.75463
   764  O   6.0   -0.29    1.27    1.80     7.54568    64.29793   172.08411
   765  C   4.0   -0.06    4.14    3.89     9.38816    66.93031   176.65347
   766  H   1.0    0.09    1.03    1.43     9.52989    62.11340   176.32088
   767  H   1.0    0.06    1.06    1.44     5.60304    65.82860   177.63424
   768  H   1.0    0.06    1.00    1.43     8.81179    68.82004   176.07144
   769  H   1.0    0.05    1.00    1.43    10.03633    66.96433   178.60934
   770  H   1.0    0.05    1.00    1.43    10.89427    66.24623   175.42704
   771  N   5.0   -0.12    3.47    2.06     3.86071    65.99112   173.33133
   772  C   4.0    0.04    4.43    4.43     2.78546    66.17064   170.77453
   773  C   4.0    0.17    3.52    3.12     4.60715    67.70132   169.17394
   774  O   6.0   -0.31    1.40    1.80     5.84681    69.44554   170.10935
   775  C   4.0    0.05    4.20    4.00     0.15118    67.50101   170.69517
   776  O   6.0   -0.25    2.15    1.85     0.43653    70.20332   170.52320
   777  C   4.0   -0.06    4.08    3.76    -1.49288    66.85283   172.99307
   778  H   1.0    0.10    1.09    1.44     2.66073    66.59016   174.71650
   779  H   1.0    0.05    1.05    1.44     2.49633    64.26391   170.04888
   780  H   1.0    0.03    1.07    1.44    -0.83148    66.81126   169.02276
   781  H   1.0    0.12    1.01    1.43    -1.20187    71.03102   170.77264
   782  H   1.0    0.05    1.00    1.43    -3.30702    67.82037   172.85701
   783  H   1.0    0.05    1.00    1.43    -1.82359    64.82138   173.07244
   784  H   1.0    0.07    1.01    1.43    -0.54802    67.44432   174.72406
   785  N   5.0   -0.14    3.52    2.09     4.76400    67.02480   166.76454
   786  C   4.0    0.04    4.50    4.54     6.45152    68.28903   165.00331
   787  C   4.0    0.15    3.52    3.13     5.70508    70.99889   164.73308
   788  O   6.0   -0.32    1.29    1.80     7.33025    72.62595   164.49308
   789  C   4.0   -0.04    4.38    4.35     6.37783    67.04181   162.41439
   790  C   4.0   -0.04    4.07    3.75     8.11637    64.77792   162.16683
   791  S   6.0   -0.06    2.53    3.10    11.42339    65.61506   162.19707
   792  C   4.0   -0.07    3.90    3.46    12.75754    62.65386   163.13437
   793  H   1.0    0.07    1.13    1.45     3.74166    65.59806   165.96707
   794  H   1.0    0.05    1.09    1.44     8.37338    68.11895   165.72708
   795  H   1.0    0.06    1.04    1.43     4.45597    66.40119   162.04400
   796  H   1.0    0.05    1.05    1.44     6.94474    68.42509   160.99709
   797  H   1.0    0.06    1.08    1.44     7.77244    63.49668   163.74286
   798  H   1.0    0.04    1.07    1.44     7.72142    63.82360   160.38482
   799  H   1.0    0.04    1.04    1.43    14.80600    62.84662   163.24398
   800  H   1.0    0.05    1.04    1.43    12.00165    62.13041   164.97685
   801  H   1.0    0.04    1.05    1.44    12.26054    61.22334   161.73975
   802  N   5.0   -0.13    3.64    2.20     3.22954    71.44865   164.73308
   803  C   4.0    0.04    4.37    4.34     2.22232    74.00356   164.84646
   804  C   4.0    0.16    3.53    3.13     3.67552    75.41896   166.89871
   805  O   6.0   -0.31    1.31    1.80     4.83392    77.40506   166.42816
   806  C   4.0   -0.06    4.17    3.94    -0.61227    73.96765   165.42283
   807  H   1.0    0.13    1.31    1.50     1.87461    70.08049   164.65560
   808  H   1.0    0.05    1.05    1.44     2.42263    74.95031   163.02855
   809  H   1.0    0.05    1.00    1.43    -1.30580    75.90651   165.49464
   810  H   1.0    0.07    1.05    1.44    -1.58548    72.92830   163.93562
   811  H   1.0    0.05    1.00    1.43    -0.91652    73.04358   167.23886
   812  N   5.0   -0.14    3.53    2.10     3.67552    74.32103   169.15315
   813  C   4.0    0.04    4.43    4.42     4.92841    75.48321   171.24697
   814  C   4.0    0.17    3.46    3.10     7.57969    76.38083   170.43627
   815  O   6.0   -0.29    1.27    1.80     8.13338    78.62961   170.59690
   816  C   4.0   -0.04    4.27    4.13     4.88494    73.71632   173.55432
   817  C   4.0   -0.03    4.18    3.95     2.45286    73.94120   175.10957
   818  C   4.0    0.25    3.11    3.02     1.74044    71.59038   176.62513
   819  O   6.0   -0.29    1.22    1.80     3.31269    69.85939   176.94827
   820  O   6.0   -0.27    1.17    1.80    -0.44409    71.47321   177.51897
   821  H   1.0    0.11    1.11    1.45     2.82514    72.64107   169.56133
   822  H   1.0    0.06    1.07    1.44     3.92307    77.16696   171.87813
   823  H   1.0    0.08    1.06    1.44     5.04746    71.76801   172.90614
   824  H   1.0    0.05    1.03    1.43     6.47042    74.18308   174.78264
   825  H   1.0    0.05    1.03    1.43     2.67774    75.49077   176.44749
   826  H   1.0    0.05    1.03    1.43     0.89384    74.33993   173.82455
   827  N   5.0   -0.14    3.62    2.18     9.13305    74.70087   169.39692
   828  C   4.0    0.03    4.51    4.55    11.78244    75.33015   168.79032
   829  C   4.0    0.15    3.45    3.09    12.02811    77.36538   166.77965
   830  O   6.0   -0.33    1.29    1.80    13.92350    78.71842   166.63603
   831  C   4.0   -0.02    4.35    4.29    13.24509    73.05681   167.71885
   832  C   4.0   -0.05    4.25    4.09    11.79189    70.54725   168.04010
   833  C   4.0   -0.08    4.08    3.76    15.95307    73.02657   168.69961
   834  C   4.0   -0.06    4.16    3.92    10.59380    69.97844   170.58934
   835  H   1.0    0.09    1.16    1.46     8.63794    72.89240   168.94528
   836  H   1.0    0.05    1.06    1.44    12.54022    75.95376   170.60068
   837  H   1.0    0.05    1.08    1.44    13.39060    73.28357   165.67605
   838  H   1.0    0.06    1.06    1.44    10.26499    70.53024   166.65871
   839  H   1.0    0.04    1.03    1.43    13.10903    69.01090   167.65460
   840  H   1.0    0.04    1.00    1.43    16.93572    71.39763   167.90782
   841  H   1.0    0.05    1.00    1.43    16.89604    74.76512   168.12136
   842  H   1.0    0.04    1.00    1.43    15.92094    72.89618   170.75564
   843  H   1.0    0.08    1.02    1.43     9.64894    68.15108   170.49296
   844  H   1.0    0.04    1.00    1.43    12.06779    69.93309   172.02742
   845  H   1.0    0.06    1.09    1.44     9.22564    71.45432   171.03154
   846  N   5.0   -0.13    3.50    2.08    10.08358    77.51278   165.19984
   847  C   4.0    0.04    4.48    4.51    10.00988    79.24566   163.05500
   848  C   4.0    0.16    3.51    3.12     9.25399    81.97064   163.50287
   849  O   6.0   -0.31    1.26    1.80     9.76421    83.66951   161.96463
   850  C   4.0   -0.03    4.46    4.47     7.87071    78.55969   161.24276
   851  C   4.0   -0.01    3.64    3.19     8.24298    79.90328   158.78611
   852  C   4.0   -0.05    3.51    3.12    10.54467    79.67085   157.52944
   853  C   4.0   -0.04    3.45    3.09     6.37405    81.45097   157.73731
   854  C   4.0   -0.04    3.46    3.10    10.99632    80.88972   155.28445
   855  C   4.0   -0.04    3.40    3.08     6.80679    82.69630   155.46964
   856  C   4.0    0.07    3.44    3.09     9.13871    82.41095   154.25455
   857  O   6.0   -0.25    2.10    1.84     9.69240    83.60903   152.00011
   858  H   1.0    0.12    1.11    1.44     8.49243    76.43564   165.35480
   859  H   1.0    0.05    1.06    1.44    11.94685    79.07558   162.37281
   860  H   1.0    0.04    1.03    1.43     7.87449    76.52823   160.89883
   861  H   1.0    0.06    1.05    1.44     6.06413    79.13416   162.04967
   862  H   1.0    0.04    1.03    1.43    12.00921    78.50300   158.34014
   863  H   1.0    0.05    1.03    1.43     4.58636    81.67773   158.69541
   864  H   1.0    0.08    1.06    1.44    12.78589    80.66295   154.33203
   865  H   1.0    0.06    1.03    1.43     5.35737    83.87549   154.64950
   866  H   1.0    0.14    1.07    1.44    11.22497    82.88338   151.25744
   867  N   5.0   -0.14    3.49    2.07     7.89716    82.27867   165.58913
   868  C   4.0    0.03    4.36    4.31     7.66284    84.47642   167.19917
   869  C   4.0    0.16    3.44    3.09    10.11948    85.46475   168.38781
   870  O   6.0   -0.27    1.23    1.80    10.73553    87.70596   168.14970
   871  C   4.0   -0.03    4.37    4.34     5.96964    83.73754   169.43850
   872  C   4.0   -0.04    4.26    4.13     4.90951    85.85592   171.04665
   873  C   4.0   -0.00    4.19    3.97     2.04279    85.60081   171.31122
   874  N   5.0   -0.13    3.35    2.00     1.03935    83.54856   172.91748
   875  C   4.0    0.10    3.33    3.06     2.29791    82.14828   174.60501
   876  N   5.0   -0.17    3.24    1.96     1.04880    80.39461   175.90136
   877  N   5.0   -0.15    3.34    2.00     4.75833    82.45819   175.02075
   878  H   1.0    0.11    1.11    1.44     6.80301    80.85948   166.29966
   879  H   1.0    0.05    1.05    1.44     6.92018    85.96552   165.98597
   880  H   1.0    0.05    1.05    1.44     4.35771    82.69252   168.69395
   881  H   1.0    0.09    1.07    1.44     7.07324    82.53189   170.69328
   882  H   1.0    0.06    1.10    1.44     5.75044    85.78033   172.92504
   883  H   1.0    0.06    1.03    1.43     5.32714    87.66817   170.16037
   884  H   1.0    0.06    1.03    1.43     1.32659    87.36392   172.09923
   885  H   1.0    0.05    1.03    1.43     1.26423    85.30412   169.42716
   886  H   1.0    0.09    1.06    1.44    -0.83526    83.15172   172.71528
   887  H   1.0    0.09    1.02    1.43    -0.83715    80.13572   175.60089
   888  H   1.0    0.09    1.03    1.43     1.97665    79.30991   177.19582
   889  H   1.0    0.10    1.16    1.46     5.74099    83.79423   174.03998
   890  H   1.0    0.11    1.03    1.43     5.66162    81.35837   176.32088
   891  N   5.0   -0.12    3.53    2.10    11.58969    83.77722   169.51598
   892  C   4.0    0.05    4.46    4.48    13.73264    84.66539   170.98240
   893  C   4.0    0.16    3.37    3.07    15.88693    85.38160   169.20984
   894  O   6.0   -0.25    1.22    1.80    16.94328    87.44707   169.46873
   895  C   4.0   -0.03    4.30    4.19    14.01610    83.03645   173.33133
   896  C   4.0    0.26    3.15    3.03    11.63882    83.01755   174.94705
   897  O   6.0   -0.29    1.29    1.80     9.56012    82.57347   173.91526
   898  O   6.0   -0.25    1.17    1.80    11.84480    83.48431   177.26007
   899  H   1.0    0.11    1.06    1.44    11.35536    81.86482   169.45173
   900  H   1.0    0.08    1.10    1.44    13.55689    86.46630   171.96506
   901  H   1.0    0.05    1.09    1.44    14.41861    81.09759   172.76253
   902  H   1.0    0.07    1.03    1.43    15.56189    83.76966   174.47651
   903  N   5.0   -0.14    3.51    2.09    16.54077    83.72242   167.42594
   904  C   4.0    0.04    4.40    4.38    19.02765    83.59770   166.21274
   905  C   4.0    0.15    3.45    3.10    18.95773    83.68462   163.35169
   906  O   6.0   -0.29    1.28    1.80    20.89659    83.24621   162.10447
   907  C   4.0   -0.02    4.35    4.28    20.48463    81.24121   167.02532
   908  C   4.0   -0.01    3.57    3.15    20.09346    80.48154   169.74085
   909  C   4.0   -0.04    3.54    3.14    17.85413    79.35148   170.50052
   910  C   4.0   -0.03    3.47    3.10    21.96806    80.86326   171.54365
   911  C   4.0   -0.04    3.51    3.12    17.46296    78.64095   172.96284
   912  C   4.0   -0.03    3.43    3.09    21.60524    80.13761   174.03242
   913  C   4.0    0.07    3.47    3.10    19.33190    79.02456   174.71650
   914  O   6.0   -0.22    2.11    1.84    18.85758    78.28946   177.15803
   915  H   1.0    0.10    1.08    1.44    15.33513    82.37882   166.74942
   916  H   1.0    0.08    1.07    1.44    20.05566    85.26443   166.85335
   917  H   1.0    0.05    1.04    1.43    19.88559    79.66140   165.84613
   918  H   1.0    0.06    1.04    1.43    22.49719    81.59270   166.76265
   919  H   1.0    0.08    1.07    1.44    16.38581    79.02267   169.12291
   920  H   1.0    0.06    1.03    1.43    23.72929    81.73632   170.99563
   921  H   1.0    0.06    1.03    1.43    15.69417    77.78490   173.51653
   922  H   1.0    0.07    1.03    1.43    23.07166    80.43430   175.42137
   923  H   1.0    0.13    1.02    1.43    20.32589    78.65606   178.22572
   924  N   5.0   -0.13    3.48    2.07    16.75242    84.21753   162.28211
   925  C   4.0    0.04    4.42    4.42    16.62959    84.75988   159.56657
   926  C   4.0    0.17    3.60    3.17    18.74986    86.59102   158.95808
   927  O   6.0   -0.26    1.29    1.80    18.90482    88.60169   160.09380
   928  C   4.0   -0.03    4.39    4.37    14.04822    85.86159   158.90328
   929  C   4.0   -0.03    4.25    4.10    14.02177    88.24642   157.32346
   930  C   4.0   -0.04    4.21    4.01    11.76732    89.79411   158.17006
   931  C   4.0   -0.02    4.21    4.02    11.79189    90.09457   161.04622
   932  N   5.0   -0.11    3.99    2.84     9.34092    89.44451   162.27644
   933  H   1.0    0.09    1.06    1.44    15.06301    84.28934   163.20618
   934  H   1.0    0.05    1.06    1.44    16.83746    83.05157   158.43462
   935  H   1.0    0.05    1.04    1.43    12.99942    84.43485   157.85070
   936  H   1.0    0.06    1.11    1.44    13.07312    86.29811   160.66450
   937  H   1.0    0.08    1.06    1.44    15.74898    89.32735   157.62771
   938  H   1.0    0.06    1.03    1.43    13.82335    87.78155   155.32602
   939  H   1.0    0.06    1.03    1.43    11.84858    91.66494   157.31024
   940  H   1.0    0.05    1.03    1.43    10.02500    88.83980   157.62015
   941  H   1.0    0.06    1.07    1.44    13.23564    88.85302   161.83046
   942  H   1.0    0.06    1.02    1.43    12.22275    92.05611   161.50543
   943  H   1.0    0.08    1.01    1.43     9.29934    90.15316   164.10947
   944  H   1.0    0.06    1.02    1.43     7.84992    90.22119   161.25787
   945  H   1.0    0.08    1.03    1.43     9.11982    87.49242   162.34258
   946  N   5.0   -0.11    3.47    2.06    20.45250    85.87104   157.27622
   947  C   4.0    0.06    4.35    4.30    22.58411    87.51888   156.74143
   948  C   4.0    0.12    3.30    3.05    21.74130    89.76009   155.16351
   949  O   6.0   -0.24    1.19    1.80    19.49630    90.00576   154.49454
   950  C   4.0   -0.02    4.29    4.17    24.60045    86.16583   155.17674
   951  C   4.0    0.25    3.13    3.03    26.86812    87.86281   154.53045
   952  O   6.0   -0.25    1.17    1.80    28.19849    88.71885   156.28601
   953  O   6.0   -0.25    1.17    1.80    27.32166    88.33713   152.25711
   954  H   1.0    0.10    1.06    1.44    20.41282    84.21753   156.28601
   955  H   1.0    0.08    1.06    1.44    23.33623    88.10091   158.56879
   956  H   1.0    0.06    1.03    1.43    25.30154    84.55012   156.24443
   957  H   1.0    0.09    1.04    1.43    23.75952    85.53089   153.40795
   958  N   5.0   -0.16    3.23    1.96    22.16649    91.17172   149.30347
   959  C   4.0    0.04    4.31    4.22    20.32589    89.96418   147.61783
   960  C   4.0    0.16    3.47    3.10    18.76687    87.97808   149.02946
   961  O   6.0   -0.24    1.34    1.80    19.53599    87.07290   151.04580
   962  C   4.0   -0.04    4.30    4.20    21.59201    88.52421   145.43520
   963  C   4.0    0.25    3.16    3.03    23.88047    86.99920   146.25156
   964  O   6.0   -0.27    1.22    1.80    23.96928    86.08836   148.43230
   965  O   6.0   -0.32    1.29    1.80    25.62657    86.71763   144.68309
   966  H   1.0    0.12    1.04    1.43    23.96361    90.49142   149.15607
   967  H   1.0    0.05    1.05    1.44    19.14481    91.48352   146.88084
   968  H   1.0    0.04    1.05    1.44    20.22385    87.22030   144.61506
   969  H   1.0    0.05    1.03    1.43    22.21184    89.88104   144.01412
   970  N   5.0   -0.15    3.39    2.02    16.58612    87.30534   147.97877
   971  C   4.0    0.01    4.25    4.11    14.75876    85.67640   149.27701
   972  C   4.0    0.15    3.35    3.06    15.80189    83.09881   149.99700
   973  O   6.0   -0.33    1.32    1.80    14.61325    81.64939   151.37839
   974  H   1.0    0.07    1.09    1.44    16.01732    87.85525   146.22132
   975  H   1.0    0.06    1.03    1.43    14.13515    86.61370   151.00044
   976  H   1.0    0.04    1.03    1.43    13.13360    85.38349   148.04680
   977  N   5.0   -0.12    3.52    2.09    18.05255    82.53000   149.06536
   978  C   4.0    0.04    4.47    4.49    19.30544    80.17918   149.71543
   979  C   4.0    0.16    3.43    3.09    20.09724    80.05446   152.47632
   980  O   6.0   -0.30    1.27    1.80    21.75264    81.47364   153.26433
   981  C   4.0   -0.03    4.37    4.33    21.69783    79.86360   148.11672
   982  C   4.0   -0.02    3.54    3.14    21.24997    78.72220   145.56559
   983  C   4.0   -0.04    3.49    3.11    19.21095    77.10460   145.15363
   984  C   4.0   -0.04    3.46    3.10    22.88836    79.24755   143.57382
   985  C   4.0   -0.04    3.36    3.07    18.80466    76.05013   142.78958
   986  C   4.0   -0.04    3.37    3.07    22.50475    78.19497   141.21544
   987  C   4.0   -0.04    3.37    3.07    20.46573    76.58681   140.81860
   988  H   1.0    0.09    1.09    1.44    19.05222    83.65439   147.85972
   989  H   1.0    0.05    1.08    1.44    17.92783    78.69008   149.35827
   990  H   1.0    0.07    1.04    1.43    22.54821    81.71742   147.82948
   991  H   1.0    0.05    1.04    1.43    23.00741    78.63717   149.12772
   992  H   1.0    0.05    1.04    1.43    17.93728    76.66996   146.68809
   993  H   1.0    0.06    1.03    1.43    24.47762    80.49288   143.87617
   994  H   1.0    0.04    1.03    1.43    17.20784    74.81803   142.47778
   995  H   1.0    0.05    1.03    1.43    23.78598    78.62016   139.68476
   996  H   1.0    0.05    1.03    1.43    20.16905    75.75155   138.97989
   997  N   5.0   -0.14    3.44    2.04    18.96151    78.35182   153.92952
   998  C   4.0    0.03    4.47    4.50    20.15393    77.52223   156.31624
   999  C   4.0    0.14    3.40    3.08    22.26286    75.52857   155.85515
  1000  O   6.0   -0.31    1.22    1.80    21.76586    73.40640   154.92351
  1001  C   4.0   -0.02    4.27    4.14    18.18483    76.59815   158.24565
  1002  C   4.0   -0.07    4.19    3.98    15.97385    75.39629   156.88883
[...]
1170   8 O     -0.491  1.761  4.730  0.000    23.584     6.511
1171   6 C     -0.084  1.060  3.024  0.000    22.074     6.684
1172   6 C     -0.078  1.049  3.029  0.000    21.964     6.668
1173   6 C     -0.062  1.068  2.994  0.000    21.744     6.647
1174   1 H      0.061  0.939  0.000  0.000     2.190     2.314
1175   1 H      0.061  0.939  0.000  0.000     2.183     2.311
1176   1 H      0.056  0.944  0.000  0.000     2.248     2.345
1177   1 H      0.071  0.929  0.000  0.000     2.079     2.255
1178   1 H      0.060  0.940  0.000  0.000     2.204     2.322
1179   1 H      0.163  0.837  0.000  0.000     1.304     1.785
1180   1 H      0.047  0.953  0.000  0.000     2.362     2.403
1181   7 N     -0.167  1.236  3.931  0.000    24.616     7.369
1182   6 C     -0.002  1.069  2.933  0.000    20.634     6.471
1183   6 C      0.198  1.085  2.717  0.000    23.778     7.986
1184   8 O     -0.366  1.774  4.592  0.000    21.017     6.146
1185   6 C      0.060  1.040  2.899  0.000    19.794     6.376
1186   8 O     -0.459  1.711  4.748  0.000    22.030     6.336
1187   1 H      0.229  0.771  0.000  0.000     0.968     1.541
1188   1 H      0.119  0.881  0.000  0.000     1.618     1.989
1189   1 H      0.065  0.935  0.000  0.000     2.138     2.287
1190   1 H      0.081  0.919  0.000  0.000     1.964     2.192
1191   1 H      0.316  0.684  0.000  0.000     0.675     1.290
1192   7 N     -0.404  1.328  4.076  0.000    30.478     8.199
1193   6 C      0.017  1.062  2.920  0.000    20.297     6.417
1194   6 C      0.261  1.051  2.688  0.000    22.597     7.784
1195   8 O     -0.495  1.751  4.745  0.000    23.680     6.524
1196   6 C     -0.079  1.057  3.022  0.000    21.998     6.675
1197   6 C     -0.103  1.056  3.047  0.000    22.455     6.746
1198   6 C     -0.030  1.062  2.968  0.000    21.184     6.566
1199   7 N     -0.149  1.214  3.935  0.000    24.219     7.309
1200   6 C      0.233  1.018  2.749  0.000    23.114     7.871
1201   7 N     -0.261  1.238  4.023  0.000    26.764     7.683
1202   7 N     -0.258  1.240  4.018  0.000    26.701     7.674
1203   1 H      0.161  0.839  0.000  0.000     1.331     1.807
1204   1 H      0.063  0.937  0.000  0.000     2.170     2.304
1205   1 H      0.054  0.946  0.000  0.000     2.270     2.356
1206   1 H      0.055  0.945  0.000  0.000     2.261     2.351
1207   1 H      0.073  0.927  0.000  0.000     2.057     2.243
1208   1 H      0.084  0.916  0.000  0.000     1.943     2.180
1209   1 H      0.081  0.919  0.000  0.000     1.964     2.192
1210   1 H      0.100  0.900  0.000  0.000     1.786     2.090
1211   1 H      0.240  0.760  0.000  0.000     0.924     1.505
1212   1 H      0.252  0.748  0.000  0.000     0.877     1.467
1213   1 H      0.243  0.757  0.000  0.000     0.913     1.497
1214   1 H      0.254  0.746  0.000  0.000     0.869     1.460
1215   1 H      0.250  0.750  0.000  0.000     0.884     1.473
1216   7 N     -0.177  1.250  3.927  0.000    24.836     7.402
1217   6 C      0.018  1.048  2.934  0.000    20.271     6.411
1218   6 C      0.303  1.032  2.665  0.000    21.869     7.669
1219   8 O     -0.472  1.714  4.758  0.000    23.167     6.453
1220   6 C     -0.062  1.055  3.007  0.000    21.609     6.605
1221   6 C     -0.102  1.063  3.039  0.000    22.431     6.741
1222   6 C      0.352  1.028  2.620  0.000    21.028     7.504
1223   8 O     -0.610  1.770  4.840  0.000    26.366     6.884
1224   8 O     -0.617  1.780  4.837  0.000    26.542     6.907
1225   1 H      0.218  0.782  0.000  0.000     1.021     1.583
1226   1 H      0.055  0.945  0.000  0.000     2.262     2.352
1227   1 H      0.057  0.943  0.000  0.000     2.232     2.336
1228   1 H      0.059  0.941  0.000  0.000     2.210     2.325
1229   1 H      0.037  0.963  0.000  0.000     2.495     2.470
1230   1 H      0.057  0.943  0.000  0.000     2.238     2.340
1231   7 N     -0.187  1.233  3.954  0.000    25.062     7.435
1232   6 C      0.011  1.067  2.923  0.000    20.411     6.435
1233   6 C      0.276  1.040  2.684  0.000    22.333     7.739
1234   8 O     -0.472  1.724  4.749  0.000    23.181     6.455
1235   6 C      0.089  1.061  2.849  0.000    19.208     6.260
1236   8 O     -0.484  1.732  4.752  0.000    22.563     6.412
1237   6 C     -0.136  1.052  3.084  0.000    23.195     6.870
1238   1 H      0.181  0.819  0.000  0.000     1.206     1.721
1239   1 H      0.089  0.911  0.000  0.000     1.888     2.149
1240   1 H      0.083  0.917  0.000  0.000     1.944     2.181
1241   1 H      0.327  0.673  0.000  0.000     0.646     1.263
1242   1 H      0.073  0.927  0.000  0.000     2.055     2.242
1243   1 H      0.059  0.941  0.000  0.000     2.215     2.328
1244   1 H      0.044  0.956  0.000  0.000     2.394     2.420
1245   7 N     -0.159  1.240  3.920  0.000    24.444     7.343
1246   6 C      0.012  1.071  2.917  0.000    20.383     6.429
1247   6 C      0.275  1.037  2.688  0.000    22.354     7.743
1248   8 O     -0.502  1.741  4.762  0.000    23.833     6.545
1249   6 C     -0.076  1.059  3.016  0.000    21.949     6.671
1250   6 C      0.013  1.088  2.899  0.000    27.728     8.637
1251   6 C     -0.044  1.084  2.960  0.000    29.097     8.846
1252   6 C     -0.033  1.082  2.951  0.000    28.821     8.804
1253   6 C     -0.031  1.084  2.947  0.000    28.782     8.797
1254   6 C     -0.031  1.081  2.950  0.000    28.770     8.795
1255   6 C     -0.034  1.082  2.952  0.000    28.845     8.807
1256   1 H      0.202  0.798  0.000  0.000     1.094     1.639
1257   1 H      0.092  0.908  0.000  0.000     1.856     2.130
1258   1 H      0.085  0.915  0.000  0.000     1.933     2.174
1259   1 H      0.039  0.961  0.000  0.000     2.461     2.453
1260   1 H      0.072  0.928  0.000  0.000     2.062     2.246
1261   1 H      0.010  0.990  0.000  0.000     2.894     2.660
1262   1 H      0.063  0.937  0.000  0.000     2.163     2.300
1263   1 H      0.013  0.987  0.000  0.000     2.842     2.636
1264   1 H      0.031  0.969  0.000  0.000     2.577     2.510
1265   7 N     -0.170  1.245  3.925  0.000    24.673     7.377
1266   6 C      0.013  1.055  2.932  0.000    20.345     6.420
1267   6 C      0.248  1.055  2.697  0.000    22.831     7.825
1268   8 O     -0.498  1.747  4.751  0.000    23.732     6.531
1269   6 C     -0.076  1.057  3.019  0.000    21.933     6.665
1270   6 C     -0.007  1.051  2.956  0.000    20.669     6.466
1271   6 C     -0.111  1.044  3.067  0.000    22.674     6.789
1272   6 C     -0.115  1.045  3.070  0.000    22.740     6.797
1273   1 H      0.219  0.781  0.000  0.000     1.014     1.577
1274   1 H      0.085  0.915  0.000  0.000     1.932     2.173
1275   1 H      0.052  0.948  0.000  0.000     2.293     2.368
1276   1 H      0.044  0.956  0.000  0.000     2.397     2.421
1277   1 H      0.026  0.974  0.000  0.000     2.644     2.543
1278   1 H      0.026  0.974  0.000  0.000     2.642     2.542
1279   1 H      0.047  0.953  0.000  0.000     2.352     2.398
1280   1 H      0.034  0.966  0.000  0.000     2.531     2.488
1281   1 H      0.034  0.966  0.000  0.000     2.528     2.486
1282   1 H      0.043  0.957  0.000  0.000     2.415     2.430
1283   1 H      0.045  0.955  0.000  0.000     2.389     2.417
1284   7 N     -0.089  1.241  3.848  0.000    22.970     7.118
1285   6 C      0.006  1.064  2.929  0.000    20.469     6.440
1286   6 C      0.276  1.034  2.690  0.000    22.350     7.749
1287   8 O     -0.481  1.745  4.735  0.000    23.356     6.480
1288   6 C     -0.062  1.054  3.008  0.000    21.617     6.607
1289   6 C     -0.070  1.044  3.026  0.000    21.799     6.642
1290   6 C     -0.021  1.056  2.964  0.000    20.979     6.528
1291   1 H      0.075  0.925  0.000  0.000     2.027     2.227
1292   1 H      0.060  0.940  0.000  0.000     2.203     2.321
1293   1 H      0.064  0.936  0.000  0.000     2.154     2.295
1294   1 H      0.064  0.936  0.000  0.000     2.153     2.295
1295   1 H      0.066  0.934  0.000  0.000     2.135     2.285
1296   1 H      0.072  0.928  0.000  0.000     2.058     2.244
1297   1 H      0.084  0.916  0.000  0.000     1.943     2.180
1298   7 N     -0.103  1.229  3.873  0.000    23.249     7.161
1299   6 C      0.015  1.069  2.916  0.000    20.302     6.412
1300   6 C      0.205  1.083  2.712  0.000    23.653     7.968
1301   8 O     -0.381  1.766  4.615  0.000    21.312     6.189
1302   6 C     -0.084  1.059  3.024  0.000    22.049     6.678
1303   6 C     -0.083  1.052  3.030  0.000    22.054     6.681
1304   6 C     -0.021  1.055  2.966  0.000    20.995     6.533
1305   1 H      0.090  0.910  0.000  0.000     1.879     2.144
1306   1 H      0.077  0.923  0.000  0.000     2.015     2.220
1307   1 H      0.096  0.904  0.000  0.000     1.818     2.109
1308   1 H      0.087  0.913  0.000  0.000     1.906     2.159
1309   1 H      0.070  0.930  0.000  0.000     2.085     2.258
1310   1 H      0.083  0.917  0.000  0.000     1.945     2.181
1311   1 H      0.078  0.922  0.000  0.000     2.003     2.213
1312   7 N     -0.378  1.329  4.049  0.000    29.767     8.103
1313   6 C      0.029  1.053  2.919  0.000    20.109     6.387
1314   6 C      0.275  1.045  2.681  0.000    22.358     7.745
1315   8 O     -0.476  1.749  4.727  0.000    23.248     6.465
1316   6 C     -0.071  1.056  3.015  0.000    21.828     6.646
1317   6 C     -0.010  1.062  2.948  0.000    20.755     6.487
1318  16 S     -0.194  1.907  4.240  0.047   149.294    20.565
1319   6 C     -0.056  1.052  3.004  0.000    21.650     6.637
1320   1 H      0.157  0.843  0.000  0.000     1.356     1.824
1321   1 H      0.057  0.943  0.000  0.000     2.236     2.338
1322   1 H      0.035  0.965  0.000  0.000     2.518     2.481
1323   1 H      0.058  0.942  0.000  0.000     2.226     2.333
1324   1 H      0.037  0.963  0.000  0.000     2.487     2.466
1325   1 H      0.041  0.959  0.000  0.000     2.438     2.442
1326   1 H      0.069  0.931  0.000  0.000     2.100     2.266
1327   1 H      0.046  0.954  0.000  0.000     2.368     2.407
1328   1 H      0.049  0.951  0.000  0.000     2.337     2.391
1329   7 N     -0.185  1.243  3.942  0.000    25.002     7.426
1330   6 C      0.001  1.062  2.936  0.000    20.542     6.450
1331   6 C      0.267  1.039  2.694  0.000    22.492     7.767
1332   8 O     -0.433  1.718  4.715  0.000    22.318     6.336
1333   6 C     -0.016  1.059  2.958  0.000    20.816     6.487
1334   6 C     -0.177  1.056  3.121  0.000    23.997     6.981
1335   6 C     -0.125  1.046  3.079  0.000    22.951     6.830
1336   1 H      0.203  0.797  0.000  0.000     1.091     1.636
1337   1 H      0.073  0.927  0.000  0.000     2.050     2.239
1338   1 H      0.036  0.964  0.000  0.000     2.509     2.477
1339   1 H      0.042  0.958  0.000  0.000     2.417     2.431
1340   1 H      0.035  0.965  0.000  0.000     2.520     2.482
1341   1 H      0.158  0.842  0.000  0.000     1.333     1.804
1342   1 H      0.057  0.943  0.000  0.000     2.231     2.336
1343   1 H      0.062  0.938  0.000  0.000     2.179     2.309
1344   1 H      0.025  0.975  0.000  0.000     2.653     2.547
1345   7 N     -0.175  1.255  3.920  0.000    24.786     7.394
1346   6 C      0.004  1.085  2.911  0.000    20.545     6.459
1347   6 C      0.273  1.050  2.678  0.000    22.388     7.747
1348   8 O     -0.450  1.765  4.685  0.000    22.709     6.389
1349   6 C     -0.087  1.059  3.027  0.000    22.166     6.706
1350   6 C     -0.014  1.067  2.947  0.000    20.802     6.488
1351   6 C     -0.124  1.044  3.080  0.000    22.936     6.830
1352   6 C     -0.132  1.048  3.084  0.000    23.093     6.853
1353   1 H      0.206  0.794  0.000  0.000     1.075     1.624
1354   1 H      0.073  0.927  0.000  0.000     2.052     2.240
1355   1 H      0.072  0.928  0.000  0.000     2.061     2.245
1356   1 H      0.046  0.954  0.000  0.000     2.364     2.405
1357   1 H      0.040  0.960  0.000  0.000     2.450     2.448
1358   1 H      0.046  0.954  0.000  0.000     2.365     2.405
1359   1 H      0.030  0.970  0.000  0.000     2.591     2.517
1360   1 H      0.051  0.949  0.000  0.000     2.307     2.375
1361   1 H      0.055  0.945  0.000  0.000     2.255     2.348
1362   1 H      0.066  0.934  0.000  0.000     2.128     2.281
1363   1 H      0.045  0.955  0.000  0.000     2.388     2.416
1364   7 N     -0.191  1.248  3.943  0.000    25.145     7.447
1365   6 C     -0.030  1.049  2.981  0.000    21.121     6.546
1366   6 C      0.276  1.050  2.674  0.000    22.329     7.737
1367   8 O     -0.473  1.757  4.716  0.000    23.195     6.457
1368   6 C     -0.064  1.056  3.008  0.000    21.727     6.636
1369   6 C     -0.111  1.055  3.056  0.000    22.621     6.771
1370   6 C     -0.031  1.060  2.970  0.000    21.204     6.571
1371   7 N     -0.138  1.207  3.930  0.000    23.985     7.274
1372   6 C      0.248  1.017  2.735  0.000    22.829     7.823
1373   7 N     -0.263  1.241  4.022  0.000    26.814     7.691
1374   7 N     -0.244  1.233  4.011  0.000    26.364     7.626
1375   1 H      0.197  0.803  0.000  0.000     1.122     1.659
1376   1 H      0.158  0.842  0.000  0.000     1.340     1.810
1377   1 H      0.050  0.950  0.000  0.000     2.314     2.379
1378   1 H      0.053  0.947  0.000  0.000     2.280     2.362
1379   1 H      0.059  0.941  0.000  0.000     2.215     2.327
1380   1 H      0.098  0.902  0.000  0.000     1.805     2.101
1381   1 H      0.088  0.912  0.000  0.000     1.895     2.153
1382   1 H      0.088  0.912  0.000  0.000     1.894     2.152
1383   1 H      0.201  0.799  0.000  0.000     1.099     1.643
1384   1 H      0.259  0.741  0.000  0.000     0.851     1.445
1385   1 H      0.226  0.774  0.000  0.000     0.981     1.552
1386   1 H      0.224  0.776  0.000  0.000     0.990     1.559
1387   1 H      0.239  0.761  0.000  0.000     0.927     1.508
1388   7 N     -0.196  1.246  3.950  0.000    25.246     7.462
1389   6 C      0.034  1.057  2.909  0.000    20.020     6.373
1390   6 C      0.204  1.090  2.706  0.000    23.667     7.968
1391   8 O     -0.379  1.762  4.616  0.000    21.264     6.182
1392   6 C     -0.126  1.047  3.080  0.000    22.956     6.828
1393   1 H      0.197  0.803  0.000  0.000     1.119     1.657
1394   1 H      0.094  0.906  0.000  0.000     1.836     2.119
1395   1 H      0.079  0.921  0.000  0.000     1.989     2.206
1396   1 H      0.075  0.925  0.000  0.000     2.030     2.228
1397   1 H      0.061  0.939  0.000  0.000     2.184     2.311
1398   7 N     -0.394  1.335  4.059  0.000    30.208     8.163
1399   6 C      0.044  1.056  2.901  0.000    19.865     6.350
1400   6 C      0.193  1.094  2.713  0.000    23.880     8.003
1401   8 O     -0.378  1.776  4.601  0.000    21.239     6.179
1402   6 C     -0.057  1.058  2.999  0.000    21.604     6.618
1403   6 C     -0.114  1.073  3.040  0.000    22.676     6.781
1404   6 C      0.361  1.025  2.614  0.000    20.876     7.477
1405   8 O     -0.627  1.766  4.861  0.000    26.787     6.939
1406   8 O     -0.633  1.770  4.863  0.000    26.937     6.958
1407   1 H      0.143  0.857  0.000  0.000     1.449     1.886
1408   1 H      0.045  0.955  0.000  0.000     2.384     2.415
1409   1 H      0.037  0.963  0.000  0.000     2.487     2.466
1410   1 H      0.040  0.960  0.000  0.000     2.447     2.446
1411   1 H      0.081  0.919  0.000  0.000     1.967     2.193
1412   1 H      0.046  0.954  0.000  0.000     2.375     2.410
1413   7 N     -0.425  1.334  4.091  0.000    31.081     8.280
1414   6 C      0.042  1.055  2.904  0.000    19.897     6.355
1415   6 C      0.212  1.093  2.696  0.000    23.517     7.942
1416   8 O     -0.386  1.758  4.628  0.000    21.403     6.203
1417   6 C      0.087  1.040  2.872  0.000    19.351     6.303
1418   8 O     -0.481  1.727  4.754  0.000    22.486     6.401
1419   1 H      0.207  0.793  0.000  0.000     1.072     1.622
1420   1 H      0.048  0.952  0.000  0.000     2.342     2.393
1421   1 H      0.015  0.985  0.000  0.000     2.811     2.622
1422   1 H      0.057  0.943  0.000  0.000     2.233     2.337
1423   1 H      0.329  0.671  0.000  0.000     0.640     1.257
1424   1 H      0.170  0.830  0.000  0.000     1.270     1.765
1425   1 H      0.082  0.918  0.000  0.000     1.963     2.191
1426   1 H      0.191  0.809  0.000  0.000     1.154     1.682
1427   1 H      0.065  0.935  0.000  0.000     2.143     2.289
1428   1 H      0.183  0.817  0.000  0.000     1.195     1.713
1429   1 H      0.065  0.935  0.000  0.000     2.139     2.287
1430   1 H      0.170  0.830  0.000  0.000     1.275     1.768
1431   1 H      0.091  0.909  0.000  0.000     1.865     2.135
1432   1 H      0.203  0.797  0.000  0.000     1.088     1.634
1433   1 H      0.097  0.903  0.000  0.000     1.811     2.104
1434   1 H      0.168  0.832  0.000  0.000     1.284     1.775
1435   1 H      0.062  0.938  0.000  0.000     2.175     2.306
1436   1 H      0.155  0.845  0.000  0.000     1.364     1.829
1437   1 H      0.050  0.950  0.000  0.000     2.316     2.380
1438   1 H      0.182  0.818  0.000  0.000     1.200     1.716
1439   1 H      0.059  0.941  0.000  0.000     2.210     2.325
1440   1 H      0.194  0.806  0.000  0.000     1.135     1.669
1441   1 H      0.065  0.935  0.000  0.000     2.136     2.285
1442   1 H      0.188  0.812  0.000  0.000     1.168     1.693
1443   1 H      0.062  0.938  0.000  0.000     2.178     2.308
1444   1 H      0.189  0.811  0.000  0.000     1.163     1.690
1445   1 H      0.041  0.959  0.000  0.000     2.439     2.442
1446   1 H      0.176  0.824  0.000  0.000     1.238     1.742
1447   1 H      0.086  0.914  0.000  0.000     1.914     2.163
1448   1 H      0.173  0.827  0.000  0.000     1.257     1.756
1449   1 H      0.069  0.931  0.000  0.000     2.101     2.266
1450   1 H      0.085  0.915  0.000  0.000     1.923     2.168
1451   1 H      0.187  0.813  0.000  0.000     1.176     1.698
1452   1 H      0.071  0.929  0.000  0.000     2.078     2.254
1453   1 H      0.172  0.828  0.000  0.000     1.261     1.759
1454   1 H      0.081  0.919  0.000  0.000     1.969     2.194
1455   1 H      0.211  0.789  0.000  0.000     1.053     1.607
1456   1 H      0.068  0.932  0.000  0.000     2.108     2.270

 Mol. C6AA /au·bohr⁶  :   19525515.044599
 Mol. C8AA /au·bohr⁸  :  440002774.701490
 Mol. α(0) /au        :       6635.631974

 
molecular dipole:
                 x           y           z       tot (Debye)
 q only:       32.316     153.266     521.101
   full:       30.251     157.549     528.721    1404.405
molecular quadrupole (traceless):
                xx          xy          yy          xz          yz          zz
 q only:   -34227.086     740.228  -29890.218    4546.797   28192.354   64117.304
  q+dip:   -35718.503     885.921  -30474.299    4182.588   29763.329   66192.802
   full:   -35716.397     873.831  -30469.322    4184.812   29759.006   66185.719
speedup  1.68
cpu  time for grad   11 m 44.4 s
wall time for grad    6 m 58.9 s

SCC energy    :   -2219.9936643
rep           :      27.0613369
ES            :       7.3335312
AES           :      -0.3461487
AXC           :       0.7889895
disp          :      -2.0873928
XB            :       0.0000000
fix           :       0.0000000
Gborn         :       0.0000000
Gsasa         :       0.0000000
Ghb           :       0.0000000
Gshift        :       0.0000000
Gsolv         :      -2.3196901    -1455.63
Etot ala COSMO:   -2219.9936643
grad norm     :       1.1006711
total E       :   -2192.6640639
atomizationE  :     405.0549193   254175.80
(atE without considering molecular charge,
 total energy contains solvation terms)
H-L gap (eV)  :          0.5462

------------------------------------------------------------------------
 * finished run on 2019/05/06 at 00:16:45.081     
------------------------------------------------------------------------
 total:
 * wall-time:     0 d,  0 h,  7 min,  8.149 sec
 *  cpu-time:     0 d,  0 h, 11 min, 53.416 sec
 * ratio c/w:     1.666 speedup
 SCF:
 * wall-time:     0 d,  0 h,  7 min,  3.158 sec
 *  cpu-time:     0 d,  0 h, 11 min, 49.334 sec
 * ratio c/w:     1.676 speedup

