      -----------------------------------------------------------      
     |                   =====================                   |     
     |                           x T B                           |     
     |                   =====================                   |     
     |                         S. Grimme                         |     
     |          Mulliken Center for Theoretical Chemistry        |     
     |                    University of Bonn                     |     
     |                 Version 6.0.1 (SAW181210)                 |     
      -----------------------------------------------------------      

   This program is distributed in the hope that it will be useful,
   but WITHOUT ANY WARRANTY; without even the implied warranty of
   MERCHANTABILITY or FITNESS FOR A PARTICULAR PURPOSE.
   
   FOR NON-COMMERCIAL, ACADEMIA USE ONLY.
   
   Cite this work as:
   S. Grimme, C. Bannwarth, P. Shushkov, J. Comput. Theory Chem., 2017,
   13, 1989-2009.
   C. Bannwarth, S. Ehlert and S. Grimme., ChemRxiv, 2018, preprint.
   http://doi.org/10.26434/chemrxiv.7246238.v1
   
   for sTDA-xTB:
   S. Grimme and C. Bannwarth, J. Chem. Phys., 2016, 145, 054103.
   
   in the mass-spec context:
   V. Asgeirsson, C. Bauer and S. Grimme, Chem. Sci., 2017, 8, 4879.
   
   if GBSA is used:
   P. Shushkov, F. März and S. Grimme, unpublished.
   
   for ANC optimizer:
   S. Grimme, unpublished.
   Rational Function algorithm used in ANCopt:
   F. Eckert, P. Pulay, H.-J. Werner, J. Comput. Chem., 1997, 18, 1473.
   
   with help from (in alphabetical order)
   C. Bannwarth, F. Bohle, G. Brandenburg, E. Caldeweyher, M. Checinski,
   S. Dohm, S. Ehlert, S. Ehrlich, F. März, H. Neugebauer, J. Pisarek,
   P. Pracht, P. Shushkov, and S. Spicher.
   
 * started run on 2019/05/12 at 13:11:41.577     
========================================================================
 # omp threads = 2
========================================================================
number of atoms            : 513
number of electrons        : 1378
charge                     : 1
spin                       : .0
first test random number   : .1098

########################################################################
# WARNING! Please study the warnings concerning your input carefully
#  - Process number higher than OMP_NUM_THREADS, I hope you know what you are doing.
########################################################################

           ------------------------------------------------- 
          |                 G F N 2 - x T B                 |
          | Geometry, Frequencies, Noncovalent interactions |
          |            JCTC 2018 parametrisation            |
           ------------------------------------------------- 
 
      method parameters     
 k(s)        :  1.8500
 k(p)        :  2.2300
 k(d)        :  2.2300
 k(f)        :  2.0000
 kEN (H0ij)  : -2.0000
 D4 a1       :  0.5200
 D4 a2       :  5.0000
 D4 s6       :  1.0000
 D4 s8       :  2.7000
 D4 s9       :  5.0000
 alphaj      :  2.0000

 Solvent             : h2o
 Using internal parameter file: .param_gbsa2_h2o
 Gsolv ref. state (COSMO-RS): gsolv [1 M gas/solution]
 temperature (mdtemp)       :    298.150000000000     
 dielectric constant        :    80.2000000000000     
 rho                        :    1.00000000000000     
 mass                       :    18.0000000000000     
 surface tension            :    15.5689454083859     
 probe radius               :   0.975313790000000     
 vdW radii scaling          :    1.00000000000000     
 Gshift (Eh)                :   1.857443126794793E-003
 c1                         :    1.55243817000000     
 soset                      :   0.130326360000000     
 HB correction              :  T

            Z     q(EN)     CN     RAES       Cart. coordinates
     1  N   5.0   -0.22    3.28    1.98   111.61840   125.02207   422.30806
     2  C   4.0    0.03    4.41    4.39   112.07751   122.40758   421.68888
     3  C   4.0    0.14    3.44    3.09   114.90841   122.06866   421.29917
     4  O   6.0   -0.32    1.25    1.80   115.98727   120.20653   422.19965
     5  C   4.0   -0.04    4.41    4.40   110.43213   121.48817   419.54590
     6  C   4.0   -0.04    4.35    4.29   110.12366   118.76915   419.30987
     7  C   4.0    0.16    3.25    3.04   108.34858   117.53000   421.16161
     8  O   6.0   -0.28    1.22    1.80   106.48392   118.66654   421.79449
     9  N   5.0   -0.23    3.16    1.95   108.91643   115.07960   422.06425
    10  H   1.0    0.10    1.07    1.44   110.59373   125.81826   421.12009
    11  H   1.0    0.05    1.13    1.45   111.63063   121.30757   423.15996
    12  H   1.0    0.06    1.10    1.44   108.73330   122.24177   419.74666
    13  H   1.0    0.04    1.09    1.44   111.19234   122.16082   417.93561
    14  H   1.0    0.05    1.11    1.45   109.50756   118.31788   417.56483
    15  H   1.0    0.05    1.09    1.44   111.83555   117.91337   419.50006
    16  H   1.0    0.10    1.06    1.44   110.32127   114.32073   421.47260
    17  H   1.0    0.12    1.06    1.44   107.93300   114.34603   423.14911
    18  N   5.0   -0.16    3.50    2.08   116.22691   123.89589   420.17401
    19  C   4.0    0.03    4.43    4.43   118.93734   123.69903   419.77432
    20  C   4.0    0.15    3.48    3.11   120.39728   123.93351   422.28269
    21  O   6.0   -0.31    1.28    1.80   122.20745   122.56313   422.78922
    22  C   4.0   -0.09    4.21    4.03   119.88147   125.61720   417.88653
    23  H   1.0    0.09    1.12    1.45   115.53318   125.35937   419.60163
    24  H   1.0    0.05    1.12    1.45   119.26821   121.97036   419.09703
    25  H   1.0    0.05    1.05    1.44   121.71365   125.47267   417.70430
    26  H   1.0    0.05    1.05    1.44   119.03698   125.33068   416.24415
    27  H   1.0    0.04    1.05    1.44   119.43466   127.33501   418.51147
    28  N   5.0   -0.16    3.53    2.10   119.70777   125.71955   423.79246
    29  C   4.0    0.03    4.46    4.48   120.72448   125.99604   426.31012
    30  C   4.0    0.16    3.48    3.11   120.62173   123.43405   427.81524
    31  O   6.0   -0.30    1.24    1.80   122.31780   122.81785   429.33988
    32  C   4.0   -0.06    4.40    4.38   119.42889   128.05367   427.81107
    33  C   4.0   -0.05    4.28    4.15   120.41545   128.73643   430.33161
    34  C   4.0   -0.05    4.31    4.22   118.44225   130.19788   431.96259
    35  C   4.0   -0.03    4.31    4.21   117.70335   132.68047   430.80002
    36  N   5.0   -0.15    4.18    3.39   115.94008   133.90394   432.40951
    37  H   1.0    0.08    1.12    1.45   118.50066   126.93149   423.43345
    38  H   1.0    0.05    1.12    1.45   122.55049   126.43891   426.17083
    39  H   1.0    0.04    1.09    1.44   119.40879   129.62043   426.75778
    40  H   1.0    0.04    1.09    1.44   117.60391   127.52404   428.04893
    41  H   1.0    0.06    1.08    1.44   120.90647   127.18119   431.27336
    42  H   1.0    0.05    1.08    1.44   121.92874   129.83448   430.16070
    43  H   1.0    0.04    1.09    1.44   116.92828   129.13016   432.14713
    44  H   1.0    0.05    1.08    1.44   119.18041   130.52712   433.66255
    45  H   1.0    0.06    1.08    1.44   119.22357   133.74841   430.55172
    46  H   1.0    0.04    1.09    1.44   116.88757   132.37634   429.13930
    47  H   1.0    0.07    1.08    1.44   115.45766   135.48065   431.76168
    48  H   1.0    0.07    1.09    1.44   114.53379   132.99265   432.70118
    49  H   1.0    0.07    1.08    1.44   116.68715   134.27311   433.99462
    50  N   5.0   -0.15    3.57    2.13   118.62983   121.98941   427.46018
    51  C   4.0    0.04    4.59    4.66   118.36870   119.63772   428.70779
    52  C   4.0    0.17    3.58    3.16   120.30831   117.80902   427.77253
    53  O   6.0   -0.30    1.32    1.80   121.62291   116.60171   429.16105
    54  C   4.0   -0.04    4.53    4.58   115.74453   118.62133   428.45620
    55  C   4.0   -0.01    3.72    3.26   115.42417   115.90473   428.87168
    56  C   4.0   -0.03    3.70    3.24   115.08859   114.89737   431.04276
    57  C   4.0   -0.03    3.71    3.25   115.49457   114.26887   426.93369
    58  C   4.0   -0.04    3.61    3.17   114.71377   112.28106   431.35661
    59  C   4.0   -0.04    3.59    3.16   115.13895   111.71567   427.24082
    60  C   4.0   -0.05    3.49    3.11   114.77851   110.70905   429.54375
    61  H   1.0    0.09    1.12    1.45   117.30406   122.42016   426.41482
    62  H   1.0    0.06    1.13    1.45   118.65885   119.88085   430.58496
    63  H   1.0    0.05    1.10    1.44   114.59765   119.53312   429.58287
    64  H   1.0    0.06    1.10    1.44   115.20827   118.98666   426.64019
    65  H   1.0    0.05    1.10    1.44   115.16412   115.97322   432.60853
    66  H   1.0    0.06    1.08    1.44   115.74073   114.91287   425.17400
    67  H   1.0    0.04    1.08    1.44   114.44478   111.61733   433.13732
    68  H   1.0    0.05    1.08    1.44   115.13807   110.58901   425.72379
    69  H   1.0    0.05    1.10    1.44   114.58585   108.91462   429.75164
    70  N   5.0   -0.14    3.59    2.15   120.63269   117.62818   425.34367
    71  C   4.0    0.04    4.63    4.70   122.40358   115.79587   424.28669
    72  C   4.0    0.17    3.56    3.14   125.03362   116.45833   425.07090
    73  O   6.0   -0.29    1.30    1.80   126.25699   114.91927   426.30054
    74  C   4.0   -0.04    4.46    4.47   122.21918   115.49247   421.51302
    75  C   4.0   -0.02    3.80    3.33   119.98306   114.10179   420.94821
    76  C   4.0   -0.01    3.65    3.20   117.71135   115.03643   420.06484
    77  C   4.0    0.00    3.91    3.47   119.58949   111.46313   421.38320
    78  N   5.0   -0.15    3.47    2.06   115.93657   113.17426   419.82886
    79  C   4.0    0.03    3.94    3.52   116.98875   110.93850   420.67854
    80  C   4.0   -0.05    3.44    3.09   121.08611   109.49951   422.19576
    81  C   4.0   -0.06    3.45    3.09   115.97745   108.51856   420.79611
    82  C   4.0   -0.04    3.46    3.10   120.01752   107.13998   422.31186
    83  C   4.0   -0.05    3.45    3.09   117.50949   106.66277   421.65021
    84  H   1.0    0.11    1.11    1.45   119.78283   118.56234   424.12877
    85  H   1.0    0.06    1.15    1.45   121.91750   114.12926   425.02238
    86  H   1.0    0.05    1.09    1.44   122.14857   117.19321   420.65339
    87  H   1.0    0.06    1.10    1.44   123.71880   114.57907   420.81933
    88  H   1.0    0.06    1.07    1.44   117.40753   116.79623   419.63204
    89  H   1.0    0.08    1.09    1.44   114.35663   113.35591   419.23697
    90  H   1.0    0.06    1.09    1.44   122.79783   109.79059   422.68630
    91  H   1.0    0.05    1.08    1.44   114.24611   108.19816   420.26866
    92  H   1.0    0.06    1.08    1.44   121.04778   105.72509   422.93847
    93  H   1.0    0.06    1.09    1.44   116.82886   104.95650   421.78060
    94  N   5.0   -0.16    3.52    2.09   125.95194   118.72994   424.61919
    95  C   4.0    0.03    4.52    4.57   128.45347   119.36195   425.45574
    96  C   4.0    0.16    3.40    3.08   128.85069   118.99901   428.44052
    97  O   6.0   -0.29    1.20    1.80   130.99240   118.46902   429.32988
    98  C   4.0   -0.05    4.60    4.67   129.21803   121.96474   424.64938
    99  C   4.0   -0.03    4.37    4.33   129.29261   122.58864   421.98130
   100  C   4.0   -0.09    4.23    4.06   130.98157   125.02048   421.77814
   101  C   4.0   -0.08    4.39    4.36   130.28079   120.42635   420.68594
   102  H   1.0    0.11    1.13    1.45   125.09356   120.00630   423.87633
   103  H   1.0    0.05    1.13    1.45   129.65992   118.14202   424.68192
   104  H   1.0    0.05    1.10    1.44   128.01623   123.17329   425.50911
   105  H   1.0    0.05    1.11    1.44   130.94627   122.32610   425.37566
   106  H   1.0    0.05    1.12    1.45   127.62666   122.96770   421.17816
   107  H   1.0    0.04    1.04    1.43   131.08822   125.51207   419.93372
   108  H   1.0    0.05    1.05    1.44   130.18331   126.40138   422.70776
   109  H   1.0    0.05    1.05    1.44   132.66021   124.64551   422.40024
   110  H   1.0    0.04    1.05    1.44   130.40094   120.78365   418.80266
   111  H   1.0    0.04    1.06    1.44   132.01494   120.04374   421.28515
   112  H   1.0    0.05    1.08    1.44   129.18818   118.94936   420.91933
   113  N   5.0   -0.14    3.41    2.02   126.81181   119.26262   429.91203
   114  C   4.0    0.02    4.35    4.30   126.95257   118.81899   432.58253
   115  C   4.0    0.16    3.38    3.07   127.70003   116.16708   433.26601
   116  O   6.0   -0.29    1.21    1.80   129.41482   115.84165   434.84493
   117  H   1.0    0.12    1.12    1.45   125.25907   119.70834   429.33438
   118  H   1.0    0.06    1.09    1.44   128.21746   120.01774   433.32617
   119  H   1.0    0.05    1.08    1.44   125.29517   119.19373   433.37611
   120  N   5.0   -0.15    3.54    2.11   126.47583   114.22712   432.07511
   121  C   4.0    0.03    4.59    4.65   127.08304   111.58597   432.48970
   122  C   4.0    0.15    3.50    3.11   129.85083   111.02421   431.79941
   123  O   6.0   -0.29    1.19    1.80   131.00276   109.10159   432.76438
   124  C   4.0   -0.04    4.72    4.78   125.53507   109.92359   431.14001
   125  C   4.0   -0.02    4.48    4.51   122.91626   109.93005   431.77306
   126  C   4.0   -0.08    4.28    4.15   121.16475   108.68165   429.97360
   127  C   4.0   -0.08    4.41    4.40   122.81634   108.70093   434.24895
   128  H   1.0    0.12    1.12    1.45   125.20930   114.49692   430.99080
   129  H   1.0    0.06    1.13    1.45   126.89884   111.32982   434.37217
   130  H   1.0    0.06    1.11    1.44   125.63953   110.41604   429.23615
   131  H   1.0    0.05    1.13    1.45   126.16567   108.16591   431.23293
   132  H   1.0    0.05    1.14    1.45   122.16168   111.69730   431.89255
   133  H   1.0    0.04    1.05    1.44   119.40383   108.70530   430.58245
   134  H   1.0    0.05    1.05    1.44   121.25365   109.56786   428.31475
   135  H   1.0    0.05    1.06    1.44   121.72037   106.90809   429.73642
   136  H   1.0    0.04    1.05    1.44   121.00964   108.50692   434.84549
   137  H   1.0    0.04    1.07    1.44   123.55687   106.99301   434.11288
   138  H   1.0    0.05    1.07    1.44   123.73923   109.69818   435.51209
   139  N   5.0   -0.15    3.45    2.05   130.92293   112.60389   430.13059
   140  C   4.0    0.02    4.35    4.29   133.30193   112.05999   428.91263
   141  C   4.0    0.18    3.39    3.08   135.41136   111.59595   430.71078
   142  O   6.0   -0.25    1.20    1.80   137.15767   110.13268   430.08929
   143  H   1.0    0.12    1.12    1.45   130.24668   114.11429   429.62525
   144  H   1.0    0.06    1.09    1.44   133.08718   110.50475   427.86189
   145  H   1.0    0.05    1.08    1.44   133.77243   113.46078   427.75851
   146  N   5.0   -0.14    3.38    2.01   135.30058   112.80065   432.98742
   147  C   4.0    0.01    4.20    4.00   137.51075   113.18294   434.55948
   148  C   4.0    0.25    3.08    3.02   139.81088   114.53021   433.15580
   149  O   6.0   -0.24    1.17    1.80   139.85610   114.96767   430.76136
   150  O   6.0   -0.25    1.16    1.80   141.72683   115.28663   434.35738
   151  H   1.0    0.11    1.12    1.45   133.90800   113.49412   433.59639
   152  H   1.0    0.05    1.08    1.44   137.08973   114.21959   436.00768
   153  H   1.0    0.07    1.08    1.44   138.15063   111.52103   435.10830
   154  N   5.0   -0.22    3.23    1.96   104.29945    98.13384   426.92028
   155  C   4.0    0.03    4.31    4.22   105.90272    96.29219   428.17041
   156  C   4.0    0.08    3.20    3.04   104.82975    95.10827   430.55877
   157  O   6.0   -0.26    1.11    1.80   105.95495    93.42242   431.74525
   158  C   4.0   -0.04    4.48    4.50   108.52669    97.36296   428.73095
   159  C   4.0   -0.02    3.72    3.26   109.72896    98.41827   426.48643
   160  C   4.0   -0.04    3.65    3.20   110.98079    96.93508   424.78736
   161  C   4.0   -0.05    3.66    3.20   109.52182   100.80394   425.89508
   162  C   4.0   -0.03    3.57    3.15   111.97416    97.84357   422.64144
   163  C   4.0   -0.05    3.60    3.17   110.51683   101.77663   423.67054
   164  C   4.0    0.06    3.52    3.12   111.77679   100.33378   422.01890
   165  O   6.0   -0.26    2.11    1.84   112.87036   101.37383   419.82960
   166  H   1.0    0.10    1.07    1.44   104.29681    99.66061   427.72812
   167  H   1.0    0.06    1.12    1.45   106.08290    94.87320   426.89928
   168  H   1.0    0.05    1.10    1.44   108.35868    98.70215   430.01269
   169  H   1.0    0.06    1.09    1.44   109.61802    95.98448   429.41475
   170  H   1.0    0.06    1.09    1.44   111.15855    95.11939   425.16213
   171  H   1.0    0.05    1.10    1.44   108.60364   101.96451   426.99325
   172  H   1.0    0.06    1.09    1.44   112.88700    96.71695   421.46623
   173  H   1.0    0.05    1.08    1.44   110.32671   103.60748   423.29965
   174  H   1.0    0.13    1.08    1.44   112.59318   103.00641   419.83420
   175  N   5.0   -0.21    3.27    1.97   120.20127   118.02453   441.85056
   176  C   4.0    0.03    4.40    4.38   121.00097   116.53727   439.70259
   177  C   4.0    0.16    3.48    3.10   123.66567   115.64386   440.00131
   178  O   6.0   -0.30    1.26    1.80   124.23023   113.61652   439.12536
   179  C   4.0   -0.04    4.40    4.38   120.81711   118.01878   437.19110
   180  C   4.0   -0.02    3.57    3.15   118.30840   119.22198   436.50829
   181  C   4.0   -0.05    3.55    3.14   116.02690   117.96339   436.77639
   182  C   4.0   -0.04    3.58    3.15   118.18617   121.56380   435.49822
   183  C   4.0   -0.04    3.48    3.11   113.71780   119.07051   436.09773
   184  C   4.0   -0.05    3.54    3.13   115.98490   122.72143   434.81266
   185  C   4.0    0.07    3.52    3.13   113.73279   121.49874   435.11077
   186  O   6.0   -0.25    2.17    1.85   111.59821   122.66472   434.42076
   187  H   1.0    0.10    1.07    1.44   120.23084   119.76145   441.49075
   188  H   1.0    0.05    1.12    1.45   119.83227   115.09484   439.58546
   189  H   1.0    0.05    1.09    1.44   122.08829   119.39353   437.26312
   190  H   1.0    0.05    1.09    1.44   121.25609   116.83676   435.81242
   191  H   1.0    0.05    1.08    1.44   116.02528   116.25956   437.48227
   192  H   1.0    0.06    1.09    1.44   119.77934   122.48960   435.19987
   193  H   1.0    0.06    1.08    1.44   112.15792   118.19444   436.33156
   194  H   1.0    0.05    1.08    1.44   116.00802   124.41600   434.07235
   195  H   1.0    0.13    1.10    1.44   111.91881   124.26787   434.02498
   196  N   5.0   -0.13    3.57    2.13   125.30774   117.12958   441.19309
   197  C   4.0    0.05    4.53    4.58   127.93949   116.48806   441.52562
   198  C   4.0    0.15    3.58    3.15   128.11263   114.20191   443.14425
   199  O   6.0   -0.28    1.32    1.80   126.62912   114.01020   444.84741
   200  C   4.0    0.03    4.27    4.13   129.42775   118.65875   442.46952
   201  O   6.0   -0.26    2.07    1.83   129.26527   120.77496   440.75241
   202  H   1.0    0.10    1.12    1.45   124.90177   118.66043   441.86563
   203  H   1.0    0.06    1.13    1.45   128.72349   116.03223   439.81422
   204  H   1.0    0.06    1.07    1.44   128.71519   119.21549   444.13283
   205  H   1.0    0.05    1.07    1.44   131.22276   118.20531   442.70673
   206  H   1.0    0.14    1.06    1.44   130.29261   121.98699   441.25056
   207  N   5.0   -0.10    3.76    2.36   129.77653   112.35898   442.66006
   208  C   4.0    0.04    4.65    4.71   129.68921   110.01733   444.17808
   209  C   4.0    0.09    3.19    3.03   131.03827   110.36783   446.78423
   210  O   6.0   -0.29    1.14    1.80   130.43491   108.99271   448.56160
   211  C   4.0   -0.05    4.53    4.58   130.96889   108.10268   442.63490
   212  C   4.0   -0.03    4.54    4.59   131.20478   109.28996   440.19217
   213  C   4.0   -0.01    4.50    4.54   131.49339   112.05910   440.66657
   214  H   1.0    0.06    1.12    1.45   127.91918   109.47283   444.48071
   215  H   1.0    0.05    1.09    1.44   132.72442   107.73013   443.35091
   216  H   1.0    0.05    1.09    1.44   130.03987   106.50827   442.55962
   217  H   1.0    0.05    1.07    1.44   132.74593   108.60765   439.21919
   218  H   1.0    0.05    1.09    1.44   129.70814   108.90455   439.11263
   219  H   1.0    0.05    1.08    1.44   133.24266   112.53147   441.04641
   220  H   1.0    0.06    1.07    1.44   130.95804   113.06573   439.09353
   221  N   5.0   -0.20    3.27    1.97   126.18491   109.82101   451.96660
   222  C   4.0    0.04    4.41    4.40   124.45324   107.71088   452.10993
   223  C   4.0    0.10    3.25    3.04   124.74504   106.33885   454.56608
   224  O   6.0   -0.26    1.13    1.80   122.85528   105.83656   455.80891
   225  C   4.0   -0.03    4.45    4.47   124.71650   105.94492   449.91936
   226  C   4.0   -0.02    3.78    3.31   124.04594   107.06275   447.55197
   227  C   4.0   -0.00    3.77    3.30   122.97623   109.26357   447.18579
   228  C   4.0    0.02    4.18    3.97   124.50827   106.07411   445.03365
   229  N   5.0   -0.11    3.62    2.18   122.63352   109.70475   444.58361
   230  C   4.0    0.04    4.10    3.81   123.56741   107.86084   443.28375
   231  C   4.0   -0.05    3.61    3.18   125.59197   103.89144   444.09223
   232  C   4.0   -0.06    3.58    3.16   123.51753   107.40825   440.87852
   233  C   4.0   -0.04    3.65    3.20   125.55544   103.50677   441.88645
   234  C   4.0   -0.03    3.71    3.25   124.47875   105.23280   440.22685
   235  H   1.0    0.13    1.09    1.44   127.45442   109.59305   450.78618
   236  H   1.0    0.06    1.14    1.45   122.71512   108.40997   452.04004
   237  H   1.0    0.06    1.09    1.44   126.57742   105.40612   449.82159
   238  H   1.0    0.05    1.10    1.44   123.71188   104.41484   450.18926
   239  H   1.0    0.06    1.07    1.44   122.48178   110.44561   448.50209
   240  H   1.0    0.09    1.09    1.44   121.84933   111.15815   443.97722
   241  H   1.0    0.06    1.11    1.45   126.33640   102.66527   445.28111
   242  H   1.0    0.06    1.10    1.44   122.85941   108.59058   439.64293
   243  H   1.0    0.06    1.18    1.46   126.27068   101.93913   441.18511
   244  H   1.0    0.05    1.08    1.44   124.54851   104.80995   438.33972
   245  N   5.0   -0.22    3.25    1.97   113.67080   102.33811   436.57771
   246  C   4.0    0.03    4.33    4.26   116.08717   103.47480   436.19141
   247  C   4.0    0.07    3.20    3.04   118.17355   101.53596   435.47975
   248  O   6.0   -0.32    1.13    1.80   119.58972   101.89324   433.56910
   249  C   4.0   -0.05    4.57    4.63   116.96929   105.00428   438.36674
   250  C   4.0   -0.03    4.42    4.41   115.09662   106.98411   439.24847
   251  C   4.0   -0.08    4.26    4.13   116.07195   108.10349   441.71052
   252  C   4.0   -0.08    4.38    4.35   114.90414   108.80285   437.34749
   253  H   1.0    0.09    1.08    1.44   112.83914   102.92618   437.97948
   254  H   1.0    0.04    1.13    1.45   115.89467   104.59342   434.67799
   255  H   1.0    0.05    1.09    1.44   117.26203   103.80713   439.84344
   256  H   1.0    0.04    1.10    1.44   118.57594   105.84791   437.98934
   257  H   1.0    0.04    1.14    1.45   113.39612   106.28928   439.60903
   258  H   1.0    0.05    1.05    1.44   114.86058   109.38321   442.33621
   259  H   1.0    0.05    1.05    1.44   116.24565   106.74383   442.99356
   260  H   1.0    0.04    1.05    1.44   117.72880   108.89349   441.41442
   261  H   1.0    0.04    1.06    1.44   113.77674   110.23239   437.89240
   262  H   1.0    0.04    1.07    1.44   116.59022   109.53124   436.93728
   263  H   1.0    0.04    1.07    1.44   114.17654   108.05747   435.78878
   264  N   5.0   -0.20    3.31    1.99   117.07322    98.24406   428.92765
   265  C   4.0    0.03    4.37    4.33   117.54853   100.05904   427.08655
   266  C   4.0    0.15    3.47    3.10   120.31321   100.51749   426.76341
   267  O   6.0   -0.30    1.22    1.80   121.14654   100.72682   424.53670
   268  C   4.0   -0.08    4.25    4.11   116.17560   102.49135   427.71868
   269  H   1.0    0.10    1.07    1.44   116.09253    98.90785   430.30566
   270  H   1.0    0.05    1.13    1.45   116.90366    99.40147   425.45224
   271  H   1.0    0.04    1.04    1.44   116.47661   103.75612   426.32205
   272  H   1.0    0.04    1.05    1.44   114.35491   102.19184   427.86080
   273  H   1.0    0.05    1.05    1.44   116.84759   103.20487   429.30059
   274  N   5.0   -0.16    3.45    2.05   121.76582   100.88821   428.82183
   275  C   4.0    0.04    4.35    4.30   124.52116   100.99759   428.62332
   276  C   4.0    0.08    3.17    3.03   125.66253    98.56238   427.26392
   277  O   6.0   -0.24    1.07    1.80   127.37246    98.73936   425.50993
   278  C   4.0   -0.05    4.40    4.39   125.75966   101.55612   431.02886
   279  C   4.0   -0.05    4.18    3.95   128.55574   102.07774   431.01411
   280  C   4.0   -0.01    4.13    3.86   129.98573   103.25166   433.47876
   281  N   5.0   -0.17    3.29    1.98   130.35450   101.65769   435.85286
   282  C   4.0    0.10    3.41    3.08   128.35336   100.75728   437.26380
   283  N   5.0   -0.22    3.30    1.98   125.91580   100.87098   436.39660
   284  N   5.0   -0.23    3.32    1.99   128.78550    99.73749   439.53074
   285  H   1.0    0.12    1.15    1.45   121.21076   100.97127   430.39334
   286  H   1.0    0.06    1.12    1.45   124.94780   102.39073   427.40367
   287  H   1.0    0.04    1.11    1.45   124.93552   102.94771   431.84619
   288  H   1.0    0.05    1.10    1.44   125.49533    99.95882   432.15880
   289  H   1.0    0.06    1.06    1.44   129.51520   100.37459   430.73209
   290  H   1.0    0.06    1.09    1.44   128.97980   103.17386   429.63747
   291  H   1.0    0.06    1.08    1.44   131.63908   103.71164   432.99248
   292  H   1.0    0.05    1.08    1.44   128.90628   104.68381   433.94361
   293  H   1.0    0.11    1.13    1.45   131.75936   101.26715   436.35023
   294  H   1.0    0.10    1.13    1.45   125.55785   101.58234   434.90005
   295  H   1.0    0.10    1.06    1.44   124.60430   100.39164   437.38491
   296  H   1.0    0.11    1.09    1.44   130.28925    99.61535   440.10258
   297  H   1.0    0.10    1.08    1.44   127.42299    99.21712   440.48147
   298  N   5.0   -0.19    3.25    1.97   123.51764    97.76719   419.42684
   299  C   4.0    0.04    4.28    4.16   124.07045    99.57177   417.45673
   300  C   4.0    0.08    3.23    3.04   126.71086   100.68944   417.75215
   301  O   6.0   -0.24    1.11    1.80   128.01039   100.39154   419.77507
   302  C   4.0   -0.04    4.42    4.41   122.24731   101.77671   417.23172
   303  C   4.0   -0.03    4.35    4.30   119.47394   101.17753   417.18286
   304  C   4.0    0.16    3.31    3.05   118.66803    99.99611   414.80220
   305  O   6.0   -0.26    1.20    1.80   119.88462   100.49783   412.79933
   306  N   5.0   -0.22    3.20    1.96   116.55921    98.51653   414.93888
   307  H   1.0    0.13    1.07    1.44   123.85232    98.33648   421.02673
   308  H   1.0    0.06    1.12    1.45   123.97383    98.52186   415.87612
   309  H   1.0    0.05    1.09    1.44   122.51572   102.86932   418.76944
   310  H   1.0    0.06    1.10    1.44   122.62553   102.74236   415.71960
   311  H   1.0    0.05    1.10    1.44   119.04362   100.01518   418.59226
   312  H   1.0    0.06    1.09    1.44   118.48017   102.76858   417.39592
   313  H   1.0    0.11    1.07    1.44   115.75357    98.28613   416.36146
   314  H   1.0    0.12    1.07    1.44   116.01601    97.72818   413.51014
   315  N   5.0   -0.22    3.29    1.98   129.94759   106.90161   418.90949
   316  C   4.0    0.04    4.47    4.49   129.06490   109.06807   420.25514
   317  C   4.0    0.15    3.44    3.09   129.16666   111.43962   418.47336
   318  O   6.0   -0.31    1.24    1.80   127.28475   112.70510   418.06993
   319  C   4.0    0.06    4.37    4.32   130.67257   109.37934   422.55372
   320  O   6.0   -0.25    2.22    1.86   129.12290   110.58033   424.15332
   321  C   4.0   -0.08    4.20    4.01   133.22976   110.86705   422.11387
   322  H   1.0    0.11    1.08    1.44   131.23684   106.07591   419.67957
   323  H   1.0    0.06    1.14    1.45   127.30234   108.91278   420.71236
   324  H   1.0    0.05    1.11    1.45   131.25719   107.71984   423.17226
   325  H   1.0    0.13    1.06    1.44   130.08993   111.32982   425.48059
   326  H   1.0    0.05    1.04    1.43   134.20110   110.93633   423.68221
   327  H   1.0    0.05    1.04    1.44   134.23242   110.00855   420.79645
   328  H   1.0    0.05    1.05    1.44   132.84282   112.60155   421.54028
   329  N   5.0   -0.15    3.55    2.12   131.32272   111.99209   417.32224
   330  C   4.0    0.04    4.38    4.34   131.73262   114.29661   415.92028
   331  C   4.0    0.10    3.24    3.04   130.40544   114.28263   413.41092
   332  O   6.0   -0.30    1.14    1.80   129.53277   116.21917   412.60657
   333  C   4.0    0.02    4.19    3.97   134.59488   114.83224   415.76452
   334  O   6.0   -0.26    2.06    1.83   136.02201   112.43155   415.60754
   335  H   1.0    0.10    1.13    1.45   132.71847   110.94026   417.34458
   336  H   1.0    0.05    1.14    1.45   130.98676   115.74017   416.83046
   337  H   1.0    0.05    1.06    1.44   134.92743   115.86873   414.24997
   338  H   1.0    0.04    1.06    1.44   135.15055   115.69870   417.29285
   339  H   1.0    0.14    1.05    1.44   137.49013   112.77829   414.84452
   340  N   5.0   -0.20    3.28    1.98   125.02207   111.61840   412.07775
   341  C   4.0    0.04    4.41    4.39   122.40758   112.07751   412.69693
   342  C   4.0    0.15    3.44    3.09   122.06866   114.90841   413.08664
   343  O   6.0   -0.30    1.25    1.80   120.20653   115.98727   412.18615
   344  C   4.0   -0.04    4.41    4.40   121.48817   110.43213   414.83990
   345  C   4.0   -0.04    4.35    4.29   118.76915   110.12366   415.07593
   346  C   4.0    0.16    3.25    3.04   117.53000   108.34858   413.22420
   347  O   6.0   -0.27    1.22    1.80   118.66654   106.48392   412.59132
   348  N   5.0   -0.22    3.16    1.95   115.07960   108.91643   412.32156
   349  H   1.0    0.10    1.07    1.44   125.81826   110.59373   413.26571
   350  H   1.0    0.06    1.13    1.45   121.30757   111.63063   411.22584
   351  H   1.0    0.06    1.10    1.44   122.24177   108.73330   414.63915
   352  H   1.0    0.05    1.09    1.44   122.16082   111.19234   416.45019
   353  H   1.0    0.05    1.11    1.45   118.31788   109.50756   416.82097
   354  H   1.0    0.05    1.09    1.44   117.91337   111.83555   414.88575
   355  H   1.0    0.10    1.06    1.44   114.32073   110.32127   412.91321
   356  H   1.0    0.13    1.06    1.44   114.34603   107.93300   411.23670
   357  N   5.0   -0.15    3.48    2.06   123.89589   116.22691   414.21180
   358  C   4.0    0.04    4.33    4.25   123.69903   118.93734   414.61149
   359  C   4.0    0.09    3.21    3.04   123.93351   120.39728   412.10311
   360  O   6.0   -0.29    1.11    1.80   122.56313   122.20745   411.59658
   361  C   4.0   -0.08    4.21    4.02   125.61720   119.88147   416.49928
   362  H   1.0    0.11    1.12    1.45   125.35937   115.53318   414.78418
   363  H   1.0    0.06    1.12    1.45   121.97036   119.26821   415.28878
   364  H   1.0    0.04    1.05    1.44   125.47267   121.71365   416.68151
   365  H   1.0    0.05    1.05    1.44   125.33068   119.03698   418.14166
   366  H   1.0    0.05    1.05    1.44   127.33501   119.43466   415.87433
   367  N   5.0   -0.19    3.25    1.97   117.62818   120.63269   409.04214
   368  C   4.0    0.04    4.41    4.40   115.79587   122.40358   410.09911
   369  C   4.0    0.09    3.26    3.04   116.45833   125.03362   409.31491
   370  O   6.0   -0.26    1.13    1.80   114.91927   126.25699   408.08527
   371  C   4.0   -0.04    4.45    4.46   115.49247   122.21918   412.87278
   372  C   4.0   -0.02    3.80    3.33   114.10179   119.98306   413.43760
   373  C   4.0   -0.00    3.65    3.20   115.03643   117.71135   414.32096
   374  C   4.0    0.00    3.91    3.47   111.46313   119.58949   413.00261
   375  N   5.0   -0.14    3.47    2.06   113.17426   115.93657   414.55694
   376  C   4.0    0.03    3.94    3.52   110.93850   116.98875   413.70727
   377  C   4.0   -0.05    3.44    3.09   109.49951   121.08611   412.19005
   378  C   4.0   -0.05    3.45    3.09   108.51856   115.97745   413.58969
   379  C   4.0   -0.03    3.46    3.10   107.13998   120.01752   412.07394
   380  C   4.0   -0.03    3.45    3.09   106.66277   117.50949   412.73559
   381  H   1.0    0.12    1.07    1.44   118.56234   119.78283   410.25704
   382  H   1.0    0.06    1.15    1.45   114.12926   121.91750   409.36343
   383  H   1.0    0.05    1.09    1.44   117.19321   122.14857   413.73241
   384  H   1.0    0.05    1.10    1.44   114.57907   123.71880   413.56648
   385  H   1.0    0.06    1.07    1.44   116.79623   117.40753   414.75377
   386  H   1.0    0.08    1.09    1.44   113.35591   114.35663   415.14884
   387  H   1.0    0.06    1.09    1.44   109.79059   122.79783   411.69951
   388  H   1.0    0.06    1.08    1.44   108.19816   114.24611   414.11714
   389  H   1.0    0.06    1.08    1.44   105.72509   121.04778   411.44734
   390  H   1.0    0.06    1.09    1.44   104.95650   116.82886   412.60521
   391  N   5.0   -0.22    3.23    1.96   135.97487   128.75288   409.76662
   392  C   4.0    0.03    4.31    4.22   135.34286   126.25134   408.93007
   393  C   4.0    0.09    3.13    3.03   135.70581   125.85413   405.94529
   394  O   6.0   -0.26    1.09    1.80   136.23579   123.71241   405.05593
   395  C   4.0   -0.04    4.60    4.66   132.74007   125.48679   409.73643
   396  C   4.0   -0.03    4.37    4.33   132.11617   125.41221   412.40451
   397  C   4.0   -0.08    4.22    4.05   129.68433   123.72324   412.60766
   398  C   4.0   -0.08    4.39    4.36   134.27847   124.42403   413.69986
   399  H   1.0    0.10    1.07    1.44   134.69851   129.61125   410.50948
   400  H   1.0    0.05    1.13    1.45   136.56279   125.04490   409.70388
   401  H   1.0    0.05    1.10    1.44   131.53153   126.68858   408.87669
   402  H   1.0    0.06    1.11    1.44   132.37872   123.75854   409.01015
   403  H   1.0    0.04    1.12    1.45   131.73712   127.07815   413.20764
   404  H   1.0    0.04    1.04    1.43   129.19275   123.61660   414.45209
   405  H   1.0    0.05    1.05    1.44   128.30344   124.52150   411.67804
   406  H   1.0    0.06    1.05    1.44   130.05931   122.04461   411.98556
   407  H   1.0    0.04    1.05    1.44   133.92116   124.30388   415.58315
   408  H   1.0    0.05    1.06    1.44   134.66108   122.68987   413.10065
   409  H   1.0    0.04    1.08    1.44   135.75545   125.51664   413.46648
   410  N   5.0   -0.21    3.29    1.98   142.71273   123.38210   417.06357
   411  C   4.0    0.03    4.36    4.31   140.40820   122.97220   418.46553
   412  C   4.0    0.15    3.44    3.09   140.42218   124.29937   420.97488
   413  O   6.0   -0.32    1.31    1.80   138.48565   125.17204   421.77924
   414  C   4.0    0.02    4.19    3.98   139.87257   120.10994   418.62129
   415  O   6.0   -0.25    2.06    1.83   142.27327   118.68281   418.77826
   416  H   1.0    0.12    1.09    1.44   143.76456   121.98634   417.04123
   417  H   1.0    0.04    1.13    1.45   138.96465   123.71805   417.55534
   418  H   1.0    0.05    1.06    1.44   138.83609   119.77739   420.13583
   419  H   1.0    0.04    1.06    1.44   139.00612   119.55426   417.09295
   420  H   1.0    0.14    1.05    1.44   141.92653   117.21469   419.54129
   421  N   5.0   -0.15    3.50    2.08   142.56833   124.52186   422.27020
   422  C   4.0    0.04    4.39    4.36   142.75445   125.78317   424.66860
   423  C   4.0    0.09    3.27    3.05   142.17248   128.55592   424.31496
   424  O   6.0   -0.27    1.12    1.80   140.90895   129.72839   425.85512
   425  C   4.0   -0.05    4.34    4.27   145.33052   125.50757   426.01511
   426  C   4.0   -0.03    4.25    4.10   146.02928   122.81655   426.79136
   427  C   4.0    0.24    3.14    3.03   144.27234   121.67960   428.75091
   428  O   6.0   -0.28    1.16    1.80   143.55226   122.98929   430.69492
   429  O   6.0   -0.25    1.17    1.80   143.45906   119.49798   428.29450
   430  H   1.0    0.09    1.10    1.44   144.11666   123.85364   421.70263
   431  H   1.0    0.07    1.12    1.45   141.48506   124.95799   425.80011
   432  H   1.0    0.05    1.08    1.44   146.66022   126.12105   424.83430
   433  H   1.0    0.07    1.09    1.44   145.32567   126.55136   427.54780
   434  H   1.0    0.06    1.09    1.44   145.95876   121.71531   425.26278
   435  H   1.0    0.06    1.08    1.44   147.75688   122.80680   427.47737
   436  N   5.0   -0.20    3.25    1.97   138.47791   130.80892   420.17401
   437  C   4.0    0.03    4.32    4.24   135.76748   131.00578   419.77432
   438  C   4.0    0.16    3.45    3.10   134.30753   130.77131   422.28269
   439  O   6.0   -0.30    1.28    1.80   132.49737   132.14169   422.78922
   440  C   4.0   -0.09    4.22    4.04   134.82335   129.08761   417.88653
   441  H   1.0    0.10    1.07    1.44   139.17164   129.34545   419.60163
   442  H   1.0    0.05    1.12    1.45   135.43660   132.73445   419.09703
   443  H   1.0    0.04    1.05    1.44   132.99117   129.23214   417.70430
   444  H   1.0    0.04    1.05    1.44   135.66784   129.37413   416.24415
   445  H   1.0    0.05    1.05    1.44   135.27016   127.36981   418.51147
   446  N   5.0   -0.15    3.51    2.09   134.99705   128.98527   423.79246
   447  C   4.0    0.04    4.38    4.34   133.98034   128.70878   426.31012
   448  C   4.0    0.10    3.22    3.04   134.08308   131.27076   427.81524
   449  O   6.0   -0.27    1.09    1.80   132.38701   131.88696   429.33988
   450  C   4.0   -0.05    4.39    4.37   135.27593   126.65115   427.81107
   451  C   4.0   -0.05    4.28    4.15   134.28937   125.96839   430.33161
   452  C   4.0   -0.05    4.31    4.22   136.26256   124.50694   431.96259
   453  C   4.0   -0.02    4.31    4.21   137.00147   122.02434   430.80002
   454  N   5.0   -0.14    4.19    3.42   138.76473   120.80088   432.40951
   455  H   1.0    0.11    1.14    1.45   136.20416   127.77333   423.43345
   456  H   1.0    0.05    1.12    1.45   132.15433   128.26591   426.17083
   457  H   1.0    0.05    1.09    1.44   135.29603   125.08439   426.75778
   458  H   1.0    0.06    1.09    1.44   137.10090   127.18078   428.04893
   459  H   1.0    0.06    1.08    1.44   133.79835   127.52363   431.27336
   460  H   1.0    0.05    1.08    1.44   132.77607   124.87034   430.16070
   461  H   1.0    0.06    1.09    1.44   137.77654   125.57465   432.14713
   462  H   1.0    0.05    1.08    1.44   135.52440   124.17769   433.66255
   463  H   1.0    0.06    1.08    1.44   135.48124   120.95640   430.55172
   464  H   1.0    0.06    1.09    1.44   137.81724   122.32848   429.13930
   465  H   1.0    0.11    1.09    1.44   139.24716   119.22417   431.76168
   466  H   1.0    0.10    1.10    1.44   140.17103   121.71217   432.70118
   467  H   1.0    0.08    1.08    1.44   138.01766   120.43170   433.99462
   468  N   5.0   -0.21    3.23    1.96   128.75288   135.97487   424.61919
   469  C   4.0    0.03    4.31    4.22   126.25134   135.34286   425.45574
   470  C   4.0    0.09    3.13    3.03   125.85413   135.70581   428.44052
   471  O   6.0   -0.28    1.09    1.80   123.71241   136.23579   429.32988
   472  C   4.0   -0.04    4.60    4.66   125.48679   132.74007   424.64938
   473  C   4.0   -0.03    4.37    4.33   125.41221   132.11617   421.98130
   474  C   4.0   -0.09    4.23    4.06   123.72324   129.68433   421.77814
   475  C   4.0   -0.08    4.38    4.35   124.42403   134.27847   420.68594
   476  H   1.0    0.12    1.09    1.44   129.61125   134.69851   423.87633
   477  H   1.0    0.05    1.13    1.45   125.04490   136.56279   424.68192
   478  H   1.0    0.05    1.10    1.44   126.68858   131.53153   425.50911
   479  H   1.0    0.04    1.11    1.44   123.75854   132.37872   425.37566
   480  H   1.0    0.05    1.12    1.45   127.07815   131.73712   421.17816
   481  H   1.0    0.04    1.04    1.43   123.61660   129.19275   419.93372
   482  H   1.0    0.05    1.05    1.44   124.52150   128.30344   422.70776
   483  H   1.0    0.04    1.05    1.44   122.04461   130.05931   422.40024
   484  H   1.0    0.05    1.05    1.44   124.30388   133.92116   418.80266
   485  H   1.0    0.05    1.06    1.44   122.68987   134.66108   421.28515
   486  H   1.0    0.05    1.08    1.44   125.51664   135.75545   420.91933
   487  H   1.0    0.10    1.08    1.44   110.84610   125.12023   423.82017
   488  H   1.0    0.10    1.08    1.44   104.85228    98.38203   425.33114
   489  H   1.0    0.07    1.05    1.44   103.15893    95.68233   431.22951
   490  H   1.0    0.10    1.08    1.44   118.61318   117.59322   442.28011
   491  H   1.0    0.06    1.04    1.43   132.36929   111.69363   446.98844
   492  H   1.0    0.11    1.08    1.44   125.33138   111.22765   451.53599
   493  H   1.0    0.07    1.05    1.44   126.46475   105.84425   455.17358
   494  H   1.0    0.09    1.08    1.44   112.67623   102.64786   435.23329
   495  H   1.0    0.06    1.04    1.43   118.41742    99.98284   436.52828
   496  H   1.0    0.10    1.09    1.44   116.21036    96.94993   428.23970
   497  H   1.0    0.07    1.03    1.43   125.06407    96.83851   427.75503
   498  H   1.0    0.10    1.08    1.44   121.86670    97.36149   419.37817
   499  H   1.0    0.06    1.04    1.43   127.47694   101.68884   416.34311
   500  H   1.0    0.11    1.08    1.44   128.67570   105.78661   418.73170
   501  H   1.0    0.07    1.05    1.44   130.25599   112.67434   412.43004
   502  H   1.0    0.11    1.08    1.44   125.12023   110.84610   410.56564
   503  H   1.0    0.07    1.04    1.44   125.22921   119.88218   410.82762
   504  H   1.0    0.11    1.07    1.44   116.81572   119.46112   408.11483
   505  H   1.0    0.07    1.05    1.44   118.13234   125.76875   409.79279
   506  H   1.0    0.10    1.08    1.44   137.23285   128.66889   410.90811
   507  H   1.0    0.07    1.04    1.43   135.51115   127.31837   404.76666
   508  H   1.0    0.10    1.08    1.44   142.33519   123.76492   415.45004
   509  H   1.0    0.06    1.05    1.44   142.82441   129.47199   422.79611
   510  H   1.0    0.10    1.08    1.44   139.26487   132.08179   419.36588
   511  H   1.0    0.08    1.04    1.43   135.53296   132.45651   427.56437
   512  H   1.0    0.10    1.08    1.44   128.66889   137.23285   423.47769
   513  H   1.0    0.07    1.04    1.43   127.31837   135.51115   429.61914

  Z AO/shell   Hii/eV     exponent
  1     Wed Apr 25 08:07:45 CEST 2018   EN: 2.200 GM2: 0.406  GM3: 0.0800  RAES: 1.40
     1s    -10.707211    1.230000
  6     Wed Apr 25 08:07:45 CEST 2018   EN: 2.550 GM2: 0.538  GM3: 0.1500  RAES: 3.00
     2s    -13.970922    2.096432
     2p    -10.063292    1.800000
  7     Wed Apr 25 08:07:45 CEST 2018   EN: 3.040 GM2: 0.461  GM3:-0.0640  RAES: 1.90
     2s    -16.686243    2.339881
     2p    -12.523956    2.014332
  8     Wed Apr 25 08:07:45 CEST 2018   EN: 3.440 GM2: 0.452  GM3:-0.0517  RAES: 1.80
     2s    -20.229985    2.439742
     2p    -15.503117    2.137023
 no old-style atom pair restraining (fixing) potential

molecular fragmentation (1/2 indicates fragments):
111111111111111111111111111111111111111111111111111111111111111111111111
111111111111111111111111111111111111111111111111111111111111111111111111
111111111222222222222222222222222222222222222222222222222222222222222222
222222222222222222222222222222222222222222222222222222222222222222222222
222222222222222222222222222222222222222222222222222222222222222222222222
222222222222222222222222222222222222222222222222222222222222222222222222
222222222222222222222222222222222222222222222222222222122222222222222222
222222222
# atoms in fragment 1/2:   154   359
 fragment masses (1/2) :     1076.26     2407.89
CMA distance (Bohr)    :   4.422
constraining FC (au)   :  0.0500
           ------------------------------------------------- 
          |        Self-Consistent Charge Iterations        |
           ------------------------------------------------- 

 Ncao       : 1254
 Nao        : 1254
 Nshell     : 760
 Nel        : 1378
 T(el)      :   500.0
 intcut     :    35.0
 scfconv/Eh :  0.100E-06
   qconv/e  :  0.100E-04
 intneglect :  0.100E-08
 broydamp   :      0.400
 iter      E             dE          RMSdq      gap      omega  full diag
   1   -788.1030703 -0.788103E+03  0.462E+00    2.19       0.0  T
   2   -789.8575214 -0.175445E+01  0.221E+00    1.07       1.0  T
   3   -789.9526255 -0.951041E-01  0.132E+00    1.77       1.0  T
   4   -790.1238689 -0.171243E+00  0.283E-01    0.94       1.0  T
   5   -790.1381800 -0.143111E-01  0.138E-01    1.26       1.0  T
   6   -790.1408608 -0.268083E-02  0.617E-02    1.18       1.0  T
   7   -790.1413545 -0.493698E-03  0.252E-02    1.20       1.0  T
   8   -790.1414383 -0.837996E-04  0.126E-02    1.18       1.0  T
   9   -790.1414563 -0.179943E-04  0.554E-03    1.18       1.0  T
  10   -790.1414608 -0.449786E-05  0.248E-03    1.18       1.8  T
  11   -790.1414615 -0.726423E-06  0.110E-03    1.18       4.0  T
  12   -790.1414617 -0.170910E-06  0.523E-04    1.18       8.4  T
  13   -790.1414617 -0.274111E-07  0.234E-04    1.18      18.9  T
  14   -790.1414617 -0.742455E-08  0.118E-04    1.18      37.4  T
  15   -790.1414617 -0.131627E-08  0.555E-05    1.18      79.5  T
  16   -790.1414617 -0.390855E-09  0.247E-05    1.18     178.5  T
speedup  1.50
cpu  time for SCC   41.76 s
wall time for SCC   27.80 s

   *** convergence criteria satisfied after 16 iterations ***

          eigenvalues
 #    :         677        678        679        680        681        682        683        684
 occ. :        2.000      2.000      2.000      2.000      2.000      2.000      2.000      2.000
 eps  :       -10.018    -10.008     -9.992     -9.987     -9.966     -9.958     -9.958     -9.862
 #    :         685        686        687        688        689        690        691        692
 occ. :        2.000      2.000      2.000      2.000      2.000      0.000      0.000      0.000
 eps  :        -9.815     -9.772     -9.739     -9.737     -9.521     -8.341     -8.177     -7.981
 #    :         693        694        695        696        697        698        699        700
 occ. :        0.000      0.000      0.000      0.000      0.000      0.000      0.000      0.000
 eps  :        -7.971     -7.950     -7.922     -7.901     -7.815     -7.775     -7.745     -7.740


   #   Z            q   n(s)   n(p)   n(d)      C6AA      α(0)
   1   7 N     -0.411  1.299  4.112  0.000    30.670     8.225
   2   6 C      0.019  1.033  2.948  0.000    20.260     6.410
   3   6 C      0.253  1.055  2.691  0.000    22.740     7.809
   4   8 O     -0.509  1.748  4.761  0.000    23.987     6.566
   5   6 C     -0.078  1.006  3.072  0.000    21.963     6.669
   6   6 C     -0.107  1.015  3.093  0.000    22.531     6.755
   7   6 C      0.283  1.050  2.667  0.000    22.214     7.717
   8   8 O     -0.470  1.746  4.724  0.000    23.134     6.449
   9   7 N     -0.336  1.219  4.117  0.000    28.640     7.948
  10   1 H      0.177  0.823  0.000  0.000     1.229     1.736
  11   1 H      0.061  0.939  0.000  0.000     2.182     2.310
  12   1 H      0.076  0.924  0.000  0.000     2.022     2.223
  13   1 H      0.058  0.942  0.000  0.000     2.221     2.330
  14   1 H      0.088  0.912  0.000  0.000     1.893     2.152
  15   1 H      0.063  0.937  0.000  0.000     2.168     2.302
  16   1 H      0.210  0.790  0.000  0.000     1.057     1.611
  17   1 H      0.229  0.771  0.000  0.000     0.967     1.541
  18   7 N     -0.181  1.220  3.961  0.000    24.918     7.414
  19   6 C      0.006  1.042  2.952  0.000    20.480     6.443
  20   6 C      0.266  1.038  2.695  0.000    22.505     7.769
  21   8 O     -0.505  1.748  4.757  0.000    23.888     6.553
  22   6 C     -0.162  0.992  3.170  0.000    23.677     6.934
  23   1 H      0.225  0.775  0.000  0.000     0.988     1.557
  24   1 H      0.085  0.915  0.000  0.000     1.926     2.170
  25   1 H      0.084  0.916  0.000  0.000     1.942     2.179
  26   1 H      0.080  0.920  0.000  0.000     1.977     2.198
  27   1 H      0.085  0.915  0.000  0.000     1.932     2.173
  28   7 N     -0.165  1.212  3.953  0.000    24.572     7.362
  29   6 C     -0.003  1.046  2.957  0.000    20.630     6.466
  30   6 C      0.265  1.049  2.686  0.000    22.534     7.774
  31   8 O     -0.505  1.764  4.740  0.000    23.891     6.553
  32   6 C     -0.107  1.017  3.090  0.000    22.527     6.754
  33   6 C     -0.094  1.011  3.083  0.000    22.275     6.718
  34   6 C     -0.121  1.023  3.098  0.000    22.806     6.796
  35   6 C     -0.072  1.009  3.063  0.000    21.945     6.682
  36   7 N     -0.132  1.157  3.975  0.000    23.853     7.254
  37   1 H      0.229  0.771  0.000  0.000     0.971     1.543
  38   1 H      0.101  0.899  0.000  0.000     1.776     2.084
  39   1 H      0.087  0.913  0.000  0.000     1.907     2.159
  40   1 H      0.082  0.918  0.000  0.000     1.961     2.190
  41   1 H      0.071  0.929  0.000  0.000     2.075     2.252
  42   1 H      0.072  0.928  0.000  0.000     2.060     2.244
  43   1 H      0.089  0.911  0.000  0.000     1.889     2.149
  44   1 H      0.092  0.908  0.000  0.000     1.857     2.131
  45   1 H      0.127  0.873  0.000  0.000     1.555     1.950
  46   1 H      0.128  0.872  0.000  0.000     1.546     1.944
  47   1 H      0.295  0.705  0.000  0.000     0.727     1.335
  48   1 H      0.293  0.707  0.000  0.000     0.734     1.342
  49   1 H      0.290  0.710  0.000  0.000     0.743     1.350
  50   7 N     -0.167  1.210  3.957  0.000    24.619     7.369
  51   6 C      0.021  1.027  2.952  0.000    20.205     6.396
  52   6 C      0.289  1.023  2.688  0.000    22.108     7.701
  53   8 O     -0.499  1.731  4.769  0.000    23.765     6.536
  54   6 C     -0.101  1.012  3.090  0.000    22.396     6.732
  55   6 C      0.016  1.045  2.939  0.000    27.647     8.625
  56   6 C     -0.053  1.054  2.998  0.000    29.245     8.868
  57   6 C     -0.058  1.060  2.998  0.000    29.376     8.889
  58   6 C     -0.041  1.055  2.987  0.000    28.975     8.828
  59   6 C     -0.048  1.060  2.988  0.000    29.141     8.854
  60   6 C     -0.040  1.034  3.006  0.000    29.006     8.833
  61   1 H      0.212  0.788  0.000  0.000     1.045     1.601
  62   1 H      0.087  0.913  0.000  0.000     1.903     2.157
  63   1 H      0.081  0.919  0.000  0.000     1.968     2.194
  64   1 H      0.074  0.926  0.000  0.000     2.047     2.237
  65   1 H      0.046  0.954  0.000  0.000     2.364     2.404
  66   1 H      0.042  0.958  0.000  0.000     2.421     2.433
  67   1 H      0.046  0.954  0.000  0.000     2.375     2.410
  68   1 H      0.041  0.959  0.000  0.000     2.430     2.438
  69   1 H      0.056  0.944  0.000  0.000     2.247     2.344
  70   7 N     -0.187  1.222  3.965  0.000    25.041     7.432
  71   6 C      0.028  1.032  2.940  0.000    20.079     6.374
  72   6 C      0.272  1.036  2.693  0.000    22.407     7.753
  73   8 O     -0.502  1.748  4.754  0.000    23.822     6.544
  74   6 C     -0.084  1.002  3.082  0.000    22.081     6.686
  75   6 C     -0.039  1.060  2.980  0.000    28.921     8.820
  76   6 C     -0.025  1.053  2.972  0.000    28.598     8.772
  77   6 C     -0.026  1.080  2.947  0.000    28.531     8.754
  78   7 N     -0.119  1.196  3.923  0.000    23.581     7.212
  79   6 C      0.024  1.075  2.901  0.000    27.382     8.579
  80   6 C     -0.050  1.053  2.997  0.000    29.246     8.868
  81   6 C     -0.075  1.049  3.026  0.000    29.873     8.963
  82   6 C     -0.056  1.060  2.996  0.000    29.384     8.890
  83   6 C     -0.054  1.055  3.000  0.000    29.350     8.885
  84   1 H      0.218  0.782  0.000  0.000     1.018     1.580
  85   1 H      0.091  0.909  0.000  0.000     1.865     2.136
  86   1 H      0.066  0.934  0.000  0.000     2.128     2.281
  87   1 H      0.079  0.921  0.000  0.000     1.984     2.203
  88   1 H      0.069  0.931  0.000  0.000     2.091     2.261
  89   1 H      0.186  0.814  0.000  0.000     1.181     1.702
  90   1 H      0.044  0.956  0.000  0.000     2.396     2.420
  91   1 H      0.055  0.945  0.000  0.000     2.252     2.347
  92   1 H      0.038  0.962  0.000  0.000     2.475     2.460
  93   1 H      0.048  0.952  0.000  0.000     2.347     2.395
  94   7 N     -0.185  1.214  3.971  0.000    25.005     7.427
  95   6 C      0.011  1.045  2.944  0.000    20.390     6.429
  96   6 C      0.253  1.065  2.681  0.000    22.738     7.808
  97   8 O     -0.513  1.769  4.744  0.000    24.071     6.578
  98   6 C     -0.093  1.014  3.080  0.000    22.228     6.703
  99   6 C     -0.026  1.021  3.005  0.000    21.000     6.517
 100   6 C     -0.158  0.998  3.160  0.000    23.585     6.919
 101   6 C     -0.150  0.983  3.167  0.000    23.382     6.882
 102   1 H      0.232  0.768  0.000  0.000     0.955     1.530
 103   1 H      0.085  0.915  0.000  0.000     1.926     2.170
 104   1 H      0.065  0.935  0.000  0.000     2.145     2.290
 105   1 H      0.072  0.928  0.000  0.000     2.064     2.246
 106   1 H      0.063  0.937  0.000  0.000     2.164     2.300
 107   1 H      0.056  0.944  0.000  0.000     2.249     2.345
 108   1 H      0.058  0.942  0.000  0.000     2.220     2.330
 109   1 H      0.057  0.943  0.000  0.000     2.237     2.339
 110   1 H      0.053  0.947  0.000  0.000     2.278     2.360
 111   1 H      0.048  0.952  0.000  0.000     2.346     2.395
 112   1 H      0.052  0.948  0.000  0.000     2.290     2.366
 113   7 N     -0.155  1.208  3.947  0.000    24.349     7.329
 114   6 C     -0.037  1.011  3.026  0.000    21.275     6.575
 115   6 C      0.267  1.048  2.685  0.000    22.491     7.766
 116   8 O     -0.502  1.757  4.745  0.000    23.831     6.545
 117   1 H      0.222  0.778  0.000  0.000     1.002     1.568
 118   1 H      0.109  0.891  0.000  0.000     1.703     2.041
 119   1 H      0.103  0.897  0.000  0.000     1.760     2.074
 120   7 N     -0.194  1.222  3.972  0.000    25.203     7.456
 121   6 C      0.032  1.028  2.941  0.000    20.029     6.370
 122   6 C      0.249  1.064  2.688  0.000    22.825     7.825
 123   8 O     -0.499  1.773  4.726  0.000    23.770     6.537
 124   6 C     -0.086  0.997  3.089  0.000    22.070     6.677
 125   6 C     -0.018  1.009  3.009  0.000    20.852     6.492
 126   6 C     -0.143  0.985  3.157  0.000    23.267     6.871
 127   6 C     -0.152  0.989  3.163  0.000    23.395     6.880
 128   1 H      0.226  0.774  0.000  0.000     0.981     1.552
 129   1 H      0.101  0.899  0.000  0.000     1.774     2.083
 130   1 H      0.058  0.942  0.000  0.000     2.223     2.331
 131   1 H      0.084  0.916  0.000  0.000     1.937     2.176
 132   1 H      0.044  0.956  0.000  0.000     2.402     2.423
 133   1 H      0.063  0.937  0.000  0.000     2.167     2.302
 134   1 H      0.037  0.963  0.000  0.000     2.488     2.466
 135   1 H      0.055  0.945  0.000  0.000     2.256     2.349
 136   1 H      0.054  0.946  0.000  0.000     2.273     2.357
 137   1 H      0.056  0.944  0.000  0.000     2.242     2.341
 138   1 H      0.059  0.941  0.000  0.000     2.211     2.325
 139   7 N     -0.172  1.212  3.960  0.000    24.733     7.386
 140   6 C     -0.030  1.009  3.021  0.000    21.162     6.558
 141   6 C      0.289  1.036  2.675  0.000    22.101     7.698
 142   8 O     -0.513  1.768  4.745  0.000    24.075     6.578
 143   1 H      0.216  0.784  0.000  0.000     1.026     1.587
 144   1 H      0.094  0.906  0.000  0.000     1.842     2.122
 145   1 H      0.094  0.906  0.000  0.000     1.842     2.122
 146   7 N     -0.185  1.207  3.978  0.000    25.007     7.427
 147   6 C     -0.050  1.020  3.030  0.000    21.560     6.625
 148   6 C      0.344  1.047  2.609  0.000    21.150     7.526
 149   8 O     -0.644  1.796  4.848  0.000    27.233     6.997
 150   8 O     -0.636  1.782  4.853  0.000    27.011     6.968
 151   1 H      0.215  0.785  0.000  0.000     1.031     1.591
 152   1 H      0.083  0.917  0.000  0.000     1.946     2.181
 153   1 H      0.074  0.926  0.000  0.000     2.037     2.232
 154   7 N     -0.408  1.303  4.105  0.000    30.604     8.216
 155   6 C      0.033  1.038  2.929  0.000    20.028     6.373
 156   6 C      0.194  1.091  2.715  0.000    23.863     8.000
 157   8 O     -0.395  1.772  4.623  0.000    21.579     6.228
 158   6 C     -0.087  1.010  3.077  0.000    22.131     6.692
 159   6 C      0.006  1.052  2.943  0.000    27.883     8.662
 160   6 C     -0.052  1.056  2.997  0.000    29.282     8.877
 161   6 C     -0.054  1.050  3.004  0.000    29.318     8.882
 162   6 C     -0.064  1.049  3.014  0.000    29.575     8.921
 163   6 C     -0.083  1.056  3.027  0.000    30.073     8.996
 164   6 C      0.137  1.037  2.826  0.000    24.997     8.195
 165   8 O     -0.460  1.703  4.756  0.000    22.039     6.338
 166   1 H      0.183  0.817  0.000  0.000     1.198     1.714
 167   1 H      0.088  0.912  0.000  0.000     1.902     2.157
 168   1 H      0.068  0.932  0.000  0.000     2.109     2.271
 169   1 H      0.072  0.928  0.000  0.000     2.063     2.246
 170   1 H      0.055  0.945  0.000  0.000     2.258     2.350
 171   1 H      0.064  0.936  0.000  0.000     2.152     2.294
 172   1 H      0.054  0.946  0.000  0.000     2.268     2.355
 173   1 H      0.060  0.940  0.000  0.000     2.203     2.321
 174   1 H      0.329  0.671  0.000  0.000     0.640     1.256
 175   7 N     -0.418  1.313  4.105  0.000    30.892     8.255
 176   6 C      0.027  1.033  2.939  0.000    20.122     6.388
 177   6 C      0.273  1.037  2.689  0.000    22.379     7.747
 178   8 O     -0.494  1.731  4.762  0.000    23.641     6.519
 179   6 C     -0.092  1.018  3.074  0.000    22.238     6.711
 180   6 C     -0.006  1.074  2.932  0.000    28.167     8.705
 181   6 C     -0.054  1.065  2.989  0.000    29.346     8.885
 182   6 C     -0.054  1.058  2.996  0.000    29.333     8.884
 183   6 C     -0.081  1.057  3.024  0.000    30.020     8.985
 184   6 C     -0.096  1.054  3.041  0.000    30.407     9.043
 185   6 C      0.143  1.037  2.821  0.000    24.890     8.177
 186   8 O     -0.442  1.692  4.750  0.000    21.683     6.286
 187   1 H      0.175  0.825  0.000  0.000     1.242     1.746
 188   1 H      0.066  0.934  0.000  0.000     2.134     2.284
 189   1 H      0.050  0.950  0.000  0.000     2.318     2.381
 190   1 H      0.061  0.939  0.000  0.000     2.186     2.312
 191   1 H      0.052  0.948  0.000  0.000     2.292     2.367
 192   1 H      0.053  0.947  0.000  0.000     2.285     2.364
 193   1 H      0.066  0.934  0.000  0.000     2.129     2.281
 194   1 H      0.072  0.928  0.000  0.000     2.058     2.243
 195   1 H      0.362  0.638  0.000  0.000     0.561     1.176
 196   7 N     -0.173  1.210  3.962  0.000    24.733     7.386
 197   6 C      0.021  1.025  2.953  0.000    20.209     6.399
 198   6 C      0.264  1.034  2.702  0.000    22.550     7.777
 199   8 O     -0.486  1.729  4.757  0.000    23.470     6.495
 200   6 C      0.060  1.003  2.938  0.000    19.747     6.358
 201   8 O     -0.505  1.702  4.803  0.000    23.003     6.474
 202   1 H      0.219  0.781  0.000  0.000     1.014     1.577
 203   1 H      0.081  0.919  0.000  0.000     1.971     2.195
 204   1 H      0.059  0.941  0.000  0.000     2.214     2.327
 205   1 H      0.057  0.943  0.000  0.000     2.236     2.338
 206   1 H      0.350  0.650  0.000  0.000     0.587     1.203
 207   7 N     -0.097  1.226  3.871  0.000    23.140     7.145
 208   6 C      0.017  1.049  2.935  0.000    20.246     6.397
 209   6 C      0.194  1.094  2.712  0.000    23.856     7.999
 210   8 O     -0.361  1.756  4.605  0.000    20.925     6.133
 211   6 C     -0.081  1.003  3.078  0.000    21.994     6.669
 212   6 C     -0.083  1.010  3.072  0.000    22.007     6.666
 213   6 C     -0.021  1.006  3.015  0.000    20.941     6.514
 214   1 H      0.111  0.889  0.000  0.000     1.685     2.030
 215   1 H      0.066  0.934  0.000  0.000     2.131     2.283
 216   1 H      0.097  0.903  0.000  0.000     1.815     2.107
 217   1 H      0.071  0.929  0.000  0.000     2.071     2.250
 218   1 H      0.078  0.922  0.000  0.000     1.996     2.209
 219   1 H      0.071  0.929  0.000  0.000     2.072     2.251
 220   1 H      0.068  0.932  0.000  0.000     2.107     2.270
 221   7 N     -0.409  1.302  4.107  0.000    30.628     8.219
 222   6 C      0.035  1.025  2.939  0.000    19.978     6.364
 223   6 C      0.201  1.087  2.712  0.000    23.719     7.976
 224   8 O     -0.392  1.760  4.631  0.000    21.513     6.219
 225   6 C     -0.080  1.005  3.074  0.000    21.993     6.672
 226   6 C     -0.025  1.053  2.972  0.000    28.583     8.768
 227   6 C     -0.024  1.042  2.982  0.000    28.472     8.744
 228   6 C     -0.059  1.078  2.982  0.000    26.901     8.217
 229   7 N     -0.114  1.199  3.915  0.000    23.473     7.196
 230   6 C      0.062  1.032  2.906  0.000    25.942     8.284
 231   6 C     -0.036  1.029  3.007  0.000    28.873     8.814
 232   6 C     -0.060  1.027  3.033  0.000    29.492     8.907
 233   6 C     -0.079  1.028  3.050  0.000    29.933     8.974
 234   6 C     -0.070  1.057  3.012  0.000    29.464     8.881
 235   1 H      0.185  0.815  0.000  0.000     1.188     1.707
 236   1 H      0.067  0.933  0.000  0.000     2.114     2.274
 237   1 H      0.071  0.929  0.000  0.000     2.078     2.254
 238   1 H      0.071  0.929  0.000  0.000     2.072     2.251
 239   1 H      0.039  0.961  0.000  0.000     2.462     2.453
 240   1 H      0.172  0.828  0.000  0.000     1.261     1.759
 241   1 H      0.040  0.960  0.000  0.000     2.442     2.444
 242   1 H      0.054  0.946  0.000  0.000     2.264     2.353
 243   1 H      0.061  0.939  0.000  0.000     2.190     2.314
 244   1 H      0.042  0.958  0.000  0.000     2.423     2.434
 245   7 N     -0.405  1.287  4.118  0.000    30.522     8.205
 246   6 C      0.040  1.027  2.933  0.000    19.918     6.356
 247   6 C      0.172  1.117  2.710  0.000    24.279     8.069
 248   8 O     -0.384  1.767  4.617  0.000    21.367     6.197
 249   6 C     -0.095  1.020  3.076  0.000    22.274     6.712
 250   6 C     -0.013  1.015  2.998  0.000    20.770     6.481
 251   6 C     -0.146  0.989  3.157  0.000    23.342     6.882
 252   6 C     -0.129  0.976  3.154  0.000    22.971     6.822
 253   1 H      0.181  0.819  0.000  0.000     1.208     1.721
 254   1 H      0.061  0.939  0.000  0.000     2.181     2.309
 255   1 H      0.059  0.941  0.000  0.000     2.213     2.326
 256   1 H      0.071  0.929  0.000  0.000     2.074     2.252
 257   1 H      0.043  0.957  0.000  0.000     2.408     2.426
 258   1 H      0.049  0.951  0.000  0.000     2.331     2.387
 259   1 H      0.047  0.953  0.000  0.000     2.358     2.401
 260   1 H      0.052  0.948  0.000  0.000     2.298     2.370
 261   1 H      0.043  0.957  0.000  0.000     2.406     2.425
 262   1 H      0.050  0.950  0.000  0.000     2.323     2.383
 263   1 H      0.049  0.951  0.000  0.000     2.327     2.385
 264   7 N     -0.400  1.296  4.104  0.000    30.376     8.185
 265   6 C      0.045  1.015  2.940  0.000    19.824     6.340
 266   6 C      0.256  1.058  2.686  0.000    22.692     7.801
 267   8 O     -0.531  1.775  4.755  0.000    24.473     6.633
 268   6 C     -0.148  0.991  3.157  0.000    23.381     6.889
 269   1 H      0.175  0.825  0.000  0.000     1.240     1.744
 270   1 H      0.046  0.954  0.000  0.000     2.370     2.407
 271   1 H      0.055  0.945  0.000  0.000     2.259     2.350
 272   1 H      0.067  0.933  0.000  0.000     2.120     2.277
 273   1 H      0.071  0.929  0.000  0.000     2.077     2.253
 274   7 N     -0.175  1.217  3.958  0.000    24.796     7.396
 275   6 C      0.026  1.036  2.939  0.000    20.151     6.393
 276   6 C      0.178  1.114  2.708  0.000    24.175     8.051
 277   8 O     -0.378  1.811  4.568  0.000    21.256     6.181
 278   6 C     -0.104  1.010  3.095  0.000    22.476     6.747
 279   6 C     -0.106  1.027  3.078  0.000    22.527     6.759
 280   6 C     -0.054  1.042  3.012  0.000    21.663     6.648
 281   7 N     -0.164  1.199  3.965  0.000    24.546     7.358
 282   6 C      0.208  1.042  2.750  0.000    23.581     7.950
 283   7 N     -0.252  1.188  4.063  0.000    26.548     7.652
 284   7 N     -0.250  1.190  4.060  0.000    26.498     7.645
 285   1 H      0.248  0.752  0.000  0.000     0.890     1.477
 286   1 H      0.100  0.900  0.000  0.000     1.788     2.091
 287   1 H      0.099  0.901  0.000  0.000     1.796     2.096
 288   1 H      0.088  0.912  0.000  0.000     1.897     2.154
 289   1 H      0.071  0.929  0.000  0.000     2.079     2.255
 290   1 H      0.085  0.915  0.000  0.000     1.931     2.173
 291   1 H      0.111  0.889  0.000  0.000     1.685     2.030
 292   1 H      0.109  0.891  0.000  0.000     1.708     2.043
 293   1 H      0.243  0.757  0.000  0.000     0.913     1.496
 294   1 H      0.235  0.765  0.000  0.000     0.943     1.521
 295   1 H      0.249  0.751  0.000  0.000     0.886     1.475
 296   1 H      0.259  0.741  0.000  0.000     0.849     1.443
 297   1 H      0.261  0.739  0.000  0.000     0.844     1.439
 298   7 N     -0.394  1.297  4.096  0.000    30.203     8.162
 299   6 C      0.038  1.033  2.928  0.000    19.939     6.360
 300   6 C      0.177  1.098  2.725  0.000    24.181     8.054
 301   8 O     -0.392  1.788  4.605  0.000    21.529     6.221
 302   6 C     -0.076  1.007  3.069  0.000    21.924     6.663
 303   6 C     -0.097  1.010  3.087  0.000    22.332     6.725
 304   6 C      0.278  1.044  2.678  0.000    22.303     7.733
 305   8 O     -0.519  1.783  4.736  0.000    24.204     6.596
 306   7 N     -0.306  1.214  4.092  0.000    27.876     7.841
 307   1 H      0.174  0.826  0.000  0.000     1.251     1.752
 308   1 H      0.084  0.916  0.000  0.000     1.937     2.176
 309   1 H      0.060  0.940  0.000  0.000     2.200     2.319
 310   1 H      0.076  0.924  0.000  0.000     2.022     2.224
 311   1 H      0.079  0.921  0.000  0.000     1.987     2.204
 312   1 H      0.096  0.904  0.000  0.000     1.817     2.108
 313   1 H      0.232  0.768  0.000  0.000     0.955     1.531
 314   1 H      0.230  0.770  0.000  0.000     0.965     1.539
 315   7 N     -0.410  1.284  4.126  0.000    30.658     8.223
 316   6 C      0.022  1.035  2.943  0.000    20.199     6.399
 317   6 C      0.258  1.058  2.684  0.000    22.661     7.795
 318   8 O     -0.481  1.732  4.749  0.000    23.366     6.481
 319   6 C      0.114  1.017  2.868  0.000    18.782     6.183
 320   8 O     -0.452  1.691  4.762  0.000    21.882     6.315
 321   6 C     -0.180  0.998  3.181  0.000    24.060     6.993
 322   1 H      0.179  0.821  0.000  0.000     1.218     1.729
 323   1 H      0.074  0.926  0.000  0.000     2.044     2.236
 324   1 H      0.030  0.970  0.000  0.000     2.592     2.518
 325   1 H      0.310  0.690  0.000  0.000     0.693     1.307
 326   1 H      0.055  0.945  0.000  0.000     2.258     2.350
 327   1 H      0.067  0.933  0.000  0.000     2.120     2.277
 328   1 H      0.062  0.938  0.000  0.000     2.178     2.308
 329   7 N     -0.169  1.212  3.956  0.000    24.653     7.374
 330   6 C      0.009  1.036  2.955  0.000    20.431     6.436
 331   6 C      0.202  1.077  2.721  0.000    23.696     7.972
 332   8 O     -0.336  1.732  4.604  0.000    20.440     6.062
 333   6 C      0.043  1.017  2.940  0.000    20.062     6.417
 334   8 O     -0.504  1.722  4.782  0.000    22.992     6.473
 335   1 H      0.229  0.771  0.000  0.000     0.968     1.541
 336   1 H      0.114  0.886  0.000  0.000     1.666     2.018
 337   1 H      0.081  0.919  0.000  0.000     1.972     2.196
 338   1 H      0.088  0.912  0.000  0.000     1.903     2.157
 339   1 H      0.346  0.654  0.000  0.000     0.598     1.214
 340   7 N     -0.406  1.300  4.106  0.000    30.544     8.208
 341   6 C      0.027  1.032  2.942  0.000    20.132     6.389
 342   6 C      0.260  1.053  2.687  0.000    22.620     7.788
 343   8 O     -0.509  1.746  4.763  0.000    23.974     6.565
 344   6 C     -0.075  1.005  3.070  0.000    21.919     6.663
 345   6 C     -0.107  1.015  3.091  0.000    22.523     6.754
 346   6 C      0.280  1.050  2.670  0.000    22.257     7.725
 347   8 O     -0.466  1.752  4.714  0.000    23.048     6.437
 348   7 N     -0.341  1.220  4.120  0.000    28.772     7.966
 349   1 H      0.166  0.834  0.000  0.000     1.299     1.785
 350   1 H      0.053  0.947  0.000  0.000     2.284     2.363
 351   1 H      0.065  0.935  0.000  0.000     2.140     2.287
 352   1 H      0.064  0.936  0.000  0.000     2.148     2.292
 353   1 H      0.094  0.906  0.000  0.000     1.836     2.119
 354   1 H      0.065  0.935  0.000  0.000     2.138     2.286
 355   1 H      0.216  0.784  0.000  0.000     1.028     1.588
 356   1 H      0.227  0.773  0.000  0.000     0.978     1.549
 357   7 N     -0.167  1.215  3.952  0.000    24.616     7.369
 358   6 C      0.023  1.037  2.940  0.000    20.191     6.398
 359   6 C      0.197  1.090  2.713  0.000    23.794     7.988
 360   8 O     -0.349  1.753  4.595  0.000    20.679     6.097
 361   6 C     -0.160  0.991  3.169  0.000    23.630     6.927
 362   1 H      0.216  0.784  0.000  0.000     1.027     1.588
 363   1 H      0.096  0.904  0.000  0.000     1.821     2.110
 364   1 H      0.093  0.907  0.000  0.000     1.853     2.128
 365   1 H      0.087  0.913  0.000  0.000     1.907     2.159
 366   1 H      0.082  0.918  0.000  0.000     1.957     2.187
 367   7 N     -0.404  1.303  4.101  0.000    30.475     8.199
 368   6 C      0.039  1.027  2.934  0.000    19.897     6.348
 369   6 C      0.201  1.087  2.712  0.000    23.717     7.976
 370   8 O     -0.392  1.761  4.631  0.000    21.518     6.219
 371   6 C     -0.075  1.003  3.072  0.000    21.909     6.660
 372   6 C     -0.038  1.058  2.980  0.000    28.889     8.815
 373   6 C     -0.020  1.053  2.967  0.000    28.473     8.753
 374   6 C     -0.028  1.079  2.949  0.000    28.585     8.762
 375   7 N     -0.122  1.197  3.925  0.000    23.646     7.222
 376   6 C      0.026  1.075  2.900  0.000    27.341     8.573
 377   6 C     -0.054  1.053  3.001  0.000    29.334     8.881
 378   6 C     -0.072  1.050  3.022  0.000    29.796     8.951
 379   6 C     -0.058  1.060  2.998  0.000    29.451     8.900
 380   6 C     -0.053  1.056  2.997  0.000    29.325     8.881
 381   1 H      0.180  0.820  0.000  0.000     1.212     1.725
 382   1 H      0.065  0.935  0.000  0.000     2.138     2.286
 383   1 H      0.065  0.935  0.000  0.000     2.136     2.285
 384   1 H      0.066  0.934  0.000  0.000     2.134     2.284
 385   1 H      0.063  0.937  0.000  0.000     2.166     2.302
 386   1 H      0.181  0.819  0.000  0.000     1.208     1.722
 387   1 H      0.051  0.949  0.000  0.000     2.308     2.376
 388   1 H      0.052  0.948  0.000  0.000     2.296     2.370
 389   1 H      0.038  0.962  0.000  0.000     2.477     2.461
 390   1 H      0.043  0.957  0.000  0.000     2.403     2.424
 391   7 N     -0.406  1.287  4.119  0.000    30.538     8.207
 392   6 C      0.031  1.040  2.929  0.000    20.072     6.382
 393   6 C      0.180  1.117  2.703  0.000    24.127     8.043
 394   8 O     -0.398  1.783  4.615  0.000    21.636     6.236
 395   6 C     -0.083  1.013  3.070  0.000    22.026     6.673
 396   6 C     -0.018  1.019  2.999  0.000    20.853     6.494
 397   6 C     -0.158  0.998  3.160  0.000    23.584     6.919
 398   6 C     -0.139  0.981  3.158  0.000    23.164     6.850
 399   1 H      0.188  0.812  0.000  0.000     1.171     1.695
 400   1 H      0.072  0.928  0.000  0.000     2.060     2.245
 401   1 H      0.051  0.949  0.000  0.000     2.309     2.376
 402   1 H      0.059  0.941  0.000  0.000     2.213     2.326
 403   1 H      0.050  0.950  0.000  0.000     2.321     2.382
 404   1 H      0.057  0.943  0.000  0.000     2.237     2.339
 405   1 H      0.055  0.945  0.000  0.000     2.255     2.348
 406   1 H      0.058  0.942  0.000  0.000     2.217     2.328
 407   1 H      0.048  0.952  0.000  0.000     2.347     2.395
 408   1 H      0.048  0.952  0.000  0.000     2.339     2.391
 409   1 H      0.048  0.952  0.000  0.000     2.341     2.392
 410   7 N     -0.411  1.297  4.114  0.000    30.689     8.228
 411   6 C      0.018  1.034  2.948  0.000    20.289     6.415
 412   6 C      0.267  1.042  2.691  0.000    22.486     7.765
 413   8 O     -0.481  1.719  4.762  0.000    23.365     6.481
 414   6 C      0.047  1.013  2.940  0.000    20.003     6.407
 415   8 O     -0.514  1.723  4.791  0.000    23.200     6.502
 416   1 H      0.188  0.812  0.000  0.000     1.170     1.694
 417   1 H      0.080  0.920  0.000  0.000     1.980     2.200
 418   1 H      0.052  0.948  0.000  0.000     2.295     2.369
 419   1 H      0.076  0.924  0.000  0.000     2.018     2.221
 420   1 H      0.331  0.669  0.000  0.000     0.634     1.250
 421   7 N     -0.178  1.222  3.957  0.000    24.857     7.405
 422   6 C      0.026  1.035  2.940  0.000    20.148     6.391
 423   6 C      0.200  1.084  2.717  0.000    23.749     7.981
 424   8 O     -0.352  1.748  4.604  0.000    20.752     6.108
 425   6 C     -0.077  1.019  3.059  0.000    21.959     6.670
 426   6 C     -0.107  1.021  3.086  0.000    22.538     6.757
 427   6 C      0.351  1.035  2.615  0.000    21.041     7.507
 428   8 O     -0.671  1.783  4.889  0.000    27.943     7.087
 429   8 O     -0.641  1.791  4.849  0.000    27.137     6.984
 430   1 H      0.211  0.789  0.000  0.000     1.053     1.607
 431   1 H      0.088  0.912  0.000  0.000     1.893     2.152
 432   1 H      0.067  0.933  0.000  0.000     2.115     2.274
 433   1 H      0.077  0.923  0.000  0.000     2.006     2.215
 434   1 H      0.047  0.953  0.000  0.000     2.358     2.401
 435   1 H      0.053  0.947  0.000  0.000     2.276     2.359
 436   7 N     -0.415  1.298  4.117  0.000    30.787     8.241
 437   6 C      0.023  1.037  2.940  0.000    20.190     6.399
 438   6 C      0.266  1.044  2.689  0.000    22.503     7.768
 439   8 O     -0.516  1.743  4.773  0.000    24.145     6.588
 440   6 C     -0.149  0.988  3.161  0.000    23.414     6.895
 441   1 H      0.164  0.836  0.000  0.000     1.308     1.791
 442   1 H      0.057  0.943  0.000  0.000     2.238     2.339
 443   1 H      0.069  0.931  0.000  0.000     2.097     2.265
 444   1 H      0.061  0.939  0.000  0.000     2.184     2.311
 445   1 H      0.064  0.936  0.000  0.000     2.147     2.291
 446   7 N     -0.154  1.212  3.942  0.000    24.328     7.326
 447   6 C      0.018  1.041  2.941  0.000    20.266     6.410
 448   6 C      0.201  1.098  2.701  0.000    23.722     7.976
 449   8 O     -0.361  1.760  4.601  0.000    20.915     6.132
 450   6 C     -0.094  1.013  3.081  0.000    22.279     6.717
 451   6 C     -0.092  1.012  3.080  0.000    22.251     6.714
 452   6 C     -0.117  1.022  3.095  0.000    22.715     6.783
 453   6 C     -0.046  1.001  3.045  0.000    21.466     6.609
 454   7 N     -0.113  1.152  3.961  0.000    23.448     7.192
 455   1 H      0.225  0.775  0.000  0.000     0.987     1.556
 456   1 H      0.108  0.892  0.000  0.000     1.712     2.046
 457   1 H      0.073  0.927  0.000  0.000     2.049     2.238
 458   1 H      0.069  0.931  0.000  0.000     2.093     2.262
 459   1 H      0.084  0.916  0.000  0.000     1.941     2.178
 460   1 H      0.079  0.921  0.000  0.000     1.991     2.206
 461   1 H      0.082  0.918  0.000  0.000     1.954     2.186
 462   1 H      0.093  0.907  0.000  0.000     1.850     2.127
 463   1 H      0.120  0.880  0.000  0.000     1.613     1.986
 464   1 H      0.102  0.898  0.000  0.000     1.767     2.079
 465   1 H      0.260  0.740  0.000  0.000     0.845     1.440
 466   1 H      0.284  0.716  0.000  0.000     0.764     1.369
 467   1 H      0.278  0.722  0.000  0.000     0.782     1.385
 468   7 N     -0.411  1.288  4.123  0.000    30.668     8.225
 469   6 C      0.031  1.040  2.928  0.000    20.072     6.382
 470   6 C      0.178  1.121  2.701  0.000    24.176     8.051
 471   8 O     -0.378  1.757  4.621  0.000    21.239     6.179
 472   6 C     -0.084  1.014  3.070  0.000    22.051     6.676
 473   6 C     -0.016  1.018  2.998  0.000    20.813     6.488
 474   6 C     -0.161  0.998  3.163  0.000    23.649     6.929
 475   6 C     -0.138  0.981  3.157  0.000    23.142     6.847
 476   1 H      0.185  0.815  0.000  0.000     1.185     1.705
 477   1 H      0.075  0.925  0.000  0.000     2.026     2.226
 478   1 H      0.048  0.952  0.000  0.000     2.343     2.394
 479   1 H      0.070  0.930  0.000  0.000     2.081     2.256
 480   1 H      0.040  0.960  0.000  0.000     2.453     2.449
 481   1 H      0.051  0.949  0.000  0.000     2.301     2.372
 482   1 H      0.052  0.948  0.000  0.000     2.298     2.370
 483   1 H      0.068  0.932  0.000  0.000     2.112     2.272
 484   1 H      0.038  0.962  0.000  0.000     2.472     2.459
 485   1 H      0.060  0.940  0.000  0.000     2.204     2.321
 486   1 H      0.046  0.954  0.000  0.000     2.372     2.408
 487   1 H      0.193  0.807  0.000  0.000     1.140     1.672
 488   1 H      0.185  0.815  0.000  0.000     1.183     1.704
 489   1 H      0.078  0.922  0.000  0.000     2.000     2.212
 490   1 H      0.185  0.815  0.000  0.000     1.188     1.707
 491   1 H      0.074  0.926  0.000  0.000     2.040     2.234
 492   1 H      0.177  0.823  0.000  0.000     1.229     1.737
 493   1 H      0.070  0.930  0.000  0.000     2.089     2.260
 494   1 H      0.178  0.822  0.000  0.000     1.225     1.734
 495   1 H      0.091  0.909  0.000  0.000     1.872     2.139
 496   1 H      0.176  0.824  0.000  0.000     1.238     1.743
 497   1 H      0.098  0.902  0.000  0.000     1.806     2.101
 498   1 H      0.187  0.813  0.000  0.000     1.177     1.699
 499   1 H      0.071  0.929  0.000  0.000     2.075     2.252
 500   1 H      0.173  0.827  0.000  0.000     1.255     1.755
 501   1 H      0.076  0.924  0.000  0.000     2.018     2.221
 502   1 H      0.181  0.819  0.000  0.000     1.208     1.721
 503   1 H      0.075  0.925  0.000  0.000     2.033     2.229
 504   1 H      0.177  0.823  0.000  0.000     1.231     1.738
 505   1 H      0.077  0.923  0.000  0.000     2.010     2.217
 506   1 H      0.176  0.824  0.000  0.000     1.236     1.741
 507   1 H      0.080  0.920  0.000  0.000     1.978     2.199
 508   1 H      0.192  0.808  0.000  0.000     1.147     1.678
 509   1 H      0.083  0.917  0.000  0.000     1.949     2.183
 510   1 H      0.179  0.821  0.000  0.000     1.221     1.731
 511   1 H      0.072  0.928  0.000  0.000     2.059     2.244
 512   1 H      0.170  0.830  0.000  0.000     1.273     1.767
 513   1 H      0.072  0.928  0.000  0.000     2.066     2.248

 Mol. C6AA /au·bohr⁶  :    2441099.943072
 Mol. C8AA /au·bohr⁸  :   54858471.112528
 Mol. α(0) /au        :       2360.469987

 
molecular dipole:
                 x           y           z       tot (Debye)
 q only:       96.066     125.792     437.198
   full:       95.562     125.930     435.464    1177.541
molecular quadrupole (traceless):
                xx          xy          yy          xz          yz          zz
 q only:   -95299.573   18336.950  -83437.458   63285.785   82262.280  178737.031
  q+dip:   -94625.159   18286.398  -82651.635   62633.689   82084.413  177276.794
   full:   -94625.755   18286.051  -82654.861   62633.310   82090.420  177280.615
speedup  1.52
cpu  time for grad   53.36 s
wall time for grad   35.20 s

SCC energy    :    -790.1641399
rep           :      15.4715385
ES            :       2.2305819
AES           :      -0.0405876
AXC           :       0.1865615
disp          :      -0.6717213
XB            :       0.0000000
fix           :       0.0000000
Gborn         :       0.0000000
Gsasa         :       0.0000000
Ghb           :       0.0000000
Gshift        :       0.0000000
Gsolv         :      -0.5489314     -344.46
Etot ala COSMO:    -790.1641399
grad norm     :       2.1401196
total E       :    -774.6207568
atomizationE  :     141.8810784    89031.72
(atE without considering molecular charge,
 total energy contains solvation terms)
H-L gap (eV)  :          1.1803

------------------------------------------------------------------------
 * finished run on 2019/05/12 at 13:12:19.160     
------------------------------------------------------------------------
 total:
 * wall-time:     0 d,  0 h,  0 min, 37.582 sec
 *  cpu-time:     0 d,  0 h,  0 min, 55.968 sec
 * ratio c/w:     1.489 speedup
 SCF:
 * wall-time:     0 d,  0 h,  0 min, 36.759 sec
 *  cpu-time:     0 d,  0 h,  0 min, 55.452 sec
 * ratio c/w:     1.509 speedup

