      -----------------------------------------------------------      
     |                   =====================                   |     
     |                           x T B                           |     
     |                   =====================                   |     
     |                         S. Grimme                         |     
     |          Mulliken Center for Theoretical Chemistry        |     
     |                    University of Bonn                     |     
     |                 Version 6.0.1 (SAW181210)                 |     
      -----------------------------------------------------------      

   This program is distributed in the hope that it will be useful,
   but WITHOUT ANY WARRANTY; without even the implied warranty of
   MERCHANTABILITY or FITNESS FOR A PARTICULAR PURPOSE.
   
   FOR NON-COMMERCIAL, ACADEMIA USE ONLY.
   
   Cite this work as:
   S. Grimme, C. Bannwarth, P. Shushkov, J. Comput. Theory Chem., 2017,
   13, 1989-2009.
   C. Bannwarth, S. Ehlert and S. Grimme., ChemRxiv, 2018, preprint.
   http://doi.org/10.26434/chemrxiv.7246238.v1
   
   for sTDA-xTB:
   S. Grimme and C. Bannwarth, J. Chem. Phys., 2016, 145, 054103.
   
   in the mass-spec context:
   V. Asgeirsson, C. Bauer and S. Grimme, Chem. Sci., 2017, 8, 4879.
   
   if GBSA is used:
   P. Shushkov, F. März and S. Grimme, unpublished.
   
   for ANC optimizer:
   S. Grimme, unpublished.
   Rational Function algorithm used in ANCopt:
   F. Eckert, P. Pulay, H.-J. Werner, J. Comput. Chem., 1997, 18, 1473.
   
   with help from (in alphabetical order)
   C. Bannwarth, F. Bohle, G. Brandenburg, E. Caldeweyher, M. Checinski,
   S. Dohm, S. Ehlert, S. Ehrlich, F. März, H. Neugebauer, J. Pisarek,
   P. Pracht, P. Shushkov, and S. Spicher.
   
 * started run on 2019/05/09 at 18:13:17.670     
========================================================================
 # omp threads = 2
========================================================================
number of atoms            : 347
number of electrons        : 932
charge                     : 0
spin                       : .0
first test random number   : .4594

########################################################################
# WARNING! Please study the warnings concerning your input carefully
#  - Process number higher than OMP_NUM_THREADS, I hope you know what you are doing.
########################################################################

           ------------------------------------------------- 
          |                 G F N 2 - x T B                 |
          | Geometry, Frequencies, Noncovalent interactions |
          |            JCTC 2018 parametrisation            |
           ------------------------------------------------- 
 
      method parameters     
 k(s)        :  1.8500
 k(p)        :  2.2300
 k(d)        :  2.2300
 k(f)        :  2.0000
 kEN (H0ij)  : -2.0000
 D4 a1       :  0.5200
 D4 a2       :  5.0000
 D4 s6       :  1.0000
 D4 s8       :  2.7000
 D4 s9       :  5.0000
 alphaj      :  2.0000

 Solvent             : h2o
 Using internal parameter file: .param_gbsa2_h2o
 Gsolv ref. state (COSMO-RS): gsolv [1 M gas/solution]
 temperature (mdtemp)       :    298.150000000000     
 dielectric constant        :    80.2000000000000     
 rho                        :    1.00000000000000     
 mass                       :    18.0000000000000     
 surface tension            :    15.5689454083859     
 probe radius               :   0.975313790000000     
 vdW radii scaling          :    1.00000000000000     
 Gshift (Eh)                :   1.857443126794793E-003
 c1                         :    1.55243817000000     
 soset                      :   0.130326360000000     
 HB correction              :  T

            Z     q(EN)     CN     RAES       Cart. coordinates
     1  N   5.0   -0.21    3.25    1.97    70.45554   121.22616   -28.90258
     2  C   4.0    0.02    4.29    4.18    72.18337   121.55026   -30.97722
     3  C   4.0    0.14    3.54    3.13    74.74235   122.30312   -29.85661
     4  O   6.0   -0.32    1.49    1.80    76.61565   121.04438   -30.39575
     5  C   4.0   -0.04    4.28    4.17    71.24158   123.61441   -32.80791
     6  C   4.0   -0.02    3.46    3.10    68.97407   123.02039   -34.49063
     7  C   4.0   -0.05    3.45    3.10    69.19654   123.36562   -37.10292
     8  C   4.0   -0.04    3.43    3.09    66.57550   122.33254   -33.59208
     9  C   4.0   -0.03    3.42    3.08    67.18545   122.99511   -38.74881
    10  C   4.0   -0.04    3.40    3.08    64.54516   121.94190   -35.23055
    11  C   4.0    0.07    3.40    3.08    64.82420   122.24033   -37.84554
    12  O   6.0   -0.23    2.10    1.84    62.93976   121.82350   -39.57890
    13  H   1.0    0.08    1.02    1.43    69.71206   122.84856   -28.18037
    14  H   1.0    0.05    1.05    1.44    72.41055   119.72300   -31.92475
    15  H   1.0    0.04    1.03    1.43    70.78111   125.26019   -31.64782
    16  H   1.0    0.04    1.04    1.43    72.82451   124.10852   -34.03388
    17  H   1.0    0.05    1.03    1.43    70.99453   123.93744   -37.87932
    18  H   1.0    0.05    1.03    1.43    66.27802   122.11158   -31.59438
    19  H   1.0    0.06    1.03    1.43    67.42876   123.24434   -40.75211
    20  H   1.0    0.05    1.03    1.43    62.73596   121.40426   -34.46672
    21  H   1.0    0.12    1.03    1.43    61.33583   121.58934   -38.74191
    22  N   5.0   -0.15    3.57    2.13    74.82654   124.27350   -28.28015
    23  C   4.0    0.02    4.39    4.37    77.03598   124.78188   -26.66388
    24  C   4.0    0.17    3.55    3.14    78.18070   122.12820   -26.27180
    25  O   6.0   -0.31    1.24    1.80    80.35859   121.61834   -26.84523
    26  C   4.0   -0.05    4.21    4.01    76.22583   126.19419   -24.21483
    27  C   4.0   -0.05    4.13    3.86    78.35441   127.54322   -22.76011
    28  C   4.0   -0.01    4.15    3.90    77.40326   129.44847   -20.78290
    29  N   5.0   -0.14    3.37    2.01    76.57611   128.19113   -18.47365
    30  C   4.0    0.09    3.32    3.06    76.13200   129.19262   -16.19242
    31  N   5.0   -0.18    3.24    1.97    75.54176   127.59341   -14.29644
    32  N   5.0   -0.18    3.23    1.96    76.33385   131.62392   -15.62480
    33  H   1.0    0.07    1.09    1.44    73.21706   125.22123   -27.84021
    34  H   1.0    0.05    1.04    1.44    78.41436   125.91382   -27.71675
    35  H   1.0    0.04    1.05    1.44    74.84191   127.59451   -24.82857
    36  H   1.0    0.04    1.02    1.43    75.25010   124.86333   -22.98566
    37  H   1.0    0.05    1.02    1.43    79.57556   126.16155   -21.84466
    38  H   1.0    0.04    1.03    1.43    79.50771   128.58735   -24.11084
    39  H   1.0    0.05    1.02    1.43    78.92258   130.76373   -20.30793
    40  H   1.0    0.04    1.02    1.43    75.85154   130.57186   -21.57364
    41  H   1.0    0.08    1.08    1.44    75.97196   126.39451   -18.71138
    42  H   1.0    0.09    1.03    1.43    74.69660   125.94491   -14.78208
    43  H   1.0    0.09    1.04    1.43    74.92905   128.37641   -12.67052
    44  H   1.0    0.08    1.01    1.43    76.92183   133.04799   -16.78089
    45  H   1.0    0.09    1.04    1.43    76.11079   132.18990   -13.82112
    46  N   5.0   -0.14    3.58    2.14    76.43573   120.53283   -25.34393
    47  C   4.0    0.03    4.36    4.31    76.74325   117.86268   -24.95447
    48  C   4.0    0.16    3.42    3.09    77.12801   116.37514   -27.44231
    49  O   6.0   -0.31    1.35    1.80    79.32017   115.73683   -27.89858
    50  C   4.0   -0.05    4.22    4.04    74.67245   116.89544   -23.18560
    51  C   4.0   -0.03    4.15    3.90    74.89137   118.03669   -20.53028
    52  C   4.0    0.25    3.06    3.02    73.61512   116.49972   -18.30629
    53  O   6.0   -0.28    1.16    1.80    73.31939   117.72800   -16.30923
    54  O   6.0   -0.28    1.16    1.80    73.04885   114.23296   -18.64477
    55  H   1.0    0.07    1.09    1.44    74.71627   121.23561   -24.86085
    56  H   1.0    0.06    1.07    1.44    78.57877   117.58326   -24.00666
    57  H   1.0    0.05    1.02    1.43    72.82115   117.31914   -23.98375
    58  H   1.0    0.06    1.03    1.43    74.84193   114.84238   -23.01953
    59  H   1.0    0.05    1.03    1.43    76.87768   118.15586   -19.97367
    60  H   1.0    0.05    1.02    1.43    74.10135   119.93589   -20.47388
    61  N   5.0   -0.14    3.42    2.03    75.22459   115.69656   -28.97078
    62  C   4.0    0.03    4.40    4.38    75.74184   113.72177   -30.84638
    63  C   4.0    0.16    3.50    3.11    77.82844   114.57600   -32.67414
    64  O   6.0   -0.29    1.25    1.80    79.24503   113.00530   -33.61957
    65  C   4.0   -0.05    4.18    3.96    73.35738   112.66501   -32.13650
    66  C   4.0   -0.03    3.97    3.58    73.80122   110.84069   -34.38953
    67  S   6.0   -0.01    2.32    3.10    74.98923   107.46475   -34.00961
    68  C   4.0   -0.05    3.85    3.40    74.64857   106.07053   -37.15433
    69  H   1.0    0.07    1.05    1.44    73.37442   116.13528   -28.64159
    70  H   1.0    0.06    1.06    1.44    76.64096   112.13753   -29.83485
    71  H   1.0    0.04    1.02    1.43    72.20834   111.74820   -30.69389
    72  H   1.0    0.04    1.03    1.43    72.28492   114.25262   -32.90597
    73  H   1.0    0.04    1.06    1.44    71.98545   110.59128   -35.33098
    74  H   1.0    0.07    1.09    1.44    75.14360   111.69380   -35.68161
    75  H   1.0    0.06    1.05    1.44    75.15406   104.10873   -36.86534
    76  H   1.0    0.04    1.03    1.43    72.71966   106.27402   -37.82392
    77  H   1.0    0.07    1.04    1.43    76.00247   106.98199   -38.39937
    78  N   5.0   -0.14    3.47    2.06    78.03950   117.07289   -33.06808
    79  C   4.0    0.04    4.47    4.49    80.43500   117.97841   -34.00731
    80  C   4.0    0.16    3.58    3.16    82.70761   117.12565   -32.44781
    81  O   6.0   -0.29    1.33    1.80    84.31459   115.77588   -33.46994
    82  C   4.0   -0.04    4.44    4.44    80.81984   120.82816   -34.08017
    83  C   4.0   -0.02    4.16    3.92    79.56405   122.30684   -36.21617
    84  C   4.0   -0.08    4.11    3.82    81.08855   124.73073   -36.67711
    85  C   4.0   -0.08    4.13    3.86    79.32991   120.78306   -38.63707
    86  H   1.0    0.12    1.16    1.45    77.10680   118.31877   -31.92964
    87  H   1.0    0.06    1.07    1.44    80.72545   117.11702   -35.86791
    88  H   1.0    0.07    1.04    1.43    80.25217   121.60631   -32.26099
    89  H   1.0    0.05    1.06    1.44    82.86605   121.09269   -34.24577
    90  H   1.0    0.04    1.05    1.44    77.64886   122.82566   -35.60931
    91  H   1.0    0.04    1.00    1.43    80.20463   125.87486   -38.13422
    92  H   1.0    0.04    1.00    1.43    81.19580   125.82767   -34.94025
    93  H   1.0    0.04    1.00    1.43    82.99655   124.27554   -37.25714
    94  H   1.0    0.04    1.00    1.43    78.56097   121.95769   -40.13858
    95  H   1.0    0.04    1.00    1.43    81.18068   120.11138   -39.22034
    96  H   1.0    0.05    1.01    1.43    78.09830   119.16239   -38.39791
    97  N   5.0   -0.13    3.55    2.12    83.08119   118.11700   -30.15321
    98  C   4.0    0.04    4.51    4.55    85.63740   118.00023   -29.15421
    99  C   4.0    0.16    3.39    3.07    86.49649   115.21512   -28.90771
   100  O   6.0   -0.28    1.20    1.80    88.73787   114.65497   -29.11890
   101  C   4.0   -0.02    4.31    4.21    85.91340   119.81494   -26.89773
   102  C   4.0   -0.04    4.15    3.91    88.63577   120.76048   -26.55406
   103  C   4.0   -0.06    4.11    3.83    84.81692   118.64305   -24.51443
   104  C   4.0   -0.07    4.00    3.63    88.75728   123.26342   -25.11716
   105  H   1.0    0.12    1.09    1.44    81.79045   119.18968   -29.23439
   106  H   1.0    0.09    1.08    1.44    86.89549   118.69848   -30.66023
   107  H   1.0    0.06    1.07    1.44    84.76003   121.45642   -27.40483
   108  H   1.0    0.05    1.02    1.43    89.75141   119.32485   -25.57896
   109  H   1.0    0.06    1.03    1.43    89.48500   121.01299   -28.41898
   110  H   1.0    0.05    1.00    1.43    84.71835   120.03212   -23.00683
   111  H   1.0    0.06    1.00    1.43    82.92584   117.94028   -24.89109
   112  H   1.0    0.05    1.00    1.43    85.98683   117.06744   -23.89480
   113  H   1.0    0.05    1.00    1.43    90.70770   123.89346   -24.96317
   114  H   1.0    0.05    1.00    1.43    87.69927   124.70937   -26.12198
   115  H   1.0    0.04    1.00    1.43    87.98668   123.06791   -23.22536
   116  N   5.0   -0.13    3.48    2.06    84.63519   113.48212   -28.61164
   117  C   4.0    0.04    4.28    4.17    84.80871   110.72832   -28.49759
   118  C   4.0    0.15    3.41    3.08    85.61051   109.29772   -30.91187
   119  O   6.0   -0.28    1.20    1.80    86.74403   107.27709   -30.79320
   120  C   4.0   -0.06    4.16    3.91    82.17242   109.75915   -27.87106
   121  H   1.0    0.11    1.12    1.45    82.85732   114.18331   -28.52124
   122  H   1.0    0.06    1.05    1.44    86.16381   110.20039   -27.01770
   123  H   1.0    0.06    1.00    1.43    82.20809   107.72190   -27.61626
   124  H   1.0    0.05    1.00    1.43    81.47548   110.64720   -26.15268
   125  H   1.0    0.06    1.00    1.43    80.89567   110.20509   -29.42326
   126  N   5.0   -0.13    3.53    2.10    84.85659   110.39265   -33.04999
   127  C   4.0    0.04    4.33    4.26    85.70296   109.74503   -35.56419
   128  C   4.0    0.16    3.39    3.07    88.09009   111.35855   -36.14722
   129  O   6.0   -0.32    1.30    1.80    88.49703   112.29285   -38.22044
   130  C   4.0   -0.02    4.22    4.05    83.59790   110.22121   -37.49920
   131  C   4.0    0.25    3.05    3.02    81.41345   108.21147   -37.88885
   132  O   6.0   -0.28    1.15    1.80    81.38092   106.21107   -36.67723
   133  O   6.0   -0.32    1.24    1.80    79.84590   108.83107   -39.56626
   134  H   1.0    0.12    1.11    1.45    84.00461   112.10444   -32.92694
   135  H   1.0    0.07    1.05    1.44    86.25756   107.74521   -35.54591
   136  H   1.0    0.07    1.03    1.43    82.63569   111.97045   -36.97111
   137  H   1.0    0.06    1.03    1.43    84.46994   110.50519   -39.34648
   138  N   5.0   -0.13    3.36    2.01    89.75221   111.55997   -34.23381
   139  C   4.0    0.02    4.23    4.07    91.89029   113.26877   -34.23628
   140  C   4.0    0.17    3.35    3.07    91.23735   116.10924   -34.52412
   141  O   6.0   -0.27    1.32    1.80    91.40839   117.62229   -32.79987
   142  H   1.0    0.11    1.11    1.44    89.12094   111.12553   -32.48719
   143  H   1.0    0.06    1.03    1.43    92.84814   113.06682   -32.42543
   144  H   1.0    0.05    1.03    1.43    93.15367   112.74521   -35.78626
   145  N   5.0   -0.14    3.47    2.06    90.87105   116.76930   -36.94636
   146  C   4.0    0.03    4.48    4.50    90.08477   119.30124   -37.64268
   147  C   4.0    0.18    3.54    3.13    89.94324   121.08523   -35.32606
   148  O   6.0   -0.29    1.25    1.80    88.06486   121.16034   -33.98818
   149  C   4.0   -0.02    4.37    4.32    87.46205   119.19901   -38.88735
   150  C   4.0   -0.05    4.20    3.99    87.32969   117.33057   -41.10540
   151  C   4.0   -0.07    4.15    3.90    86.68613   121.84784   -39.71257
   152  C   4.0   -0.07    4.02    3.66    84.82110   115.91982   -41.14444
   153  H   1.0    0.10    1.14    1.45    90.13725   115.34015   -38.02476
   154  H   1.0    0.03    1.05    1.44    91.47668   120.04416   -38.98448
   155  H   1.0    0.07    1.06    1.44    86.16952   118.55308   -37.39766
   156  H   1.0    0.03    1.04    1.43    87.54302   118.34670   -42.87664
   157  H   1.0    0.05    1.04    1.43    88.82051   115.92138   -41.01112
   158  H   1.0    0.03    1.00    1.43    84.85935   121.80078   -40.65330
   159  H   1.0    0.06    1.01    1.43    86.54888   123.09315   -38.08830
   160  H   1.0    0.04    1.03    1.43    88.06264   122.65714   -40.97019
   161  H   1.0    0.05    1.00    1.43    84.85496   114.39443   -42.51706
   162  H   1.0    0.06    1.00    1.43    84.43968   115.10734   -39.29673
   163  H   1.0    0.04    1.00    1.43    83.25632   117.17170   -41.60964
   164  N   5.0   -0.13    3.42    2.03    91.93633   122.68399   -35.03562
   165  C   4.0    0.03    4.34    4.28    91.75907   125.10348   -33.68210
   166  C   4.0    0.15    3.51    3.12    90.02333   126.91583   -35.17816
   167  O   6.0   -0.30    1.33    1.80    89.46070   126.52612   -37.40023
   168  C   4.0   -0.03    4.22    4.05    94.37187   126.34173   -33.43327
   169  C   4.0    0.24    3.14    3.03    94.47277   128.88912   -31.83742
   170  O   6.0   -0.29    1.17    1.80    94.64760   128.65950   -29.49952
   171  O   6.0   -0.28    1.17    1.80    94.40659   130.89363   -33.05375
   172  H   1.0    0.07    1.07    1.44    93.22865   122.70469   -36.43942
   173  H   1.0    0.05    1.05    1.44    90.95518   124.73828   -31.81442
   174  H   1.0    0.06    1.02    1.43    95.67293   125.02361   -32.52803
   175  H   1.0    0.06    1.02    1.43    95.07495   126.79429   -35.32688
   176  N   5.0   -0.09    3.66    2.23    89.21448   128.99619   -33.99920
   177  C   4.0    0.03    4.58    4.64    87.59912   130.73464   -35.41556
   178  C   4.0    0.16    3.40    3.08    88.68777   131.60094   -37.98348
   179  O   6.0   -0.31    1.29    1.80    87.99120   130.72092   -39.99540
   180  C   4.0   -0.05    4.34    4.28    87.08533   132.90940   -33.52104
   181  C   4.0   -0.03    4.25    4.10    88.93699   132.47878   -31.33151
   182  C   4.0   -0.01    4.41    4.40    89.13787   129.61223   -31.31266
   183  H   1.0    0.05    1.05    1.44    85.85491   129.71715   -35.90973
   184  H   1.0    0.05    1.02    1.43    87.31159   134.77589   -34.34497
   185  H   1.0    0.04    1.02    1.43    85.16049   132.72487   -32.80657
   186  H   1.0    0.08    1.03    1.43    90.79072   133.27799   -31.73322
   187  H   1.0    0.05    1.02    1.43    88.26083   133.22989   -29.54426
   188  H   1.0    0.06    1.07    1.44    90.76595   128.92322   -30.29244
   189  H   1.0    0.04    1.02    1.43    87.44359   128.74461   -30.47901
   190  N   5.0   -0.13    3.46    2.05    90.30955   133.55992   -37.77962
   191  C   4.0    0.03    4.23    4.07    90.31913   135.80665   -39.38557
   192  C   4.0    0.09    3.22    3.04    90.07407   135.05845   -42.19377
   193  O   6.0   -0.30    1.15    1.80    88.13916   135.20344   -43.44843
   194  C   4.0   -0.04    4.25    4.09    92.67523   137.44696   -38.82337
   195  C   4.0    0.16    3.19    3.04    92.99350   138.31432   -36.05411
   196  O   6.0   -0.30    1.23    1.80    91.95744   137.30123   -34.26010
   197  N   5.0   -0.18    3.18    1.95    94.54548   140.30085   -35.76861
   198  H   1.0    0.10    1.11    1.45    90.90751   133.97340   -35.99988
   199  H   1.0    0.05    1.05    1.44    88.63001   136.94118   -38.92815
   200  H   1.0    0.05    1.03    1.43    94.40190   136.39944   -39.24102
   201  H   1.0    0.04    1.03    1.43    92.60530   139.11616   -40.02922
   202  H   1.0    0.10    1.03    1.43    95.00433   140.81685   -33.99041
   203  H   1.0    0.08    1.03    1.43    95.57216   141.00947   -37.20359
   204  N   5.0   -0.19    3.37    2.01    89.66431   130.17130   -45.33783
   205  C   4.0    0.03    4.42    4.41    87.90494   128.32366   -46.26774
   206  C   4.0    0.15    3.56    3.14    85.44071   129.64363   -46.69723
   207  O   6.0   -0.27    1.32    1.80    84.05890   129.32142   -48.53207
   208  C   4.0   -0.05    4.38    4.34    87.81164   126.19630   -44.35417
   209  C   4.0   -0.03    4.22    4.03    90.27051   124.66555   -44.65760
   210  C   4.0   -0.07    4.09    3.78    91.93255   124.62586   -42.28928
   211  C   4.0   -0.08    4.10    3.81    89.64134   122.03156   -45.65842
   212  H   1.0    0.10    1.04    1.43    90.48037   129.85709   -43.64588
   213  H   1.0    0.05    1.06    1.44    88.56440   127.60752   -48.10572
   214  H   1.0    0.06    1.03    1.43    87.61167   126.99090   -42.46547
   215  H   1.0    0.04    1.03    1.43    86.15615   125.03234   -44.74073
   216  H   1.0    0.04    1.08    1.44    91.41418   125.59059   -46.11527
   217  H   1.0    0.04    1.00    1.43    92.10219   122.72682   -41.53456
   218  H   1.0    0.04    1.00    1.43    93.82034   125.30858   -42.75636
   219  H   1.0    0.07    1.02    1.43    91.18053   125.81614   -40.80161
   220  H   1.0    0.04    1.00    1.43    91.18431   120.72264   -45.34023
   221  H   1.0    0.04    1.01    1.43    87.94868   121.30624   -44.76319
   222  H   1.0    0.04    1.00    1.43    89.27622   122.12138   -47.68039
   223  N   5.0   -0.14    3.68    2.25    84.87262   131.22742   -44.87038
   224  C   4.0    0.04    4.41    4.40    82.63618   132.70477   -45.21654
   225  C   4.0    0.11    3.35    3.06    82.82927   133.79764   -47.89276
   226  O   6.0   -0.26    1.12    1.80    81.26817   133.45166   -49.55828
   227  C   4.0   -0.04    4.33    4.26    82.43645   134.63468   -43.09944
   228  C   4.0   -0.02    4.25    4.09    83.25360   133.58656   -40.51043
   229  C   4.0   -0.08    4.11    3.83    82.36107   135.35967   -38.41708
   230  C   4.0   -0.07    4.14    3.89    82.31643   130.92293   -39.95917
   231  H   1.0    0.11    1.12    1.45    86.04978   131.55796   -43.40901
   232  H   1.0    0.06    1.05    1.44    80.98686   131.44224   -45.21868
   233  H   1.0    0.06    1.03    1.43    83.62718   136.26089   -43.52750
   234  H   1.0    0.04    1.03    1.43    80.48210   135.28326   -42.99346
   235  H   1.0    0.07    1.10    1.44    85.30015   133.60915   -40.46535
   236  H   1.0    0.04    1.00    1.43    83.17082   134.80345   -36.61589
   237  H   1.0    0.04    1.00    1.43    82.94115   137.29321   -38.81208
   238  H   1.0    0.04    1.00    1.43    80.31770   135.32653   -38.23635
   239  H   1.0    0.04    1.01    1.43    82.61806   130.49500   -37.97499
   240  H   1.0    0.04    1.00    1.43    80.29367   130.80351   -40.32225
   241  H   1.0    0.05    1.01    1.43    83.27305   129.49196   -41.06630
   242  N   5.0   -0.21    3.18    1.95    91.55340   107.52834   -53.45493
   243  C   4.0    0.03    4.24    4.07    90.97516   109.78459   -51.96637
   244  C   4.0    0.07    3.21    3.04    88.69518   111.13066   -53.12654
   245  O   6.0   -0.31    1.15    1.80    86.88085   111.78139   -51.83518
   246  C   4.0   -0.05    4.26    4.12    93.20260   111.55957   -51.62335
   247  C   4.0   -0.05    4.21    4.01    92.98564   112.81364   -49.04769
   248  C   4.0   -0.01    4.19    3.97    95.46662   114.11540   -48.37551
   249  N   5.0   -0.14    3.36    2.00    95.43913   115.05725   -45.78389
   250  C   4.0    0.09    3.31    3.06    95.47923   117.46188   -44.96644
   251  N   5.0   -0.19    3.24    1.96    95.92788   119.41343   -46.49605
   252  N   5.0   -0.19    3.23    1.96    95.03726   117.99413   -42.51490
   253  H   1.0    0.08    1.02    1.43    93.30396   106.73615   -53.29082
   254  H   1.0    0.05    1.06    1.44    90.33118   109.12853   -50.10219
   255  H   1.0    0.04    1.03    1.43    94.93323   110.43024   -51.67050
   256  H   1.0    0.04    1.02    1.43    93.27337   112.93908   -53.15143
   257  H   1.0    0.05    1.02    1.43    91.42554   114.16117   -49.05083
   258  H   1.0    0.04    1.03    1.43    92.57844   111.37836   -47.62434
   259  H   1.0    0.04    1.02    1.43    97.02019   112.76221   -48.54063
   260  H   1.0    0.04    1.03    1.43    95.81679   115.66308   -49.68534
   261  H   1.0    0.08    1.07    1.44    95.03607   113.71636   -44.48201
   262  H   1.0    0.08    1.03    1.43    96.05009   119.21930   -48.38648
   263  H   1.0    0.08    1.03    1.43    95.86076   121.21043   -45.86103
   264  H   1.0    0.08    1.03    1.43    94.86261   116.59923   -41.23213
   265  H   1.0    0.08    1.03    1.43    95.34688   119.76584   -41.89257
   266  N   5.0   -0.20    3.26    1.97    81.63271   109.99497   -52.32692
   267  C   4.0    0.03    4.24    4.07    80.22969   110.92636   -50.17472
   268  C   4.0    0.09    3.21    3.04    79.34731   113.56592   -50.92417
   269  O   6.0   -0.33    1.25    1.80    77.18050   114.25766   -50.51148
   270  C   4.0   -0.05    4.20    3.99    81.65877   110.49550   -47.71391
   271  C   4.0   -0.05    4.18    3.97    82.45556   107.70658   -47.43425
   272  C   4.0   -0.05    4.12    3.85    80.31117   105.72230   -47.38712
   273  C   4.0   -0.04    4.13    3.85    81.17299   103.30958   -48.71428
   274  N   5.0   -0.12    3.99    2.84    79.34562   101.15792   -48.53114
   275  H   1.0    0.11    1.05    1.44    83.53981   110.20495   -52.35945
   276  H   1.0    0.05    1.07    1.44    78.46984   109.82908   -50.08638
   277  H   1.0    0.05    1.03    1.43    83.37100   111.64340   -47.69818
   278  H   1.0    0.04    1.03    1.43    80.48680   111.06685   -46.12626
   279  H   1.0    0.04    1.03    1.43    83.77206   107.24706   -48.95274
   280  H   1.0    0.05    1.03    1.43    83.51665   107.55723   -45.67347
   281  H   1.0    0.05    1.02    1.43    79.82894   105.31261   -45.42925
   282  H   1.0    0.04    1.03    1.43    78.62742   106.44158   -48.32538
   283  H   1.0    0.04    1.02    1.43    81.49004   103.70054   -50.71211
   284  H   1.0    0.04    1.02    1.43    82.98997   102.69502   -47.94819
   285  H   1.0    0.06    1.02    1.43    80.16263    99.64926   -49.45614
   286  H   1.0    0.06    1.02    1.43    79.04222   100.67979   -46.67263
   287  H   1.0    0.06    1.02    1.43    77.64561   101.60318   -49.37196
   288  N   5.0   -0.20    3.28    1.98    72.30960   115.37680   -49.27819
   289  C   4.0    0.04    4.28    4.16    71.78383   117.80150   -48.19695
   290  C   4.0    0.08    3.20    3.04    70.33237   119.42659   -50.04310
   291  O   6.0   -0.27    1.13    1.80    68.25698   120.24919   -49.33233
   292  C   4.0   -0.03    4.29    4.18    74.22237   118.88725   -47.12074
   293  C   4.0   -0.02    3.53    3.13    75.01277   117.29147   -44.85042
   294  C   4.0   -0.05    3.45    3.10    74.16875   117.86709   -42.42255
   295  C   4.0   -0.04    3.46    3.10    76.55744   115.15099   -45.06117
   296  C   4.0   -0.04    3.43    3.09    74.86844   116.46887   -40.31208
   297  C   4.0   -0.05    3.42    3.08    77.29334   113.73848   -42.97486
   298  C   4.0    0.07    3.42    3.08    76.48510   114.40131   -40.55295
   299  O   6.0   -0.24    2.15    1.85    77.21728   113.13482   -38.44340
   300  H   1.0    0.12    1.10    1.44    74.07423   115.07428   -49.94678
   301  H   1.0    0.06    1.07    1.44    70.43834   117.49117   -46.63694
   302  H   1.0    0.05    1.03    1.43    75.66919   118.82950   -48.58413
   303  H   1.0    0.05    1.03    1.43    73.90451   120.83363   -46.53670
   304  H   1.0    0.05    1.03    1.43    72.93820   119.47437   -42.14721
   305  H   1.0    0.07    1.07    1.44    77.21019   114.57997   -46.88670
   306  H   1.0    0.05    1.03    1.43    74.19292   116.96774   -38.45299
   307  H   1.0    0.06    1.03    1.43    78.52375   112.12255   -43.15133
   308  H   1.0    0.15    1.08    1.44    78.29040   111.67325   -38.89223
   309  N   5.0   -0.22    3.31    1.99    76.66421   137.63118   -27.92373
   310  C   4.0    0.03    4.33    4.25    78.07515   135.92887   -26.29547
   311  C   4.0    0.14    3.33    3.06    80.89482   136.65442   -25.99930
   312  O   6.0   -0.30    1.19    1.80    82.33679   135.43893   -24.65885
   313  C   4.0   -0.05    4.32    4.23    77.72043   133.26863   -27.37910
   314  C   4.0   -0.04    4.06    3.73    74.92199   132.59479   -27.36928
   315  S   6.0   -0.06    2.56    3.10    73.95537   129.94101   -29.40129
   316  C   4.0   -0.07    3.88    3.43    76.41609   129.58952   -31.74552
   317  H   1.0    0.08    1.03    1.43    76.43150   137.11009   -29.75130
   318  H   1.0    0.04    1.05    1.44    77.26946   136.06178   -24.38463
   319  H   1.0    0.04    1.04    1.43    78.43709   133.31543   -29.31655
   320  H   1.0    0.04    1.03    1.43    78.83952   131.93886   -26.28274
   321  H   1.0    0.04    1.07    1.44    74.30067   132.07839   -25.47884
   322  H   1.0    0.04    1.09    1.44    73.78879   134.17452   -28.02652
   323  H   1.0    0.04    1.05    1.44    75.90706   127.91200   -32.81419
   324  H   1.0    0.04    1.03    1.43    76.47793   131.21968   -32.99020
   325  H   1.0    0.04    1.04    1.43    78.22485   129.28347   -30.82907
   326  N   5.0   -0.15    3.47    2.06    81.51669   138.70415   -27.36416
   327  C   4.0    0.04    4.21    4.02    83.71553   140.28772   -27.06011
   328  C   4.0    0.09    3.18    3.03    83.38630   142.33774   -24.99766
   329  O   6.0   -0.27    1.12    1.80    85.24928   143.50864   -24.28644
   330  C   4.0   -0.06    4.11    3.83    84.27894   141.59933   -29.57212
   331  H   1.0    0.08    1.11    1.44    80.12133   139.57078   -28.36031
   332  H   1.0    0.07    1.05    1.44    85.30749   139.10515   -26.46845
   333  H   1.0    0.06    1.00    1.43    85.93760   142.78720   -29.37374
   334  H   1.0    0.04    1.00    1.43    84.59527   140.19959   -31.03995
   335  H   1.0    0.05    1.00    1.43    82.66643   142.76224   -30.09134
   336  H   1.0    0.09    1.07    1.44    90.47477   106.28125   -53.03793
   337  H   1.0    0.06    1.05    1.44    88.65841   111.50057   -54.97934
   338  H   1.0    0.09    1.08    1.44    81.38761   108.31916   -52.48235
   339  H   1.0    0.06    1.05    1.44    80.54640   114.75950   -51.76597
   340  H   1.0    0.10    1.08    1.44    72.05816   114.16732   -48.10922
   341  H   1.0    0.06    1.04    1.43    71.05541   119.79377   -51.74998
   342  H   1.0    0.09    1.07    1.44    75.09144   137.83193   -27.30838
   343  H   1.0    0.06    1.04    1.43    81.67540   142.68316   -24.27339
   344  H   1.0    0.09    1.08    1.44    69.13641   120.27759   -29.40526
   345  H   1.0    0.06    1.05    1.44    91.57557   134.39363   -43.12897
   346  H   1.0    0.09    1.08    1.44    90.95872   130.32307   -46.43054
   347  H   1.0    0.07    1.05    1.44    84.30773   134.87369   -48.36956

  Z AO/shell   Hii/eV     exponent
  1     Wed Apr 25 08:07:45 CEST 2018   EN: 2.200 GM2: 0.406  GM3: 0.0800  RAES: 1.40
     1s    -10.707211    1.230000
  6     Wed Apr 25 08:07:45 CEST 2018   EN: 2.550 GM2: 0.538  GM3: 0.1500  RAES: 3.00
     2s    -13.970922    2.096432
     2p    -10.063292    1.800000
  7     Wed Apr 25 08:07:45 CEST 2018   EN: 3.040 GM2: 0.461  GM3:-0.0640  RAES: 1.90
     2s    -16.686243    2.339881
     2p    -12.523956    2.014332
  8     Wed Apr 25 08:07:45 CEST 2018   EN: 3.440 GM2: 0.452  GM3:-0.0517  RAES: 1.80
     2s    -20.229985    2.439742
     2p    -15.503117    2.137023
 16     Tue Apr 24 11:44:34 CEST 2018   EN: 2.580 GM2: 0.340  GM3:-0.0502  RAES: 3.10
     3s    -20.029654    1.981333
     3p    -11.377694    2.025643
     3d     -0.420282    1.702555
 no old-style atom pair restraining (fixing) potential

molecular fragmentation (1/2 indicates fragments):
111111111111111111111111111111111111111111111111111111111111111111111111
111111111111111111111111111111111111111111111111111111111111111111111111
111111111111111111111111111111111111111111111111111111111112222222222222
222222222222222222222222222222222222222222222222222222222222222222222222
22222222222222222222222222222222222222222222222222222221122
# atoms in fragment 1/2:   205   142
 fragment masses (1/2) :     1488.67      888.22
CMA distance (Bohr)    :  10.504
constraining FC (au)   :  0.0500
           ------------------------------------------------- 
          |        Self-Consistent Charge Iterations        |
           ------------------------------------------------- 

 Ncao       : 854
 Nao        : 852
 Nshell     : 514
 Nel        : 932
 T(el)      :   500.0
 intcut     :    35.0
 scfconv/Eh :  0.100E-06
   qconv/e  :  0.100E-04
 intneglect :  0.100E-08
 broydamp   :      0.400
 iter      E             dE          RMSdq      gap      omega  full diag
   1   -531.1869989 -0.531187E+03  0.461E+00    2.71       0.0  T
   2   -532.4151552 -0.122816E+01  0.217E+00    1.58       1.0  T
   3   -532.4907119 -0.755566E-01  0.124E+00    1.75       1.0  T
   4   -532.5841837 -0.934718E-01  0.260E-01    1.24       1.0  T
   5   -532.5888443 -0.466059E-02  0.132E-01    1.39       1.0  T
   6   -532.5897390 -0.894749E-03  0.616E-02    1.40       1.0  T
   7   -532.5900764 -0.337369E-03  0.281E-02    1.41       1.0  T
   8   -532.5901228 -0.464042E-04  0.155E-02    1.42       1.0  T
   9   -532.5901377 -0.149223E-04  0.791E-03    1.42       1.0  T
  10   -532.5901409 -0.323293E-05  0.375E-03    1.42       1.4  T
  11   -532.5901418 -0.842920E-06  0.178E-03    1.42       3.0  T
  12   -532.5901420 -0.180888E-06  0.809E-04    1.42       6.6  T
  13   -532.5901420 -0.599191E-07  0.375E-04    1.42      14.3  T
  14   -532.5901420 -0.828220E-08  0.153E-04    1.42      35.1  T
  15   -532.5901420 -0.205773E-08  0.674E-05    1.42      79.6  T
  16   -532.5901420 -0.317868E-09  0.307E-05    1.42     174.8  T
speedup  1.92
cpu  time for SCC   10.73 s
wall time for SCC    5.58 s

   *** convergence criteria satisfied after 16 iterations ***

          eigenvalues
 #    :         454        455        456        457        458        459        460        461
 occ. :        2.000      2.000      2.000      2.000      2.000      2.000      2.000      2.000
 eps  :       -10.387    -10.344    -10.244    -10.205    -10.018     -9.984     -9.967     -9.941
 #    :         462        463        464        465        466        467        468        469
 occ. :        2.000      2.000      2.000      2.000      2.000      0.000      0.000      0.000
 eps  :        -9.900     -9.805     -9.674     -9.558     -9.414     -7.995     -7.890     -7.840
 #    :         470        471        472        473        474        475        476        477
 occ. :        0.000      0.000      0.000      0.000      0.000      0.000      0.000      0.000
 eps  :        -7.713     -7.708     -7.341     -6.926     -6.814     -6.691     -6.649     -6.514


   #   Z            q   n(s)   n(p)   n(d)      C6AA      α(0)
   1   7 N     -0.393  1.322  4.072  0.000    30.187     8.160
   2   6 C      0.032  1.060  2.909  0.000    20.062     6.380
   3   6 C      0.268  1.049  2.683  0.000    22.480     7.764
   4   8 O     -0.491  1.756  4.735  0.000    23.586     6.511
   5   6 C     -0.076  1.059  3.017  0.000    21.950     6.670
   6   6 C     -0.003  1.084  2.919  0.000    28.093     8.694
   7   6 C     -0.041  1.088  2.953  0.000    29.014     8.833
   8   6 C     -0.045  1.083  2.962  0.000    29.123     8.850
   9   6 C     -0.057  1.077  2.979  0.000    29.410     8.893
  10   6 C     -0.075  1.082  2.993  0.000    29.872     8.962
  11   6 C      0.143  1.048  2.808  0.000    24.871     8.173
  12   8 O     -0.442  1.729  4.714  0.000    21.687     6.287
  13   1 H      0.174  0.826  0.000  0.000     1.249     1.750
  14   1 H      0.043  0.957  0.000  0.000     2.413     2.429
  15   1 H      0.066  0.934  0.000  0.000     2.130     2.282
  16   1 H      0.038  0.962  0.000  0.000     2.480     2.463
  17   1 H      0.035  0.965  0.000  0.000     2.516     2.480
  18   1 H      0.050  0.950  0.000  0.000     2.325     2.384
  19   1 H      0.045  0.955  0.000  0.000     2.377     2.411
  20   1 H      0.047  0.953  0.000  0.000     2.354     2.399
  21   1 H      0.350  0.650  0.000  0.000     0.589     1.205
  22   7 N     -0.168  1.249  3.919  0.000    24.627     7.370
  23   6 C      0.008  1.077  2.915  0.000    20.452     6.440
  24   6 C      0.293  1.037  2.670  0.000    22.031     7.686
  25   8 O     -0.477  1.750  4.727  0.000    23.288     6.470
  26   6 C     -0.092  1.062  3.029  0.000    22.249     6.716
  27   6 C     -0.077  1.051  3.027  0.000    21.979     6.675
  28   6 C     -0.024  1.055  2.969  0.000    21.092     6.555
  29   7 N     -0.135  1.211  3.924  0.000    23.922     7.264
  30   6 C      0.233  1.022  2.745  0.000    23.112     7.871
  31   7 N     -0.272  1.276  3.996  0.000    27.027     7.721
  32   7 N     -0.235  1.226  4.009  0.000    26.164     7.597
  33   1 H      0.228  0.772  0.000  0.000     0.974     1.546
  34   1 H      0.081  0.919  0.000  0.000     1.972     2.196
  35   1 H      0.098  0.902  0.000  0.000     1.800     2.098
  36   1 H      0.060  0.940  0.000  0.000     2.193     2.316
  37   1 H      0.066  0.934  0.000  0.000     2.129     2.282
  38   1 H      0.070  0.930  0.000  0.000     2.085     2.258
  39   1 H      0.096  0.904  0.000  0.000     1.823     2.112
  40   1 H      0.090  0.910  0.000  0.000     1.877     2.143
  41   1 H      0.219  0.781  0.000  0.000     1.013     1.576
  42   1 H      0.236  0.764  0.000  0.000     0.939     1.518
  43   1 H      0.253  0.747  0.000  0.000     0.873     1.464
  44   1 H      0.255  0.745  0.000  0.000     0.864     1.456
  45   1 H      0.258  0.742  0.000  0.000     0.853     1.447
  46   7 N     -0.183  1.239  3.944  0.000    24.954     7.419
  47   6 C      0.029  1.063  2.908  0.000    20.095     6.385
  48   6 C      0.276  1.050  2.674  0.000    22.328     7.738
  49   8 O     -0.502  1.756  4.746  0.000    23.828     6.545
  50   6 C     -0.064  1.052  3.012  0.000    21.735     6.637
  51   6 C     -0.099  1.073  3.026  0.000    22.401     6.740
  52   6 C      0.369  1.028  2.603  0.000    20.744     7.453
  53   8 O     -0.640  1.769  4.871  0.000    27.116     6.982
  54   8 O     -0.648  1.783  4.865  0.000    27.331     7.009
  55   1 H      0.214  0.786  0.000  0.000     1.037     1.595
  56   1 H      0.061  0.939  0.000  0.000     2.182     2.310
  57   1 H      0.053  0.947  0.000  0.000     2.278     2.360
  58   1 H      0.042  0.958  0.000  0.000     2.418     2.432
  59   1 H      0.028  0.972  0.000  0.000     2.615     2.529
  60   1 H      0.042  0.958  0.000  0.000     2.428     2.437
  61   7 N     -0.185  1.256  3.929  0.000    25.017     7.428
  62   6 C      0.031  1.063  2.906  0.000    20.051     6.376
  63   6 C      0.298  1.036  2.666  0.000    21.948     7.672
  64   8 O     -0.508  1.761  4.747  0.000    23.965     6.563
  65   6 C     -0.069  1.059  3.010  0.000    21.822     6.652
  66   6 C     -0.020  1.074  2.946  0.000    20.957     6.522
  67  16 S     -0.273  1.932  4.284  0.057   152.826    20.807
  68   6 C     -0.047  1.054  2.993  0.000    21.491     6.613
  69   1 H      0.218  0.782  0.000  0.000     1.018     1.581
  70   1 H      0.051  0.949  0.000  0.000     2.313     2.379
  71   1 H      0.075  0.925  0.000  0.000     2.034     2.230
  72   1 H      0.068  0.932  0.000  0.000     2.103     2.268
  73   1 H      0.064  0.936  0.000  0.000     2.155     2.296
  74   1 H      0.065  0.935  0.000  0.000     2.141     2.288
  75   1 H      0.071  0.929  0.000  0.000     2.078     2.254
  76   1 H      0.067  0.933  0.000  0.000     2.117     2.275
  77   1 H      0.059  0.941  0.000  0.000     2.211     2.325
  78   7 N     -0.221  1.280  3.941  0.000    25.832     7.549
  79   6 C      0.055  1.047  2.899  0.000    19.656     6.311
  80   6 C      0.291  1.047  2.662  0.000    22.078     7.697
  81   8 O     -0.535  1.754  4.781  0.000    24.577     6.647
  82   6 C     -0.065  1.055  3.011  0.000    21.728     6.632
  83   6 C     -0.001  1.054  2.947  0.000    20.566     6.450
  84   6 C     -0.113  1.042  3.071  0.000    22.709     6.794
  85   6 C     -0.112  1.038  3.074  0.000    22.689     6.792
  86   1 H      0.240  0.760  0.000  0.000     0.922     1.504
  87   1 H      0.053  0.947  0.000  0.000     2.282     2.362
  88   1 H      0.056  0.944  0.000  0.000     2.251     2.346
  89   1 H      0.036  0.964  0.000  0.000     2.509     2.477
  90   1 H      0.029  0.971  0.000  0.000     2.604     2.524
  91   1 H      0.057  0.943  0.000  0.000     2.238     2.340
  92   1 H      0.029  0.971  0.000  0.000     2.604     2.523
  93   1 H      0.040  0.960  0.000  0.000     2.452     2.449
  94   1 H      0.051  0.949  0.000  0.000     2.306     2.375
  95   1 H      0.031  0.969  0.000  0.000     2.568     2.506
  96   1 H      0.035  0.965  0.000  0.000     2.515     2.480
  97   7 N     -0.192  1.258  3.934  0.000    25.169     7.451
  98   6 C      0.039  1.065  2.896  0.000    19.914     6.353
  99   6 C      0.284  1.050  2.666  0.000    22.192     7.713
 100   8 O     -0.505  1.747  4.758  0.000    23.891     6.553
 101   6 C     -0.017  1.065  2.952  0.000    20.850     6.495
 102   6 C     -0.052  1.048  3.003  0.000    21.499     6.602
 103   6 C     -0.110  1.038  3.072  0.000    22.667     6.789
 104   6 C     -0.108  1.039  3.069  0.000    22.620     6.783
 105   1 H      0.227  0.773  0.000  0.000     0.978     1.549
 106   1 H      0.068  0.932  0.000  0.000     2.111     2.272
 107   1 H      0.064  0.936  0.000  0.000     2.156     2.296
 108   1 H      0.032  0.968  0.000  0.000     2.558     2.501
 109   1 H      0.021  0.979  0.000  0.000     2.715     2.577
 110   1 H      0.062  0.938  0.000  0.000     2.171     2.304
 111   1 H      0.044  0.956  0.000  0.000     2.400     2.422
 112   1 H      0.026  0.974  0.000  0.000     2.640     2.541
 113   1 H      0.041  0.959  0.000  0.000     2.437     2.441
 114   1 H      0.037  0.963  0.000  0.000     2.494     2.470
 115   1 H      0.056  0.944  0.000  0.000     2.245     2.343
 116   7 N     -0.204  1.252  3.952  0.000    25.435     7.490
 117   6 C      0.031  1.060  2.909  0.000    20.071     6.381
 118   6 C      0.275  1.042  2.683  0.000    22.353     7.742
 119   8 O     -0.500  1.744  4.756  0.000    23.794     6.540
 120   6 C     -0.113  1.040  3.072  0.000    22.694     6.790
 121   1 H      0.210  0.790  0.000  0.000     1.055     1.609
 122   1 H      0.065  0.935  0.000  0.000     2.144     2.290
 123   1 H      0.069  0.931  0.000  0.000     2.094     2.263
 124   1 H      0.066  0.934  0.000  0.000     2.129     2.282
 125   1 H      0.043  0.957  0.000  0.000     2.410     2.428
 126   7 N     -0.182  1.255  3.927  0.000    24.948     7.418
 127   6 C      0.039  1.060  2.900  0.000    19.925     6.358
 128   6 C      0.267  1.056  2.677  0.000    22.490     7.765
 129   8 O     -0.443  1.716  4.727  0.000    22.551     6.367
 130   6 C     -0.096  1.068  3.028  0.000    22.332     6.729
 131   6 C      0.375  1.027  2.598  0.000    20.641     7.435
 132   8 O     -0.609  1.771  4.837  0.000    26.338     6.881
 133   8 O     -0.618  1.753  4.865  0.000    26.576     6.912
 134   1 H      0.206  0.794  0.000  0.000     1.074     1.623
 135   1 H      0.068  0.932  0.000  0.000     2.103     2.268
 136   1 H      0.034  0.966  0.000  0.000     2.537     2.491
 137   1 H      0.060  0.940  0.000  0.000     2.202     2.320
 138   7 N     -0.168  1.246  3.922  0.000    24.634     7.371
 139   6 C     -0.036  1.058  2.978  0.000    21.287     6.583
 140   6 C      0.284  1.040  2.676  0.000    22.185     7.713
 141   8 O     -0.470  1.763  4.707  0.000    23.125     6.447
 142   1 H      0.180  0.820  0.000  0.000     1.215     1.727
 143   1 H      0.088  0.912  0.000  0.000     1.895     2.153
 144   1 H      0.105  0.895  0.000  0.000     1.743     2.065
 145   7 N     -0.215  1.284  3.931  0.000    25.689     7.528
 146   6 C      0.019  1.073  2.908  0.000    20.262     6.410
 147   6 C      0.313  1.041  2.646  0.000    21.684     7.625
 148   8 O     -0.506  1.754  4.752  0.000    23.921     6.557
 149   6 C     -0.006  1.059  2.947  0.000    20.642     6.462
 150   6 C     -0.083  1.056  3.027  0.000    22.083     6.690
 151   6 C     -0.117  1.038  3.080  0.000    22.799     6.808
 152   6 C     -0.094  1.034  3.060  0.000    22.361     6.743
 153   1 H      0.248  0.752  0.000  0.000     0.892     1.480
 154   1 H      0.058  0.942  0.000  0.000     2.226     2.333
 155   1 H      0.020  0.980  0.000  0.000     2.733     2.586
 156   1 H      0.075  0.925  0.000  0.000     2.026     2.226
 157   1 H      0.062  0.938  0.000  0.000     2.171     2.304
 158   1 H      0.042  0.958  0.000  0.000     2.422     2.434
 159   1 H      0.021  0.979  0.000  0.000     2.718     2.578
 160   1 H      0.084  0.916  0.000  0.000     1.935     2.175
 161   1 H      0.047  0.953  0.000  0.000     2.355     2.400
 162   1 H      0.014  0.986  0.000  0.000     2.831     2.631
 163   1 H      0.026  0.974  0.000  0.000     2.648     2.545
 164   7 N     -0.208  1.277  3.930  0.000    25.522     7.503
 165   6 C      0.050  1.057  2.893  0.000    19.750     6.330
 166   6 C      0.257  1.052  2.692  0.000    22.683     7.800
 167   8 O     -0.487  1.738  4.749  0.000    23.496     6.499
 168   6 C     -0.104  1.077  3.027  0.000    22.496     6.754
 169   6 C      0.376  1.023  2.601  0.000    20.627     7.432
 170   8 O     -0.638  1.776  4.862  0.000    27.059     6.974
 171   8 O     -0.606  1.759  4.847  0.000    26.268     6.872
 172   1 H      0.201  0.799  0.000  0.000     1.099     1.642
 173   1 H      0.033  0.967  0.000  0.000     2.551     2.498
 174   1 H      0.032  0.968  0.000  0.000     2.557     2.501
 175   1 H      0.028  0.972  0.000  0.000     2.618     2.530
 176   7 N     -0.092  1.246  3.846  0.000    23.041     7.129
 177   6 C      0.024  1.071  2.904  0.000    20.151     6.388
 178   6 C      0.284  1.044  2.673  0.000    22.194     7.714
 179   8 O     -0.432  1.734  4.698  0.000    22.329     6.336
 180   6 C     -0.075  1.060  3.015  0.000    21.908     6.659
 181   6 C     -0.063  1.049  3.014  0.000    21.681     6.626
 182   6 C      0.008  1.048  2.944  0.000    20.466     6.445
 183   1 H      0.059  0.941  0.000  0.000     2.208     2.324
 184   1 H      0.073  0.927  0.000  0.000     2.056     2.243
 185   1 H      0.063  0.937  0.000  0.000     2.162     2.300
 186   1 H      0.068  0.932  0.000  0.000     2.104     2.268
 187   1 H      0.064  0.936  0.000  0.000     2.150     2.293
 188   1 H      0.055  0.945  0.000  0.000     2.261     2.352
 189   1 H      0.031  0.969  0.000  0.000     2.570     2.507
 190   7 N     -0.197  1.261  3.937  0.000    25.285     7.468
 191   6 C      0.036  1.062  2.902  0.000    19.982     6.368
 192   6 C      0.200  1.085  2.715  0.000    23.738     7.979
 193   8 O     -0.330  1.750  4.581  0.000    20.339     6.047
 194   6 C     -0.120  1.067  3.053  0.000    22.787     6.796
 195   6 C      0.290  1.037  2.673  0.000    22.075     7.693
 196   8 O     -0.485  1.755  4.731  0.000    23.465     6.495
 197   7 N     -0.286  1.268  4.018  0.000    27.386     7.772
 198   1 H      0.226  0.774  0.000  0.000     0.981     1.552
 199   1 H      0.077  0.923  0.000  0.000     2.014     2.219
 200   1 H      0.094  0.906  0.000  0.000     1.840     2.121
 201   1 H      0.100  0.900  0.000  0.000     1.781     2.087
 202   1 H      0.236  0.764  0.000  0.000     0.940     1.519
 203   1 H      0.238  0.762  0.000  0.000     0.930     1.511
 204   7 N     -0.395  1.310  4.084  0.000    30.218     8.164
 205   6 C      0.036  1.054  2.910  0.000    19.963     6.360
 206   6 C      0.271  1.038  2.691  0.000    22.421     7.757
 207   8 O     -0.525  1.759  4.766  0.000    24.333     6.614
 208   6 C     -0.075  1.061  3.014  0.000    21.919     6.664
 209   6 C     -0.018  1.062  2.956  0.000    20.862     6.496
 210   6 C     -0.126  1.044  3.081  0.000    22.973     6.835
 211   6 C     -0.133  1.048  3.085  0.000    23.116     6.855
 212   1 H      0.160  0.840  0.000  0.000     1.334     1.810
 213   1 H      0.033  0.967  0.000  0.000     2.541     2.493
 214   1 H      0.059  0.941  0.000  0.000     2.206     2.322
 215   1 H      0.031  0.969  0.000  0.000     2.574     2.509
 216   1 H      0.042  0.958  0.000  0.000     2.423     2.434
 217   1 H      0.033  0.967  0.000  0.000     2.546     2.495
 218   1 H      0.036  0.964  0.000  0.000     2.496     2.471
 219   1 H      0.052  0.948  0.000  0.000     2.298     2.370
 220   1 H      0.059  0.941  0.000  0.000     2.214     2.327
 221   1 H      0.043  0.957  0.000  0.000     2.410     2.428
 222   1 H      0.052  0.948  0.000  0.000     2.294     2.368
 223   7 N     -0.160  1.242  3.918  0.000    24.457     7.345
 224   6 C      0.034  1.055  2.911  0.000    19.983     6.362
 225   6 C      0.218  1.083  2.699  0.000    23.406     7.923
 226   8 O     -0.381  1.754  4.627  0.000    21.309     6.189
 227   6 C     -0.081  1.059  3.023  0.000    22.047     6.684
 228   6 C     -0.019  1.056  2.963  0.000    20.880     6.499
 229   6 C     -0.121  1.043  3.078  0.000    22.876     6.819
 230   6 C     -0.114  1.039  3.075  0.000    22.729     6.797
 231   1 H      0.241  0.759  0.000  0.000     0.920     1.502
 232   1 H      0.068  0.932  0.000  0.000     2.110     2.272
 233   1 H      0.068  0.932  0.000  0.000     2.105     2.269
 234   1 H      0.061  0.939  0.000  0.000     2.190     2.314
 235   1 H      0.045  0.955  0.000  0.000     2.385     2.415
 236   1 H      0.037  0.963  0.000  0.000     2.489     2.467
 237   1 H      0.047  0.953  0.000  0.000     2.357     2.401
 238   1 H      0.051  0.949  0.000  0.000     2.313     2.379
 239   1 H      0.032  0.968  0.000  0.000     2.559     2.502
 240   1 H      0.040  0.960  0.000  0.000     2.446     2.446
 241   1 H      0.038  0.962  0.000  0.000     2.471     2.458
 242   7 N     -0.395  1.316  4.079  0.000    30.237     8.167
 243   6 C      0.038  1.057  2.905  0.000    19.946     6.361
 244   6 C      0.197  1.093  2.711  0.000    23.805     7.990
 245   8 O     -0.373  1.758  4.616  0.000    21.156     6.167
 246   6 C     -0.076  1.055  3.020  0.000    21.942     6.668
 247   6 C     -0.084  1.055  3.029  0.000    22.091     6.691
 248   6 C     -0.029  1.058  2.971  0.000    21.172     6.566
 249   7 N     -0.134  1.212  3.922  0.000    23.907     7.262
 250   6 C      0.227  1.025  2.748  0.000    23.226     7.890
 251   7 N     -0.232  1.222  4.010  0.000    26.094     7.587
 252   7 N     -0.250  1.235  4.015  0.000    26.519     7.648
 253   1 H      0.171  0.829  0.000  0.000     1.268     1.764
 254   1 H      0.044  0.956  0.000  0.000     2.403     2.424
 255   1 H      0.075  0.925  0.000  0.000     2.028     2.227
 256   1 H      0.066  0.934  0.000  0.000     2.130     2.283
 257   1 H      0.065  0.935  0.000  0.000     2.144     2.290
 258   1 H      0.064  0.936  0.000  0.000     2.154     2.295
 259   1 H      0.098  0.902  0.000  0.000     1.808     2.103
 260   1 H      0.091  0.909  0.000  0.000     1.867     2.137
 261   1 H      0.230  0.770  0.000  0.000     0.964     1.538
 262   1 H      0.256  0.744  0.000  0.000     0.861     1.453
 263   1 H      0.242  0.758  0.000  0.000     0.915     1.499
 264   1 H      0.226  0.774  0.000  0.000     0.980     1.551
 265   1 H      0.229  0.771  0.000  0.000     0.968     1.541
 266   7 N     -0.389  1.314  4.075  0.000    30.062     8.143
 267   6 C      0.035  1.055  2.910  0.000    20.003     6.371
 268   6 C      0.201  1.093  2.706  0.000    23.719     7.976
 269   8 O     -0.372  1.748  4.624  0.000    21.130     6.163
 270   6 C     -0.067  1.052  3.015  0.000    21.785     6.645
 271   6 C     -0.067  1.052  3.015  0.000    21.778     6.644
 272   6 C     -0.085  1.050  3.035  0.000    22.132     6.698
 273   6 C     -0.049  1.059  2.990  0.000    21.549     6.626
 274   7 N     -0.150  1.231  3.918  0.000    24.228     7.311
 275   1 H      0.172  0.828  0.000  0.000     1.262     1.760
 276   1 H      0.068  0.932  0.000  0.000     2.106     2.269
 277   1 H      0.051  0.949  0.000  0.000     2.302     2.373
 278   1 H      0.034  0.966  0.000  0.000     2.529     2.487
 279   1 H      0.064  0.936  0.000  0.000     2.156     2.296
 280   1 H      0.041  0.959  0.000  0.000     2.442     2.444
 281   1 H      0.058  0.942  0.000  0.000     2.219     2.330
 282   1 H      0.072  0.928  0.000  0.000     2.060     2.245
 283   1 H      0.118  0.882  0.000  0.000     1.631     1.997
 284   1 H      0.113  0.887  0.000  0.000     1.668     2.019
 285   1 H      0.311  0.689  0.000  0.000     0.682     1.294
 286   1 H      0.292  0.708  0.000  0.000     0.737     1.345
 287   1 H      0.303  0.697  0.000  0.000     0.706     1.316
 288   7 N     -0.411  1.310  4.100  0.000    30.678     8.226
 289   6 C      0.049  1.050  2.901  0.000    19.769     6.332
 290   6 C      0.200  1.091  2.709  0.000    23.747     7.981
 291   8 O     -0.388  1.767  4.622  0.000    21.450     6.210
 292   6 C     -0.073  1.058  3.015  0.000    21.883     6.659
 293   6 C      0.002  1.083  2.915  0.000    27.968     8.674
 294   6 C     -0.043  1.085  2.959  0.000    29.077     8.843
 295   6 C     -0.050  1.086  2.964  0.000    29.250     8.869
 296   6 C     -0.062  1.073  2.989  0.000    29.533     8.911
 297   6 C     -0.073  1.080  2.992  0.000    29.808     8.953
 298   6 C      0.147  1.047  2.806  0.000    24.801     8.161
 299   8 O     -0.447  1.727  4.719  0.000    21.773     6.299
 300   1 H      0.207  0.793  0.000  0.000     1.071     1.621
 301   1 H      0.043  0.957  0.000  0.000     2.412     2.429
 302   1 H      0.063  0.937  0.000  0.000     2.164     2.300
 303   1 H      0.041  0.959  0.000  0.000     2.437     2.441
 304   1 H      0.037  0.963  0.000  0.000     2.485     2.465
 305   1 H      0.070  0.930  0.000  0.000     2.091     2.261
 306   1 H      0.023  0.977  0.000  0.000     2.690     2.565
 307   1 H      0.040  0.960  0.000  0.000     2.454     2.450
 308   1 H      0.318  0.682  0.000  0.000     0.671     1.287
 309   7 N     -0.390  1.310  4.081  0.000    30.108     8.149
 310   6 C      0.016  1.067  2.917  0.000    20.316     6.420
 311   6 C      0.265  1.047  2.687  0.000    22.524     7.771
 312   8 O     -0.498  1.758  4.740  0.000    23.736     6.532
 313   6 C     -0.065  1.051  3.014  0.000    21.730     6.634
 314   6 C     -0.023  1.070  2.953  0.000    20.983     6.523
 315  16 S     -0.234  1.912  4.269  0.054   151.082    20.688
 316   6 C     -0.048  1.048  2.999  0.000    21.501     6.614
 317   1 H      0.166  0.834  0.000  0.000     1.296     1.783
 318   1 H      0.067  0.933  0.000  0.000     2.122     2.278
 319   1 H      0.046  0.954  0.000  0.000     2.377     2.411
 320   1 H      0.052  0.948  0.000  0.000     2.296     2.370
 321   1 H      0.073  0.927  0.000  0.000     2.057     2.243
 322   1 H      0.067  0.933  0.000  0.000     2.114     2.274
 323   1 H      0.047  0.953  0.000  0.000     2.363     2.404
 324   1 H      0.056  0.944  0.000  0.000     2.245     2.343
 325   1 H      0.043  0.957  0.000  0.000     2.410     2.428
 326   7 N     -0.180  1.249  3.931  0.000    24.908     7.412
 327   6 C      0.027  1.058  2.915  0.000    20.145     6.393
 328   6 C      0.198  1.091  2.711  0.000    23.773     7.985
 329   8 O     -0.365  1.761  4.604  0.000    20.994     6.143
 330   6 C     -0.131  1.045  3.087  0.000    23.075     6.848
 331   1 H      0.228  0.772  0.000  0.000     0.972     1.545
 332   1 H      0.090  0.910  0.000  0.000     1.880     2.144
 333   1 H      0.075  0.925  0.000  0.000     2.034     2.230
 334   1 H      0.079  0.921  0.000  0.000     1.986     2.204
 335   1 H      0.072  0.928  0.000  0.000     2.063     2.246
 336   1 H      0.180  0.820  0.000  0.000     1.211     1.724
 337   1 H      0.078  0.922  0.000  0.000     2.000     2.211
 338   1 H      0.192  0.808  0.000  0.000     1.148     1.678
 339   1 H      0.077  0.923  0.000  0.000     2.010     2.217
 340   1 H      0.175  0.825  0.000  0.000     1.240     1.744
 341   1 H      0.079  0.921  0.000  0.000     1.992     2.207
 342   1 H      0.189  0.811  0.000  0.000     1.162     1.689
 343   1 H      0.085  0.915  0.000  0.000     1.930     2.173
 344   1 H      0.186  0.814  0.000  0.000     1.178     1.700
 345   1 H      0.086  0.914  0.000  0.000     1.914     2.164
 346   1 H      0.180  0.820  0.000  0.000     1.216     1.727
 347   1 H      0.066  0.934  0.000  0.000     2.131     2.283

 Mol. C6AA /au·bohr⁶  :    1122743.696081
 Mol. C8AA /au·bohr⁸  :   25394409.239366
 Mol. α(0) /au        :       1591.707982

 
molecular dipole:
                 x           y           z       tot (Debye)
 q only:        1.406       4.756     -19.324
   full:        1.837       4.064     -17.691      46.373
molecular quadrupole (traceless):
                xx          xy          yy          xz          yz          zz
 q only:    -1220.264     608.595     509.303   -2882.842   -2894.910     710.961
  q+dip:     -967.449     593.531     361.403   -2726.243   -2569.657     606.047
   full:     -968.728     595.816     366.793   -2724.560   -2566.924     601.935
speedup  1.93
cpu  time for grad   12.85 s
wall time for grad    6.64 s

SCC energy    :    -532.6088115
rep           :       6.4034838
ES            :       1.8305522
AES           :      -0.0808039
AXC           :       0.1928255
disp          :      -0.4453810
XB            :       0.0000000
fix           :       0.0000000
Gborn         :       0.0000000
Gsasa         :       0.0000000
Ghb           :       0.0000000
Gshift        :       0.0000000
Gsolv         :      -0.5853584     -367.32
Etot ala COSMO:    -532.6088115
grad norm     :       0.5499085
total E       :    -526.1675348
atomizationE  :      96.1722320    60348.99
(atE without considering molecular charge,
 total energy contains solvation terms)
H-L gap (eV)  :          1.4190

------------------------------------------------------------------------
 * finished run on 2019/05/09 at 18:13:24.809     
------------------------------------------------------------------------
 total:
 * wall-time:     0 d,  0 h,  0 min,  7.137 sec
 *  cpu-time:     0 d,  0 h,  0 min, 13.664 sec
 * ratio c/w:     1.914 speedup
 SCF:
 * wall-time:     0 d,  0 h,  0 min,  6.937 sec
 *  cpu-time:     0 d,  0 h,  0 min, 13.434 sec
 * ratio c/w:     1.937 speedup

