      -----------------------------------------------------------      
     |                   =====================                   |     
     |                           x T B                           |     
     |                   =====================                   |     
     |                         S. Grimme                         |     
     |          Mulliken Center for Theoretical Chemistry        |     
     |                    University of Bonn                     |     
     |                 Version 6.0.1 (SAW181210)                 |     
      -----------------------------------------------------------      

   This program is distributed in the hope that it will be useful,
   but WITHOUT ANY WARRANTY; without even the implied warranty of
   MERCHANTABILITY or FITNESS FOR A PARTICULAR PURPOSE.
   
   FOR NON-COMMERCIAL, ACADEMIA USE ONLY.
   
   Cite this work as:
   S. Grimme, C. Bannwarth, P. Shushkov, J. Comput. Theory Chem., 2017,
   13, 1989-2009.
   C. Bannwarth, S. Ehlert and S. Grimme., ChemRxiv, 2018, preprint.
   http://doi.org/10.26434/chemrxiv.7246238.v1
   
   for sTDA-xTB:
   S. Grimme and C. Bannwarth, J. Chem. Phys., 2016, 145, 054103.
   
   in the mass-spec context:
   V. Asgeirsson, C. Bauer and S. Grimme, Chem. Sci., 2017, 8, 4879.
   
   if GBSA is used:
   P. Shushkov, F. März and S. Grimme, unpublished.
   
   for ANC optimizer:
   S. Grimme, unpublished.
   Rational Function algorithm used in ANCopt:
   F. Eckert, P. Pulay, H.-J. Werner, J. Comput. Chem., 1997, 18, 1473.
   
   with help from (in alphabetical order)
   C. Bannwarth, F. Bohle, G. Brandenburg, E. Caldeweyher, M. Checinski,
   S. Dohm, S. Ehlert, S. Ehrlich, F. März, H. Neugebauer, J. Pisarek,
   P. Pracht, P. Shushkov, and S. Spicher.
   
 * started run on 2019/05/05 at 23:27:31.095     
========================================================================
 # omp threads = 2
========================================================================
number of atoms            : 1344
number of electrons        : 3624
charge                     : 2
spin                       : .0
first test random number   : .8196

########################################################################
# WARNING! Please study the warnings concerning your input carefully
#  - Process number higher than OMP_NUM_THREADS, I hope you know what you are doing.
########################################################################

           ------------------------------------------------- 
          |                 G F N 2 - x T B                 |
          | Geometry, Frequencies, Noncovalent interactions |
          |            JCTC 2018 parametrisation            |
           ------------------------------------------------- 
 
      method parameters     
 k(s)        :  1.8500
 k(p)        :  2.2300
 k(d)        :  2.2300
 k(f)        :  2.0000
 kEN (H0ij)  : -2.0000
 D4 a1       :  0.5200
 D4 a2       :  5.0000
 D4 s6       :  1.0000
 D4 s8       :  2.7000
 D4 s9       :  5.0000
 alphaj      :  2.0000

 Solvent             : h2o
 Using internal parameter file: .param_gbsa2_h2o
 Gsolv ref. state (COSMO-RS): gsolv [1 M gas/solution]
 temperature (mdtemp)       :    298.150000000000     
 dielectric constant        :    80.2000000000000     
 rho                        :    1.00000000000000     
 mass                       :    18.0000000000000     
 surface tension            :    15.5689454083859     
 probe radius               :   0.975313790000000     
 vdW radii scaling          :    1.00000000000000     
 Gshift (Eh)                :   1.857443126794793E-003
 c1                         :    1.55243817000000     
 soset                      :   0.130326360000000     
 HB correction              :  T

            Z     q(EN)     CN     RAES       Cart. coordinates
     1  N   5.0   -0.13    3.42    2.03   -25.64169    69.75356    22.12680
     2  C   4.0    0.03    4.46    4.48   -26.43160    72.37083    22.62947
     3  C   4.0    0.14    3.38    3.07   -28.32132    72.53902    24.79320
     4  O   6.0   -0.29    1.25    1.80   -29.87846    70.84016    25.08422
     5  C   4.0   -0.04    4.37    4.32   -27.55409    73.23255    20.09724
     6  C   4.0   -0.03    4.30    4.19   -28.30432    70.84772    18.78388
     7  C   4.0   -0.00    4.29    4.17   -26.28042    68.99578    19.52087
     8  H   1.0    0.05    1.05    1.44   -24.80265    73.54435    23.08867
     9  H   1.0    0.04    1.03    1.43   -29.19060    74.43819    20.42983
    10  H   1.0    0.04    1.03    1.43   -26.13302    74.25678    19.01253
    11  H   1.0    0.06    1.03    1.43   -30.15625    70.22789    19.43961
    12  H   1.0    0.04    1.03    1.43   -28.34022    71.13873    16.74486
    13  H   1.0    0.05    1.02    1.43   -26.99851    67.06637    19.47363
    14  H   1.0    0.05    1.02    1.43   -24.64203    69.16775    18.28499
    15  N   5.0   -0.14    3.42    2.03   -28.09267    74.49111    26.38813
    16  C   4.0    0.04    4.39    4.36   -29.81043    74.80291    28.52163
    17  C   4.0    0.07    3.20    3.04   -31.63968    76.96098    28.03408
    18  O   6.0   -0.32    1.16    1.80   -30.88757    79.00566    27.22339
    19  C   4.0   -0.02    4.24    4.07   -28.55187    74.94275    31.17103
    20  C   4.0   -0.06    4.10    3.79   -27.69204    72.33493    32.03463
    21  C   4.0   -0.06    4.10    3.81   -26.36924    76.81736    31.25607
    22  H   1.0    0.08    1.05    1.44   -26.74718    75.86305    26.24073
    23  H   1.0    0.06    1.09    1.44   -30.92537    73.07192    28.57455
    24  H   1.0    0.05    1.06    1.44   -29.97672    75.63250    32.49006
    25  H   1.0    0.05    1.00    1.43   -26.81899    72.49745    33.89223
    26  H   1.0    0.05    1.00    1.43   -29.32855    71.08771    32.13479
    27  H   1.0    0.06    1.00    1.43   -26.32766    71.59605    30.67970
    28  H   1.0    0.05    1.00    1.43   -25.56799    76.82870    33.15335
    29  H   1.0    0.05    1.00    1.43   -24.93682    76.24099    29.89169
    30  H   1.0    0.06    1.00    1.43   -27.07788    78.69197    30.78175
    31  N   5.0   -0.20    3.19    1.95   -36.54541    82.74354    28.58399
    32  C   4.0    0.03    4.31    4.22   -36.28085    85.20018    29.83688
    33  C   4.0    0.15    3.38    3.07   -38.07042    87.22597    28.86367
    34  O   6.0   -0.30    1.22    1.80   -38.77718    87.26376    26.64703
    35  C   4.0   -0.04    4.29    4.18   -33.54642    86.17528    29.82177
    36  C   4.0   -0.03    4.26    4.11   -32.21416    86.09025    27.29520
    37  C   4.0    0.15    3.25    3.04   -29.41358    86.18662    27.70149
    38  O   6.0   -0.28    1.20    1.80   -28.32510    88.20485    28.20038
    39  N   5.0   -0.18    3.18    1.95   -28.20038    83.98887    27.57110
    40  H   1.0    0.09    1.03    1.43   -37.34476    82.85692    26.83411
    41  H   1.0    0.05    1.07    1.44   -36.88556    84.86192    31.77763
    42  H   1.0    0.06    1.03    1.43   -33.55775    88.14060    30.44160
    43  H   1.0    0.05    1.04    1.43   -32.44470    85.03011    31.13324
    44  H   1.0    0.04    1.05    1.44   -32.68470    84.34036    26.31632
    45  H   1.0    0.05    1.03    1.43   -32.77730    87.70974    26.15381
    46  H   1.0    0.11    1.05    1.44   -29.17926    82.36748    27.21205
    47  H   1.0    0.11    1.02    1.43   -26.29176    83.92462    27.82999
    48  N   5.0   -0.13    3.49    2.07   -38.80363    88.90216    30.58899
    49  C   4.0    0.04    4.44    4.45   -40.44580    91.04700    30.09011
    50  C   4.0    0.15    3.43    3.09   -38.68080    93.23152    29.47972
    51  O   6.0   -0.29    1.25    1.80   -37.15579    93.95339    31.09166
    52  C   4.0    0.06    4.22    4.05   -42.10876    91.57045    32.42770
    53  O   6.0   -0.24    2.09    1.84   -43.41267    89.30467    33.12123
    54  C   4.0   -0.06    4.06    3.73   -43.98715    93.71529    32.00818
    55  H   1.0    0.09    1.06    1.44   -38.26128    88.81523    32.43715
    56  H   1.0    0.06    1.06    1.44   -41.73271    90.74086    28.51219
    57  H   1.0    0.06    1.05    1.44   -40.88989    92.17894    33.97160
    58  H   1.0    0.12    1.01    1.43   -44.47659    89.61458    34.60466
    59  H   1.0    0.06    1.00    1.43   -45.11343    94.00820    33.70893
    60  H   1.0    0.06    1.00    1.43   -42.97993    95.45573    31.56409
    61  H   1.0    0.06    1.00    1.43   -45.24571    93.25420    30.44537
    62  N   5.0   -0.13    3.42    2.03   -38.82064    94.23496    27.16103
    63  C   4.0    0.04    4.46    4.48   -37.20681    96.35335    26.45805
    64  C   4.0    0.15    3.36    3.07   -38.77907    98.76842    26.04042
    65  O   6.0   -0.30    1.24    1.80   -40.82942    98.65314    24.96517
    66  C   4.0   -0.02    4.23    4.06   -35.40024    95.71084    24.22251
    67  C   4.0   -0.07    4.10    3.81   -36.82887    94.94550    21.83956
    68  C   4.0   -0.07    4.09    3.79   -33.54075    97.84812    23.67449
    69  H   1.0    0.11    1.09    1.44   -40.00928    93.62458    25.77208
    70  H   1.0    0.06    1.08    1.44   -35.99550    96.78231    28.06810
    71  H   1.0    0.05    1.06    1.44   -34.29664    94.07623    24.81588
    72  H   1.0    0.04    1.00    1.43   -35.47016    94.52031    20.35046
    73  H   1.0    0.06    1.00    1.43   -37.96837    93.27876    22.24774
    74  H   1.0    0.05    1.01    1.43   -38.04585    96.50264    21.25753
    75  H   1.0    0.04    1.00    1.43   -32.32943    97.29632    22.10223
    76  H   1.0    0.06    1.00    1.43   -34.59710    99.54698    23.18505
    77  H   1.0    0.05    1.00    1.43   -32.39746    98.19016    25.35445
    78  N   5.0   -0.13    3.45    2.05   -37.83042   100.92648    26.98151
    79  C   4.0    0.04    4.32    4.24   -38.96426   103.42848    26.66025
    80  C   4.0    0.16    3.41    3.08   -38.15357   104.44893    24.08834
    81  O   6.0   -0.31    1.26    1.80   -36.06164   103.85934    23.23607
    82  C   4.0   -0.06    4.12    3.84   -38.04018   105.18215    28.72761
    83  H   1.0    0.08    1.06    1.44   -36.20715   100.99829    28.01897
    84  H   1.0    0.07    1.05    1.44   -41.02028   103.34722    26.76797
    85  H   1.0    0.05    1.00    1.43   -38.89812   107.03597    28.46683
    86  H   1.0    0.05    1.00    1.43   -38.58442   104.40736    30.55687
    87  H   1.0    0.05    1.00    1.43   -35.98983   105.33332    28.61045
    88  N   5.0   -0.13    3.40    2.02   -39.78440   105.96827    22.84868
    89  C   4.0    0.04    4.42    4.42   -39.23449   107.07565    20.34857
    90  C   4.0    0.16    3.35    3.07   -36.84021   108.72916    20.49597
    91  O   6.0   -0.29    1.20    1.80   -36.53974   110.13134    22.34034
    92  C   4.0   -0.02    4.23    4.05   -41.53618   108.47027    19.14103
    93  C   4.0   -0.06    4.10    3.79   -41.02028   109.17892    16.38770
    94  C   4.0   -0.07    4.11    3.82   -43.93991   106.88668    19.30544
    95  H   1.0    0.09    1.06    1.44   -41.51539   106.47094    23.53087
    96  H   1.0    0.06    1.07    1.44   -38.84899   105.51285    19.06356
    97  H   1.0    0.05    1.06    1.44   -41.82530   110.20315    20.21629
    98  H   1.0    0.05    1.00    1.43   -42.67190   110.14457    15.62236
    99  H   1.0    0.07    1.00    1.43   -39.38000   110.42425    16.31211
   100  H   1.0    0.06    1.00    1.43   -40.64989   107.46305    15.31056
   101  H   1.0    0.04    1.00    1.43   -45.49137   107.93170    18.44373
   102  H   1.0    0.04    1.00    1.43   -43.64322   105.11223    18.30200
   103  H   1.0    0.06    1.01    1.43   -44.36132   106.51062    21.28587
   104  N   5.0   -0.14    3.41    2.03   -35.14701   108.45326    18.55522
   105  C   4.0    0.04    4.33    4.25   -32.70360   109.71749    18.16405
   106  C   4.0    0.15    3.35    3.06   -30.58144   108.68192    19.90637
   107  O   6.0   -0.30    1.22    1.80   -28.39691   109.53230    19.74764
   108  C   4.0   -0.02    4.24    4.08   -32.90391   112.63145    18.27365
   109  C   4.0    0.25    3.11    3.03   -34.37600   113.83520    16.10991
   110  O   6.0   -0.28    1.19    1.80   -34.98639   112.48027    14.25987
   111  O   6.0   -0.27    1.17    1.80   -34.87867   116.13689    16.24219
   112  H   1.0    0.12    1.12    1.45   -35.49283   107.23439    17.10202
   113  H   1.0    0.06    1.06    1.44   -32.03841   109.28663    16.26298
   114  H   1.0    0.06    1.03    1.43   -33.84877   113.15490    20.02732
   115  H   1.0    0.05    1.03    1.43   -31.00095   113.41757    18.23586
   116  N   5.0   -0.12    3.37    2.01   -31.18804   106.75251    21.42382
   117  C   4.0    0.02    4.24    4.08   -29.34744   105.53553    23.08489
   118  C   4.0    0.15    3.30    3.05   -27.67693   103.69682    21.65815
   119  O   6.0   -0.29    1.29    1.80   -27.89047   103.47572    19.34701
   120  H   1.0    0.10    1.08    1.44   -32.95304   105.98906    21.54099
   121  H   1.0    0.06    1.03    1.43   -28.14936   106.96983    23.95039
   122  H   1.0    0.05    1.03    1.43   -30.33766   104.50373    24.56833
   123  N   5.0   -0.13    3.40    2.02   -26.02720   102.31921    23.01308
   124  C   4.0    0.04    4.44    4.45   -24.37180   100.41437    21.84901
   125  C   4.0    0.14    3.40    3.08   -24.72139    97.80655    23.03009
   126  O   6.0   -0.29    1.22    1.80   -24.56266    97.56655    25.34311
   127  C   4.0    0.06    4.21    4.02   -21.59957   101.26663    21.92271
   128  O   6.0   -0.25    2.09    1.84   -21.32367   103.46628    20.38258
   129  C   4.0   -0.07    4.08    3.76   -19.76086    99.20872    21.04588
   130  H   1.0    0.09    1.05    1.44   -25.79854   102.48551    24.91982
   131  H   1.0    0.07    1.08    1.44   -24.93115   100.18949    19.87992
   132  H   1.0    0.05    1.05    1.44   -21.09312   101.68615    23.87480
   133  H   1.0    0.11    1.01    1.43   -19.56244   104.03886    20.40715
   134  H   1.0    0.04    1.00    1.43   -17.82578    99.90792    21.13470
   135  H   1.0    0.05    1.00    1.43   -19.92905    97.55143    22.25719
   136  H   1.0    0.06    1.00    1.43   -20.18605    98.66448    19.10513
   137  N   5.0   -0.14    3.41    2.03   -25.13524    95.85824    21.45028
   138  C   4.0    0.04    4.37    4.34   -25.32800    93.24664    22.31766
   139  C   4.0    0.14    3.37    3.07   -23.35134    91.54588    21.07233
   140  O   6.0   -0.31    1.28    1.80   -22.62569    91.96540    18.87836
   141  C   4.0   -0.03    4.29    4.18   -28.01141    92.16571    22.05877
   142  C   4.0   -0.01    3.51    3.12   -29.06776    91.71785    19.43772
   143  C   4.0   -0.04    3.45    3.10   -30.49073    93.56978    18.22452
   144  C   4.0   -0.04    3.45    3.10   -28.82021    89.38215    18.26798
   145  C   4.0   -0.04    3.36    3.07   -31.59433    93.11436    15.85669
   146  C   4.0   -0.05    3.37    3.07   -29.93137    88.92483    15.90582
   147  C   4.0   -0.04    3.36    3.07   -31.32221    90.79377    14.72285
   148  H   1.0    0.11    1.08    1.44   -25.34500    96.05099    19.54355
   149  H   1.0    0.06    1.08    1.44   -24.89147    93.22018    24.33022
   150  H   1.0    0.05    1.04    1.43   -28.04164    90.34402    23.01875
   151  H   1.0    0.05    1.04    1.43   -29.30020    93.47529    22.99041
   152  H   1.0    0.05    1.03    1.43   -30.74962    95.38581    19.12025
   153  H   1.0    0.05    1.03    1.43   -27.76007    87.90060    19.18828
   154  H   1.0    0.05    1.03    1.43   -32.65635    94.58645    14.92506
   155  H   1.0    0.04    1.03    1.43   -29.70082    87.10692    15.00820
   156  H   1.0    0.06    1.03    1.43   -32.19148    90.43095    12.91250
   157  N   5.0   -0.14    3.42    2.03   -22.44239    89.65238    22.50853
   158  C   4.0    0.04    4.44    4.45   -20.59045    87.80423    21.60146
   159  C   4.0    0.14    3.38    3.07   -21.74697    85.14349    21.81878
   160  O   6.0   -0.30    1.22    1.80   -22.83167    84.51232    23.79354
   161  C   4.0   -0.02    4.25    4.09   -18.02232    87.97808    23.00552
   162  C   4.0   -0.07    4.11    3.82   -16.11180    86.12804    21.89625
   163  C   4.0   -0.07    4.10    3.81   -16.95651    90.65771    22.95828
   164  H   1.0    0.09    1.05    1.44   -22.97151    89.35758    24.33778
   165  H   1.0    0.06    1.07    1.44   -20.21818    88.17839    19.60969
   166  H   1.0    0.05    1.06    1.44   -18.35869    87.47163    24.97273
   167  H   1.0    0.04    1.00    1.43   -14.33546    86.30000    22.92427
   168  H   1.0    0.05    1.00    1.43   -16.84691    84.21375    22.08145
   169  H   1.0    0.05    1.00    1.43   -15.81890    86.57779    19.90826
   170  H   1.0    0.04    1.00    1.43   -15.15938    90.68228    23.96550
   171  H   1.0    0.04    1.01    1.43   -16.67305    91.23219    21.00052
   172  H   1.0    0.05    1.00    1.43   -18.29255    91.92761    23.87669
   173  N   5.0   -0.14    3.43    2.04   -21.51642    83.60148    19.80244
   174  C   4.0    0.03    4.39    4.37   -22.41971    80.99932    19.77787
   175  C   4.0    0.14    3.39    3.08   -20.20117    79.23432    19.25064
   176  O   6.0   -0.31    1.26    1.80   -19.29221    79.10771    17.11903
   177  C   4.0   -0.04    4.36    4.30   -24.54376    80.66106    17.83145
   178  C   4.0   -0.03    4.21    4.02   -27.06088    81.90072    18.48719
   179  C   4.0   -0.08    4.11    3.83   -28.79753    81.98954    16.22141
   180  C   4.0   -0.07    4.12    3.84   -28.32132    80.57602    20.68116
   181  H   1.0    0.11    1.10    1.44   -20.69439    84.13438    18.14326
   182  H   1.0    0.05    1.07    1.44   -23.15103    80.53256    21.64681
   183  H   1.0    0.05    1.03    1.43   -23.91259    81.46798    16.04377
   184  H   1.0    0.04    1.03    1.43   -24.89525    78.64472    17.60847
   185  H   1.0    0.05    1.07    1.44   -26.68671    83.84336    19.05789
   186  H   1.0    0.04    1.00    1.43   -30.57010    82.88527    16.76943
   187  H   1.0    0.04    1.00    1.43   -27.89236    83.07802    14.72474
   188  H   1.0    0.04    1.00    1.43   -29.15469    80.06769    15.57323
   189  H   1.0    0.04    1.01    1.43   -30.10900    81.51333    21.09312
   190  H   1.0    0.04    1.00    1.43   -28.65958    78.60882    20.17282
   191  H   1.0    0.05    1.00    1.43   -27.08355    80.67240    22.32333
   192  N   5.0   -0.13    3.44    2.04   -19.25064    77.97009    21.21973
   193  C   4.0    0.04    4.29    4.19   -17.10013    76.25989    20.97974
   194  C   4.0    0.08    3.20    3.04   -17.89570    73.51412    20.70195
   195  O   6.0   -0.29    1.14    1.80   -20.07456    72.85649    21.16115
   196  C   4.0    0.03    4.13    3.86   -15.19529    76.62839    23.11513
   197  O   6.0   -0.24    2.04    1.83   -16.39715    76.86460    25.49996
   198  H   1.0    0.09    1.06    1.44   -19.94039    78.09859    23.01497
   199  H   1.0    0.05    1.07    1.44   -16.11936    76.72476    19.22985
   200  H   1.0    0.04    1.02    1.43   -13.93673    74.99755    23.16804
   201  H   1.0    0.04    1.02    1.43   -14.11247    78.34237    22.74663
   202  H   1.0    0.12    1.01    1.43   -15.12726    77.09893    26.82844
   203  N   5.0   -0.19    3.23    1.96   -22.47640    73.26656     2.09004
   204  C   4.0    0.04    4.37    4.33   -24.58156    74.31914     3.47521
   205  C   4.0    0.15    3.44    3.09   -26.83600    74.65362     1.78579
   206  O   6.0   -0.33    1.30    1.80   -26.61490    75.54557    -0.34771
   207  C   4.0   -0.04    4.31    4.21   -23.82755    76.80602     4.73565
   208  C   4.0   -0.03    3.71    3.24   -21.98507    76.40729     6.82569
   209  C   4.0   -0.01    3.60    3.17   -19.42071    76.48666     6.65373
   210  C   4.0    0.00    3.88    3.44   -22.55766    75.63061     9.35036
   211  N   5.0   -0.11    3.49    2.07   -18.35491    75.92730     8.95163
   212  C   4.0    0.04    3.88    3.44   -20.24085    75.36605    10.63916
   213  C   4.0   -0.04    3.40    3.08   -24.80832    75.24889    10.68640
   214  C   4.0   -0.03    3.39    3.08   -20.11235    74.69709    13.19785
   215  C   4.0   -0.04    3.37    3.07   -24.67982    74.62528    13.22619
   216  C   4.0   -0.03    3.37    3.07   -22.35735    74.34560    14.45451
   217  H   1.0    0.10    1.03    1.43   -21.78476    74.43253     0.71999
   218  H   1.0    0.06    1.07    1.44   -25.15981    73.01145     4.95864
   219  H   1.0    0.04    1.03    1.43   -22.95639    78.04001     3.33348
   220  H   1.0    0.04    1.03    1.43   -25.50752    77.70553     5.51800
   221  H   1.0    0.05    1.01    1.43   -18.37570    76.92507     4.95675
   222  H   1.0    0.10    1.06    1.44   -16.46707    75.92919     9.34092
   223  H   1.0    0.06    1.03    1.43   -26.61301    75.43786     9.75288
   224  H   1.0    0.06    1.02    1.43   -18.31900    74.46654    14.14460
   225  H   1.0    0.05    1.03    1.43   -26.40703    74.34938    14.27688
   226  H   1.0    0.06    1.03    1.43   -22.32711    73.84293    16.43306
   227  N   5.0   -0.14    3.52    2.09   -29.01485    73.95631     2.74766
   228  C   4.0    0.04    4.45    4.46   -31.33544    74.18686     1.33415
   229  C   4.0    0.14    3.43    3.09   -33.14012    75.77234     2.87805
   230  O   6.0   -0.32    1.31    1.80   -33.37823    75.34526     5.15706
   231  C   4.0   -0.04    4.33    4.26   -32.43148    71.54880     0.93352
   232  C   4.0   -0.05    4.20    3.99   -34.11333    71.29180    -1.36249
   233  C   4.0   -0.01    4.24    4.08   -35.11111    68.61784    -1.57792
   234  N   5.0   -0.14    3.42    2.03   -36.71738    67.98478     0.58204
   235  C   4.0    0.10    3.34    3.06   -36.79863    65.72467     1.66674
   236  N   5.0   -0.18    3.27    1.97   -35.38701    63.84628     0.79180
   237  N   5.0   -0.18    3.25    1.97   -38.29152    65.32216     3.63772
   238  H   1.0    0.11    1.09    1.44   -29.23406    73.21932     4.51456
   239  H   1.0    0.06    1.07    1.44   -31.04442    75.10149    -0.48944
   240  H   1.0    0.05    1.04    1.43   -30.87434    70.21844     0.71432
   241  H   1.0    0.06    1.04    1.43   -33.55586    71.04992     2.58515
   242  H   1.0    0.05    1.03    1.43   -35.71393    72.57870    -1.19431
   243  H   1.0    0.04    1.03    1.43   -33.03430    71.72833    -3.06136
   244  H   1.0    0.05    1.03    1.43   -36.22983    68.44020    -3.29757
   245  H   1.0    0.04    1.04    1.43   -33.53130    67.29692    -1.62516
   246  H   1.0    0.09    1.06    1.44   -37.84743    69.36995     1.30013
   247  H   1.0    0.08    1.04    1.43   -34.23050    64.13541    -0.72377
   248  H   1.0    0.09    1.03    1.43   -35.45882    62.11340     1.63461
   249  H   1.0    0.09    1.03    1.43   -39.38378    66.75268     4.32747
   250  H   1.0    0.08    1.03    1.43   -38.34821    63.58172     4.46542
   251  N   5.0   -0.14    3.46    2.05   -34.37223    77.62994     1.67997
   252  C   4.0    0.04    4.31    4.22   -36.30164    79.15306     2.92719
   253  C   4.0    0.08    3.27    3.05   -38.72615    78.72598     1.49288
   254  O   6.0   -0.29    1.15    1.80   -38.88111    79.29857    -0.77101
   255  C   4.0   -0.04    4.23    4.05   -35.56086    81.95552     3.12183
   256  C   4.0   -0.04    4.23    4.06   -37.75672    83.85848     3.14450
   257  C   4.0   -0.04    4.17    3.95   -39.22882    84.02477     5.59170
   258  C   4.0   -0.02    4.16    3.92   -40.54785    86.54756     5.73532
   259  N   5.0   -0.11    4.01    2.89   -42.47915    86.92550     3.72465
   260  H   1.0    0.12    1.12    1.45   -34.06420    78.11560    -0.16063
   261  H   1.0    0.07    1.07    1.44   -36.57187    78.54646     4.87738
   262  H   1.0    0.04    1.03    1.43   -34.50829    82.22198     4.87171
   263  H   1.0    0.05    1.03    1.43   -34.37034    82.42040     1.50611
   264  H   1.0    0.04    1.04    1.43   -36.99328    85.73309     2.76467
   265  H   1.0    0.06    1.04    1.43   -39.08898    83.32747     1.66674
   266  H   1.0    0.05    1.03    1.43   -40.64423    82.53000     5.65973
   267  H   1.0    0.05    1.03    1.43   -37.94381    83.85281     7.19230
   268  H   1.0    0.07    1.03    1.43   -41.49838    86.69874     7.55701
   269  H   1.0    0.06    1.03    1.43   -39.14378    88.04233     5.54824
   270  H   1.0    0.09    1.02    1.43   -43.31819    88.69051     3.92307
   271  H   1.0    0.06    1.02    1.43   -41.63633    86.81590     1.95398
   272  H   1.0    0.07    1.01    1.43   -43.86810    85.54033     3.85693
   273  N   5.0   -0.20    3.22    1.96   -38.04396    75.26023    -4.80179
   274  C   4.0    0.03    4.39    4.36   -36.57943    76.61327    -6.67640
   275  C   4.0    0.15    3.42    3.08   -33.98672    77.21420    -5.54446
   276  O   6.0   -0.31    1.31    1.80   -33.83932    78.21009    -3.42985
   277  C   4.0   -0.02    4.26    4.12   -38.07420    78.92629    -7.65150
   278  C   4.0   -0.06    4.12    3.85   -36.35833    81.14861    -8.30912
   279  C   4.0   -0.07    4.10    3.80   -39.70125    78.17796    -9.90594
   280  H   1.0    0.11    1.04    1.43   -37.87011    76.01234    -3.03490
   281  H   1.0    0.04    1.07    1.44   -36.16558    75.45487    -8.32802
   282  H   1.0    0.06    1.06    1.44   -39.30252    79.57258    -6.13027
   283  H   1.0    0.05    1.00    1.43   -37.51673    82.71330    -8.98187
   284  H   1.0    0.07    1.00    1.43   -35.32087    81.71742    -6.62349
   285  H   1.0    0.05    1.00    1.43   -35.04119    80.56658    -9.78122
   286  H   1.0    0.05    1.00    1.43   -40.73871    79.83147   -10.56357
   287  H   1.0    0.05    1.00    1.43   -38.48238    77.47121   -11.40828
   288  H   1.0    0.05    1.00    1.43   -41.02028    76.70776    -9.32202
   289  N   5.0   -0.14    3.39    2.02   -31.95338    76.50178    -6.92018
   290  C   4.0    0.03    4.39    4.36   -29.33611    76.87594    -6.08870
   291  C   4.0    0.16    3.42    3.08   -28.74462    79.62171    -5.57091
   292  O   6.0   -0.28    1.22    1.80   -29.28130    81.26011    -7.14127
   293  C   4.0   -0.04    4.35    4.29   -27.39536    75.78746    -7.95764
   294  C   4.0   -0.03    4.19    3.98   -26.73584    72.98689    -7.72898
   295  C   4.0   -0.07    4.10    3.80   -25.32989    72.06659   -10.08169
   296  C   4.0   -0.06    4.12    3.84   -25.15981    72.46721    -5.40840
   297  H   1.0    0.07    1.06    1.44   -32.07432    75.64762    -8.64361
   298  H   1.0    0.05    1.07    1.44   -29.14713    75.82903    -4.32558
   299  H   1.0    0.05    1.04    1.43   -28.12857    76.07092    -9.86059
   300  H   1.0    0.05    1.04    1.43   -25.63791    76.83248    -7.71764
   301  H   1.0    0.04    1.06    1.44   -28.50085    71.93998    -7.55323
   302  H   1.0    0.05    1.00    1.43   -24.88769    70.06726    -9.85870
   303  H   1.0    0.05    1.00    1.43   -26.53175    72.34060   -11.73142
   304  H   1.0    0.05    1.00    1.43   -23.59134    73.15129   -10.29145
   305  H   1.0    0.05    1.00    1.43   -24.73651    70.45276    -5.32336
   306  H   1.0    0.06    1.00    1.43   -23.40993    73.54813    -5.52934
   307  H   1.0    0.06    1.01    1.43   -26.22184    73.03413    -3.73599
   308  N   5.0   -0.13    3.47    2.06   -27.66559    80.10170    -3.33915
   309  C   4.0    0.03    4.48    4.51   -26.90592    82.57913    -2.44908
   310  C   4.0    0.15    3.41    3.08   -24.89714    83.64305    -4.23677
   311  O   6.0   -0.29    1.21    1.80   -23.05655    82.33158    -4.85471
   312  C   4.0   -0.02    4.29    4.17   -26.03475    82.40150     0.31936
   313  C   4.0   -0.08    4.14    3.88   -24.73840    84.81090     1.14517
   314  C   4.0   -0.08    4.11    3.82   -28.26463    81.82135     2.05980
   315  H   1.0    0.10    1.10    1.44   -27.27630    78.72976    -2.04279
   316  H   1.0    0.05    1.06    1.44   -28.49896    83.88493    -2.49255
   317  H   1.0    0.05    1.06    1.44   -24.67604    80.85948     0.46676
   318  H   1.0    0.03    1.00    1.43   -24.15070    84.61626     3.10860
   319  H   1.0    0.05    1.01    1.43   -23.09434    85.13215    -0.05291
   320  H   1.0    0.04    1.00    1.43   -26.05932    86.38126     0.95998
   321  H   1.0    0.03    1.00    1.43   -27.58811    81.70797     4.00244
   322  H   1.0    0.04    1.00    1.43   -29.65925    83.32747     1.88784
   323  H   1.0    0.05    1.00    1.43   -29.09989    80.02422     1.50233
   324  N   5.0   -0.13    3.38    2.01   -25.33745    85.98820    -5.15706
   325  C   4.0    0.04    4.36    4.32   -23.72173    87.27888    -7.02222
   326  C   4.0    0.16    3.42    3.08   -20.99863    87.70029    -6.18885
   327  O   6.0   -0.29    1.29    1.80   -20.45817    88.48453    -4.05157
   328  C   4.0    0.03    4.14    3.88   -24.88391    89.77521    -7.90283
   329  O   6.0   -0.24    2.04    1.83   -24.50597    91.74997    -6.13405
   330  H   1.0    0.08    1.06    1.44   -26.84356    87.06723    -4.62794
   331  H   1.0    0.05    1.07    1.44   -23.62157    85.98820    -8.62471
   332  H   1.0    0.04    1.01    1.43   -24.01086    90.31378    -9.68862
   333  H   1.0    0.04    1.02    1.43   -26.90970    89.50309    -8.16362
   334  H   1.0    0.11    1.01    1.43   -25.27319    93.31467    -6.75955
   335  N   5.0   -0.15    3.52    2.09   -19.30922    87.23353    -7.95953
   336  C   4.0    0.05    4.40    4.38   -16.60691    87.55856    -7.59481
   337  C   4.0    0.16    3.35    3.07   -15.83590    90.30622    -8.27511
   338  O   6.0   -0.28    1.21    1.80   -13.61925    91.00542    -7.95764
   339  C   4.0    0.05    4.19    3.98   -15.17828    85.57813    -9.22942
   340  O   6.0   -0.26    2.09    1.84   -15.55622    86.10536   -11.86748
   341  C   4.0   -0.06    4.04    3.69   -15.92094    82.81913    -8.59636
   342  H   1.0    0.08    1.07    1.44   -19.76275    86.60803    -9.72642
   343  H   1.0    0.07    1.05    1.44   -16.03432    87.20329    -5.64839
   344  H   1.0    0.05    1.04    1.43   -13.16950    85.72175    -8.79667
   345  H   1.0    0.12    1.01    1.43   -14.65671    84.85625   -12.89738
   346  H   1.0    0.05    0.99    1.43   -14.86836    81.51333    -9.79256
   347  H   1.0    0.05    1.00    1.43   -15.49575    82.40906    -6.62349
   348  H   1.0    0.06    1.00    1.43   -17.93728    82.54134    -8.91762
   349  N   5.0   -0.14    3.44    2.04   -17.67272    91.83879    -9.21808
   350  C   4.0    0.04    4.37    4.33   -17.15115    94.37102   -10.16295
   351  C   4.0    0.14    3.35    3.06   -18.63837    96.53665    -8.90817
   352  O   6.0   -0.29    1.24    1.80   -19.00875    98.51141   -10.10814
   353  C   4.0   -0.03    4.24    4.09   -17.49886    94.43527   -13.06179
   354  C   4.0   -0.03    4.20    3.99   -15.71874    92.67783   -14.56979
   355  C   4.0    0.16    3.22    3.04   -12.96730    92.77799   -13.75909
   356  O   6.0   -0.27    1.20    1.80   -11.77488    94.79432   -13.63626
   357  N   5.0   -0.16    3.19    1.95   -11.91472    90.57456   -13.17895
   358  H   1.0    0.08    1.07    1.44   -19.53032    91.33990    -9.33525
   359  H   1.0    0.08    1.07    1.44   -15.19151    94.76409    -9.66406
   360  H   1.0    0.05    1.03    1.43   -19.43205    93.87214   -13.49642
   361  H   1.0    0.07    1.03    1.43   -17.16060    96.35902   -13.71374
   362  H   1.0    0.05    1.03    1.43   -16.36314    90.73519   -14.33546
   363  H   1.0    0.06    1.03    1.43   -15.79811    93.21262   -16.55778
   364  H   1.0    0.10    1.04    1.43   -12.95029    88.95318   -13.29233
   365  H   1.0    0.11    1.02    1.43   -10.07224    90.50464   -12.61959
   366  N   5.0   -0.12    3.43    2.03   -19.35268    96.24752    -6.48554
   367  C   4.0    0.04    4.39    4.36   -20.61502    98.26008    -5.06824
   368  C   4.0    0.16    3.42    3.08   -18.67616    99.40336    -3.27678
   369  O   6.0   -0.24    1.25    1.80   -17.53855    98.02008    -1.79713
   370  C   4.0   -0.03    4.25    4.11   -22.90726    97.23774    -3.58292
   371  C   4.0    0.23    3.10    3.02   -24.51164    99.17660    -2.15429
   372  O   6.0   -0.32    1.29    1.80   -23.44016   101.06443    -1.20753
   373  O   6.0   -0.30    1.17    1.80   -26.82466    98.75141    -1.90673
   374  H   1.0    0.11    1.05    1.44   -19.07678    94.63559    -5.46698
   375  H   1.0    0.05    1.06    1.44   -21.32367    99.71139    -6.34570
   376  H   1.0    0.05    1.03    1.43   -24.15826    96.28910    -4.91518
   377  H   1.0    0.06    1.03    1.43   -22.21373    95.89036    -2.18830
   378  N   5.0   -0.13    3.43    2.03   -18.34168   101.92615    -3.36371
   379  C   4.0    0.05    4.36    4.31   -16.54833   103.30187    -1.75556
   380  C   4.0    0.17    3.38    3.07   -16.97541   102.95227     1.07714
   381  O   6.0   -0.29    1.22    1.80   -15.15560   103.11857     2.51334
   382  C   4.0    0.03    4.15    3.90   -16.48597   106.10055    -2.43019
   383  O   6.0   -0.23    2.07    1.83   -18.95962   107.10400    -2.67018
   384  H   1.0    0.09    1.06    1.44   -19.30922   103.09022    -4.55613
   385  H   1.0    0.09    1.07    1.44   -14.69262   102.50251    -2.15807
   386  H   1.0    0.05    1.02    1.43   -15.49386   107.12289    -0.94108
   387  H   1.0    0.04    1.01    1.43   -15.49764   106.33110    -4.22165
   388  H   1.0    0.11    1.01    1.43   -18.87458   108.90302    -3.10482
   389  N   5.0   -0.13    3.44    2.04   -19.34323   102.42315     1.88028
   390  C   4.0    0.03    4.36    4.31   -19.98007   102.09055     4.55424
   391  C   4.0    0.15    3.35    3.07   -19.95362    99.31644     5.41218
   392  O   6.0   -0.31    1.23    1.80   -19.59079    98.84967     7.65906
   393  C   4.0   -0.05    4.25    4.10   -22.47640   103.42092     5.26478
   394  C   4.0   -0.03    4.21    4.03   -24.84801   102.26441     4.15362
   395  C   4.0   -0.00    4.23    4.07   -27.19505   103.76107     4.79235
   396  N   5.0   -0.14    3.40    2.02   -29.45327   102.43637     3.91173
   397  C   4.0    0.10    3.35    3.06   -30.76852   100.82255     5.31013
   398  N   5.0   -0.17    3.29    1.98   -30.09767   100.35768     7.67985
   399  N   5.0   -0.17    3.26    1.97   -32.77919    99.67171     4.35582
   400  H   1.0    0.12    1.10    1.44   -20.85502   102.21528     0.70298
   401  H   1.0    0.06    1.07    1.44   -18.54577   103.05620     5.67296
   402  H   1.0    0.05    1.03    1.43   -22.67482   103.37557     7.31513
   403  H   1.0    0.05    1.03    1.43   -22.38002   105.37112     4.60904
   404  H   1.0    0.08    1.06    1.44   -24.67037   102.20016     2.10326
   405  H   1.0    0.05    1.03    1.43   -25.08233   100.35957     4.90006
   406  H   1.0    0.06    1.04    1.43   -27.32733   103.99918     6.83325
   407  H   1.0    0.04    1.03    1.43   -27.11190   105.60167     3.87205
   408  H   1.0    0.08    1.06    1.44   -30.05609   102.77275     2.11271
   409  H   1.0    0.10    1.04    1.43   -28.56321   101.24207     8.43763
   410  H   1.0    0.11    1.06    1.44   -31.11623    99.11424     8.74376
   411  H   1.0    0.09    1.02    1.43   -33.32154   100.02508     2.53979
   412  H   1.0    0.13    1.11    1.44   -33.78452    98.43205     5.43674
   413  N   5.0   -0.13    3.42    2.03   -20.32211    97.50041     3.66607
   414  C   4.0    0.04    4.44    4.45   -20.23708    94.78298     4.25944
   415  C   4.0    0.15    3.38    3.07   -17.55177    93.76820     3.68497
   416  O   6.0   -0.25    1.23    1.80   -16.81100    93.64348     1.47777
   417  C   4.0   -0.02    4.31    4.22   -22.25530    93.26742     2.80246
   418  C   4.0   -0.05    4.14    3.88   -24.94060    94.37669     3.12183
   419  C   4.0   -0.07    4.14    3.87   -22.13625    90.53866     3.59804
   420  C   4.0   -0.06    3.95    3.54   -26.91159    93.37136     1.10738
   421  H   1.0    0.10    1.06    1.44   -20.68683    97.86324     1.80847
   422  H   1.0    0.06    1.06    1.44   -20.58290    94.57134     6.27956
   423  H   1.0    0.06    1.06    1.44   -21.83389    93.40726     0.79180
   424  H   1.0    0.04    1.02    1.43   -25.64358    93.87781     4.99266
   425  H   1.0    0.05    1.03    1.43   -24.83667    96.42516     2.93096
   426  H   1.0    0.04    1.00    1.43   -23.56488    89.47474     2.56436
   427  H   1.0    0.06    1.01    1.43   -20.26353    89.79600     3.17096
   428  H   1.0    0.04    1.00    1.43   -22.49530    90.41394     5.62193
   429  H   1.0    0.05    0.99    1.43   -28.74273    94.24441     1.46832
   430  H   1.0    0.06    0.99    1.43   -26.25585    93.87025    -0.78046
   431  H   1.0    0.04    0.99    1.43   -27.06277    91.32479     1.28123
   432  N   5.0   -0.13    3.40    2.02   -16.10991    93.04255     5.65028
   433  C   4.0    0.04    4.37    4.33   -13.51721    92.10335     5.34603
   434  C   4.0    0.14    3.35    3.07   -13.24509    89.38971     6.29657
   435  O   6.0   -0.32    1.26    1.80   -14.03499    88.80011     8.43196
   436  C   4.0   -0.04    4.25    4.10   -11.59158    93.84946     6.66317
   437  C   4.0   -0.04    4.18    3.96   -11.34969    96.47996     5.49910
   438  C   4.0   -0.05    4.19    3.98    -9.52989    98.11646     7.01088
   439  C   4.0   -0.03    4.14    3.88    -9.31635   100.75830     5.96209
   440  N   5.0   -0.12    4.00    2.87    -7.57024   102.34000     7.49276
   441  H   1.0    0.11    1.08    1.44   -16.69951    93.08790     7.48520
   442  H   1.0    0.07    1.07    1.44   -13.09769    92.05800     3.32970
   443  H   1.0    0.05    1.03    1.43   -12.16417    94.09134     8.62660
   444  H   1.0    0.04    1.03    1.43    -9.73587    92.95940     6.57625
   445  H   1.0    0.06    1.03    1.43   -10.63349    96.31555     3.57536
   446  H   1.0    0.07    1.03    1.43   -13.19407    97.39648     5.48776
   447  H   1.0    0.05    1.03    1.43   -10.19885    98.25252     8.95352
   448  H   1.0    0.04    1.03    1.43    -7.65717    97.25853     6.96931
   449  H   1.0    0.05    1.02    1.43    -8.59069   100.66948     4.03645
   450  H   1.0    0.06    1.02    1.43   -11.17395   101.64836     5.97342
   451  H   1.0    0.05    1.01    1.43    -7.45686   104.14847     6.72931
   452  H   1.0    0.05    1.02    1.43    -8.22409   102.46850     9.34092
   453  H   1.0    0.05    1.02    1.43    -5.77500   101.54064     7.50599
   454  N   5.0   -0.14    3.43    2.03   -12.15661    87.74565     4.64873
   455  C   4.0    0.04    4.36    4.30   -11.68229    85.07357     5.17974
   456  C   4.0    0.16    3.35    3.06    -8.92896    84.83925     6.05846
   457  O   6.0   -0.26    1.21    1.80    -7.33025    83.72242     4.74888
   458  C   4.0   -0.03    4.25    4.10   -12.24731    83.42006     2.84215
   459  C   4.0   -0.04    4.20    4.01   -15.04222    83.35014     2.05602
   460  C   4.0    0.15    3.21    3.04   -15.84346    85.35514     0.16063
   461  O   6.0   -0.28    1.22    1.80   -14.43751    87.09180    -0.53857
   462  N   5.0   -0.18    3.20    1.96   -18.15649    85.14727    -0.73321
   463  H   1.0    0.10    1.06    1.44   -11.57457    88.25398     2.88372
   464  H   1.0    0.06    1.06    1.44   -12.94651    84.39516     6.65750
   465  H   1.0    0.07    1.03    1.43   -11.17206    84.15328     1.24533
   466  H   1.0    0.06    1.03    1.43   -11.66906    81.48687     3.25222
   467  H   1.0    0.04    1.03    1.43   -15.43150    81.51522     1.20753
   468  H   1.0    0.04    1.03    1.43   -16.19684    83.60526     3.74166
   469  H   1.0    0.08    1.03    1.43   -19.29032    83.70352    -0.14740
   470  H   1.0    0.13    1.08    1.44   -18.81411    86.43040    -2.01256
   471  N   5.0   -0.13    3.40    2.02    -8.40361    86.02599     8.26755
   472  C   4.0    0.03    4.35    4.29    -6.02067    86.27355     9.65650
   473  C   4.0    0.16    3.41    3.08    -4.14417    84.12682     9.37304
   474  O   6.0   -0.27    1.21    1.80    -2.08059    84.48020     8.33936
   475  C   4.0   -0.05    4.38    4.34    -6.57058    86.57590    12.51754
   476  C   4.0   -0.03    4.18    3.96    -6.42885    89.22530    13.66650
   477  C   4.0   -0.07    4.11    3.82    -8.56424    90.91849    12.71408
   478  C   4.0   -0.07    4.12    3.84    -6.56869    89.07979    16.51809
   479  H   1.0    0.09    1.08    1.44    -9.78311    86.94629     9.25210
   480  H   1.0    0.05    1.06    1.44    -5.11549    87.93084     8.83258
   481  H   1.0    0.05    1.04    1.43    -8.48109    85.88615    12.86147
   482  H   1.0    0.04    1.05    1.44    -5.20808    85.41750    13.53989
   483  H   1.0    0.04    1.06    1.44    -4.63361    90.06056    13.09580
   484  H   1.0    0.05    1.00    1.43    -8.38471    92.77799    13.58335
   485  H   1.0    0.04    1.00    1.43    -8.42629    91.08479    10.66561
   486  H   1.0    0.05    1.00    1.43   -10.37082    90.07379    13.22997
   487  H   1.0    0.05    1.00    1.43    -6.46475    90.98464    17.29288
   488  H   1.0    0.04    1.00    1.43    -8.35070    88.19918    17.05856
   489  H   1.0    0.04    1.00    1.43    -4.98888    87.95351    17.20973
   490  N   5.0   -0.12    3.52    2.10    -4.92463    81.89316    10.21964
   491  C   4.0    0.04    4.29    4.18    -3.48088    79.56502    10.08358
   492  C   4.0    0.09    3.22    3.04    -5.31958    77.47309     9.28422
   493  O   6.0   -0.27    1.17    1.80    -7.60804    77.93986     9.12927
   494  C   4.0   -0.04    4.27    4.14    -2.39428    79.05669    12.73864
   495  C   4.0   -0.03    4.18    3.96    -0.11149    77.31625    12.85392
   496  C   4.0    0.25    3.12    3.03    -0.67652    74.66118    13.77232
   497  O   6.0   -0.27    1.18    1.80    -2.26389    74.35127    15.50520
   498  O   6.0   -0.25    1.17    1.80     0.52723    72.88295    12.78022
   499  H   1.0    0.10    1.08    1.44    -6.64239    81.63049    11.05301
   500  H   1.0    0.06    1.05    1.44    -1.95398    79.62927     8.70219
   501  H   1.0    0.05    1.03    1.43    -1.82736    80.85948    13.55689
   502  H   1.0    0.06    1.05    1.44    -3.87394    78.19686    13.88571
   503  H   1.0    0.06    1.04    1.43     0.68975    77.15940    10.96230
   504  H   1.0    0.06    1.03    1.43     1.27368    78.13450    14.14082
   505  N   5.0   -0.19    3.23    1.96   -11.33080    77.04413    13.67595
   506  C   4.0    0.03    4.39    4.36   -12.21708    79.31369    14.94395
   507  C   4.0    0.15    3.41    3.08   -13.40383    81.05035    13.02210
   508  O   6.0   -0.30    1.24    1.80   -12.27944    81.59837    11.05112
   509  C   4.0   -0.03    4.24    4.08   -10.20263    80.72909    16.57101
   510  C   4.0   -0.08    4.09    3.79   -11.36292    81.68907    19.02009
   511  C   4.0   -0.07    4.11    3.83    -7.85181    79.13038    17.10958
   512  H   1.0    0.12    1.04    1.43   -10.05334    77.33892    12.26432
   513  H   1.0    0.04    1.07    1.44   -13.66650    78.69953    16.27432
   514  H   1.0    0.04    1.07    1.44    -9.56201    82.34103    15.46174
   515  H   1.0    0.04    1.00    1.43    -9.91350    82.66606    20.11046
   516  H   1.0    0.04    1.00    1.43   -12.89927    82.98543    18.57034
   517  H   1.0    0.04    1.00    1.43   -12.08858    80.08659    20.09157
   518  H   1.0    0.04    1.00    1.43    -6.53656    80.23398    18.24719
   519  H   1.0    0.05    1.00    1.43    -8.41495    77.43341    18.13381
   520  H   1.0    0.05    1.00    1.43    -6.96931    78.61260    15.32190
   521  N   5.0   -0.14    3.47    2.06   -15.67717    81.91206    13.59847
   522  C   4.0    0.04    4.38    4.34   -17.06612    83.66951    12.01110
   523  C   4.0    0.14    3.41    3.08   -17.76342    85.93151    13.64949
   524  O   6.0   -0.32    1.30    1.80   -18.93127    85.58947    15.64504
   525  C   4.0   -0.04    4.32    4.24   -19.44906    82.37126    10.90750
   526  C   4.0   -0.03    4.19    3.97   -21.30099    83.98509     9.34469
   527  C   4.0   -0.08    4.12    3.84   -20.20684    84.65405     6.81246
   528  C   4.0   -0.08    4.09    3.79   -23.85212    82.66228     9.03478
   529  H   1.0    0.10    1.08    1.44   -16.63337    81.41317    15.19718
   530  H   1.0    0.06    1.06    1.44   -15.91527    84.33091    10.43696
   531  H   1.0    0.05    1.03    1.43   -18.81411    80.84626     9.67729
   532  H   1.0    0.06    1.03    1.43   -20.52620    81.60215    12.48542
   533  H   1.0    0.04    1.06    1.44   -21.62791    85.74065    10.37082
   534  H   1.0    0.04    1.00    1.43   -21.57122    85.79167     5.77122
   535  H   1.0    0.05    1.00    1.43   -18.47018    85.72364     7.09403
   536  H   1.0    0.04    1.00    1.43   -19.80433    82.91928     5.77689
   537  H   1.0    0.03    1.00    1.43   -25.10123    83.86415     7.92173
   538  H   1.0    0.04    1.00    1.43   -23.56299    80.86515     8.06913
   539  H   1.0    0.04    1.00    1.43   -24.66848    82.33536    10.89805
   540  N   5.0   -0.14    3.40    2.02   -16.99431    88.23130    12.85392
   541  C   4.0    0.03    4.39    4.36   -17.65193    90.52732    14.26365
   542  C   4.0    0.14    3.39    3.07   -19.31489    92.29799    12.70085
   543  O   6.0   -0.31    1.26    1.80   -18.73852    92.81200    10.48987
   544  C   4.0   -0.04    4.25    4.09   -15.30678    91.90682    15.29355
   545  C   4.0   -0.04    4.25    4.09   -15.94173    94.18583    16.95840
   546  C   4.0    0.14    3.23    3.04   -13.67028    95.78265    17.54422
   547  O   6.0   -0.30    1.21    1.80   -12.14905    96.43838    15.89448
   548  N   5.0   -0.19    3.19    1.95   -13.45107    96.52153    19.91204
   549  H   1.0    0.12    1.09    1.44   -15.93795    88.53933    11.27222
   550  H   1.0    0.06    1.08    1.44   -18.78766    89.95096    15.88126
   551  H   1.0    0.04    1.03    1.43   -14.20507    90.58590    16.42739
   552  H   1.0    0.06    1.03    1.43   -14.18239    92.58145    13.70429
   553  H   1.0    0.05    1.03    1.43   -17.31745    95.36880    15.98141
   554  H   1.0    0.04    1.04    1.44   -16.72785    93.51687    18.74041
   555  H   1.0    0.08    1.03    1.43   -14.77766    96.00375    21.21028
   556  H   1.0    0.10    1.02    1.43   -11.95441    97.61190    20.44683
   557  N   5.0   -0.15    3.42    2.03   -21.39170    93.20317    13.86492
   558  C   4.0    0.04    4.48    4.51   -23.10001    94.97763    12.64227
   559  C   4.0    0.15    3.40    3.08   -23.26820    97.40214    14.17672
   560  O   6.0   -0.31    1.26    1.80   -24.33967    97.38892    16.24408
   561  C   4.0   -0.02    4.33    4.26   -25.72295    93.84190    11.96763
   562  C   4.0   -0.05    4.26    4.11   -25.49807    91.72541    10.00610
   563  C   4.0   -0.07    4.13    3.86   -27.49740    95.87714    10.96797
   564  C   4.0   -0.07    4.08    3.77   -25.50752    89.24420    11.01521
   565  H   1.0    0.12    1.10    1.44   -21.91704    92.72507    15.65638
   566  H   1.0    0.06    1.08    1.44   -22.22507    95.51809    10.85837
   567  H   1.0    0.06    1.06    1.44   -26.49207    93.05011    13.70807
   568  H   1.0    0.04    1.05    1.44   -27.08922    91.86903     8.70597
   569  H   1.0    0.05    1.05    1.44   -23.72740    91.96918     8.98376
   570  H   1.0    0.05    1.00    1.43   -29.31343    95.01920    10.51444
   571  H   1.0    0.06    1.00    1.43   -27.74496    97.32089    12.41550
   572  H   1.0    0.05    1.00    1.43   -26.67348    96.71239     9.27477
   573  H   1.0    0.03    1.01    1.43   -25.33934    87.89115     9.47131
   574  H   1.0    0.05    1.01    1.43   -23.91448    89.03822    12.30401
   575  H   1.0    0.04    1.02    1.43   -27.27441    88.93806    12.02811
   576  N   5.0   -0.13    3.44    2.04   -22.15704    99.46006    13.17328
   577  C   4.0    0.03    4.37    4.32   -22.22129   101.97717    14.31656
   578  C   4.0    0.15    3.39    3.07   -24.55888   103.36801    13.34524
   579  O   6.0   -0.30    1.24    1.80   -25.56232   102.68582    11.34780
   580  C   4.0   -0.05    4.30    4.20   -19.86291   103.52675    13.60603
   581  C   4.0   -0.05    4.18    3.97   -17.43650   102.80298    14.93261
   582  C   4.0   -0.01    4.25    4.09   -15.51654   104.89491    14.61136
   583  N   5.0   -0.14    3.39    2.02   -12.92384   103.94438    14.51499
   584  C   4.0    0.09    3.34    3.06   -10.88104   105.40702    14.52254
   585  N   5.0   -0.18    3.27    1.97   -11.10592   107.90524    14.65105
   586  N   5.0   -0.18    3.23    1.96    -8.59258   104.38468    14.42050
   587  H   1.0    0.10    1.07    1.44   -21.17060    99.42793    11.51788
   588  H   1.0    0.06    1.06    1.44   -22.27042   101.80143    16.36881
   589  H   1.0    0.05    1.03    1.43   -19.53788   103.31132    11.58402
   590  H   1.0    0.04    1.04    1.43   -20.23330   105.50340    14.05389
   591  H   1.0    0.04    1.03    1.43   -17.79366   102.53086    16.94328
   592  H   1.0    0.05    1.03    1.43   -16.67872   101.07199    14.11058
   593  H   1.0    0.03    1.04    1.43   -15.89637   105.89457    12.85014
   594  H   1.0    0.04    1.03    1.43   -15.66205   106.19315    16.20440
   595  H   1.0    0.08    1.06    1.44   -12.66494   102.03575    14.43751
   596  H   1.0    0.08    1.03    1.43   -12.85392   108.71215    14.74553
   597  H   1.0    0.08    1.03    1.43    -9.52989   109.01640    14.65671
   598  H   1.0    0.08    1.02    1.43    -8.39605   102.46850    14.33546
   599  H   1.0    0.08    1.03    1.43    -7.03167   105.51474    14.42617
   600  N   5.0   -0.13    3.40    2.02   -25.36768   105.35789    14.73986
   601  C   4.0    0.04    4.35    4.28   -27.49740   107.05298    14.16539
   602  C   4.0    0.16    3.36    3.07   -29.79342   105.61111    13.12226
   603  O   6.0   -0.29    1.21    1.80   -30.44160   105.85867    10.89049
   604  C   4.0   -0.03    4.29    4.18   -26.65836   109.26773    12.44762
   605  C   4.0   -0.02    3.53    3.13   -24.29999   110.61133    13.36225
   606  C   4.0   -0.04    3.46    3.10   -24.42471   112.46326    15.22363
   607  C   4.0   -0.05    3.47    3.10   -21.94161   110.01984    12.37393
   608  C   4.0   -0.03    3.42    3.08   -22.25341   113.69347    16.07779
   609  C   4.0   -0.05    3.44    3.09   -19.75708   111.22360    13.22052
   610  C   4.0    0.07    3.44    3.09   -19.91960   113.06608    15.06301
   611  O   6.0   -0.22    2.10    1.84   -17.74831   114.23582    15.86992
   612  H   1.0    0.09    1.06    1.44   -24.51730   105.86812    16.39337
   613  H   1.0    0.06    1.08    1.44   -28.14369   107.91091    15.92283
   614  H   1.0    0.05    1.03    1.43   -26.27097   108.53263    10.56168
   615  H   1.0    0.05    1.03    1.43   -28.17959   110.65479    12.36448
   616  H   1.0    0.06    1.03    1.43   -26.23507   112.95837    16.02299
   617  H   1.0    0.04    1.03    1.43   -21.79799   108.59688    10.91884
   618  H   1.0    0.07    1.03    1.43   -22.38947   115.12777    17.52343
   619  H   1.0    0.04    1.03    1.43   -17.94106   110.71715    12.43818
   620  H   1.0    0.12    1.04    1.43   -16.28755   113.56119    14.95340
   621  N   5.0   -0.13    3.39    2.02   -30.93859   104.01996    14.76443
   622  C   4.0    0.04    4.30    4.19   -33.02674   102.29276    14.17105
   623  C   4.0    0.16    3.35    3.06   -35.52496   103.56454    13.39060
   624  O   6.0   -0.32    1.29    1.80   -36.53596   105.14057    14.76065
   625  C   4.0   -0.07    4.10    3.81   -33.46327   100.47862    16.35369
   626  H   1.0    0.11    1.09    1.44   -30.42459   103.88768    16.61636
   627  H   1.0    0.06    1.07    1.44   -32.42014   101.25908    12.49676
   628  H   1.0    0.05    1.00    1.43   -35.01662    99.21439    15.87370
   629  H   1.0    0.05    1.00    1.43   -31.74551    99.38825    16.67305
   630  H   1.0    0.06    1.00    1.43   -33.93381   101.56143    18.04121
   631  N   5.0   -0.12    3.44    2.04   -36.49061   102.83889    11.15127
   632  C   4.0    0.03    4.35    4.29   -38.87922   103.72328    10.06090
   633  C   4.0    0.15    3.39    3.08   -41.02973   102.05465    11.05301
   634  O   6.0   -0.31    1.26    1.80   -40.56864    99.99107    12.04322
   635  C   4.0   -0.05    4.26    4.11   -38.82442   103.56454     7.14316
   636  C   4.0   -0.04    4.16    3.92   -36.89879   105.28230     5.84303
   637  C   4.0   -0.05    4.16    3.93   -37.16902   105.28986     2.95364
   638  C   4.0   -0.04    4.12    3.85   -39.17969   107.07187     1.95776
   639  N   5.0   -0.12    4.00    2.87   -38.44836   109.77418     2.23555
   640  H   1.0    0.10    1.08    1.44   -35.60811   101.57277     9.99665
   641  H   1.0    0.05    1.05    1.44   -39.19859   105.69048    10.58436
   642  H   1.0    0.05    1.03    1.43   -38.37844   101.62568     6.60837
   643  H   1.0    0.04    1.03    1.43   -40.68769   104.08044     6.43074
   644  H   1.0    0.05    1.03    1.43   -37.16146   107.21360     6.51200
   645  H   1.0    0.05    1.03    1.43   -34.99961   104.63035     6.30224
   646  H   1.0    0.04    1.03    1.43   -35.37000   105.85678     2.12594
   647  H   1.0    0.04    1.03    1.43   -37.66224   103.38880     2.33381
   648  H   1.0    0.04    1.02    1.43   -39.48393   106.69393    -0.04346
   649  H   1.0    0.04    1.02    1.43   -40.92768   106.77141     3.00655
   650  H   1.0    0.06    1.01    1.43   -39.87322   110.93258     1.53257
   651  H   1.0    0.06    1.02    1.43   -38.15735   110.19937     4.13283
   652  H   1.0    0.06    1.02    1.43   -36.79107   110.12756     1.24155
   653  N   5.0   -0.16    3.47    2.06   -43.38055   102.94471    10.73931
   654  C   4.0    0.03    4.40    4.38   -45.67279   101.61245    11.51410
   655  C   4.0    0.15    3.41    3.08   -46.00160    99.22195     9.93618
   656  O   6.0   -0.31    1.22    1.80   -46.86142    97.29632    10.90561
   657  C   4.0   -0.05    4.39    4.37   -47.95558   103.36045    11.17773
   658  C   4.0   -0.02    4.21    4.02   -50.13632   102.96739    12.97297
   659  C   4.0   -0.07    4.11    3.83   -49.51460   103.97839    15.59969
   660  C   4.0   -0.07    4.12    3.84   -52.49281   104.23350    11.96385
   661  H   1.0    0.07    1.07    1.44   -43.76983   104.64735     9.92295
   662  H   1.0    0.05    1.06    1.44   -45.56129   101.08900    13.50209
   663  H   1.0    0.04    1.04    1.43   -47.31307   105.30309    11.42150
   664  H   1.0    0.04    1.04    1.43   -48.68690   103.09400     9.27100
   665  H   1.0    0.06    1.06    1.44   -50.49159   100.94538    13.14115
   666  H   1.0    0.05    1.00    1.43   -51.12843   103.66281    16.83935
   667  H   1.0    0.05    1.00    1.43   -47.86487   102.98440    16.32723
   668  H   1.0    0.04    1.00    1.43   -49.11587   105.99473    15.46552
   669  H   1.0    0.05    1.00    1.43   -54.03860   103.92548    13.28855
   670  H   1.0    0.04    1.00    1.43   -52.13376   106.25173    11.75976
   671  H   1.0    0.05    1.00    1.43   -52.96335   103.41336    10.13271
   672  N   5.0   -0.14    3.40    2.02   -45.23059    99.37502     7.54379
   673  C   4.0    0.02    4.23    4.06   -45.31563    97.30010     5.73343
   674  C   4.0    0.16    3.30    3.05   -43.34653    95.26297     6.15295
   675  O   6.0   -0.29    1.22    1.80   -43.27850    93.43183     4.72431
   676  H   1.0    0.07    1.06    1.44   -44.50494   100.98507     6.77089
   677  H   1.0    0.06    1.03    1.43   -47.17134    96.41193     5.83358
   678  H   1.0    0.05    1.03    1.43   -45.03784    98.06355     3.83992
   679  N   5.0   -0.13    3.49    2.07   -41.73838    95.53132     8.11070
   680  C   4.0    0.04    4.40    4.37   -39.84298    93.62647     8.76833
   681  C   4.0    0.15    3.39    3.08   -41.03162    91.53077    10.35381
   682  O   6.0   -0.31    1.24    1.80   -39.77684    89.65994    10.94340
   683  C   4.0   -0.03    4.27    4.14   -37.58287    94.80377    10.16673
   684  C   4.0    0.24    3.14    3.03   -35.72338    96.22862     8.49999
   685  O   6.0   -0.31    1.25    1.80   -35.51362    95.58234     6.22476
   686  O   6.0   -0.33    1.26    1.80   -34.40246    97.92182     9.48831
   687  H   1.0    0.10    1.08    1.44   -41.71381    97.06577     9.27666
   688  H   1.0    0.07    1.06    1.44   -39.04930    92.81767     7.04868
   689  H   1.0    0.06    1.04    1.43   -38.30286    96.13603    11.56323
   690  H   1.0    0.05    1.03    1.43   -36.53785    93.29577    11.10403
   691  N   5.0   -0.13    3.48    2.06   -43.44858    91.84824    11.05868
   692  C   4.0    0.04    4.42    4.42   -44.85454    89.99631    12.52699
   693  C   4.0    0.16    3.39    3.08   -45.16823    87.58124    10.94340
   694  O   6.0   -0.29    1.24    1.80   -45.58775    87.73620     8.65872
   695  C   4.0    0.05    4.19    3.97   -47.31496    91.16605    13.61170
   696  O   6.0   -0.24    2.08    1.84   -48.15967    89.72986    15.73197
   697  C   4.0   -0.05    4.05    3.71   -49.43901    91.46652    11.65583
   698  H   1.0    0.10    1.08    1.44   -44.49360    93.40915    10.62404
   699  H   1.0    0.07    1.07    1.44   -43.85109    89.40482    14.22586
   700  H   1.0    0.05    1.05    1.44   -46.87276    93.08601    14.21452
   701  H   1.0    0.13    1.01    1.43   -49.71302    90.46685    16.41794
   702  H   1.0    0.06    1.00    1.43   -51.10197    92.29422    12.54400
   703  H   1.0    0.06    1.00    1.43   -48.81729    92.69484    10.12326
   704  H   1.0    0.07    1.00    1.43   -49.94357    89.62781    10.87537
   705  N   5.0   -0.13    3.35    2.00   -44.81863    85.40994    12.15094
   706  C   4.0    0.02    4.26    4.11   -45.02461    82.95519    10.91884
   707  C   4.0    0.15    3.31    3.06   -43.52417    80.89539    12.20952
   708  O   6.0   -0.29    1.28    1.80   -42.72670    81.17885    14.38459
   709  H   1.0    0.12    1.08    1.44   -44.38021    85.28144    14.02366
   710  H   1.0    0.05    1.03    1.43   -47.00315    82.38071    10.89238
   711  H   1.0    0.05    1.03    1.43   -44.34620    83.11582     8.97998
   712  N   5.0   -0.14    3.45    2.05   -43.15945    78.79968    10.87915
   713  C   4.0    0.04    4.41    4.41   -41.75727    76.66051    11.87126
   714  C   4.0    0.15    3.42    3.08   -39.17402    76.56603    10.62593
   715  O   6.0   -0.30    1.24    1.80   -38.98505    76.78523     8.30724
   716  C   4.0   -0.04    4.29    4.17   -43.21425    74.19253    11.38560
   717  C   4.0   -0.05    4.19    3.98   -42.14089    71.90407    12.74431
   718  C   4.0   -0.01    4.24    4.09   -43.79629    69.62695    12.34558
   719  N   5.0   -0.14    3.39    2.01   -43.08197    68.09438    10.15539
   720  C   4.0    0.09    3.34    3.06   -43.53740    65.62451     9.97019
   721  N   5.0   -0.18    3.26    1.97   -44.69013    64.40186    11.83913
   722  N   5.0   -0.18    3.23    1.96   -42.82119    64.35462     7.93118
   723  H   1.0    0.08    1.06    1.44   -43.82274    78.53134     9.08958
   724  H   1.0    0.06    1.07    1.44   -41.47948    76.87027    13.90082
   725  H   1.0    0.05    1.03    1.43   -45.15878    74.44008    12.02055
   726  H   1.0    0.05    1.03    1.43   -43.17835    73.79380     9.36548
   727  H   1.0    0.06    1.03    1.43   -40.26250    71.48455    12.00732
   728  H   1.0    0.05    1.03    1.43   -42.03506    72.28958    14.76443
   729  H   1.0    0.04    1.04    1.43   -43.68291    68.42509    14.01421
   730  H   1.0    0.05    1.03    1.43   -45.73515    70.26001    12.06212
   731  H   1.0    0.09    1.06    1.44   -42.18435    68.96555     8.68896
   732  H   1.0    0.08    1.04    1.43   -45.23059    65.35428    13.42461
   733  H   1.0    0.09    1.02    1.43   -45.03406    62.51213    11.68607
   734  H   1.0    0.08    1.03    1.43   -41.91790    65.26924     6.49499
   735  H   1.0    0.09    1.03    1.43   -43.17457    62.46489     7.79890
   736  N   5.0   -0.14    3.45    2.05   -37.18792    76.21265    12.15094
   737  C   4.0    0.04    4.44    4.45   -34.64435    75.97265    11.12860
   738  C   4.0    0.15    3.41    3.08   -33.71460    73.30058    11.49898
   739  O   6.0   -0.31    1.25    1.80   -33.77507    72.31225    13.60603
   740  C   4.0   -0.03    4.32    4.24   -32.81320    77.89261    12.26054
   741  C   4.0   -0.02    3.53    3.13   -33.28185    80.57602    11.43095
   742  C   4.0   -0.04    3.47    3.10   -35.03930    82.08592    12.66872
   743  C   4.0   -0.05    3.46    3.10   -31.86267    81.66262     9.51288
   744  C   4.0   -0.04    3.43    3.09   -35.41346    84.59736    11.97708
   745  C   4.0   -0.05    3.42    3.09   -32.21038    84.17784     8.80990
   746  C   4.0    0.06    3.44    3.09   -33.99428    85.63671    10.04578
   747  O   6.0   -0.25    2.10    1.84   -34.35333    88.11036     9.36737
   748  H   1.0    0.11    1.10    1.44   -37.29563    76.08793    14.07090
   749  H   1.0    0.07    1.09    1.44   -34.70482    76.34871     9.10470
   750  H   1.0    0.05    1.03    1.43   -32.98139    77.83403    14.31278
   751  H   1.0    0.04    1.04    1.43   -30.89702    77.38806    11.69551
   752  H   1.0    0.06    1.03    1.43   -36.13723    81.29601    14.19751
   753  H   1.0    0.05    1.03    1.43   -30.46049    80.53823     8.54534
   754  H   1.0    0.06    1.03    1.43   -36.80808    85.72931    12.94651
   755  H   1.0    0.05    1.03    1.43   -31.09166    84.98476     7.30568
   756  H   1.0    0.13    1.04    1.43   -35.67047    88.87192    10.42373
   757  N   5.0   -0.13    3.48    2.07   -32.91525    72.11572     9.42595
   758  C   4.0    0.04    4.40    4.38   -32.03085    69.52113     9.42028
   759  C   4.0    0.07    3.22    3.04   -29.22650    69.41152     8.89305
   760  O   6.0   -0.30    1.16    1.80   -28.30432    70.59071     7.11104
   761  C   4.0    0.06    4.25    4.10   -33.57665    67.94321     7.57402
   762  O   6.0   -0.24    2.15    1.85   -36.17313    68.52335     7.91795
   763  C   4.0   -0.07    4.09    3.79   -33.17603    65.14830     7.93118
   764  H   1.0    0.11    1.10    1.44   -32.86233    72.93775     7.68363
   765  H   1.0    0.05    1.07    1.44   -32.26518    68.68965    11.29111
   766  H   1.0    0.05    1.05    1.44   -32.97761    68.38540     5.65406
   767  H   1.0    0.14    1.08    1.44   -36.68525    68.13029     9.65461
   768  H   1.0    0.05    1.00    1.43   -34.31364    64.09384     6.57625
   769  H   1.0    0.05    1.00    1.43   -31.19182    64.67965     7.64394
   770  H   1.0    0.05    1.00    1.43   -33.72594    64.59650     9.83791
   771  N   5.0   -0.19    3.18    1.95   -34.04908    64.58327    16.93194
   772  C   4.0    0.04    4.31    4.22   -35.42291    66.95866    16.60313
   773  C   4.0    0.14    3.36    3.07   -36.02763    68.36840    19.04844
   774  O   6.0   -0.27    1.21    1.80   -36.13534    67.26857    21.09501
   775  C   4.0    0.03    4.15    3.91   -37.79641    66.57505    15.03844
   776  O   6.0   -0.27    2.12    1.84   -37.10855    66.49190    12.45518
   777  H   1.0    0.10    1.02    1.43   -34.96182    63.25669    17.99208
   778  H   1.0    0.06    1.08    1.44   -34.14357    68.23422    15.61481
   779  H   1.0    0.05    1.02    1.43   -38.69403    64.79870    15.57134
   780  H   1.0    0.04    1.02    1.43   -39.09276    68.14352    15.35591
   781  H   1.0    0.12    1.02    1.43   -38.61466    66.24434    11.40639
   782  N   5.0   -0.14    3.46    2.05   -36.28085    70.86661    18.78010
   783  C   4.0    0.04    4.22    4.05   -36.91013    72.69965    20.74352
   784  C   4.0    0.07    3.23    3.04   -38.46159    74.79346    19.51331
   785  O   6.0   -0.31    1.20    1.80   -37.85877    75.60982    17.40060
   786  C   4.0   -0.06    4.10    3.80   -34.51773    73.80514    21.90003
   787  H   1.0    0.11    1.09    1.44   -36.04085    71.74534    17.08123
   788  H   1.0    0.05    1.05    1.44   -38.01940    71.82281    22.24018
   789  H   1.0    0.05    1.00    1.43   -35.04308    75.16385    23.35701
   790  H   1.0    0.07    1.00    1.43   -33.40658    72.28013    22.72962
   791  H   1.0    0.05    1.00    1.43   -33.43114    74.74244    20.42416
   792  N   5.0   -0.19    3.21    1.96   -40.82564    82.02167    19.49252
   793  C   4.0    0.03    4.35    4.30   -40.04707    84.53878    20.33345
   794  C   4.0    0.15    3.37    3.07   -42.19380    86.38882    19.76653
   795  O   6.0   -0.29    1.24    1.80   -42.95725    86.63638    17.58012
   796  C   4.0   -0.02    4.25    4.10   -37.44492    85.33435    19.17505
   797  C   4.0   -0.05    4.12    3.84   -35.40024    83.24243    19.45095
   798  C   4.0   -0.07    4.07    3.75   -36.49628    87.87604    20.18605
   799  C   4.0   -0.07    3.95    3.53   -34.93347    82.11048    22.18916
   800  H   1.0    0.12    1.05    1.44   -40.96737    81.87238    17.57634
   801  H   1.0    0.05    1.06    1.44   -39.80141    84.55201    22.37813
   802  H   1.0    0.05    1.06    1.44   -37.79830    85.58002    17.16060
   803  H   1.0    0.04    1.02    1.43   -35.94259    81.66640    18.24152
   804  H   1.0    0.03    1.03    1.43   -33.60500    84.02855    18.81978
   805  H   1.0    0.04    1.00    1.43   -34.68592    88.31445    19.30733
   806  H   1.0    0.05    1.00    1.43   -37.87200    89.33679    19.72496
   807  H   1.0    0.05    1.00    1.43   -36.27140    87.74376    22.22885
   808  H   1.0    0.04    0.99    1.43   -33.45760    80.67807    22.07956
   809  H   1.0    0.04    1.00    1.43   -34.34577    83.62793    23.45150
   810  H   1.0    0.04    0.99    1.43   -36.68336    81.26577    22.87324
   811  N   5.0   -0.13    3.41    2.03   -43.22559    87.58124    21.76019
   812  C   4.0    0.04    4.36    4.31   -45.26839    89.43317    21.58256
   813  C   4.0    0.14    3.38    3.07   -44.19502    92.09957    21.99452
   814  O   6.0   -0.31    1.27    1.80   -42.50183    92.46807    23.55921
   815  C   4.0   -0.04    4.22    4.05   -47.38299    88.79255    23.49496
   816  C   4.0   -0.03    4.18    3.96   -49.73759    90.46118    23.39103
   817  C   4.0    0.25    3.10    3.02   -51.72936    89.91127    21.39737
   818  O   6.0   -0.26    1.18    1.80   -52.22258    87.65494    20.87958
   819  O   6.0   -0.27    1.17    1.80   -52.92933    91.73864    20.48652
   820  H   1.0    0.10    1.06    1.44   -42.65489    87.28266    23.57622
   821  H   1.0    0.07    1.07    1.44   -46.12065    89.41805    19.70795
   822  H   1.0    0.07    1.03    1.43   -47.99526    86.85558    23.15103
   823  H   1.0    0.05    1.03    1.43   -46.60442    88.95885    25.39414
   824  H   1.0    0.06    1.03    1.43   -50.68434    90.31567    25.21461
   825  H   1.0    0.05    1.04    1.43   -49.11398    92.39815    23.07166
   826  N   5.0   -0.14    3.42    2.03   -45.17390    93.93450    20.55833
   827  C   4.0    0.04    4.44    4.44   -44.35754    96.56500    20.71896
   828  C   4.0    0.14    3.36    3.07   -46.65544    98.35646    20.86824
   829  O   6.0   -0.30    1.20    1.80   -48.11053    98.57944    19.05978
   830  C   4.0   -0.01    4.23    4.06   -42.39600    97.27742    18.63837
   831  C   4.0   -0.06    4.11    3.81   -43.04607    96.13792    16.07212
   832  C   4.0   -0.06    4.10    3.80   -41.93491   100.12335    18.46640
   833  H   1.0    0.09    1.06    1.44   -46.55718    93.64159    19.24875
   834  H   1.0    0.07    1.09    1.44   -43.42968    96.83523    22.53876
   835  H   1.0    0.04    1.07    1.44   -40.60832    96.43460    19.21851
   836  H   1.0    0.06    1.01    1.43   -41.61177    96.70106    14.70585
   837  H   1.0    0.05    1.00    1.43   -43.08764    94.08568    16.24030
   838  H   1.0    0.07    1.00    1.43   -44.89233    96.83145    15.47875
   839  H   1.0    0.06    1.00    1.43   -40.55163   100.48996    16.98486
   840  H   1.0    0.05    1.00    1.43   -43.71125   101.06443    18.01854
   841  H   1.0    0.06    1.00    1.43   -41.22059   100.79798    20.27676
   842  N   5.0   -0.13    3.42    2.03   -46.98048    99.57533    23.08867
   843  C   4.0    0.03    4.27    4.14   -49.01760   101.37435    23.65748
   844  C   4.0    0.07    3.19    3.03   -47.91589   104.00674    24.17715
   845  O   6.0   -0.29    1.14    1.80   -45.70680   104.21083    24.89525
   846  C   4.0   -0.04    4.25    4.10   -50.61253   100.45783    25.90814
   847  C   4.0   -0.03    4.22    4.05   -52.22636    98.13536    25.32233
   848  C   4.0    0.16    3.22    3.04   -53.87609    97.36624    27.51630
   849  O   6.0   -0.27    1.20    1.80   -52.96902    96.63870    29.54398
   850  N   5.0   -0.17    3.18    1.95   -56.34596    97.44561    27.13269
   851  H   1.0    0.10    1.06    1.44   -45.79940    99.33344    24.59100
   852  H   1.0    0.05    1.06    1.44   -50.26482   101.54820    22.02665
   853  H   1.0    0.06    1.03    1.43   -49.34830    99.97028    27.45961
   854  H   1.0    0.05    1.03    1.43   -51.88054   101.97528    26.48262
   855  H   1.0    0.05    1.04    1.43   -53.45090    98.55299    23.71984
   856  H   1.0    0.06    1.03    1.43   -50.98859    96.55366    24.86879
   857  H   1.0    0.09    1.03    1.43   -57.03760    98.00497    25.42248
   858  H   1.0    0.11    1.02    1.43   -57.55727    96.94672    28.54620
   859  O   6.0   -0.35    2.03    1.83   -13.44351    77.69608     7.66284
   860  H   1.0    0.18    1.02    1.43   -12.07724    78.50489     7.63449
   861  H   1.0    0.15    1.02    1.43   -14.61136    78.76189     7.50788
   862  O   6.0   -0.36    1.99    1.82   -19.68528    76.77201    -3.08781
   863  H   1.0    0.16    1.02    1.43   -18.41160    77.71876    -3.08781
   864  H   1.0    0.16    1.02    1.43   -20.96084    77.71687    -3.08781
   865  O   6.0   -0.35    1.99    1.83   -39.20803    72.05525     5.07769
   866  H   1.0    0.17    1.02    1.43   -37.93436    73.00200     5.07769
   867  H   1.0    0.16    1.02    1.43   -40.48360    73.00011     5.07769
   868  O   6.0   -0.35    1.99    1.83   -42.59631   101.28931    31.08221
   869  H   1.0    0.16    1.02    1.43   -41.72137   101.68615    32.34644
   870  H   1.0    0.16    1.02    1.43   -43.83219   102.28331    31.05009
   871  O   6.0   -0.36    2.03    1.83    -2.35529   105.06041    -9.23761
   872  H   1.0    0.18    1.02    1.43    -2.33798   103.47278    -9.26596
   873  H   1.0    0.15    1.02    1.43    -0.84835   105.53889    -9.39257
   874  N   5.0   -0.14    3.44    2.04   -28.88363   122.19858    -9.14879
   875  C   4.0    0.03    4.45    4.46   -27.39954   120.54746    -7.46694
   876  C   4.0    0.15    3.39    3.07   -26.48059   122.04841    -5.18793
   877  O   6.0   -0.28    1.25    1.80   -25.99492   124.31448    -5.42981
   878  C   4.0   -0.04    4.35    4.30   -25.16789   119.69980    -9.12234
   879  C   4.0   -0.04    4.30    4.20   -25.71071   120.65691   -11.72827
   880  C   4.0    0.01    4.27    4.13   -27.44041   122.84260   -11.44103
   881  H   1.0    0.05    1.05    1.44   -28.47340   118.89156    -6.87923
   882  H   1.0    0.05    1.03    1.43   -23.42061   120.51521    -8.39668
   883  H   1.0    0.04    1.03    1.43   -25.04321   117.64431    -9.11289
   884  H   1.0    0.07    1.03    1.43   -23.95109   121.24045   -12.62589
   885  H   1.0    0.05    1.03    1.43   -26.60522   119.16803   -12.83376
   886  H   1.0    0.06    1.02    1.43   -26.38138   124.58998   -11.17647
   887  H   1.0    0.05    1.02    1.43   -28.68733   123.01480   -13.07186
   888  N   5.0   -0.14    3.42    2.03   -26.32705   120.84037    -2.96561
   889  C   4.0    0.04    4.47    4.50   -25.51538   122.14795    -0.66392
   890  C   4.0    0.14    3.42    3.09   -23.28762   120.79847     0.55873
   891  O   6.0   -0.32    1.30    1.80   -23.48136   118.55806     1.15210
   892  C   4.0   -0.02    4.24    4.08   -27.75275   122.60397     1.17856
   893  C   4.0   -0.07    4.11    3.83   -26.84739   123.37086     3.81095
   894  C   4.0   -0.06    4.10    3.79   -29.56991   124.57394     0.11464
   895  H   1.0    0.12    1.09    1.44   -26.75046   118.97695    -2.71239
   896  H   1.0    0.06    1.08    1.44   -24.75832   123.98457    -1.20439
   897  H   1.0    0.06    1.06    1.44   -28.76811   120.82264     1.38076
   898  H   1.0    0.05    1.00    1.43   -28.48566   123.66646     5.02415
   899  H   1.0    0.06    1.00    1.43   -25.66852   121.86760     4.57818
   900  H   1.0    0.05    1.00    1.43   -25.75813   125.11388     3.66355
   901  H   1.0    0.05    1.00    1.43   -31.11451   124.85037     1.44879
   902  H   1.0    0.06    1.00    1.43   -28.55437   126.34425    -0.15937
   903  H   1.0    0.06    1.00    1.43   -30.30960   123.90124    -1.68627
   904  N   5.0   -0.14    3.43    2.03   -21.16551   122.14593     0.90833
   905  C   4.0    0.04    4.51    4.54   -18.97325   120.98061     2.10075
   906  C   4.0    0.15    3.39    3.08   -19.13984   121.36482     4.93722
   907  O   6.0   -0.28    1.21    1.80   -19.06700   123.50920     5.84240
   908  C   4.0   -0.02    4.30    4.20   -16.37924   121.71302     0.94423
   909  C   4.0   -0.05    4.22    4.04   -16.37936   121.31596    -1.93949
   910  C   4.0   -0.06    4.11    3.83   -14.27297   120.18711     2.21791
   911  C   4.0   -0.06    4.05    3.70   -14.32049   122.56900    -3.29253
   912  H   1.0    0.08    1.05    1.44   -20.93299   123.98864     0.39621
   913  H   1.0    0.06    1.09    1.44   -19.09736   118.95529     1.74737
   914  H   1.0    0.05    1.06    1.44   -16.04146   123.71535     1.28816
   915  H   1.0    0.04    1.04    1.43   -16.22873   119.29786    -2.31932
   916  H   1.0    0.05    1.04    1.43   -18.15071   122.04625    -2.69727
   917  H   1.0    0.05    1.00    1.43   -12.46483   120.71864     1.38832
   918  H   1.0    0.06    1.00    1.43   -14.27088   120.60269     4.23614
   919  H   1.0    0.06    1.00    1.43   -14.62201   118.18038     1.91555
   920  H   1.0    0.05    1.00    1.43   -14.49784   122.16734    -5.30509
   921  H   1.0    0.05    1.01    1.43   -14.44248   124.59893    -2.96750
   922  H   1.0    0.05    1.01    1.43   -12.52213   121.85149    -2.58955
   923  N   5.0   -0.14    3.44    2.04   -19.40682   119.25833     6.30917
   924  C   4.0    0.04    4.34    4.28   -19.65156   119.14434     9.05872
   925  C   4.0    0.15    3.33    3.06   -17.04569   118.95999    10.39286
   926  O   6.0   -0.27    1.21    1.80   -16.55789   120.38691    12.17487
   927  C   4.0   -0.05    4.23    4.07   -21.42881   116.96934     9.80138
   928  C   4.0   -0.05    4.16    3.93   -24.03504   117.02079     8.47479
   929  C   4.0   -0.01    4.20    4.00   -25.97501   118.83473     9.58973
   930  N   5.0   -0.14    3.39    2.02   -26.67253   118.15950    12.18054
   931  C   4.0    0.10    3.35    3.06   -25.65024   119.18183    14.23657
   932  N   5.0   -0.17    3.27    1.97   -23.88370   120.95278    14.02870
   933  N   5.0   -0.18    3.24    1.96   -26.38228   118.43925    16.51369
   934  H   1.0    0.09    1.07    1.44   -19.46316   117.50157     5.51926
   935  H   1.0    0.06    1.06    1.44   -20.52609   120.87993     9.74091
   936  H   1.0    0.04    1.03    1.43   -20.52074   115.18601     9.31572
   937  H   1.0    0.06    1.03    1.43   -21.76289   117.05966    11.83094
   938  H   1.0    0.05    1.03    1.43   -23.74993   117.56753     6.50948
   939  H   1.0    0.04    1.03    1.43   -24.84533   115.12979     8.56928
   940  H   1.0    0.05    1.04    1.43   -25.18601   120.73801     9.61430
   941  H   1.0    0.04    1.02    1.43   -27.68088   118.79404     8.43511
   942  H   1.0    0.08    1.06    1.44   -28.03331   116.81545    12.42432
   943  H   1.0    0.09    1.04    1.43   -23.30425   121.53689    12.28448
   944  H   1.0    0.10    1.02    1.43   -23.10720   121.73079    15.61229
   945  H   1.0    0.09    1.02    1.43   -27.73564   117.07782    16.69510
   946  H   1.0    0.09    1.03    1.43   -25.59237   119.22915    18.08405
   947  N   5.0   -0.13    3.44    2.04   -15.39623   117.22867     9.52737
   948  C   4.0    0.04    4.40    4.38   -12.83188   116.93083    10.49680
   949  C   4.0    0.15    3.41    3.08   -11.07686   117.32500     8.24802
   950  O   6.0   -0.31    1.29    1.80   -11.36553   116.08423     6.29405
   951  C   4.0   -0.04    4.24    4.08   -12.44289   114.32779    11.73835
   952  C   4.0   -0.03    4.22    4.03    -9.93746   114.06396    13.17265
   953  C   4.0    0.15    3.22    3.04    -9.80089   115.67621    15.52725
   954  O   6.0   -0.27    1.20    1.80   -11.11014   115.21888    17.40564
   955  N   5.0   -0.18    3.18    1.95    -8.17627   117.57929    15.48378
   956  H   1.0    0.09    1.06    1.44   -15.81220   115.98285     8.11763
   957  H   1.0    0.06    1.06    1.44   -12.41618   118.32737    11.95189
   958  H   1.0    0.05    1.04    1.43   -13.97024   114.00292    13.08194
   959  H   1.0    0.04    1.03    1.43   -12.47792   112.88384    10.27003
   960  H   1.0    0.05    1.04    1.43    -9.69823   112.09726    13.73957
   961  H   1.0    0.05    1.04    1.43    -8.39637   114.63183    11.92921
   962  H   1.0    0.09    1.03    1.43    -7.10089   117.89234    13.91531
   963  H   1.0    0.10    1.02    1.43    -8.00120   118.73290    17.01824
   964  N   5.0   -0.13    3.35    2.00    -9.38622   119.15723     8.48991
   965  C   4.0    0.02    4.25    4.11    -7.62373   119.85912     6.48869
   966  C   4.0    0.15    3.37    3.07    -4.88617   119.24524     7.05939
   967  O   6.0   -0.28    1.25    1.80    -4.30308   118.43727     9.17021
   968  H   1.0    0.09    1.06    1.44    -9.18108   120.21929    10.08484
   969  H   1.0    0.06    1.04    1.43    -8.14734   118.86528     4.76148
   970  H   1.0    0.05    1.03    1.43    -7.76096   121.88912     6.16177
   971  N   5.0   -0.08    3.63    2.19    -3.13462   119.59560     5.22635
   972  C   4.0    0.04    4.57    4.63    -0.47305   118.97104     5.72902
   973  C   4.0    0.15    3.41    3.08     0.61747   120.52350     7.89276
   974  O   6.0   -0.28    1.25    1.80    -0.07522   122.72145     8.18377
   975  C   4.0   -0.04    4.37    4.32     0.83447   119.51230     3.19679
   976  C   4.0   -0.04    4.30    4.19    -0.85575   121.35442     1.88343
   977  C   4.0   -0.01    4.35    4.28    -3.47151   120.52764     2.62042
   978  H   1.0    0.06    1.05    1.44    -0.27122   116.97358     6.18822
   979  H   1.0    0.04    1.03    1.43     2.69684   120.32673     3.52938
   980  H   1.0    0.04    1.03    1.43     1.01094   117.76949     2.11208
   981  H   1.0    0.06    1.03    1.43    -0.46657   123.26816     2.53916
   982  H   1.0    0.03    1.03    1.43    -0.58577   121.24001    -0.15559
   983  H   1.0    0.04    1.02    1.43    -4.78338   122.11424     2.57318
   984  H   1.0    0.04    1.03    1.43    -4.14178   119.02277     1.38454
   985  N   5.0   -0.13    3.42    2.03     2.19370   119.34943     9.48768
   986  C   4.0    0.04    4.39    4.36     3.32261   120.68116    11.62118
   987  C   4.0    0.08    3.20    3.04     6.10618   121.18630    11.13364
   988  O   6.0   -0.28    1.13    1.80     7.50087   119.51262    10.32294
   989  C   4.0   -0.02    4.24    4.07     2.81444   119.52129    14.27058
   990  C   4.0   -0.06    4.10    3.79     0.12608   120.08057    15.13419
   991  C   4.0   -0.06    4.10    3.81     3.34658   116.69377    14.35562
   992  H   1.0    0.08    1.05    1.44     2.70909   117.49824     9.34029
   993  H   1.0    0.06    1.09    1.44     2.38100   122.51222    11.67410
   994  H   1.0    0.05    1.06    1.44     4.12420   120.41038    15.58961
   995  H   1.0    0.05    1.00    1.43    -0.16970   119.24323    16.99179
   996  H   1.0    0.05    1.00    1.43    -0.13579   122.12144    15.23434
   997  H   1.0    0.06    1.00    1.43    -1.19600   119.26843    13.77925
   998  H   1.0    0.05    1.00    1.43     2.95577   115.99421    16.25290
   999  H   1.0    0.05    1.00    1.43     2.13122   115.74145    12.99124
  1000  H   1.0    0.06    1.00    1.43     5.32436   116.37018    13.88130
  1001  N   5.0   -0.19    3.22    1.96     6.79539   109.09905     2.90199
  1002  C   4.0    0.03    4.31    4.22     4.99350   111.18240     2.87742
[...]
1058   6 C      0.008  1.055  2.938  0.000    20.451     6.439
1059   6 C      0.256  1.044  2.700  0.000    22.694     7.801
1060   8 O     -0.487  1.761  4.726  0.000    23.503     6.500
1061   6 C     -0.127  1.044  3.082  0.000    22.983     6.835
1062   1 H      0.203  0.797  0.000  0.000     1.091     1.636
1063   1 H      0.096  0.904  0.000  0.000     1.820     2.110
1064   1 H      0.070  0.930  0.000  0.000     2.088     2.260
1065   1 H      0.072  0.928  0.000  0.000     2.065     2.247
1066   1 H      0.040  0.960  0.000  0.000     2.448     2.447
1067   7 N     -0.169  1.241  3.928  0.000    24.664     7.376
1068   6 C      0.002  1.061  2.938  0.000    20.556     6.456
1069   6 C      0.266  1.041  2.693  0.000    22.511     7.769
1070   8 O     -0.467  1.742  4.726  0.000    23.077     6.441
1071   6 C      0.103  1.049  2.848  0.000    18.985     6.221
1072   8 O     -0.470  1.731  4.739  0.000    22.259     6.369
1073   6 C     -0.151  1.050  3.102  0.000    23.488     6.912
1074   1 H      0.252  0.748  0.000  0.000     0.874     1.465
1075   1 H      0.082  0.918  0.000  0.000     1.961     2.190
1076   1 H      0.049  0.951  0.000  0.000     2.337     2.391
1077   1 H      0.330  0.670  0.000  0.000     0.637     1.254
1078   1 H      0.074  0.926  0.000  0.000     2.047     2.238
1079   1 H      0.062  0.938  0.000  0.000     2.181     2.309
1080   1 H      0.067  0.933  0.000  0.000     2.124     2.279
1081   7 N     -0.153  1.229  3.924  0.000    24.302     7.322
1082   6 C     -0.045  1.049  2.997  0.000    21.457     6.608
1083   6 C      0.266  1.038  2.696  0.000    22.504     7.768
1084   8 O     -0.472  1.752  4.720  0.000    23.168     6.453
1085   1 H      0.223  0.777  0.000  0.000     0.995     1.563
1086   1 H      0.110  0.890  0.000  0.000     1.692     2.034
1087   1 H      0.098  0.902  0.000  0.000     1.801     2.099
1088   7 N     -0.165  1.238  3.927  0.000    24.563     7.361
1089   6 C      0.017  1.057  2.927  0.000    20.307     6.418
1090   6 C      0.198  1.090  2.711  0.000    23.777     7.986
1091   8 O     -0.350  1.760  4.590  0.000    20.712     6.102
1092   6 C      0.068  1.039  2.893  0.000    19.657     6.351
1093   8 O     -0.496  1.735  4.761  0.000    22.811     6.447
1094   1 H      0.226  0.774  0.000  0.000     0.985     1.555
1095   1 H      0.104  0.896  0.000  0.000     1.745     2.066
1096   1 H      0.077  0.923  0.000  0.000     2.007     2.215
1097   1 H      0.051  0.949  0.000  0.000     2.304     2.374
1098   1 H      0.356  0.644  0.000  0.000     0.574     1.190
1099   7 N     -0.388  1.328  4.059  0.000    30.035     8.139
1100   6 C      0.029  1.061  2.910  0.000    20.103     6.386
1101   6 C      0.260  1.058  2.682  0.000    22.623     7.789
1102   8 O     -0.516  1.768  4.748  0.000    24.149     6.589
1103   6 C     -0.013  1.058  2.954  0.000    20.771     6.482
1104   6 C     -0.100  1.037  3.063  0.000    22.459     6.757
1105   6 C     -0.118  1.045  3.073  0.000    22.819     6.812
1106   1 H      0.162  0.838  0.000  0.000     1.320     1.799
1107   1 H      0.043  0.957  0.000  0.000     2.405     2.425
1108   1 H      0.023  0.977  0.000  0.000     2.689     2.564
1109   1 H      0.022  0.978  0.000  0.000     2.697     2.568
1110   1 H      0.016  0.984  0.000  0.000     2.793     2.613
1111   1 H      0.048  0.952  0.000  0.000     2.351     2.398
1112   1 H      0.038  0.962  0.000  0.000     2.472     2.459
1113   1 H      0.061  0.939  0.000  0.000     2.183     2.311
1114   1 H      0.054  0.946  0.000  0.000     2.275     2.359
1115   7 N     -0.092  1.242  3.850  0.000    23.026     7.127
1116   6 C      0.026  1.058  2.916  0.000    20.122     6.384
1117   6 C      0.202  1.087  2.712  0.000    23.705     7.973
1118   8 O     -0.374  1.757  4.618  0.000    21.173     6.169
1119   6 C     -0.066  1.052  3.014  0.000    21.728     6.631
1120   6 C     -0.067  1.041  3.026  0.000    21.755     6.636
1121   6 C     -0.012  1.051  2.961  0.000    20.828     6.503
1122   1 H      0.078  0.922  0.000  0.000     2.004     2.214
1123   1 H      0.066  0.934  0.000  0.000     2.129     2.282
1124   1 H      0.070  0.930  0.000  0.000     2.083     2.257
1125   1 H      0.078  0.922  0.000  0.000     2.003     2.213
1126   1 H      0.069  0.931  0.000  0.000     2.098     2.265
1127   1 H      0.076  0.924  0.000  0.000     2.021     2.223
1128   1 H      0.083  0.917  0.000  0.000     1.946     2.182
1129   7 N     -0.385  1.326  4.059  0.000    29.960     8.129
1130   6 C      0.031  1.060  2.909  0.000    20.069     6.382
1131   6 C      0.200  1.088  2.713  0.000    23.746     7.980
1132   8 O     -0.382  1.769  4.613  0.000    21.316     6.190
1133   6 C     -0.028  1.077  2.952  0.000    21.053     6.527
1134   6 C     -0.065  1.052  3.013  0.000    21.743     6.640
1135   6 C     -0.118  1.046  3.072  0.000    22.822     6.814
1136   6 C     -0.118  1.041  3.077  0.000    22.828     6.814
1137   1 H      0.159  0.841  0.000  0.000     1.339     1.813
1138   1 H      0.062  0.938  0.000  0.000     2.180     2.309
1139   1 H      0.017  0.983  0.000  0.000     2.780     2.607
1140   1 H      0.016  0.984  0.000  0.000     2.791     2.613
1141   1 H      0.043  0.957  0.000  0.000     2.408     2.427
1142   1 H      0.050  0.950  0.000  0.000     2.314     2.379
1143   1 H      0.036  0.964  0.000  0.000     2.504     2.475
1144   1 H      0.063  0.937  0.000  0.000     2.161     2.299
1145   1 H      0.048  0.952  0.000  0.000     2.341     2.393
1146   1 H      0.062  0.938  0.000  0.000     2.170     2.304
1147   1 H      0.040  0.960  0.000  0.000     2.447     2.446
1148   7 N     -0.376  1.320  4.057  0.000    29.715     8.096
1149   6 C      0.042  1.048  2.910  0.000    19.879     6.350
1150   6 C      0.199  1.084  2.717  0.000    23.767     7.984
1151   8 O     -0.381  1.762  4.619  0.000    21.314     6.190
1152   6 C     -0.061  1.048  3.013  0.000    21.671     6.626
1153   6 C     -0.038  1.065  2.974  0.000    28.892     8.815
1154   6 C     -0.010  1.065  2.945  0.000    28.245     8.718
1155   6 C     -0.021  1.072  2.949  0.000    28.357     8.722
1156   7 N     -0.114  1.229  3.885  0.000    23.483     7.197
1157   6 C      0.045  1.064  2.891  0.000    26.910     8.505
1158   6 C     -0.044  1.080  2.964  0.000    29.098     8.845
1159   6 C     -0.047  1.073  2.974  0.000    29.170     8.856
1160   6 C     -0.050  1.076  2.974  0.000    29.232     8.866
1161   6 C     -0.035  1.073  2.961  0.000    28.861     8.810
1162   1 H      0.160  0.840  0.000  0.000     1.337     1.811
1163   1 H      0.059  0.941  0.000  0.000     2.210     2.325
1164   1 H      0.044  0.956  0.000  0.000     2.397     2.421
1165   1 H      0.050  0.950  0.000  0.000     2.315     2.380
1166   1 H      0.030  0.970  0.000  0.000     2.585     2.514
1167   1 H      0.182  0.818  0.000  0.000     1.201     1.717
1168   1 H      0.031  0.969  0.000  0.000     2.567     2.505
1169   1 H      0.035  0.965  0.000  0.000     2.522     2.484
1170   1 H      0.030  0.970  0.000  0.000     2.586     2.515
1171   1 H      0.029  0.971  0.000  0.000     2.599     2.521
1172   7 N     -0.387  1.324  4.063  0.000    30.016     8.137
1173   6 C      0.032  1.061  2.907  0.000    20.059     6.380
1174   6 C      0.274  1.053  2.673  0.000    22.362     7.743
1175   8 O     -0.525  1.776  4.749  0.000    24.350     6.616
1176   6 C     -0.057  1.048  3.009  0.000    21.594     6.616
1177   6 C     -0.100  1.059  3.041  0.000    22.411     6.739
1178   6 C      0.287  1.037  2.676  0.000    22.142     7.705
1179   8 O     -0.528  1.765  4.763  0.000    24.413     6.625
1180   7 N     -0.278  1.267  4.011  0.000    27.184     7.743
1181   1 H      0.161  0.839  0.000  0.000     1.328     1.805
1182   1 H      0.054  0.946  0.000  0.000     2.268     2.355
1183   1 H      0.042  0.958  0.000  0.000     2.420     2.433
1184   1 H      0.035  0.965  0.000  0.000     2.513     2.479
1185   1 H      0.067  0.933  0.000  0.000     2.116     2.275
1186   1 H      0.077  0.923  0.000  0.000     2.012     2.218
1187   1 H      0.228  0.772  0.000  0.000     0.975     1.547
1188   1 H      0.240  0.760  0.000  0.000     0.925     1.507
1189   7 N     -0.181  1.254  3.927  0.000    24.918     7.414
1190   6 C      0.017  1.063  2.920  0.000    20.301     6.417
1191   6 C      0.288  1.036  2.676  0.000    22.118     7.701
1192   8 O     -0.514  1.760  4.753  0.000    24.087     6.580
1193   6 C     -0.083  1.065  3.018  0.000    22.073     6.687
1194   6 C     -0.015  1.054  2.961  0.000    20.802     6.487
1195   6 C     -0.126  1.047  3.080  0.000    22.974     6.834
1196   6 C     -0.124  1.045  3.078  0.000    22.918     6.825
1197   1 H      0.225  0.775  0.000  0.000     0.985     1.555
1198   1 H      0.072  0.928  0.000  0.000     2.068     2.249
1199   1 H      0.067  0.933  0.000  0.000     2.117     2.276
1200   1 H      0.048  0.952  0.000  0.000     2.345     2.395
1201   1 H      0.029  0.971  0.000  0.000     2.595     2.519
1202   1 H      0.056  0.944  0.000  0.000     2.245     2.343
1203   1 H      0.039  0.961  0.000  0.000     2.465     2.455
1204   1 H      0.051  0.949  0.000  0.000     2.305     2.374
1205   1 H      0.057  0.943  0.000  0.000     2.235     2.338
1206   1 H      0.060  0.940  0.000  0.000     2.197     2.318
1207   1 H      0.039  0.961  0.000  0.000     2.456     2.451
1208   7 N     -0.165  1.237  3.928  0.000    24.564     7.361
1209   6 C      0.036  1.056  2.909  0.000    19.988     6.367
1210   6 C      0.269  1.050  2.681  0.000    22.456     7.760
1211   8 O     -0.479  1.730  4.749  0.000    23.328     6.476
1212   6 C     -0.059  1.054  3.005  0.000    21.639     6.622
1213   6 C     -0.082  1.058  3.024  0.000    22.058     6.687
1214   6 C      0.369  1.021  2.611  0.000    20.749     7.455
1215   8 O     -0.623  1.754  4.869  0.000    26.681     6.925
1216   8 O     -0.659  1.783  4.876  0.000    27.618     7.046
1217   1 H      0.220  0.780  0.000  0.000     1.009     1.573
1218   1 H      0.048  0.952  0.000  0.000     2.350     2.397
1219   1 H      0.048  0.952  0.000  0.000     2.342     2.393
1220   1 H      0.061  0.939  0.000  0.000     2.187     2.313
1221   1 H      0.008  0.992  0.000  0.000     2.928     2.676
1222   1 H      0.018  0.982  0.000  0.000     2.760     2.598
1223   7 N     -0.163  1.244  3.919  0.000    24.528     7.356
1224   6 C      0.044  1.051  2.905  0.000    19.841     6.343
1225   6 C      0.274  1.038  2.688  0.000    22.371     7.746
1226   8 O     -0.473  1.762  4.711  0.000    23.199     6.458
1227   6 C     -0.081  1.050  3.031  0.000    22.038     6.682
1228   6 C      0.287  1.033  2.680  0.000    22.132     7.703
1229   8 O     -0.493  1.747  4.746  0.000    23.625     6.517
1230   7 N     -0.262  1.264  3.998  0.000    26.799     7.689
1231   1 H      0.183  0.817  0.000  0.000     1.199     1.715
1232   1 H      0.065  0.935  0.000  0.000     2.143     2.289
1233   1 H      0.069  0.931  0.000  0.000     2.096     2.264
1234   1 H      0.042  0.958  0.000  0.000     2.426     2.436
1235   1 H      0.256  0.744  0.000  0.000     0.861     1.453
1236   1 H      0.195  0.805  0.000  0.000     1.130     1.666
1237   7 N     -0.171  1.241  3.930  0.000    24.709     7.383
1238   6 C     -0.036  1.050  2.986  0.000    21.290     6.582
1239   6 C      0.274  1.032  2.694  0.000    22.367     7.745
1240   8 O     -0.466  1.715  4.751  0.000    23.040     6.436
1241   1 H      0.209  0.791  0.000  0.000     1.063     1.615
1242   1 H      0.097  0.903  0.000  0.000     1.817     2.108
1243   1 H      0.122  0.878  0.000  0.000     1.599     1.978
1244   7 N     -0.152  1.231  3.920  0.000    24.279     7.318
1245   6 C      0.002  1.065  2.933  0.000    20.548     6.453
1246   6 C      0.268  1.037  2.694  0.000    22.467     7.762
1247   8 O     -0.508  1.757  4.751  0.000    23.962     6.563
1248   6 C     -0.025  1.063  2.962  0.000    20.984     6.516
1249   6 C     -0.137  1.049  3.088  0.000    23.202     6.868
1250   6 C     -0.117  1.044  3.074  0.000    22.803     6.810
1251   1 H      0.192  0.808  0.000  0.000     1.147     1.677
1252   1 H      0.096  0.904  0.000  0.000     1.822     2.111
1253   1 H      0.030  0.970  0.000  0.000     2.588     2.516
1254   1 H      0.081  0.919  0.000  0.000     1.970     2.195
1255   1 H      0.049  0.951  0.000  0.000     2.330     2.387
1256   1 H      0.070  0.930  0.000  0.000     2.088     2.260
1257   1 H      0.067  0.933  0.000  0.000     2.119     2.276
1258   1 H      0.062  0.938  0.000  0.000     2.177     2.307
1259   1 H      0.011  0.989  0.000  0.000     2.870     2.649
1260   7 N     -0.156  1.242  3.914  0.000    24.372     7.332
1261   6 C      0.026  1.054  2.920  0.000    20.141     6.391
1262   6 C      0.194  1.091  2.715  0.000    23.848     7.998
1263   8 O     -0.339  1.750  4.590  0.000    20.508     6.072
1264   6 C     -0.076  1.061  3.014  0.000    21.941     6.668
1265   6 C     -0.013  1.053  2.960  0.000    20.779     6.484
1266   6 C     -0.118  1.041  3.076  0.000    22.803     6.808
1267   6 C     -0.119  1.045  3.074  0.000    22.831     6.813
1268   1 H      0.234  0.766  0.000  0.000     0.946     1.524
1269   1 H      0.070  0.930  0.000  0.000     2.089     2.260
1270   1 H      0.056  0.944  0.000  0.000     2.251     2.346
1271   1 H      0.073  0.927  0.000  0.000     2.052     2.240
1272   1 H      0.029  0.971  0.000  0.000     2.605     2.524
1273   1 H      0.052  0.948  0.000  0.000     2.292     2.367
1274   1 H      0.030  0.970  0.000  0.000     2.587     2.515
1275   1 H      0.041  0.959  0.000  0.000     2.437     2.441
1276   1 H      0.049  0.951  0.000  0.000     2.327     2.386
1277   1 H      0.052  0.948  0.000  0.000     2.299     2.371
1278   1 H      0.041  0.959  0.000  0.000     2.434     2.440
1279   7 N     -0.374  1.330  4.044  0.000    29.665     8.089
1280   6 C      0.042  1.047  2.912  0.000    19.870     6.345
1281   6 C      0.199  1.087  2.715  0.000    23.770     7.985
1282   8 O     -0.340  1.754  4.587  0.000    20.521     6.073
1283   6 C     -0.023  1.074  2.949  0.000    20.990     6.523
1284  16 S     -0.140  1.933  4.114  0.092   146.923    20.401
1285   1 H      0.177  0.823  0.000  0.000     1.230     1.737
1286   1 H      0.048  0.952  0.000  0.000     2.348     2.396
1287   1 H      0.052  0.948  0.000  0.000     2.289     2.366
1288   1 H      0.064  0.936  0.000  0.000     2.151     2.294
1289   7 N     -0.379  1.325  4.053  0.000    29.783     8.105
1290   6 C      0.038  1.052  2.910  0.000    19.955     6.363
1291   6 C      0.196  1.090  2.714  0.000    23.819     7.993
1292   8 O     -0.360  1.760  4.600  0.000    20.893     6.128
1293   6 C     -0.126  1.046  3.079  0.000    22.966     6.833
1294   1 H      0.163  0.837  0.000  0.000     1.313     1.795
1295   1 H      0.043  0.957  0.000  0.000     2.410     2.428
1296   1 H      0.051  0.949  0.000  0.000     2.309     2.376
1297   1 H      0.070  0.930  0.000  0.000     2.085     2.258
1298   1 H      0.058  0.942  0.000  0.000     2.224     2.332
1299   7 N     -0.302  1.309  3.992  0.000    27.762     7.825
1300   6 C      0.024  1.068  2.908  0.000    20.164     6.393
1301   6 C      0.199  1.093  2.708  0.000    23.755     7.982
1302   8 O     -0.386  1.763  4.623  0.000    21.395     6.201
1303   6 C     -0.048  1.049  2.999  0.000    21.408     6.582
1304   6 C     -0.056  1.041  3.015  0.000    21.556     6.605
1305   6 C      0.005  1.046  2.949  0.000    20.529     6.457
1306   1 H      0.064  0.936  0.000  0.000     2.157     2.297
1307   1 H      0.031  0.969  0.000  0.000     2.573     2.508
1308   1 H      0.045  0.955  0.000  0.000     2.389     2.417
1309   1 H      0.043  0.957  0.000  0.000     2.414     2.430
1310   1 H      0.036  0.964  0.000  0.000     2.503     2.474
1311   1 H      0.039  0.961  0.000  0.000     2.457     2.451
1312   1 H      0.043  0.957  0.000  0.000     2.406     2.426
1313   1 H      0.172  0.828  0.000  0.000     1.261     1.759
1314   1 H      0.071  0.929  0.000  0.000     2.074     2.252
1315   1 H      0.167  0.833  0.000  0.000     1.292     1.780
1316   1 H      0.081  0.919  0.000  0.000     1.972     2.196
1317   1 H      0.191  0.809  0.000  0.000     1.153     1.682
1318   1 H      0.081  0.919  0.000  0.000     1.966     2.192
1319   1 H      0.172  0.828  0.000  0.000     1.259     1.757
1320   1 H      0.098  0.902  0.000  0.000     1.802     2.099
1321   1 H      0.190  0.810  0.000  0.000     1.160     1.687
1322   1 H      0.067  0.933  0.000  0.000     2.119     2.276
1323   1 H      0.177  0.823  0.000  0.000     1.233     1.739
1324   1 H      0.076  0.924  0.000  0.000     2.022     2.224
1325   1 H      0.199  0.801  0.000  0.000     1.113     1.652
1326   1 H      0.086  0.914  0.000  0.000     1.914     2.163
1327   1 H      0.183  0.817  0.000  0.000     1.197     1.714
1328   1 H      0.104  0.896  0.000  0.000     1.751     2.069
1329   1 H      0.175  0.825  0.000  0.000     1.244     1.747
1330   1 H      0.083  0.917  0.000  0.000     1.943     2.180
1331   1 H      0.190  0.810  0.000  0.000     1.157     1.685
1332   1 H      0.078  0.922  0.000  0.000     1.995     2.208
1333   1 H      0.176  0.824  0.000  0.000     1.235     1.741
1334   1 H      0.078  0.922  0.000  0.000     1.995     2.209
1335   1 H      0.176  0.824  0.000  0.000     1.239     1.743
1336   1 H      0.071  0.929  0.000  0.000     2.077     2.253
1337   1 H      0.189  0.811  0.000  0.000     1.164     1.690
1338   1 H      0.085  0.915  0.000  0.000     1.924     2.169
1339   1 H      0.190  0.810  0.000  0.000     1.157     1.685
1340   1 H      0.072  0.928  0.000  0.000     2.065     2.247
1341   1 H      0.175  0.825  0.000  0.000     1.240     1.744
1342   1 H      0.067  0.933  0.000  0.000     2.122     2.278
1343   1 H      0.185  0.815  0.000  0.000     1.188     1.707
1344   1 H      0.078  0.922  0.000  0.000     2.004     2.213

 Mol. C6AA /au·bohr⁶  :   16361871.671694
 Mol. C8AA /au·bohr⁸  :  363505171.395083
 Mol. α(0) /au        :       6044.840243

 
molecular dipole:
                 x           y           z       tot (Debye)
 q only:      -88.385     184.086      21.029
   full:      -86.876     183.071      20.732     517.756
molecular quadrupole (traceless):
                xx          xy          yy          xz          yz          zz
 q only:    -5885.236  -10026.724   17214.098     326.396    3515.358  -11328.863
  q+dip:    -5718.803   -9891.544   16781.836     178.169    3474.798  -11063.033
   full:    -5710.451   -9888.315   16782.501     185.247    3470.258  -11072.049
speedup  1.82
cpu  time for grad    5 m 17.7 s
wall time for grad    2 m 54.3 s

SCC energy    :   -2080.6122082
rep           :      24.6540589
ES            :       6.6002035
AES           :      -0.2352426
AXC           :       0.6408901
disp          :      -1.8479040
XB            :       0.0000000
fix           :       0.0000000
Gborn         :       0.0000000
Gsasa         :       0.0000000
Ghb           :       0.0000000
Gshift        :       0.0000000
Gsolv         :      -1.7198775    -1079.24
Etot ala COSMO:   -2080.6122082
grad norm     :       1.2592703
total E       :   -2055.7221716
atomizationE  :     373.5936358   234433.55
(atE without considering molecular charge,
 total energy contains solvation terms)
H-L gap (eV)  :          0.6652

------------------------------------------------------------------------
 * finished run on 2019/05/05 at 23:30:32.006     
------------------------------------------------------------------------
 total:
 * wall-time:     0 d,  0 h,  3 min,  0.910 sec
 *  cpu-time:     0 d,  0 h,  5 min, 26.651 sec
 * ratio c/w:     1.806 speedup
 SCF:
 * wall-time:     0 d,  0 h,  2 min, 57.248 sec
 *  cpu-time:     0 d,  0 h,  5 min, 22.670 sec
 * ratio c/w:     1.820 speedup

