      -----------------------------------------------------------      
     |                   =====================                   |     
     |                           x T B                           |     
     |                   =====================                   |     
     |                         S. Grimme                         |     
     |          Mulliken Center for Theoretical Chemistry        |     
     |                    University of Bonn                     |     
     |                 Version 6.0.1 (SAW181210)                 |     
      -----------------------------------------------------------      

   This program is distributed in the hope that it will be useful,
   but WITHOUT ANY WARRANTY; without even the implied warranty of
   MERCHANTABILITY or FITNESS FOR A PARTICULAR PURPOSE.
   
   FOR NON-COMMERCIAL, ACADEMIA USE ONLY.
   
   Cite this work as:
   S. Grimme, C. Bannwarth, P. Shushkov, J. Comput. Theory Chem., 2017,
   13, 1989-2009.
   C. Bannwarth, S. Ehlert and S. Grimme., ChemRxiv, 2018, preprint.
   http://doi.org/10.26434/chemrxiv.7246238.v1
   
   for sTDA-xTB:
   S. Grimme and C. Bannwarth, J. Chem. Phys., 2016, 145, 054103.
   
   in the mass-spec context:
   V. Asgeirsson, C. Bauer and S. Grimme, Chem. Sci., 2017, 8, 4879.
   
   if GBSA is used:
   P. Shushkov, F. März and S. Grimme, unpublished.
   
   for ANC optimizer:
   S. Grimme, unpublished.
   Rational Function algorithm used in ANCopt:
   F. Eckert, P. Pulay, H.-J. Werner, J. Comput. Chem., 1997, 18, 1473.
   
   with help from (in alphabetical order)
   C. Bannwarth, F. Bohle, G. Brandenburg, E. Caldeweyher, M. Checinski,
   S. Dohm, S. Ehlert, S. Ehrlich, F. März, H. Neugebauer, J. Pisarek,
   P. Pracht, P. Shushkov, and S. Spicher.
   
 * started run on 2019/05/12 at 13:11:28.353     
========================================================================
 # omp threads = 2
========================================================================
number of atoms            : 513
number of electrons        : 1346
charge                     : -2
spin                       : .0
first test random number   : .5202

########################################################################
# WARNING! Please study the warnings concerning your input carefully
#  - Process number higher than OMP_NUM_THREADS, I hope you know what you are doing.
########################################################################

           ------------------------------------------------- 
          |                 G F N 2 - x T B                 |
          | Geometry, Frequencies, Noncovalent interactions |
          |            JCTC 2018 parametrisation            |
           ------------------------------------------------- 
 
      method parameters     
 k(s)        :  1.8500
 k(p)        :  2.2300
 k(d)        :  2.2300
 k(f)        :  2.0000
 kEN (H0ij)  : -2.0000
 D4 a1       :  0.5200
 D4 a2       :  5.0000
 D4 s6       :  1.0000
 D4 s8       :  2.7000
 D4 s9       :  5.0000
 alphaj      :  2.0000

 Solvent             : h2o
 Using internal parameter file: .param_gbsa2_h2o
 Gsolv ref. state (COSMO-RS): gsolv [1 M gas/solution]
 temperature (mdtemp)       :    298.150000000000     
 dielectric constant        :    80.2000000000000     
 rho                        :    1.00000000000000     
 mass                       :    18.0000000000000     
 surface tension            :    15.5689454083859     
 probe radius               :   0.975313790000000     
 vdW radii scaling          :    1.00000000000000     
 Gshift (Eh)                :   1.857443126794793E-003
 c1                         :    1.55243817000000     
 soset                      :   0.130326360000000     
 HB correction              :  T

            Z     q(EN)     CN     RAES       Cart. coordinates
     1  N   5.0   -0.15    4.17    3.35   143.90280   102.61149   396.21835
     2  C   4.0   -0.00    4.32    4.23   142.25011   104.11172   394.47957
     3  C   4.0    0.15    3.41    3.08   139.91127   105.17706   395.84148
     4  O   6.0   -0.28    1.18    1.80   138.78251   103.87915   397.56505
     5  C   4.0    0.01    4.16    3.91   141.39448   102.46309   392.17738
     6  O   6.0   -0.27    2.02    1.83   139.72428   100.33423   392.86816
     7  H   1.0    0.06    1.08    1.44   144.69165   101.34075   395.32400
     8  H   1.0    0.06    1.07    1.44   145.09546   103.63348   396.92647
     9  H   1.0    0.08    1.08    1.44   142.93416   101.89289   397.46751
    10  H   1.0    0.03    1.11    1.45   143.24796   105.55307   393.85436
    11  H   1.0    0.03    1.06    1.44   140.50872   103.57210   390.97257
    12  H   1.0    0.03    1.06    1.44   142.94388   101.76905   391.36640
    13  H   1.0    0.12    1.06    1.44   139.51177    99.43606   391.51031
    14  N   5.0   -0.17    3.47    2.06   139.16511   107.48885   395.05066
    15  C   4.0    0.04    4.49    4.53   136.64719   108.38437   395.67185
    16  C   4.0    0.15    3.46    3.10   134.59374   106.54723   394.81925
    17  O   6.0   -0.31    1.26    1.80   132.94286   105.83987   396.30718
    18  C   4.0   -0.05    4.39    4.36   136.25490   110.90238   394.54777
    19  C   4.0   -0.04    4.15    3.90   134.05719   112.56992   395.57535
    20  C   4.0    0.24    3.06    3.02   134.56787   115.53752   395.22293
    21  O   6.0   -0.30    1.16    1.80   135.61145   116.36775   393.23462
    22  O   6.0   -0.31    1.22    1.80   134.06172   117.11047   396.96483
    23  H   1.0    0.08    1.12    1.45   140.09576   108.53095   394.14278
    24  H   1.0    0.07    1.13    1.45   136.46777   108.50613   397.53888
    25  H   1.0    0.06    1.09    1.44   137.83771   111.92022   394.77657
    26  H   1.0    0.04    1.09    1.44   135.93226   110.72568   392.71113
    27  H   1.0    0.04    1.07    1.44   132.49317   112.16423   394.71302
    28  H   1.0    0.06    1.07    1.44   133.89417   112.26615   397.42437
    29  N   5.0   -0.16    3.47    2.06   134.80369   105.58661   392.49403
    30  C   4.0    0.03    4.33    4.25   133.02664   103.94829   391.23123
    31  C   4.0    0.08    3.22    3.04   131.76643   101.80486   392.77211
    32  O   6.0   -0.31    1.11    1.80   129.40064   101.63913   392.89321
    33  C   4.0   -0.05    4.39    4.36   134.33745   102.79017   388.87865
    34  C   4.0   -0.02    3.60    3.17   132.56995   101.72277   386.91377
    35  C   4.0   -0.04    3.53    3.13   131.31250    99.41665   387.23906
    36  C   4.0   -0.05    3.53    3.13   132.14374   103.06044   384.70510
    37  C   4.0   -0.06    3.44    3.09   129.64538    98.54696   385.49262
    38  C   4.0   -0.05    3.45    3.09   130.48945   102.19251   382.94921
    39  C   4.0   -0.05    3.46    3.10   129.21309    99.93442   383.34163
    40  H   1.0    0.08    1.13    1.45   136.20791   105.86344   391.51839
    41  H   1.0    0.05    1.13    1.45   131.58947   105.05034   390.80647
    42  H   1.0    0.04    1.09    1.44   135.38806   104.09506   388.07013
    43  H   1.0    0.04    1.08    1.44   135.45388   101.37596   389.45994
    44  H   1.0    0.05    1.09    1.44   131.63407    98.45164   388.76026
    45  H   1.0    0.05    1.09    1.44   133.03315   104.62274   384.43893
    46  H   1.0    0.04    1.09    1.44   128.78620    96.95451   385.74087
    47  H   1.0    0.05    1.09    1.44   130.20661   103.14123   381.40883
    48  H   1.0    0.04    1.08    1.44   128.03089    99.31364   382.07113
    49  N   5.0   -0.22    3.27    1.97   131.48220   101.01520   398.50042
    50  C   4.0    0.03    4.34    4.27   130.37205   102.10424   400.78868
    51  C   4.0    0.16    3.46    3.10   127.87214   103.35529   400.25682
    52  O   6.0   -0.31    1.25    1.80   126.07499   103.08680   401.74478
    53  C   4.0   -0.07    4.22    4.05   132.14472   103.94235   402.05764
    54  H   1.0    0.12    1.09    1.44   132.72019   101.95745   397.86881
    55  H   1.0    0.04    1.11    1.45   130.07473   100.63908   401.98453
    56  H   1.0    0.05    1.05    1.44   131.36550   104.59598   403.61913
    57  H   1.0    0.05    1.05    1.44   133.75798   103.05680   402.51475
    58  H   1.0    0.07    1.06    1.44   132.52459   105.33224   400.89555
    59  N   5.0   -0.15    3.55    2.11   127.70942   104.76184   398.19257
    60  C   4.0    0.04    4.61    4.67   125.40965   105.92979   397.33088
    61  C   4.0    0.15    3.53    3.13   123.39219   103.92755   396.86004
    62  O   6.0   -0.31    1.26    1.80   121.14602   104.26869   397.53559
    63  C   4.0   -0.03    4.44    4.45   125.77286   107.67615   395.10576
    64  C   4.0   -0.08    4.35    4.30   123.39297   108.50093   394.12985
    65  C   4.0   -0.08    4.26    4.11   127.40630   109.93803   395.74427
    66  H   1.0    0.11    1.13    1.45   129.05674   105.07765   397.14337
    67  H   1.0    0.06    1.13    1.45   124.77672   107.00373   398.77992
    68  H   1.0    0.05    1.13    1.45   126.66429   106.66185   393.74417
    69  H   1.0    0.05    1.06    1.44   123.62635   109.70917   392.70668
    70  H   1.0    0.05    1.06    1.44   122.34655   107.06528   393.53723
    71  H   1.0    0.05    1.06    1.44   122.43480   109.40130   395.49877
    72  H   1.0    0.04    1.05    1.44   127.67684   110.98602   394.24183
    73  H   1.0    0.05    1.06    1.44   126.61318   110.90124   397.10053
    74  H   1.0    0.06    1.05    1.44   129.10895   109.31268   396.35392
    75  N   5.0   -0.16    3.50    2.07   124.09896   101.78395   395.79161
    76  C   4.0    0.03    4.51    4.55   122.31787    99.69075   395.52225
    77  C   4.0    0.09    3.28    3.05   121.21259    98.91574   398.08239
    78  O   6.0   -0.30    1.11    1.80   118.93122    98.39421   398.31860
    79  C   4.0   -0.03    4.47    4.50   123.41550    97.46606   394.07532
    80  C   4.0   -0.06    4.34    4.28   124.36113    98.21476   391.51225
    81  C   4.0   -0.09    4.29    4.18   121.50663    95.38819   394.06050
    82  C   4.0   -0.09    4.16    3.92   125.75762    96.16822   390.15103
    83  H   1.0    0.10    1.12    1.45   125.67218   101.44423   395.21867
    84  H   1.0    0.05    1.12    1.45   120.88415   100.37013   394.47752
    85  H   1.0    0.04    1.12    1.45   124.96210    96.82934   395.01642
    86  H   1.0    0.03    1.09    1.44   122.86413    98.65494   390.45876
    87  H   1.0    0.06    1.10    1.44   125.47581    99.68836   391.65776
    88  H   1.0    0.03    1.05    1.44   122.21113    93.87108   393.15600
    89  H   1.0    0.05    1.06    1.44   121.06978    94.85460   395.80906
    90  H   1.0    0.04    1.06    1.44   119.97066    95.94386   393.17888
    91  H   1.0    0.04    1.06    1.44   126.19858    96.69911   388.43426
    92  H   1.0    0.04    1.05    1.44   127.35365    95.77408   391.10325
    93  H   1.0    0.03    1.05    1.44   124.72223    94.60467   390.09076
    94  N   5.0   -0.21    3.35    2.00   120.66887   102.41860   403.32451
    95  C   4.0    0.03    4.56    4.62   119.18264   104.34164   404.44065
    96  C   4.0    0.15    3.50    3.11   116.55361   104.30168   403.32043
    97  O   6.0   -0.29    1.20    1.80   114.59409   104.35677   404.64068
    98  C   4.0   -0.02    4.47    4.50   120.40278   106.83999   404.23211
    99  C   4.0   -0.08    4.28    4.15   118.53220   108.88065   405.00087
   100  C   4.0   -0.08    4.28    4.16   122.82421   106.89518   405.58220
   101  H   1.0    0.12    1.09    1.44   122.05958   102.95746   402.44838
   102  H   1.0    0.04    1.13    1.45   118.97922   103.92642   406.27949
   103  H   1.0    0.06    1.13    1.45   120.86156   107.28613   402.42469
   104  H   1.0    0.05    1.04    1.43   119.36903   110.58512   404.96904
   105  H   1.0    0.05    1.06    1.44   117.07292   108.90301   403.87225
   106  H   1.0    0.05    1.05    1.44   117.97763   108.54935   406.76600
   107  H   1.0    0.06    1.05    1.44   123.70232   108.56152   405.37378
   108  H   1.0    0.04    1.05    1.44   122.49018   106.68056   407.44970
   109  H   1.0    0.06    1.06    1.44   123.93906   105.54151   405.01634
   110  N   5.0   -0.15    3.53    2.10   116.46369   104.26773   400.74970
   111  C   4.0    0.04    4.49    4.52   114.20098   104.31266   399.26906
   112  C   4.0    0.09    3.29    3.05   112.57087   101.99683   399.84049
   113  O   6.0   -0.29    1.10    1.80   110.25222   102.12560   400.21197
   114  C   4.0   -0.02    4.52    4.56   114.79831   104.60948   396.53165
   115  C   4.0   -0.06    4.34    4.28   115.54407   107.32640   396.06101
   116  C   4.0   -0.09    4.25    4.10   112.67592   103.58821   394.80820
   117  C   4.0   -0.09    4.21    4.02   116.33732   107.50707   393.34010
   118  H   1.0    0.11    1.15    1.45   117.87604   104.22426   399.80366
   119  H   1.0    0.06    1.12    1.45   113.13808   105.80893   399.83331
   120  H   1.0    0.06    1.13    1.45   116.25642   103.49036   396.05904
   121  H   1.0    0.04    1.09    1.44   114.09390   108.44130   396.28655
   122  H   1.0    0.05    1.09    1.44   116.96508   107.80810   397.11289
   123  H   1.0    0.04    1.05    1.44   113.10947   103.83847   393.04194
   124  H   1.0    0.05    1.05    1.44   112.38726   101.78339   395.17778
   125  H   1.0    0.05    1.05    1.44   111.09579   104.54761   395.22348
   126  H   1.0    0.04    1.05    1.44   116.86902   109.32682   393.02141
   127  H   1.0    0.04    1.05    1.44   117.82237   106.42773   393.05384
   128  H   1.0    0.04    1.06    1.44   114.95772   107.08385   392.22933
   129  N   5.0   -0.25    3.25    1.97   119.87791   103.09286   380.29476
   130  C   4.0    0.02    4.37    4.33   122.01076   104.68775   380.89423
   131  C   4.0    0.06    3.23    3.04   124.03050   104.61145   378.86044
   132  O   6.0   -0.32    1.14    1.80   125.01281   106.61540   378.12307
   133  C   4.0   -0.06    4.57    4.62   123.06766   104.14975   383.40094
   134  C   4.0   -0.03    4.37    4.32   121.76601   105.39104   385.52875
   135  C   4.0   -0.09    4.22    4.03   122.95707   104.36471   388.00498
   136  C   4.0   -0.09    4.28    4.16   121.95722   108.16569   385.32852
   137  H   1.0    0.09    1.08    1.44   119.46210   101.97980   381.50929
   138  H   1.0    0.04    1.14    1.45   121.31823   106.45662   380.89568
   139  H   1.0    0.04    1.10    1.44   123.05072   102.28322   383.67656
   140  H   1.0    0.05    1.11    1.44   124.88514   104.71193   383.43309
   141  H   1.0    0.03    1.12    1.45   119.91908   105.00350   385.59070
   142  H   1.0    0.04    1.04    1.43   122.08863   105.13063   389.48323
   143  H   1.0    0.04    1.05    1.44   122.73414   102.50631   388.06721
   144  H   1.0    0.04    1.05    1.44   124.75340   104.79429   388.03480
   145  H   1.0    0.04    1.05    1.44   121.22147   108.98820   386.86132
   146  H   1.0    0.04    1.06    1.44   123.76123   108.65819   385.20319
   147  H   1.0    0.04    1.06    1.44   121.04079   108.75207   383.82426
   148  N   5.0   -0.23    3.31    1.98   122.29362   107.85621   372.72497
   149  C   4.0    0.03    4.43    4.43   122.35365   110.56415   372.96175
   150  C   4.0    0.15    3.43    3.09   124.98844   111.60217   373.06776
   151  O   6.0   -0.30    1.23    1.80   125.35418   113.71530   372.12533
   152  C   4.0   -0.05    4.53    4.57   120.78602   111.33954   375.10523
   153  C   4.0   -0.03    4.33    4.26   117.96629   110.80561   375.11649
   154  C   4.0   -0.09    4.24    4.08   116.83629   111.05206   377.77116
   155  C   4.0   -0.09    4.28    4.17   116.51125   112.56363   373.53626
   156  H   1.0    0.09    1.07    1.44   121.64553   106.99834   374.08296
   157  H   1.0    0.04    1.14    1.45   121.56012   111.27301   371.39732
   158  H   1.0    0.05    1.09    1.44   121.49898   110.54815   376.69462
   159  H   1.0    0.04    1.09    1.44   120.96891   113.23462   375.34179
   160  H   1.0    0.04    1.13    1.45   117.81060   109.07050   374.45312
   161  H   1.0    0.03    1.05    1.44   115.00922   110.72915   377.71462
   162  H   1.0    0.03    1.04    1.43   117.64475   109.76114   378.91372
   163  H   1.0    0.03    1.05    1.44   117.17804   112.74275   378.46020
   164  H   1.0    0.04    1.06    1.44   114.72583   112.17883   373.59832
   165  H   1.0    0.04    1.06    1.44   116.84075   114.32712   374.07692
   166  H   1.0    0.04    1.05    1.44   117.12685   112.39838   371.72680
   167  N   5.0   -0.15    3.46    2.05   126.80956   110.19349   374.17654
   168  C   4.0    0.04    4.35    4.28   129.51006   110.83343   374.07940
   169  C   4.0    0.08    3.29    3.05   130.37443   110.88274   371.42680
   170  O   6.0   -0.28    1.12    1.80   131.46083   112.80226   370.55971
   171  C   4.0   -0.06    4.30    4.20   131.22923   109.16141   375.63176
   172  C   4.0   -0.04    4.22    4.04   131.25194   109.22217   378.71135
   173  C   4.0    0.16    3.25    3.04   132.12765   111.64378   379.91513
   174  O   6.0   -0.29    1.24    1.80   131.18625   112.45046   381.82193
   175  N   5.0   -0.21    3.30    1.98   133.77694   112.93301   378.63478
   176  H   1.0    0.11    1.12    1.45   126.49060   108.74170   375.10651
   177  H   1.0    0.08    1.12    1.45   129.61548   112.55926   374.88411
   178  H   1.0    0.04    1.08    1.44   130.80517   107.37516   375.19754
   179  H   1.0    0.04    1.09    1.44   132.97765   109.51987   375.15584
   180  H   1.0    0.06    1.08    1.44   129.47015   108.89831   379.24191
   181  H   1.0    0.04    1.08    1.44   132.33348   107.83989   379.27664
   182  H   1.0    0.10    1.09    1.44   134.36762   112.39659   377.12046
   183  H   1.0    0.14    1.10    1.44   134.40092   114.41669   379.22629
   184  N   5.0   -0.21    3.25    1.97   125.70579   119.24900   370.06771
   185  C   4.0    0.03    4.46    4.48   123.90842   120.69265   371.63538
   186  C   4.0    0.15    3.46    3.10   124.88011   121.10765   374.25449
   187  O   6.0   -0.29    1.19    1.80   125.32719   123.30807   375.05427
   188  C   4.0   -0.05    4.63    4.70   121.44758   119.40065   371.80606
   189  C   4.0   -0.03    4.40    4.38   119.59636   120.42135   369.96918
   190  C   4.0   -0.09    4.27    4.14   120.32683   119.43503   367.32891
   191  C   4.0   -0.09    4.32    4.23   117.10761   119.53993   370.64124
   192  H   1.0    0.11    1.07    1.44   125.29533   117.60642   369.90392
   193  H   1.0    0.05    1.13    1.45   123.75790   122.35166   370.75554
   194  H   1.0    0.05    1.11    1.44   121.66070   117.55990   371.45423
   195  H   1.0    0.04    1.12    1.45   120.74462   119.61653   373.51758
   196  H   1.0    0.04    1.13    1.45   119.55479   122.29385   369.88884
   197  H   1.0    0.03    1.04    1.43   119.11411   120.08166   366.04335
   198  H   1.0    0.04    1.05    1.44   122.04367   120.06032   366.89813
   199  H   1.0    0.04    1.05    1.44   120.30908   117.58416   367.32682
   200  H   1.0    0.04    1.05    1.44   115.79623   120.21459   369.44261
   201  H   1.0    0.04    1.06    1.44   117.02967   117.66858   370.58942
   202  H   1.0    0.04    1.06    1.44   116.66101   120.12270   372.36872
   203  N   5.0   -0.15    3.51    2.08   125.22575   119.01357   375.69216
   204  C   4.0    0.03    4.49    4.52   126.42924   119.02063   378.16181
   205  C   4.0    0.15    3.48    3.10   129.31268   119.10731   378.01178
   206  O   6.0   -0.27    1.22    1.80   130.45508   117.34619   376.83847
   207  C   4.0   -0.04    4.60    4.66   125.75326   116.66881   379.49922
   208  C   4.0   -0.03    4.36    4.31   123.12121   116.28797   380.49511
   209  C   4.0   -0.09    4.24    4.07   123.11292   113.85116   382.05630
   210  C   4.0   -0.08    4.31    4.21   122.27480   118.45353   381.90028
   211  H   1.0    0.10    1.13    1.45   124.79915   117.48225   375.16751
   212  H   1.0    0.05    1.13    1.45   125.86384   120.57465   379.03152
   213  H   1.0    0.06    1.11    1.44   126.11453   115.22328   378.38140
   214  H   1.0    0.06    1.11    1.45   126.87275   116.53977   381.03129
   215  H   1.0    0.04    1.13    1.45   121.86847   116.10035   379.09245
   216  H   1.0    0.03    1.04    1.43   121.37014   113.53803   382.73855
   217  H   1.0    0.05    1.05    1.44   123.60245   112.40044   380.99606
   218  H   1.0    0.05    1.05    1.44   124.28976   114.02024   383.49011
   219  H   1.0    0.04    1.06    1.44   120.57001   118.17744   382.61664
   220  H   1.0    0.05    1.06    1.44   123.47345   118.75582   383.35689
   221  H   1.0    0.05    1.06    1.44   122.26834   119.97945   380.83378
   222  N   5.0   -0.16    3.46    2.05   130.53895   121.04909   379.17587
   223  C   4.0    0.04    4.56    4.61   133.29047   120.92455   379.17247
   224  C   4.0    0.16    3.39    3.08   134.23974   119.09636   381.20805
   225  O   6.0   -0.29    1.21    1.80   135.99978   117.56505   380.80322
   226  C   4.0   -0.04    4.53    4.58   134.44120   123.47028   379.26344
   227  C   4.0   -0.04    4.23    4.06   134.90079   124.52440   376.76663
   228  S   6.0   -0.03    2.62    3.10   135.33753   127.84426   376.82372
   229  C   4.0   -0.07    3.97    3.56   134.39421   128.48734   373.48346
   230  H   1.0    0.10    1.11    1.45   129.83627   122.34619   379.89177
   231  H   1.0    0.07    1.14    1.45   133.86710   120.16311   377.51073
   232  H   1.0    0.06    1.12    1.45   133.32157   124.61555   380.24671
   233  H   1.0    0.06    1.10    1.44   136.10991   123.37218   380.19989
   234  H   1.0    0.04    1.15    1.45   136.43183   123.76086   376.00920
   235  H   1.0    0.05    1.16    1.45   133.41992   124.14428   375.66941
   236  H   1.0    0.05    1.09    1.44   134.36707   130.34490   373.24343
   237  H   1.0    0.04    1.09    1.44   135.63344   127.70947   372.36983
   238  H   1.0    0.06    1.09    1.44   132.70049   127.78872   373.21749
   239  N   5.0   -0.12    3.60    2.16   133.01539   119.20302   383.43441
   240  C   4.0    0.04    4.47    4.49   133.48561   117.91661   385.76915
   241  C   4.0    0.15    3.61    3.17   131.00848   116.72473   386.47653
   242  O   6.0   -0.30    1.38    1.80   129.02972   117.89313   386.26557
   243  C   4.0    0.03    4.24    4.08   134.46951   119.83321   387.66332
   244  O   6.0   -0.24    2.06    1.83   136.07191   121.75976   386.59258
   245  H   1.0    0.11    1.15    1.45   131.66152   120.26364   383.60115
   246  H   1.0    0.05    1.13    1.45   134.83771   116.62265   385.60031
   247  H   1.0    0.07    1.06    1.44   132.97367   120.71471   388.46157
   248  H   1.0    0.05    1.06    1.44   135.35693   118.90607   389.07734
   249  H   1.0    0.12    1.06    1.44   137.36039   121.99835   387.71420
   250  N   5.0   -0.09    3.69    2.26   130.97412   114.42435   387.22302
   251  C   4.0    0.04    4.63    4.69   128.45597   113.27509   387.74540
   252  C   4.0    0.15    3.44    3.09   126.98424   114.66546   389.78967
   253  O   6.0   -0.32    1.25    1.80   124.69789   114.60033   389.70559
   254  C   4.0   -0.05    4.39    4.36   129.00726   110.48180   388.45231
   255  C   4.0   -0.05    4.36    4.31   131.75953   110.15762   388.24533
   256  C   4.0   -0.02    4.38    4.34   133.07239   112.76685   387.84430
   257  H   1.0    0.06    1.12    1.45   127.44581   113.21578   386.20109
   258  H   1.0    0.04    1.09    1.44   128.46569   110.17778   390.24185
   259  H   1.0    0.04    1.09    1.44   128.11232   109.34642   387.32552
   260  H   1.0    0.04    1.08    1.44   132.43006   109.33824   389.80045
   261  H   1.0    0.04    1.08    1.44   132.13385   109.05819   386.77566
   262  H   1.0    0.05    1.07    1.44   133.94709   113.26933   389.44964
   263  H   1.0    0.05    1.07    1.44   134.32326   112.65535   386.48004
   264  N   5.0   -0.15    3.49    2.07   128.18800   115.99272   391.63991
   265  C   4.0    0.04    4.41    4.39   126.86746   117.42102   393.51074
   266  C   4.0    0.17    3.49    3.11   125.44097   119.76374   392.35599
   267  O   6.0   -0.30    1.27    1.80   123.83409   120.87107   393.60890
   268  C   4.0    0.03    4.25    4.10   128.62582   118.50678   395.47862
   269  O   6.0   -0.24    2.06    1.83   130.18946   120.56137   394.48165
   270  H   1.0    0.10    1.11    1.45   129.92203   116.13584   391.69462
   271  H   1.0    0.05    1.12    1.45   125.65674   116.27428   394.27619
   272  H   1.0    0.05    1.06    1.44   127.61911   119.21675   396.91352
   273  H   1.0    0.05    1.07    1.44   129.72850   117.13983   396.14676
   274  H   1.0    0.14    1.05    1.44   131.22592   121.07841   395.69356
   275  N   5.0   -0.13    3.58    2.14   126.08078   120.64334   390.10658
   276  C   4.0    0.05    4.53    4.58   124.84601   122.71551   388.91641
   277  C   4.0    0.15    3.45    3.10   122.05500   122.14234   388.47338
   278  O   6.0   -0.28    1.18    1.80   120.54313   123.94706   387.80337
   279  C   4.0   -0.03    4.39    4.36   126.12089   123.52259   386.50117
   280  C   4.0    0.25    3.14    3.03   128.84824   124.35645   386.73003
   281  O   6.0   -0.28    1.25    1.80   129.36098   124.99171   388.89465
   282  O   6.0   -0.29    1.15    1.80   130.45655   124.39795   384.92120
   283  H   1.0    0.12    1.14    1.45   127.41136   119.98485   389.14860
   284  H   1.0    0.07    1.13    1.45   124.95949   124.21425   390.08393
   285  H   1.0    0.05    1.09    1.44   126.06861   122.07586   385.27446
   286  H   1.0    0.06    1.08    1.44   125.14876   124.95792   385.71063
   287  N   5.0   -0.15    3.57    2.13   121.32478   119.75915   388.72638
   288  C   4.0    0.03    4.54    4.59   118.76580   118.86447   388.27502
   289  C   4.0    0.16    3.53    3.13   117.06936   119.50182   390.44658
   290  O   6.0   -0.30    1.34    1.80   114.82911   119.24051   390.23822
   291  C   4.0   -0.05    4.71    4.77   118.69838   116.05986   387.72710
   292  C   4.0   -0.03    4.57    4.63   116.26869   114.93515   387.31977
   293  C   4.0   -0.07    4.67    4.74   116.46506   112.95073   385.60973
   294  C   4.0   -0.06    4.71    4.77   115.45310   113.63654   389.31722
   295  H   1.0    0.11    1.15    1.45   122.40393   118.49356   389.14805
   296  H   1.0    0.06    1.13    1.45   118.10054   119.73581   386.73683
   297  H   1.0    0.04    1.11    1.45   119.77588   115.72935   386.20914
   298  H   1.0    0.05    1.11    1.45   119.53611   115.19008   389.20554
   299  H   1.0    0.05    1.17    1.46   115.09622   116.33100   386.85827
   300  H   1.0    0.03    1.08    1.44   114.82642   112.08259   385.31272
   301  H   1.0    0.03    1.06    1.44   117.02469   113.63985   383.87830
   302  H   1.0    0.03    1.08    1.44   117.74529   111.69675   386.11846
   303  H   1.0    0.03    1.09    1.44   113.74625   112.89814   389.06377
   304  H   1.0    0.03    1.10    1.44   116.63675   112.32157   389.85926
   305  H   1.0    0.05    1.07    1.44   115.25440   114.85165   390.85943
   306  N   5.0   -0.15    3.58    2.14   118.02453   120.20127   392.53525
   307  C   4.0    0.04    4.44    4.44   116.53727   121.00097   394.68322
   308  C   4.0    0.09    3.26    3.05   115.64386   123.66567   394.38450
   309  O   6.0   -0.29    1.14    1.80   113.61652   124.23023   395.26045
   310  C   4.0   -0.04    4.40    4.37   118.01878   120.81711   397.19470
   311  C   4.0   -0.01    3.57    3.15   119.22198   118.30840   397.87751
   312  C   4.0   -0.05    3.54    3.13   117.96339   116.02690   397.60941
   313  C   4.0   -0.03    3.57    3.15   121.56380   118.18617   398.88758
   314  C   4.0   -0.05    3.48    3.10   119.07051   113.71780   398.28808
   315  C   4.0   -0.05    3.54    3.13   122.72143   115.98490   399.57315
   316  C   4.0    0.07    3.52    3.13   121.49874   113.73279   399.27503
   317  O   6.0   -0.27    2.18    1.85   122.66472   111.59821   399.96504
   318  H   1.0    0.11    1.14    1.45   119.76145   120.23084   392.89505
   319  H   1.0    0.06    1.13    1.45   115.09484   119.83227   394.80035
   320  H   1.0    0.06    1.09    1.44   119.39353   122.08829   397.12269
   321  H   1.0    0.05    1.09    1.44   116.83676   121.25609   398.57339
   322  H   1.0    0.05    1.08    1.44   116.25956   116.02528   396.90354
   323  H   1.0    0.06    1.09    1.44   122.48960   119.77934   399.18593
   324  H   1.0    0.05    1.08    1.44   118.19444   112.15792   398.05425
   325  H   1.0    0.05    1.09    1.44   124.41600   116.00802   400.31346
   326  H   1.0    0.14    1.12    1.45   124.26787   111.91881   400.36082
   327  N   5.0   -0.23    3.27    1.97   113.72602   129.35778   383.43298
   328  C   4.0    0.03    4.33    4.25   114.13837   127.41531   381.62408
   329  C   4.0    0.08    3.25    3.04   111.81947   125.92455   381.01844
   330  O   6.0   -0.32    1.17    1.80   111.83150   124.51836   379.24218
   331  C   4.0    0.04    4.30    4.20   116.27057   125.69345   382.54824
   332  O   6.0   -0.25    2.14    1.85   115.73453   124.66560   384.81059
   333  H   1.0    0.09    1.08    1.44   113.94452   128.84608   385.07439
   334  H   1.0    0.04    1.12    1.45   114.73653   128.20873   379.99969
   335  H   1.0    0.05    1.07    1.44   116.49688   124.28424   381.30254
   336  H   1.0    0.05    1.07    1.44   117.87457   126.65749   382.64457
   337  H   1.0    0.14    1.09    1.44   115.44658   125.89544   385.94215
   338  N   5.0   -0.23    3.24    1.97   110.39393   122.32405   373.90329
   339  C   4.0    0.03    4.42    4.41   110.34564   119.60885   373.99738
   340  C   4.0    0.07    3.30    3.05   107.95960   118.65572   372.84624
   341  O   6.0   -0.31    1.13    1.80   107.99962   117.10011   371.15859
   342  C   4.0   -0.03    4.50    4.53   110.73412   118.50020   376.70203
   343  C   4.0   -0.05    4.39    4.36   113.35184   118.98975   377.57614
   344  C   4.0   -0.09    4.30    4.21   110.09081   115.77660   376.64940
   345  C   4.0   -0.08    4.21    4.01   113.55616   119.15206   380.30588
   346  H   1.0    0.11    1.07    1.44   110.59731   123.04487   375.56394
   347  H   1.0    0.04    1.13    1.45   111.80386   119.01426   372.97610
   348  H   1.0    0.05    1.13    1.45   109.54672   119.38730   377.89374
   349  H   1.0    0.03    1.10    1.44   114.47526   117.62958   376.97817
   350  H   1.0    0.05    1.10    1.44   113.96974   120.64068   376.87729
   351  H   1.0    0.03    1.05    1.44   110.46825   115.03114   378.36233
   352  H   1.0    0.04    1.06    1.44   108.27449   115.53024   376.30068
   353  H   1.0    0.04    1.06    1.44   111.11788   114.90787   375.38381
   354  H   1.0    0.04    1.05    1.44   115.33685   119.47640   380.81887
   355  H   1.0    0.06    1.06    1.44   112.47265   120.51715   380.96462
   356  H   1.0    0.04    1.06    1.44   113.01170   117.51422   381.06492
   357  O   6.0   -0.33    2.01    1.83   126.40128   112.20847   403.60480
   358  H   1.0    0.15    1.01    1.43   127.72577   113.17454   403.21559
   359  H   1.0    0.15    1.02    1.43   125.49408   113.25572   404.59420
   360  N   5.0   -0.23    3.24    1.96   128.99903   135.45582   370.06771
   361  C   4.0    0.02    4.37    4.32   130.79640   134.01216   371.63538
   362  C   4.0    0.07    3.27    3.05   129.82471   133.59717   374.25449
   363  O   6.0   -0.28    1.11    1.80   129.37762   131.39674   375.05427
   364  C   4.0   -0.06    4.60    4.67   133.25724   135.30417   371.80606
   365  C   4.0   -0.03    4.40    4.39   135.10845   134.28346   369.96918
   366  C   4.0   -0.09    4.27    4.14   134.37798   135.26978   367.32891
   367  C   4.0   -0.09    4.32    4.23   137.59720   135.16489   370.64124
   368  H   1.0    0.08    1.07    1.44   129.40949   137.09839   369.90392
   369  H   1.0    0.05    1.13    1.45   130.94691   132.35316   370.75554
   370  H   1.0    0.03    1.11    1.44   133.04412   137.14492   371.45423
   371  H   1.0    0.04    1.12    1.45   133.96020   135.08828   373.51758
   372  H   1.0    0.04    1.13    1.45   135.15003   132.41097   369.88884
   373  H   1.0    0.04    1.04    1.43   135.59071   134.62315   366.04335
   374  H   1.0    0.03    1.05    1.44   132.66114   134.64449   366.89813
   375  H   1.0    0.03    1.05    1.44   134.39574   137.12065   367.32682
   376  H   1.0    0.05    1.05    1.44   138.90858   134.49023   369.44261
   377  H   1.0    0.04    1.06    1.44   137.67515   137.03624   370.58942
   378  H   1.0    0.04    1.06    1.44   138.04380   134.58212   372.36872
   379  N   5.0   -0.20    3.30    1.98   137.57524   129.39708   393.19272
   380  C   4.0    0.04    4.34    4.27   138.21676   126.76533   392.86019
   381  C   4.0    0.07    3.26    3.05   140.50291   126.59219   391.24155
   382  O   6.0   -0.29    1.20    1.80   140.69462   128.07569   389.53839
   383  C   4.0    0.03    4.26    4.13   136.04607   125.27707   391.91629
   384  O   6.0   -0.26    2.07    1.83   133.92986   125.43955   393.63340
   385  H   1.0    0.11    1.08    1.44   136.04439   129.80304   392.52018
   386  H   1.0    0.04    1.12    1.45   138.67258   125.98133   394.57159
   387  H   1.0    0.06    1.07    1.44   135.48932   125.98962   390.25298
   388  H   1.0    0.05    1.07    1.44   136.49951   123.48205   391.67908
   389  H   1.0    0.16    1.06    1.44   132.71783   124.41220   393.13525
   390  N   5.0   -0.23    3.18    1.95   142.44445   121.98924   387.33705
   391  C   4.0    0.01    4.23    4.05   141.77541   121.05112   384.95338
   392  C   4.0    0.15    3.33    3.06   141.61320   123.03158   382.79149
   393  O   6.0   -0.30    1.20    1.80   141.99635   122.41343   380.50962
   394  H   1.0    0.09    1.07    1.44   141.44609   121.43701   388.61740
   395  H   1.0    0.05    1.08    1.44   143.10885   119.77947   384.38331
   396  H   1.0    0.06    1.08    1.44   140.15033   120.11842   384.97978
   397  N   5.0   -0.16    3.52    2.09   140.97879   125.34704   383.43298
   398  C   4.0    0.04    4.44    4.45   140.56644   127.28950   381.62408
   399  C   4.0    0.09    3.25    3.04   142.88534   128.78026   381.01844
   400  O   6.0   -0.32    1.17    1.80   142.87331   130.18646   379.24218
   401  C   4.0    0.04    4.32    4.23   138.43424   129.01136   382.54824
   402  O   6.0   -0.26    2.15    1.85   138.97029   130.03921   384.81059
   403  H   1.0    0.10    1.13    1.45   140.76030   125.85873   385.07439
   404  H   1.0    0.06    1.13    1.45   139.96829   126.49609   379.99969
   405  H   1.0    0.05    1.07    1.44   138.20794   130.42057   381.30254
   406  H   1.0    0.05    1.07    1.44   136.83024   128.04732   382.64457
   407  H   1.0    0.15    1.11    1.45   139.25824   128.80938   385.94215
   408  N   5.0   -0.16    3.47    2.06   146.38114   127.08847   374.01900
   409  C   4.0    0.02    4.61    4.68   144.63832   128.21986   372.26244
   410  C   4.0    0.14    3.45    3.10   144.58211   131.10683   371.95175
   411  O   6.0   -0.29    1.26    1.80   144.72775   132.15498   369.82919
   412  C   4.0   -0.05    4.53    4.58   142.09647   127.26023   373.14160
   413  C   4.0   -0.05    4.47    4.49   142.67348   124.75311   374.07455
   414  C   4.0   -0.01    4.52    4.56   145.23452   124.91429   375.23444
   415  H   1.0    0.04    1.10    1.44   145.16784   127.52058   370.52495
   416  H   1.0    0.05    1.10    1.44   141.39210   128.36480   374.41857
   417  H   1.0    0.04    1.08    1.44   140.87321   127.15646   371.66143
   418  H   1.0    0.05    1.08    1.44   141.37815   124.22367   375.35511
   419  H   1.0    0.04    1.09    1.44   142.67539   123.47515   372.69380
   420  H   1.0    0.06    1.07    1.44   145.10341   125.16009   377.14036
   421  H   1.0    0.03    1.07    1.44   146.24563   123.34781   374.96435
   422  N   5.0   -0.15    3.56    2.12   144.31088   132.38076   373.90329
   423  C   4.0    0.03    4.55    4.61   144.35917   135.09596   373.99738
   424  C   4.0    0.09    3.35    3.07   146.74521   136.04910   372.84624
   425  O   6.0   -0.30    1.13    1.80   146.70519   137.60471   371.15859
   426  C   4.0   -0.03    4.50    4.53   143.97069   136.20461   376.70203
   427  C   4.0   -0.05    4.39    4.36   141.35297   135.71507   377.57614
   428  C   4.0   -0.09    4.30    4.21   144.61401   138.92822   376.64940
   429  C   4.0   -0.08    4.21    4.01   141.14866   135.55276   380.30588
   430  H   1.0    0.10    1.13    1.45   144.10751   131.65994   375.56394
   431  H   1.0    0.05    1.13    1.45   142.90095   135.69056   372.97610
   432  H   1.0    0.04    1.13    1.45   145.15810   135.31752   377.89374
   433  H   1.0    0.03    1.10    1.44   140.22956   137.07523   376.97817
   434  H   1.0    0.05    1.10    1.44   140.73507   134.06413   376.87729
   435  H   1.0    0.03    1.05    1.44   144.23657   139.67368   378.36233
   436  H   1.0    0.04    1.06    1.44   146.43033   139.17457   376.30068
   437  H   1.0    0.04    1.06    1.44   143.58693   139.79695   375.38381
   438  H   1.0    0.05    1.05    1.44   139.36796   135.22841   380.81887
   439  H   1.0    0.06    1.06    1.44   142.23216   134.18766   380.96462
   440  H   1.0    0.04    1.06    1.44   141.69312   137.19060   381.06492
   441  N   5.0   -0.23    3.23    1.96   130.18296   112.13649   412.11560
   442  C   4.0    0.03    4.29    4.18   128.92164   111.95037   409.71721
   443  C   4.0    0.07    3.24    3.04   126.14889   112.53234   410.07085
   444  O   6.0   -0.31    1.14    1.80   124.97642   113.79586   408.53068
   445  C   4.0   -0.05    4.34    4.28   129.19724   109.37429   408.37070
   446  C   4.0   -0.04    4.25    4.10   131.88827   108.67553   407.59444
   447  C   4.0    0.23    3.14    3.03   133.02522   110.43247   405.63490
   448  O   6.0   -0.30    1.17    1.80   131.71553   111.15255   403.69088
   449  O   6.0   -0.28    1.17    1.80   135.20683   111.24576   406.09130
   450  H   1.0    0.08    1.06    1.44   130.85117   110.58816   412.68317
   451  H   1.0    0.05    1.12    1.45   129.74683   113.21976   408.58570
   452  H   1.0    0.04    1.08    1.44   128.58376   108.04460   409.55150
   453  H   1.0    0.06    1.09    1.44   128.15346   109.37914   406.83801
   454  H   1.0    0.05    1.09    1.44   132.98951   108.74606   409.12302
   455  H   1.0    0.04    1.08    1.44   131.89802   106.94793   406.90844
   456  N   5.0   -0.22    3.21    1.96   125.71955   119.70777   410.59334
   457  C   4.0    0.03    4.25    4.11   125.99604   120.72448   408.07568
   458  C   4.0    0.08    3.18    3.03   123.43405   120.62173   406.57056
   459  O   6.0   -0.30    1.09    1.80   122.81785   122.31780   405.04593
   460  C   4.0   -0.05    4.39    4.37   128.05367   119.42889   406.57474
   461  C   4.0   -0.06    4.28    4.15   128.73643   120.41545   404.05419
   462  C   4.0   -0.06    4.31    4.22   130.19788   118.44225   402.42322
   463  C   4.0   -0.03    4.31    4.21   132.68047   117.70335   403.58579
   464  N   5.0   -0.14    4.21    3.49   133.90394   115.94008   401.97630
   465  H   1.0    0.09    1.07    1.44   126.93149   118.50066   410.95235
   466  H   1.0    0.04    1.12    1.45   126.43891   122.55049   408.21498
   467  H   1.0    0.04    1.09    1.44   129.62043   119.40879   407.62803
   468  H   1.0    0.05    1.09    1.44   127.52404   117.60391   406.33688
   469  H   1.0    0.06    1.08    1.44   127.18119   120.90647   403.11244
   470  H   1.0    0.04    1.08    1.44   129.83448   121.92874   404.22510
   471  H   1.0    0.04    1.09    1.44   129.13016   116.92828   402.23868
   472  H   1.0    0.05    1.08    1.44   130.52712   119.18041   400.72325
   473  H   1.0    0.04    1.08    1.44   133.74841   119.22357   403.83409
   474  H   1.0    0.05    1.09    1.44   132.37634   116.88757   405.24650
   475  H   1.0    0.10    1.09    1.44   135.48065   115.45766   402.62413
   476  H   1.0    0.10    1.10    1.44   132.99265   114.53379   401.68463
   477  H   1.0    0.10    1.12    1.45   134.27311   116.68715   400.39119
   478  N   5.0   -0.23    3.13    1.94   141.90417   119.40424   401.39839
   479  C   4.0    0.00    4.12    3.84   141.52188   117.19407   399.82632
   480  C   4.0    0.23    3.07    3.02   140.17461   114.89393   401.23000
   481  O   6.0   -0.27    1.16    1.80   139.73714   114.84871   403.62444
   482  O   6.0   -0.28    1.16    1.80   139.41818   112.97798   400.02843
   483  H   1.0    0.10    1.07    1.44   141.21070   120.79681   400.78941
   484  H   1.0    0.05    1.08    1.44   140.48523   117.61508   398.37813
   485  H   1.0    0.05    1.08    1.44   143.18379   116.55419   399.27751
   486  H   1.0    0.05    1.04    1.43   132.83627   100.53929   393.68033
   487  H   1.0    0.09    1.07    1.44   132.12533    99.48140   398.85598
   488  H   1.0    0.06    1.04    1.43   122.32918    98.82131   399.60403
   489  H   1.0    0.09    1.08    1.44   121.24532   101.37205   404.53488
   490  H   1.0    0.06    1.05    1.44   113.36208   100.28300   399.92904
   491  H   1.0    0.09    1.08    1.44   118.50517   104.05927   380.02235
   492  H   1.0    0.04    1.04    1.43   124.56468   102.95651   378.12092
   493  H   1.0    0.08    1.08    1.44   121.33601   107.42436   371.38742
   494  H   1.0    0.05    1.05    1.44   130.09440   109.38150   370.31373
   495  H   1.0    0.09    1.07    1.44   125.76078   119.91803   368.50504
   496  H   1.0    0.06    1.05    1.44   116.71971   124.92685   393.47729
   497  H   1.0    0.09    1.08    1.44   114.81571   130.63354   383.15446
   498  H   1.0    0.05    1.05    1.44   110.27396   126.10395   382.09094
   499  H   1.0    0.09    1.08    1.44   111.69277   122.83543   372.93166
   500  H   1.0    0.05    1.05    1.44   106.29179   119.29677   373.46149
   501  H   1.0    0.09    1.07    1.44   128.94403   134.78679   368.50504
   502  H   1.0    0.05    1.05    1.44   129.52176   135.07328   375.39484
   503  H   1.0    0.09    1.08    1.44   137.52499   129.76382   394.85270
   504  H   1.0    0.04    1.05    1.44   141.81072   125.27376   391.59146
   505  H   1.0    0.09    1.09    1.44   144.03554   121.51603   387.70728
   506  H   1.0    0.05    1.05    1.44   144.43085   128.60086   382.09094
   507  H   1.0    0.08    1.24    1.48   147.42457   126.03570   373.18504
   508  H   1.0    0.05    1.05    1.44   148.41302   135.40804   373.46149
   509  H   1.0    0.09    1.08    1.44   131.47448   113.23637   411.99399
   510  H   1.0    0.05    1.05    1.44   125.23283   111.88041   411.58969
   511  H   1.0    0.09    1.08    1.44   125.86918   120.96235   411.73185
   512  H   1.0    0.06    1.04    1.43   122.24831   119.17186   406.82143
   513  H   1.0    0.11    1.09    1.44   141.22363   119.13370   402.93339

  Z AO/shell   Hii/eV     exponent
  1     Wed Apr 25 08:07:45 CEST 2018   EN: 2.200 GM2: 0.406  GM3: 0.0800  RAES: 1.40
     1s    -10.707211    1.230000
  6     Wed Apr 25 08:07:45 CEST 2018   EN: 2.550 GM2: 0.538  GM3: 0.1500  RAES: 3.00
     2s    -13.970922    2.096432
     2p    -10.063292    1.800000
  7     Wed Apr 25 08:07:45 CEST 2018   EN: 3.040 GM2: 0.461  GM3:-0.0640  RAES: 1.90
     2s    -16.686243    2.339881
     2p    -12.523956    2.014332
  8     Wed Apr 25 08:07:45 CEST 2018   EN: 3.440 GM2: 0.452  GM3:-0.0517  RAES: 1.80
     2s    -20.229985    2.439742
     2p    -15.503117    2.137023
 16     Tue Apr 24 11:44:34 CEST 2018   EN: 2.580 GM2: 0.340  GM3:-0.0502  RAES: 3.10
     3s    -20.029654    1.981333
     3p    -11.377694    2.025643
     3d     -0.420282    1.702555
 no old-style atom pair restraining (fixing) potential

molecular fragmentation (1/2 indicates fragments):
111111111111111111111111111111111111111111111111222222222222222222222222
222222222222222222222222222222222222222222222222222222222222222222222222
222222222222222222222222222222222222222222222222222222222222222222222222
222222222222222222222222222222222222222222222222222222222222222222222222
222222222222222222222222222222222222222222222222222222222222222222222222
222222222222222222222222222222222222222222222222222222222222222222222222
222222222222222222222222222222222222222222222222222221222222222222222222
222222222
# atoms in fragment 1/2:    49   464
 fragment masses (1/2) :      365.39     2999.75
CMA distance (Bohr)    :  14.987
constraining FC (au)   :  0.0500
           ------------------------------------------------- 
          |        Self-Consistent Charge Iterations        |
           ------------------------------------------------- 

 Ncao       : 1221
 Nao        : 1220
 Nshell     : 748
 Nel        : 1346
 T(el)      :   500.0
 intcut     :    35.0
 scfconv/Eh :  0.100E-06
   qconv/e  :  0.100E-04
 intneglect :  0.100E-08
 broydamp   :      0.400
 iter      E             dE          RMSdq      gap      omega  full diag
   1   -771.2767406 -0.771277E+03  0.467E+00    3.03       0.0  T
   2   -773.2000001 -0.192326E+01  0.220E+00    1.44       1.0  T
   3   -773.3162508 -0.116251E+00  0.130E+00    1.72       1.0  T
   4   -773.4613256 -0.145075E+00  0.265E-01    0.95       1.0  T
   5   -773.4708296 -0.950407E-02  0.127E-01    1.22       1.0  T
   6   -773.4722683 -0.143860E-02  0.559E-02    1.17       1.0  T
   7   -773.4726353 -0.367002E-03  0.234E-02    1.20       1.0  T
   8   -773.4726778 -0.425046E-04  0.113E-02    1.18       1.0  T
   9   -773.4726934 -0.156089E-04  0.530E-03    1.18       1.0  T
  10   -773.4726963 -0.289089E-05  0.247E-03    1.18       1.8  T
  11   -773.4726969 -0.597707E-06  0.108E-03    1.18       4.1  T
  12   -773.4726970 -0.960586E-07  0.533E-04    1.18       8.3  T
  13   -773.4726970 -0.284875E-07  0.241E-04    1.18      18.3  T
  14   -773.4726970 -0.389002E-08  0.109E-04    1.18      40.4  T
  15   -773.4726970 -0.104569E-08  0.421E-05    1.18     105.0  T
  16   -773.4726970 -0.133696E-09  0.181E-05    1.18     243.9  T
speedup  1.80
cpu  time for SCC   36.58 s
wall time for SCC   20.33 s

   *** convergence criteria satisfied after 16 iterations ***

          eigenvalues
 #    :         661        662        663        664        665        666        667        668
 occ. :        2.000      2.000      2.000      2.000      2.000      2.000      2.000      2.000
 eps  :       -10.168    -10.136    -10.117     -9.977     -9.965     -9.959     -9.951     -9.900
 #    :         669        670        671        672        673        674        675        676
 occ. :        2.000      2.000      2.000      2.000      2.000      0.000      0.000      0.000
 eps  :        -9.771     -9.763     -9.736     -9.670     -9.541     -8.360     -8.079     -7.971
 #    :         677        678        679        680        681        682        683        684
 occ. :        0.000      0.000      0.000      0.000      0.000      0.000      0.000      0.000
 eps  :        -7.946     -7.848     -7.840     -7.807     -7.797     -7.779     -7.743     -7.688


   #   Z            q   n(s)   n(p)   n(d)      C6AA      α(0)
   1   7 N     -0.135  1.160  3.975  0.000    23.905     7.262
   2   6 C     -0.033  1.059  2.974  0.000    21.185     6.557
   3   6 C      0.256  1.044  2.700  0.000    22.693     7.801
   4   8 O     -0.473  1.790  4.683  0.000    23.200     6.458
   5   6 C      0.029  1.022  2.949  0.000    20.315     6.459
   6   8 O     -0.489  1.715  4.774  0.000    22.667     6.427
   7   1 H      0.320  0.680  0.000  0.000     0.656     1.269
   8   1 H      0.301  0.699  0.000  0.000     0.709     1.319
   9   1 H      0.299  0.701  0.000  0.000     0.715     1.325
  10   1 H      0.146  0.854  0.000  0.000     1.415     1.860
  11   1 H      0.100  0.900  0.000  0.000     1.788     2.091
  12   1 H      0.123  0.877  0.000  0.000     1.590     1.972
  13   1 H      0.352  0.648  0.000  0.000     0.584     1.200
  14   7 N     -0.181  1.220  3.960  0.000    24.915     7.413
  15   6 C      0.022  1.032  2.946  0.000    20.205     6.399
  16   6 C      0.267  1.044  2.689  0.000    22.494     7.766
  17   8 O     -0.487  1.756  4.730  0.000    23.492     6.498
  18   6 C     -0.078  1.009  3.069  0.000    21.971     6.670
  19   6 C     -0.117  1.027  3.090  0.000    22.741     6.791
  20   6 C      0.346  1.051  2.603  0.000    21.119     7.520
  21   8 O     -0.631  1.778  4.853  0.000    26.901     6.954
  22   8 O     -0.640  1.771  4.869  0.000    27.123     6.982
  23   1 H      0.236  0.764  0.000  0.000     0.941     1.519
  24   1 H      0.083  0.917  0.000  0.000     1.947     2.182
  25   1 H      0.064  0.936  0.000  0.000     2.153     2.294
  26   1 H      0.068  0.932  0.000  0.000     2.110     2.272
  27   1 H      0.054  0.946  0.000  0.000     2.265     2.353
  28   1 H      0.033  0.967  0.000  0.000     2.539     2.492
  29   7 N     -0.176  1.218  3.959  0.000    24.814     7.398
  30   6 C      0.012  1.042  2.946  0.000    20.392     6.431
  31   6 C      0.195  1.094  2.711  0.000    23.836     7.995
  32   8 O     -0.355  1.766  4.589  0.000    20.812     6.116
  33   6 C     -0.106  1.027  3.080  0.000    22.510     6.752
  34   6 C     -0.005  1.079  2.926  0.000    28.146     8.702
  35   6 C     -0.051  1.060  2.991  0.000    29.261     8.872
  36   6 C     -0.056  1.057  2.998  0.000    29.380     8.890
  37   6 C     -0.043  1.057  2.986  0.000    29.072     8.842
  38   6 C     -0.047  1.059  2.988  0.000    29.171     8.858
  39   6 C     -0.048  1.064  2.984  0.000    29.198     8.862
  40   1 H      0.225  0.775  0.000  0.000     0.988     1.557
  41   1 H      0.098  0.902  0.000  0.000     1.801     2.098
  42   1 H      0.092  0.908  0.000  0.000     1.855     2.130
  43   1 H      0.095  0.905  0.000  0.000     1.829     2.114
  44   1 H      0.058  0.942  0.000  0.000     2.223     2.331
  45   1 H      0.057  0.943  0.000  0.000     2.233     2.336
  46   1 H      0.066  0.934  0.000  0.000     2.131     2.282
  47   1 H      0.054  0.946  0.000  0.000     2.265     2.353
  48   1 H      0.058  0.942  0.000  0.000     2.218     2.329
  49   7 N     -0.415  1.292  4.123  0.000    30.796     8.242
  50   6 C      0.033  1.035  2.932  0.000    20.027     6.373
  51   6 C      0.268  1.048  2.684  0.000    22.471     7.763
  52   8 O     -0.531  1.757  4.774  0.000    24.485     6.634
  53   6 C     -0.128  0.984  3.144  0.000    22.984     6.831
  54   1 H      0.178  0.822  0.000  0.000     1.224     1.733
  55   1 H      0.056  0.944  0.000  0.000     2.245     2.343
  56   1 H      0.034  0.966  0.000  0.000     2.524     2.484
  57   1 H      0.058  0.942  0.000  0.000     2.227     2.333
  58   1 H      0.053  0.947  0.000  0.000     2.283     2.362
  59   7 N     -0.179  1.219  3.959  0.000    24.867     7.406
  60   6 C      0.016  1.040  2.945  0.000    20.300     6.412
  61   6 C      0.269  1.047  2.685  0.000    22.462     7.761
  62   8 O     -0.502  1.756  4.746  0.000    23.834     6.546
  63   6 C     -0.018  1.026  2.991  0.000    20.847     6.493
  64   6 C     -0.142  0.979  3.162  0.000    23.231     6.863
  65   6 C     -0.141  0.985  3.156  0.000    23.244     6.868
  66   1 H      0.221  0.779  0.000  0.000     1.006     1.571
  67   1 H      0.083  0.917  0.000  0.000     1.951     2.184
  68   1 H      0.057  0.943  0.000  0.000     2.230     2.335
  69   1 H      0.063  0.937  0.000  0.000     2.160     2.298
  70   1 H      0.065  0.935  0.000  0.000     2.142     2.288
  71   1 H      0.060  0.940  0.000  0.000     2.200     2.319
  72   1 H      0.047  0.953  0.000  0.000     2.359     2.402
  73   1 H      0.052  0.948  0.000  0.000     2.291     2.367
  74   1 H      0.042  0.958  0.000  0.000     2.425     2.435
  75   7 N     -0.174  1.217  3.957  0.000    24.764     7.391
  76   6 C      0.015  1.047  2.938  0.000    20.318     6.416
  77   6 C      0.207  1.086  2.707  0.000    23.609     7.957
  78   8 O     -0.366  1.763  4.603  0.000    21.023     6.147
  79   6 C     -0.029  1.038  2.991  0.000    21.042     6.523
  80   6 C     -0.092  1.007  3.084  0.000    22.228     6.710
  81   6 C     -0.145  0.986  3.159  0.000    23.322     6.880
  82   6 C     -0.145  0.986  3.159  0.000    23.332     6.884
  83   1 H      0.225  0.775  0.000  0.000     0.987     1.556
  84   1 H      0.104  0.896  0.000  0.000     1.747     2.067
  85   1 H      0.060  0.940  0.000  0.000     2.201     2.320
  86   1 H      0.059  0.941  0.000  0.000     2.210     2.325
  87   1 H      0.068  0.932  0.000  0.000     2.106     2.269
  88   1 H      0.074  0.926  0.000  0.000     2.044     2.236
  89   1 H      0.044  0.956  0.000  0.000     2.392     2.418
  90   1 H      0.067  0.933  0.000  0.000     2.115     2.274
  91   1 H      0.069  0.931  0.000  0.000     2.099     2.265
  92   1 H      0.048  0.952  0.000  0.000     2.340     2.392
  93   1 H      0.057  0.943  0.000  0.000     2.235     2.338
  94   7 N     -0.409  1.282  4.126  0.000    30.610     8.217
  95   6 C      0.039  1.025  2.936  0.000    19.899     6.349
  96   6 C      0.263  1.061  2.676  0.000    22.569     7.780
  97   8 O     -0.528  1.767  4.762  0.000    24.421     6.626
  98   6 C     -0.016  1.026  2.991  0.000    20.823     6.488
  99   6 C     -0.140  0.988  3.152  0.000    23.232     6.867
 100   6 C     -0.133  0.983  3.150  0.000    23.077     6.843
 101   1 H      0.178  0.822  0.000  0.000     1.227     1.735
 102   1 H      0.045  0.955  0.000  0.000     2.386     2.416
 103   1 H      0.048  0.952  0.000  0.000     2.343     2.394
 104   1 H      0.051  0.949  0.000  0.000     2.301     2.372
 105   1 H      0.046  0.954  0.000  0.000     2.365     2.405
 106   1 H      0.046  0.954  0.000  0.000     2.366     2.405
 107   1 H      0.048  0.952  0.000  0.000     2.346     2.395
 108   1 H      0.036  0.964  0.000  0.000     2.503     2.474
 109   1 H      0.059  0.941  0.000  0.000     2.204     2.322
 110   7 N     -0.184  1.223  3.961  0.000    24.977     7.423
 111   6 C      0.026  1.037  2.937  0.000    20.125     6.386
 112   6 C      0.206  1.090  2.705  0.000    23.631     7.961
 113   8 O     -0.385  1.764  4.621  0.000    21.383     6.200
 114   6 C     -0.032  1.042  2.990  0.000    21.104     6.532
 115   6 C     -0.088  1.006  3.082  0.000    22.149     6.697
 116   6 C     -0.151  0.990  3.161  0.000    23.455     6.903
 117   6 C     -0.146  0.985  3.161  0.000    23.341     6.883
 118   1 H      0.230  0.770  0.000  0.000     0.966     1.539
 119   1 H      0.084  0.916  0.000  0.000     1.936     2.176
 120   1 H      0.073  0.927  0.000  0.000     2.056     2.242
 121   1 H      0.057  0.943  0.000  0.000     2.228     2.334
 122   1 H      0.054  0.946  0.000  0.000     2.267     2.354
 123   1 H      0.085  0.915  0.000  0.000     1.924     2.169
 124   1 H      0.053  0.947  0.000  0.000     2.287     2.365
 125   1 H      0.054  0.946  0.000  0.000     2.269     2.355
 126   1 H      0.045  0.955  0.000  0.000     2.385     2.415
 127   1 H      0.054  0.946  0.000  0.000     2.268     2.355
 128   1 H      0.073  0.927  0.000  0.000     2.057     2.243
 129   7 N     -0.414  1.288  4.126  0.000    30.758     8.237
 130   6 C      0.034  1.026  2.940  0.000    20.002     6.368
 131   6 C      0.187  1.099  2.714  0.000    23.994     8.022
 132   8 O     -0.390  1.763  4.627  0.000    21.473     6.213
 133   6 C     -0.086  1.013  3.073  0.000    22.104     6.687
 134   6 C     -0.026  1.029  2.997  0.000    20.996     6.516
 135   6 C     -0.155  0.994  3.161  0.000    23.530     6.912
 136   6 C     -0.146  0.985  3.161  0.000    23.332     6.881
 137   1 H      0.189  0.811  0.000  0.000     1.166     1.691
 138   1 H      0.063  0.937  0.000  0.000     2.166     2.302
 139   1 H      0.073  0.927  0.000  0.000     2.049     2.238
 140   1 H      0.058  0.942  0.000  0.000     2.218     2.329
 141   1 H      0.054  0.946  0.000  0.000     2.275     2.358
 142   1 H      0.047  0.953  0.000  0.000     2.352     2.398
 143   1 H      0.060  0.940  0.000  0.000     2.192     2.315
 144   1 H      0.055  0.945  0.000  0.000     2.261     2.351
 145   1 H      0.047  0.953  0.000  0.000     2.354     2.399
 146   1 H      0.044  0.956  0.000  0.000     2.393     2.419
 147   1 H      0.053  0.947  0.000  0.000     2.282     2.362
 148   7 N     -0.414  1.290  4.125  0.000    30.773     8.239
 149   6 C      0.037  1.023  2.940  0.000    19.953     6.360
 150   6 C      0.262  1.053  2.685  0.000    22.581     7.782
 151   8 O     -0.525  1.765  4.759  0.000    24.334     6.614
 152   6 C     -0.083  1.015  3.068  0.000    22.059     6.682
 153   6 C     -0.023  1.027  2.996  0.000    20.943     6.508
 154   6 C     -0.146  0.993  3.153  0.000    23.324     6.879
 155   6 C     -0.136  0.983  3.154  0.000    23.131     6.849
 156   1 H      0.175  0.825  0.000  0.000     1.243     1.746
 157   1 H      0.056  0.944  0.000  0.000     2.240     2.340
 158   1 H      0.052  0.948  0.000  0.000     2.300     2.371
 159   1 H      0.034  0.966  0.000  0.000     2.535     2.490
 160   1 H      0.051  0.949  0.000  0.000     2.303     2.373
 161   1 H      0.065  0.935  0.000  0.000     2.140     2.287
 162   1 H      0.042  0.958  0.000  0.000     2.418     2.431
 163   1 H      0.050  0.950  0.000  0.000     2.319     2.381
 164   1 H      0.062  0.938  0.000  0.000     2.180     2.309
 165   1 H      0.044  0.956  0.000  0.000     2.391     2.418
 166   1 H      0.035  0.965  0.000  0.000     2.522     2.483
 167   7 N     -0.187  1.231  3.956  0.000    25.051     7.434
 168   6 C      0.024  1.030  2.946  0.000    20.179     6.396
 169   6 C      0.201  1.082  2.717  0.000    23.721     7.977
 170   8 O     -0.382  1.780  4.602  0.000    21.331     6.192
 171   6 C     -0.107  1.028  3.079  0.000    22.548     6.761
 172   6 C     -0.135  1.035  3.100  0.000    23.086     6.841
 173   6 C      0.295  1.022  2.683  0.000    21.990     7.678
 174   8 O     -0.518  1.742  4.775  0.000    24.173     6.592
 175   7 N     -0.283  1.211  4.072  0.000    27.295     7.759
 176   1 H      0.242  0.758  0.000  0.000     0.916     1.499
 177   1 H      0.092  0.908  0.000  0.000     1.855     2.130
 178   1 H      0.105  0.895  0.000  0.000     1.741     2.063
 179   1 H      0.082  0.918  0.000  0.000     1.953     2.185
 180   1 H      0.098  0.902  0.000  0.000     1.805     2.101
 181   1 H      0.112  0.888  0.000  0.000     1.681     2.027
 182   1 H      0.229  0.771  0.000  0.000     0.969     1.542
 183   1 H      0.203  0.797  0.000  0.000     1.089     1.635
 184   7 N     -0.427  1.311  4.116  0.000    31.143     8.288
 185   6 C      0.034  1.030  2.936  0.000    20.000     6.367
 186   6 C      0.266  1.058  2.676  0.000    22.519     7.771
 187   8 O     -0.539  1.777  4.762  0.000    24.663     6.658
 188   6 C     -0.088  1.012  3.076  0.000    22.132     6.690
 189   6 C     -0.018  1.022  2.996  0.000    20.856     6.494
 190   6 C     -0.145  0.992  3.153  0.000    23.317     6.879
 191   6 C     -0.134  0.982  3.152  0.000    23.074     6.839
 192   1 H      0.188  0.812  0.000  0.000     1.171     1.695
 193   1 H      0.061  0.939  0.000  0.000     2.184     2.311
 194   1 H      0.069  0.931  0.000  0.000     2.092     2.262
 195   1 H      0.043  0.957  0.000  0.000     2.407     2.426
 196   1 H      0.038  0.962  0.000  0.000     2.468     2.457
 197   1 H      0.053  0.947  0.000  0.000     2.283     2.362
 198   1 H      0.041  0.959  0.000  0.000     2.429     2.437
 199   1 H      0.055  0.945  0.000  0.000     2.259     2.350
 200   1 H      0.050  0.950  0.000  0.000     2.313     2.378
 201   1 H      0.057  0.943  0.000  0.000     2.239     2.340
 202   1 H      0.041  0.959  0.000  0.000     2.435     2.440
 203   7 N     -0.184  1.218  3.966  0.000    24.982     7.423
 204   6 C      0.035  1.027  2.938  0.000    19.987     6.366
 205   6 C      0.258  1.063  2.680  0.000    22.666     7.797
 206   8 O     -0.485  1.762  4.722  0.000    23.456     6.493
 207   6 C     -0.080  1.008  3.072  0.000    21.980     6.668
 208   6 C     -0.019  1.023  2.995  0.000    20.867     6.496
 209   6 C     -0.148  0.993  3.155  0.000    23.386     6.890
 210   6 C     -0.128  0.977  3.151  0.000    22.971     6.827
 211   1 H      0.222  0.778  0.000  0.000     1.002     1.568
 212   1 H      0.057  0.943  0.000  0.000     2.232     2.336
 213   1 H      0.073  0.927  0.000  0.000     2.049     2.239
 214   1 H      0.051  0.949  0.000  0.000     2.303     2.373
 215   1 H      0.053  0.947  0.000  0.000     2.281     2.362
 216   1 H      0.070  0.930  0.000  0.000     2.090     2.260
 217   1 H      0.069  0.931  0.000  0.000     2.096     2.264
 218   1 H      0.044  0.956  0.000  0.000     2.395     2.420
 219   1 H      0.059  0.941  0.000  0.000     2.209     2.324
 220   1 H      0.021  0.979  0.000  0.000     2.723     2.580
 221   1 H      0.037  0.963  0.000  0.000     2.490     2.468
 222   7 N     -0.198  1.220  3.978  0.000    25.295     7.470
 223   6 C      0.028  1.037  2.935  0.000    20.085     6.378
 224   6 C      0.266  1.054  2.680  0.000    22.514     7.769
 225   8 O     -0.488  1.745  4.743  0.000    23.519     6.502
 226   6 C     -0.063  0.998  3.065  0.000    21.651     6.615
 227   6 C     -0.013  1.012  3.000  0.000    20.788     6.489
 228  16 S     -0.231  1.917  4.271  0.043   150.932    20.677
 229   6 C     -0.087  1.010  3.077  0.000    22.222     6.722
 230   1 H      0.203  0.797  0.000  0.000     1.092     1.637
 231   1 H      0.099  0.901  0.000  0.000     1.790     2.092
 232   1 H      0.061  0.939  0.000  0.000     2.183     2.310
 233   1 H      0.053  0.947  0.000  0.000     2.287     2.365
 234   1 H      0.060  0.940  0.000  0.000     2.196     2.317
 235   1 H      0.054  0.946  0.000  0.000     2.273     2.357
 236   1 H      0.088  0.912  0.000  0.000     1.901     2.156
 237   1 H      0.080  0.920  0.000  0.000     1.983     2.202
 238   1 H      0.066  0.934  0.000  0.000     2.125     2.279
 239   7 N     -0.159  1.210  3.950  0.000    24.446     7.343
 240   6 C      0.027  1.030  2.943  0.000    20.124     6.387
 241   6 C      0.268  1.028  2.704  0.000    22.476     7.766
 242   8 O     -0.544  1.747  4.797  0.000    24.767     6.673
 243   6 C      0.077  1.000  2.923  0.000    19.475     6.316
 244   8 O     -0.473  1.714  4.759  0.000    22.323     6.378
 245   1 H      0.207  0.793  0.000  0.000     1.070     1.620
 246   1 H      0.083  0.917  0.000  0.000     1.949     2.183
 247   1 H      0.031  0.969  0.000  0.000     2.566     2.505
 248   1 H      0.055  0.945  0.000  0.000     2.259     2.350
 249   1 H      0.317  0.683  0.000  0.000     0.670     1.286
 250   7 N     -0.070  1.232  3.838  0.000    22.591     7.059
 251   6 C      0.013  1.055  2.933  0.000    20.343     6.417
 252   6 C      0.274  1.046  2.681  0.000    22.372     7.745
 253   8 O     -0.456  1.728  4.728  0.000    22.824     6.405
 254   6 C     -0.088  1.014  3.074  0.000    22.159     6.699
 255   6 C     -0.094  1.016  3.078  0.000    22.266     6.714
 256   6 C     -0.035  1.021  3.014  0.000    21.252     6.573
 257   1 H      0.111  0.889  0.000  0.000     1.686     2.030
 258   1 H      0.070  0.930  0.000  0.000     2.080     2.255
 259   1 H      0.109  0.891  0.000  0.000     1.707     2.043
 260   1 H      0.078  0.922  0.000  0.000     2.002     2.213
 261   1 H      0.105  0.895  0.000  0.000     1.743     2.065
 262   1 H      0.069  0.931  0.000  0.000     2.100     2.266
 263   1 H      0.095  0.905  0.000  0.000     1.834     2.118
 264   7 N     -0.199  1.214  3.985  0.000    25.333     7.475
 265   6 C      0.021  1.035  2.944  0.000    20.237     6.406
 266   6 C      0.274  1.047  2.678  0.000    22.363     7.744
 267   8 O     -0.495  1.737  4.759  0.000    23.679     6.524
 268   6 C      0.067  1.006  2.928  0.000    19.643     6.343
 269   8 O     -0.509  1.714  4.795  0.000    23.078     6.485
 270   1 H      0.185  0.815  0.000  0.000     1.186     1.706
 271   1 H      0.104  0.896  0.000  0.000     1.751     2.069
 272   1 H      0.073  0.927  0.000  0.000     2.056     2.242
 273   1 H      0.068  0.932  0.000  0.000     2.102     2.267
 274   1 H      0.327  0.673  0.000  0.000     0.645     1.261
 275   7 N     -0.169  1.216  3.953  0.000    24.661     7.375
 276   6 C      0.050  1.027  2.922  0.000    19.724     6.322
 277   6 C      0.253  1.058  2.688  0.000    22.743     7.809
 278   8 O     -0.535  1.778  4.757  0.000    24.583     6.648
 279   6 C     -0.095  1.022  3.073  0.000    22.285     6.718
 280   6 C      0.366  1.021  2.613  0.000    20.792     7.462
 281   8 O     -0.620  1.756  4.864  0.000    26.618     6.917
 282   8 O     -0.666  1.782  4.884  0.000    27.807     7.070
 283   1 H      0.201  0.799  0.000  0.000     1.100     1.643
 284   1 H      0.081  0.919  0.000  0.000     1.968     2.194
 285   1 H      0.038  0.962  0.000  0.000     2.480     2.462
 286   1 H      0.053  0.947  0.000  0.000     2.277     2.359
 287   7 N     -0.174  1.217  3.957  0.000    24.765     7.391
 288   6 C      0.013  1.039  2.948  0.000    20.353     6.422
 289   6 C      0.289  1.018  2.693  0.000    22.098     7.699
 290   8 O     -0.491  1.721  4.769  0.000    23.567     6.509
 291   6 C     -0.092  1.017  3.075  0.000    22.191     6.695
 292   6 C     -0.003  0.974  3.029  0.000    20.579     6.450
 293   6 C     -0.139  0.990  3.149  0.000    23.083     6.824
 294   6 C     -0.127  0.981  3.146  0.000    22.833     6.787
 295   1 H      0.207  0.793  0.000  0.000     1.072     1.622
 296   1 H      0.092  0.908  0.000  0.000     1.863     2.134
 297   1 H      0.070  0.930  0.000  0.000     2.081     2.256
 298   1 H      0.062  0.938  0.000  0.000     2.180     2.309
 299   1 H      0.054  0.946  0.000  0.000     2.274     2.358
 300   1 H      0.069  0.931  0.000  0.000     2.095     2.263
 301   1 H      0.029  0.971  0.000  0.000     2.605     2.524
 302   1 H      0.065  0.935  0.000  0.000     2.140     2.287
 303   1 H      0.063  0.937  0.000  0.000     2.166     2.301
 304   1 H      0.056  0.944  0.000  0.000     2.247     2.344
 305   1 H      0.016  0.984  0.000  0.000     2.796     2.615
 306   7 N     -0.175  1.210  3.965  0.000    24.789     7.395
 307   6 C      0.020  1.037  2.943  0.000    20.234     6.403
 308   6 C      0.210  1.073  2.717  0.000    23.554     7.949
 309   8 O     -0.347  1.737  4.610  0.000    20.654     6.093
 310   6 C     -0.095  1.021  3.074  0.000    22.293     6.719
 311   6 C     -0.002  1.070  2.931  0.000    28.064     8.689
 312   6 C     -0.056  1.068  2.988  0.000    29.394     8.892
 313   6 C     -0.046  1.058  2.988  0.000    29.147     8.855
 314   6 C     -0.078  1.056  3.022  0.000    29.957     8.976
 315   6 C     -0.095  1.052  3.044  0.000    30.392     9.041
 316   6 C      0.145  1.037  2.819  0.000    24.853     8.171
 317   8 O     -0.411  1.671  4.740  0.000    21.066     6.196
 318   1 H      0.199  0.801  0.000  0.000     1.113     1.653
 319   1 H      0.117  0.883  0.000  0.000     1.636     2.000
 320   1 H      0.069  0.931  0.000  0.000     2.095     2.263
 321   1 H      0.097  0.903  0.000  0.000     1.814     2.106
 322   1 H      0.070  0.930  0.000  0.000     2.089     2.260
 323   1 H      0.043  0.957  0.000  0.000     2.410     2.427
 324   1 H      0.080  0.920  0.000  0.000     1.976     2.198
 325   1 H      0.044  0.956  0.000  0.000     2.389     2.417
 326   1 H      0.324  0.676  0.000  0.000     0.653     1.268
 327   7 N     -0.404  1.288  4.116  0.000    30.490     8.201
 328   6 C      0.016  1.034  2.951  0.000    20.322     6.420
 329   6 C      0.203  1.078  2.718  0.000    23.675     7.969
 330   8 O     -0.360  1.730  4.630  0.000    20.905     6.130
 331   6 C      0.086  0.992  2.922  0.000    19.308     6.285
 332   8 O     -0.468  1.679  4.788  0.000    22.205     6.361
 333   1 H      0.173  0.827  0.000  0.000     1.251     1.752
 334   1 H      0.082  0.918  0.000  0.000     1.960     2.189
 335   1 H      0.056  0.944  0.000  0.000     2.245     2.343
 336   1 H      0.030  0.970  0.000  0.000     2.583     2.513
 337   1 H      0.325  0.675  0.000  0.000     0.650     1.266
 338   7 N     -0.404  1.310  4.094  0.000    30.472     8.198
 339   6 C      0.023  1.036  2.941  0.000    20.189     6.398
 340   6 C      0.208  1.081  2.710  0.000    23.580     7.953
 341   8 O     -0.386  1.750  4.636  0.000    21.404     6.203
 342   6 C     -0.029  1.043  2.986  0.000    21.044     6.523
 343   6 C     -0.071  0.998  3.073  0.000    21.837     6.649
 344   6 C     -0.142  0.984  3.157  0.000    23.250     6.869
 345   6 C     -0.128  0.978  3.149  0.000    22.974     6.829
 346   1 H      0.180  0.820  0.000  0.000     1.212     1.724
 347   1 H      0.060  0.940  0.000  0.000     2.198     2.318
 348   1 H      0.054  0.946  0.000  0.000     2.270     2.356
 349   1 H      0.052  0.948  0.000  0.000     2.290     2.366
 350   1 H      0.042  0.958  0.000  0.000     2.427     2.436
 351   1 H      0.062  0.938  0.000  0.000     2.169     2.303
 352   1 H      0.046  0.954  0.000  0.000     2.366     2.405
 353   1 H      0.060  0.940  0.000  0.000     2.195     2.317
 354   1 H      0.032  0.968  0.000  0.000     2.559     2.502
 355   1 H      0.044  0.956  0.000  0.000     2.396     2.421
 356   1 H      0.052  0.948  0.000  0.000     2.296     2.369
 357   8 O     -0.613  1.713  4.900  0.000    25.496     6.815
 358   1 H      0.298  0.702  0.000  0.000     0.726     1.338
 359   1 H      0.318  0.682  0.000  0.000     0.670     1.285
 360   7 N     -0.419  1.306  4.113  0.000    30.899     8.256
 361   6 C      0.034  1.029  2.937  0.000    20.000     6.367
 362   6 C      0.193  1.094  2.713  0.000    23.873     8.003
 363   8 O     -0.407  1.788  4.618  0.000    21.820     6.263
 364   6 C     -0.092  1.015  3.077  0.000    22.212     6.702
 365   6 C     -0.020  1.023  2.997  0.000    20.888     6.499
 366   6 C     -0.147  0.992  3.155  0.000    23.354     6.884
 367   6 C     -0.137  0.982  3.155  0.000    23.135     6.848
 368   1 H      0.190  0.810  0.000  0.000     1.157     1.685
 369   1 H      0.068  0.932  0.000  0.000     2.110     2.271
 370   1 H      0.079  0.921  0.000  0.000     1.992     2.207
 371   1 H      0.055  0.945  0.000  0.000     2.259     2.350
 372   1 H      0.040  0.960  0.000  0.000     2.442     2.444
 373   1 H      0.049  0.951  0.000  0.000     2.332     2.388
 374   1 H      0.047  0.953  0.000  0.000     2.354     2.399
 375   1 H      0.059  0.941  0.000  0.000     2.211     2.325
 376   1 H      0.048  0.952  0.000  0.000     2.347     2.395
 377   1 H      0.058  0.942  0.000  0.000     2.223     2.331
 378   1 H      0.044  0.956  0.000  0.000     2.398     2.421
 379   7 N     -0.388  1.285  4.103  0.000    30.044     8.141
 380   6 C      0.031  1.024  2.945  0.000    20.057     6.377
 381   6 C      0.191  1.080  2.730  0.000    23.920     8.010
 382   8 O     -0.329  1.729  4.599  0.000    20.305     6.042
 383   6 C      0.080  0.996  2.925  0.000    19.426     6.306
 384   8 O     -0.477  1.678  4.799  0.000    22.407     6.390
 385   1 H      0.181  0.819  0.000  0.000     1.207     1.721
 386   1 H      0.064  0.936  0.000  0.000     2.146     2.291
 387   1 H      0.049  0.951  0.000  0.000     2.334     2.389
 388   1 H      0.032  0.968  0.000  0.000     2.563     2.504
 389   1 H      0.302  0.698  0.000  0.000     0.713     1.326
 390   7 N     -0.400  1.274  4.126  0.000    30.365     8.184
 391   6 C     -0.020  1.006  3.014  0.000    20.998     6.537
 392   6 C      0.251  1.059  2.689  0.000    22.779     7.815
 393   8 O     -0.523  1.770  4.754  0.000    24.310     6.610
 394   1 H      0.159  0.841  0.000  0.000     1.343     1.816
 395   1 H      0.068  0.932  0.000  0.000     2.112     2.273
 396   1 H      0.061  0.939  0.000  0.000     2.186     2.312
 397   7 N     -0.161  1.205  3.957  0.000    24.486     7.349
 398   6 C      0.005  1.036  2.959  0.000    20.489     6.443
 399   6 C      0.205  1.073  2.722  0.000    23.652     7.965
 400   8 O     -0.330  1.721  4.609  0.000    20.327     6.045
 401   6 C      0.075  0.996  2.929  0.000    19.479     6.312
 402   8 O     -0.448  1.665  4.783  0.000    21.792     6.302
 403   1 H      0.213  0.787  0.000  0.000     1.042     1.599
 404   1 H      0.107  0.893  0.000  0.000     1.718     2.050
 405   1 H      0.091  0.909  0.000  0.000     1.868     2.137
 406   1 H      0.039  0.961  0.000  0.000     2.458     2.451
 407   1 H      0.326  0.674  0.000  0.000     0.646     1.262
 408   7 N     -0.342  1.357  3.985  0.000    28.795     7.970
 409   6 C      0.025  1.045  2.930  0.000    20.114     6.378
 410   6 C      0.267  1.036  2.696  0.000    22.488     7.766
 411   8 O     -0.563  1.768  4.795  0.000    25.224     6.734
 412   6 C     -0.074  1.008  3.066  0.000    21.867     6.649
 413   6 C     -0.070  1.001  3.069  0.000    21.785     6.636
 414   6 C      0.009  1.008  2.983  0.000    20.414     6.430
 415   1 H      0.035  0.965  0.000  0.000     2.510     2.477
 416   1 H      0.061  0.939  0.000  0.000     2.183     2.310
 417   1 H      0.044  0.956  0.000  0.000     2.392     2.419
 418   1 H      0.040  0.960  0.000  0.000     2.446     2.446
 419   1 H      0.044  0.956  0.000  0.000     2.395     2.420
 420   1 H      0.034  0.966  0.000  0.000     2.523     2.484
 421   1 H      0.035  0.965  0.000  0.000     2.514     2.479
 422   7 N     -0.137  1.215  3.922  0.000    23.962     7.270
 423   6 C      0.007  1.042  2.952  0.000    20.449     6.435
 424   6 C      0.218  1.071  2.711  0.000    23.392     7.921
 425   8 O     -0.367  1.749  4.618  0.000    21.033     6.149
 426   6 C     -0.032  1.045  2.987  0.000    21.107     6.533
 427   6 C     -0.084  1.001  3.082  0.000    22.077     6.686
 428   6 C     -0.145  0.984  3.161  0.000    23.319     6.880
 429   6 C     -0.137  0.981  3.157  0.000    23.168     6.858
 430   1 H      0.232  0.768  0.000  0.000     0.955     1.531
 431   1 H      0.099  0.901  0.000  0.000     1.792     2.093
 432   1 H      0.070  0.930  0.000  0.000     2.087     2.259
 433   1 H      0.064  0.936  0.000  0.000     2.156     2.296
 434   1 H      0.052  0.948  0.000  0.000     2.292     2.368
 435   1 H      0.072  0.928  0.000  0.000     2.063     2.246
 436   1 H      0.053  0.947  0.000  0.000     2.282     2.362
 437   1 H      0.065  0.935  0.000  0.000     2.141     2.288
 438   1 H      0.045  0.955  0.000  0.000     2.379     2.412
 439   1 H      0.052  0.948  0.000  0.000     2.298     2.370
 440   1 H      0.055  0.945  0.000  0.000     2.263     2.353
 441   7 N     -0.400  1.298  4.103  0.000    30.380     8.186
 442   6 C      0.038  1.030  2.932  0.000    19.943     6.360
 443   6 C      0.195  1.093  2.712  0.000    23.838     7.996
 444   8 O     -0.371  1.748  4.623  0.000    21.107     6.160
 445   6 C     -0.075  1.017  3.058  0.000    21.917     6.663
 446   6 C     -0.098  1.019  3.079  0.000    22.359     6.730
 447   6 C      0.352  1.036  2.612  0.000    21.015     7.502
 448   8 O     -0.673  1.784  4.888  0.000    27.974     7.091
 449   8 O     -0.647  1.790  4.857  0.000    27.307     7.006
 450   1 H      0.178  0.822  0.000  0.000     1.227     1.735
 451   1 H      0.050  0.950  0.000  0.000     2.324     2.384
 452   1 H      0.054  0.946  0.000  0.000     2.275     2.359
 453   1 H      0.069  0.931  0.000  0.000     2.096     2.264
 454   1 H      0.041  0.959  0.000  0.000     2.439     2.442
 455   1 H      0.044  0.956  0.000  0.000     2.395     2.420
 456   7 N     -0.398  1.300  4.098  0.000    30.312     8.177
 457   6 C      0.032  1.036  2.932  0.000    20.057     6.379
 458   6 C      0.188  1.108  2.704  0.000    23.975     8.018
 459   8 O     -0.385  1.774  4.611  0.000    21.393     6.201
 460   6 C     -0.086  1.014  3.073  0.000    22.127     6.694
 461   6 C     -0.089  1.013  3.076  0.000    22.188     6.705
 462   6 C     -0.101  1.017  3.084  0.000    22.418     6.738
 463   6 C     -0.036  0.999  3.037  0.000    21.289     6.581
 464   7 N     -0.119  1.152  3.968  0.000    23.589     7.214
 465   1 H      0.172  0.828  0.000  0.000     1.260     1.758
 466   1 H      0.073  0.927  0.000  0.000     2.055     2.242
 467   1 H      0.066  0.934  0.000  0.000     2.132     2.283
 468   1 H      0.060  0.940  0.000  0.000     2.199     2.319
 469   1 H      0.068  0.932  0.000  0.000     2.112     2.272
 470   1 H      0.072  0.928  0.000  0.000     2.060     2.244
 471   1 H      0.064  0.936  0.000  0.000     2.155     2.296
 472   1 H      0.070  0.930  0.000  0.000     2.083     2.257
 473   1 H      0.110  0.890  0.000  0.000     1.695     2.036
 474   1 H      0.103  0.897  0.000  0.000     1.760     2.075
 475   1 H      0.259  0.741  0.000  0.000     0.850     1.444
 476   1 H      0.270  0.730  0.000  0.000     0.809     1.409
 477   1 H      0.279  0.721  0.000  0.000     0.778     1.382
 478   7 N     -0.423  1.290  4.133  0.000    31.034     8.274
 479   6 C     -0.029  1.011  3.018  0.000    21.180     6.569
 480   6 C      0.333  1.058  2.610  0.000    21.344     7.560
 481   8 O     -0.663  1.797  4.866  0.000    27.712     7.058
 482   8 O     -0.642  1.775  4.866  0.000    27.169     6.988
 483   1 H      0.183  0.817  0.000  0.000     1.198     1.714
 484   1 H      0.028  0.972  0.000  0.000     2.618     2.530
 485   1 H      0.052  0.948  0.000  0.000     2.300     2.371
 486   1 H      0.095  0.905  0.000  0.000     1.831     2.116
 487   1 H      0.193  0.807  0.000  0.000     1.144     1.675
 488   1 H      0.064  0.936  0.000  0.000     2.155     2.296
 489   1 H      0.176  0.824  0.000  0.000     1.239     1.744
 490   1 H      0.070  0.930  0.000  0.000     2.088     2.259
 491   1 H      0.177  0.823  0.000  0.000     1.233     1.740
 492   1 H      0.084  0.916  0.000  0.000     1.939     2.178
 493   1 H      0.184  0.816  0.000  0.000     1.193     1.711
 494   1 H      0.093  0.907  0.000  0.000     1.847     2.125
 495   1 H      0.182  0.818  0.000  0.000     1.202     1.717
 496   1 H      0.060  0.940  0.000  0.000     2.194     2.316
 497   1 H      0.189  0.811  0.000  0.000     1.164     1.690
 498   1 H      0.075  0.925  0.000  0.000     2.032     2.229
 499   1 H      0.177  0.823  0.000  0.000     1.234     1.740
 500   1 H      0.062  0.938  0.000  0.000     2.178     2.308
 501   1 H      0.184  0.816  0.000  0.000     1.190     1.709
 502   1 H      0.076  0.924  0.000  0.000     2.018     2.221
 503   1 H      0.193  0.807  0.000  0.000     1.143     1.674
 504   1 H      0.077  0.923  0.000  0.000     2.014     2.219
 505   1 H      0.202  0.798  0.000  0.000     1.098     1.641
 506   1 H      0.080  0.920  0.000  0.000     1.982     2.201
 507   1 H      0.203  0.797  0.000  0.000     1.087     1.632
 508   1 H      0.064  0.936  0.000  0.000     2.151     2.293
 509   1 H      0.179  0.821  0.000  0.000     1.221     1.731
 510   1 H      0.085  0.915  0.000  0.000     1.932     2.173
 511   1 H      0.196  0.804  0.000  0.000     1.127     1.663
 512   1 H      0.084  0.916  0.000  0.000     1.941     2.179
 513   1 H      0.170  0.830  0.000  0.000     1.274     1.768

 Mol. C6AA /au·bohr⁶  :    2294538.934450
 Mol. C8AA /au·bohr⁸  :   50718835.693743
 Mol. α(0) /au        :       2260.900791

 
molecular dipole:
                 x           y           z       tot (Debye)
 q only:     -246.000    -256.083    -787.907
   full:     -242.185    -256.661    -785.606    2189.057
molecular quadrupole (traceless):
                xx          xy          yy          xz          yz          zz
 q only:   141309.815  -47862.330  138190.231 -145259.847 -150766.740 -279500.045
  q+dip:   141432.493  -47397.325  136641.275 -142522.602 -150691.530 -278073.769
   full:   141428.314  -47398.687  136640.519 -142521.880 -150688.288 -278068.833
speedup  1.78
cpu  time for grad   47.88 s
wall time for grad   26.96 s

SCC energy    :    -773.4924331
rep           :      14.5022966
ES            :       2.5907729
AES           :      -0.0830807
AXC           :       0.1624237
disp          :      -0.6355597
XB            :       0.0000000
fix           :       0.0000000
Gborn         :       0.0000000
Gsasa         :       0.0000000
Ghb           :       0.0000000
Gshift        :       0.0000000
Gsolv         :      -0.6601594     -414.26
Etot ala COSMO:    -773.4924331
grad norm     :       1.9745595
total E       :    -758.9260677
atomizationE  :     137.1945921    86090.91
(atE without considering molecular charge,
 total energy contains solvation terms)
H-L gap (eV)  :          1.1810

------------------------------------------------------------------------
 * finished run on 2019/05/12 at 13:11:56.733     
------------------------------------------------------------------------
 total:
 * wall-time:     0 d,  0 h,  0 min, 28.378 sec
 *  cpu-time:     0 d,  0 h,  0 min, 50.453 sec
 * ratio c/w:     1.778 speedup
 SCF:
 * wall-time:     0 d,  0 h,  0 min, 27.968 sec
 *  cpu-time:     0 d,  0 h,  0 min, 49.876 sec
 * ratio c/w:     1.783 speedup

