      -----------------------------------------------------------      
     |                   =====================                   |     
     |                           x T B                           |     
     |                   =====================                   |     
     |                         S. Grimme                         |     
     |          Mulliken Center for Theoretical Chemistry        |     
     |                    University of Bonn                     |     
     |                 Version 6.0.1 (SAW181210)                 |     
      -----------------------------------------------------------      

   This program is distributed in the hope that it will be useful,
   but WITHOUT ANY WARRANTY; without even the implied warranty of
   MERCHANTABILITY or FITNESS FOR A PARTICULAR PURPOSE.
   
   FOR NON-COMMERCIAL, ACADEMIA USE ONLY.
   
   Cite this work as:
   S. Grimme, C. Bannwarth, P. Shushkov, J. Comput. Theory Chem., 2017,
   13, 1989-2009.
   C. Bannwarth, S. Ehlert and S. Grimme., ChemRxiv, 2018, preprint.
   http://doi.org/10.26434/chemrxiv.7246238.v1
   
   for sTDA-xTB:
   S. Grimme and C. Bannwarth, J. Chem. Phys., 2016, 145, 054103.
   
   in the mass-spec context:
   V. Asgeirsson, C. Bauer and S. Grimme, Chem. Sci., 2017, 8, 4879.
   
   if GBSA is used:
   P. Shushkov, F. März and S. Grimme, unpublished.
   
   for ANC optimizer:
   S. Grimme, unpublished.
   Rational Function algorithm used in ANCopt:
   F. Eckert, P. Pulay, H.-J. Werner, J. Comput. Chem., 1997, 18, 1473.
   
   with help from (in alphabetical order)
   C. Bannwarth, F. Bohle, G. Brandenburg, E. Caldeweyher, M. Checinski,
   S. Dohm, S. Ehlert, S. Ehrlich, F. März, H. Neugebauer, J. Pisarek,
   P. Pracht, P. Shushkov, and S. Spicher.
   
 * started run on 2019/05/12 at 13:13:46.648     
========================================================================
 # omp threads = 2
========================================================================
number of atoms            : 822
number of electrons        : 2222
charge                     : -4
spin                       : .0
first test random number   : .6102

########################################################################
# WARNING! Please study the warnings concerning your input carefully
#  - Process number higher than OMP_NUM_THREADS, I hope you know what you are doing.
########################################################################

           ------------------------------------------------- 
          |                 G F N 2 - x T B                 |
          | Geometry, Frequencies, Noncovalent interactions |
          |            JCTC 2018 parametrisation            |
           ------------------------------------------------- 
 
      method parameters     
 k(s)        :  1.8500
 k(p)        :  2.2300
 k(d)        :  2.2300
 k(f)        :  2.0000
 kEN (H0ij)  : -2.0000
 D4 a1       :  0.5200
 D4 a2       :  5.0000
 D4 s6       :  1.0000
 D4 s8       :  2.7000
 D4 s9       :  5.0000
 alphaj      :  2.0000

 Solvent             : h2o
 Using internal parameter file: .param_gbsa2_h2o
 Gsolv ref. state (COSMO-RS): gsolv [1 M gas/solution]
 temperature (mdtemp)       :    298.150000000000     
 dielectric constant        :    80.2000000000000     
 rho                        :    1.00000000000000     
 mass                       :    18.0000000000000     
 surface tension            :    15.5689454083859     
 probe radius               :   0.975313790000000     
 vdW radii scaling          :    1.00000000000000     
 Gshift (Eh)                :   1.857443126794793E-003
 c1                         :    1.55243817000000     
 soset                      :   0.130326360000000     
 HB correction              :  T

            Z     q(EN)     CN     RAES       Cart. coordinates
     1  N   5.0   -0.20    3.23    1.96     4.14541    71.21131   150.63361
     2  C   4.0    0.03    4.31    4.21     6.33471    72.54817   151.60197
     3  C   4.0    0.07    3.25    3.04     8.73350    71.60027   150.30581
     4  O   6.0   -0.31    1.19    1.80     9.31793    69.34777   150.32719
     5  C   4.0   -0.02    4.34    4.28     6.57446    72.16795   154.47988
     6  C   4.0   -0.05    4.19    3.98     4.45057    73.60680   155.82099
     7  C   4.0   -0.08    4.14    3.88     9.16461    73.02900   155.40846
     8  C   4.0   -0.07    4.02    3.65     3.94113    72.61544   158.47307
     9  H   1.0    0.12    1.07    1.44     3.80858    69.46945   151.38464
    10  H   1.0    0.03    1.05    1.44     6.03597    74.54934   151.20596
    11  H   1.0    0.06    1.06    1.44     6.36264    70.14683   154.86826
    12  H   1.0    0.04    1.03    1.43     4.94063    75.60854   155.92481
    13  H   1.0    0.04    1.03    1.43     2.72270    73.41680   154.70782
    14  H   1.0    0.04    1.00    1.43     9.28919    72.79030   157.44520
    15  H   1.0    0.04    1.01    1.43    10.67543    71.92460   154.56070
    16  H   1.0    0.04    1.01    1.43     9.47137    75.01492   154.98065
    17  H   1.0    0.04    1.00    1.43     2.30088    73.55970   159.26941
    18  H   1.0    0.05    1.00    1.43     3.59867    70.58787   158.43531
    19  H   1.0    0.05    1.00    1.43     5.52863    72.96224   159.72668
    20  N   5.0   -0.20    3.25    1.97    15.82136    70.18323   149.73952
    21  C   4.0    0.03    4.42    4.41    18.02171    69.74654   151.29432
    22  C   4.0    0.15    3.44    3.09    20.31197    69.16176   149.64153
    23  O   6.0   -0.32    1.27    1.80    20.14345    67.80904   147.77200
    24  C   4.0   -0.02    4.27    4.15    17.62075    67.50414   153.10512
    25  C   4.0   -0.07    4.13    3.86    19.91509    67.19864   154.83037
    26  C   4.0   -0.08    4.13    3.85    15.21510    67.89467   154.64327
    27  H   1.0    0.13    1.07    1.44    15.10178    68.66997   148.79329
    28  H   1.0    0.04    1.06    1.44    18.36455    71.46268   152.39235
    29  H   1.0    0.05    1.05    1.44    17.40545    65.78773   151.96841
    30  H   1.0    0.04    1.00    1.43    19.54619    65.74823   156.23634
    31  H   1.0    0.05    1.00    1.43    21.59973    66.66399   153.78411
    32  H   1.0    0.05    1.00    1.43    20.31912    68.96286   155.80623
    33  H   1.0    0.04    1.00    1.43    14.95007    66.32300   155.93750
    34  H   1.0    0.03    1.00    1.43    15.34064    69.61302   155.75960
    35  H   1.0    0.05    1.00    1.43    13.57354    68.04143   153.42128
    36  N   5.0   -0.15    3.49    2.07    22.47321    70.20505   150.42268
    37  C   4.0    0.03    4.51    4.55    24.91870    69.57422   149.36986
    38  C   4.0    0.14    3.45    3.09    26.37489    68.13007   151.41086
    39  O   6.0   -0.32    1.29    1.80    26.72126    69.08433   153.50044
    40  C   4.0   -0.02    4.27    4.15    26.36134    71.96982   148.60197
    41  C   4.0   -0.07    4.14    3.89    29.11405    71.35127   148.04972
    42  C   4.0   -0.08    4.12    3.84    25.11484    73.17128   146.30872
    43  H   1.0    0.11    1.09    1.44    22.49232    71.23469   152.03611
    44  H   1.0    0.05    1.07    1.44    24.60690    68.37387   147.72234
    45  H   1.0    0.05    1.05    1.44    26.29007    73.30936   150.18401
    46  H   1.0    0.04    1.00    1.43    30.07076    73.01388   147.32121
    47  H   1.0    0.05    1.00    1.43    30.08976    70.75985   149.75729
    48  H   1.0    0.04    1.00    1.43    29.24880    69.84603   146.66506
    49  H   1.0    0.04    1.00    1.43    25.89807    75.03894   145.96709
    50  H   1.0    0.04    1.00    1.43    25.43116    72.01636   144.64002
    51  H   1.0    0.05    1.00    1.43    23.09071    73.37222   146.59655
    52  N   5.0   -0.15    3.45    2.05    27.09195    65.79772   150.78558
    53  C   4.0    0.03    4.49    4.52    28.58729    64.16914   152.40830
    54  C   4.0    0.14    3.45    3.10    31.22147    63.89234   151.23281
    55  O   6.0   -0.32    1.23    1.80    31.49438    63.05799   149.09117
    56  C   4.0   -0.02    4.28    4.15    27.41160    61.51539   152.64281
    57  C   4.0   -0.08    4.14    3.89    29.11091    59.85520   154.25525
    58  C   4.0   -0.08    4.11    3.82    24.76930    61.61029   153.77550
    59  H   1.0    0.08    1.06    1.44    26.86646    65.22786   148.96292
    60  H   1.0    0.06    1.06    1.44    28.72662    65.08323   154.25585
    61  H   1.0    0.05    1.06    1.44    27.30808    60.72954   150.73260
    62  H   1.0    0.03    1.00    1.43    28.27370    57.99495   154.46655
    63  H   1.0    0.05    1.01    1.43    30.96164    59.66352   153.39457
    64  H   1.0    0.04    1.00    1.43    29.33974    60.68853   156.12255
    65  H   1.0    0.03    1.00    1.43    23.97011    59.72220   153.81850
    66  H   1.0    0.04    1.00    1.43    24.82670    62.34649   155.69430
    67  H   1.0    0.04    1.00    1.43    23.54471    62.81859   152.65074
    68  N   5.0   -0.14    3.48    2.06    33.15168    64.52936   152.73981
    69  C   4.0    0.03    4.30    4.20    35.75349    64.38582   151.91117
    70  C   4.0    0.06    3.22    3.04    37.28631    62.93342   153.87849
    71  O   6.0   -0.32    1.16    1.80    37.02420    63.31862   156.14421
    72  C   4.0   -0.04    4.25    4.10    36.98281    67.01608   151.60608
    73  C   4.0   -0.03    4.18    3.97    35.23053    68.93864   150.36456
    74  C   4.0    0.24    3.10    3.02    36.75457    71.16101   149.17542
    75  O   6.0   -0.31    1.17    1.80    38.10840    70.58738   147.31794
    76  O   6.0   -0.31    1.16    1.80    36.50011    73.30615   150.08976
    77  H   1.0    0.11    1.10    1.44    32.81287    65.35360   154.43444
    78  H   1.0    0.05    1.06    1.44    35.72513    63.41979   150.08208
    79  H   1.0    0.05    1.03    1.43    37.55970    67.73371   153.45531
    80  H   1.0    0.04    1.03    1.43    38.68311    66.81638   150.45161
    81  H   1.0    0.05    1.03    1.43    34.19322    68.05333   148.81370
    82  H   1.0    0.05    1.02    1.43    33.88392    69.70242   151.72731
    83  N   5.0   -0.20    3.23    1.96    17.77635    64.30486   144.28787
    84  C   4.0    0.03    4.21    4.01    15.63534    62.74215   144.96122
    85  C   4.0    0.07    3.23    3.04    13.33695    64.41059   145.60906
    86  O   6.0   -0.30    1.20    1.80    13.60194    66.34676   146.86876
    87  C   4.0   -0.04    4.34    4.28    16.12389    61.26047   147.44349
    88  C   4.0   -0.02    3.55    3.14    18.36844    59.53254   147.34898
    89  C   4.0   -0.05    3.48    3.11    20.80916    60.51216   147.38620
    90  C   4.0   -0.05    3.46    3.10    18.03575    56.93097   147.28641
    91  C   4.0   -0.05    3.37    3.07    22.87664    58.91468   147.31632
    92  C   4.0   -0.05    3.37    3.07    20.10576    55.33564   147.23757
    93  C   4.0   -0.05    3.37    3.07    22.52900    56.32227   147.24204
    94  H   1.0    0.12    1.06    1.44    18.17992    65.70826   145.53771
    95  H   1.0    0.03    1.04    1.43    15.21800    61.45551   143.40369
    96  H   1.0    0.05    1.03    1.43    16.40243    62.65466   148.94326
    97  H   1.0    0.03    1.03    1.43    14.41901    60.18555   147.87737
    98  H   1.0    0.05    1.03    1.43    21.10522    62.52767   147.52690
    99  H   1.0    0.04    1.03    1.43    16.14822    56.15813   147.30517
   100  H   1.0    0.04    1.03    1.43    24.76444    59.69250   147.32220
   101  H   1.0    0.04    1.03    1.43    19.83229    53.31663   147.21815
   102  H   1.0    0.04    1.03    1.43    24.15839    55.09542   147.20504
   103  N   5.0   -0.20    3.27    1.97     6.94241    64.66312   149.68710
   104  C   4.0    0.03    4.41    4.40     6.21031    63.33807   151.96287
   105  C   4.0    0.14    3.49    3.11     3.63471    64.24643   152.89718
   106  O   6.0   -0.31    1.31    1.80     3.11665    66.50883   152.99641
   107  C   4.0   -0.02    4.26    4.12     8.26607    63.69042   154.01405
   108  C   4.0   -0.08    4.13    3.86     7.84662    61.82088   156.16186
   109  C   4.0   -0.08    4.15    3.89    10.88083    63.23445   152.87887
   110  H   1.0    0.13    1.07    1.44     7.63045    66.44562   149.92077
   111  H   1.0    0.03    1.06    1.44     6.13415    61.34111   151.44116
   112  H   1.0    0.05    1.05    1.44     8.15065    65.62326   154.74020
   113  H   1.0    0.03    1.00    1.43     9.38097    61.99266   157.51595
   114  H   1.0    0.05    1.00    1.43     6.06452    62.18639   157.11947
   115  H   1.0    0.03    1.00    1.43     7.87426    59.89921   155.43916
   116  H   1.0    0.04    1.00    1.43    12.29381    63.21987   154.36635
   117  H   1.0    0.03    1.00    1.43    10.92455    61.40816   151.93560
   118  H   1.0    0.06    1.00    1.43    11.38010    64.69787   151.53010
   119  N   5.0   -0.10    3.64    2.20     1.90928    62.48587   153.51709
   120  C   4.0    0.03    4.60    4.67    -0.43494    63.21780   154.76927
   121  C   4.0    0.16    3.45    3.10     0.00948    64.92511   157.05471
   122  O   6.0   -0.30    1.23    1.80     1.80021    64.70116   158.49470
   123  C   4.0   -0.04    4.35    4.30    -1.61506    60.71995   155.67808
   124  C   4.0   -0.05    4.26    4.11    -0.47742    58.75925   153.90482
   125  C   4.0   -0.02    4.38    4.35     2.20498    59.75037   153.56772
   126  H   1.0    0.04    1.05    1.44    -1.65419    64.21528   153.42658
   127  H   1.0    0.06    1.03    1.43    -1.02068    60.35862   157.62044
   128  H   1.0    0.05    1.02    1.43    -3.66656    60.79671   155.69675
   129  H   1.0    0.04    1.02    1.43    -0.51746    56.86796   154.70228
   130  H   1.0    0.03    1.03    1.43    -1.48675    58.76262   152.11275
   131  H   1.0    0.03    1.02    1.43     3.36144    59.18761   155.18312
   132  H   1.0    0.03    1.03    1.43     3.09006    59.08678   151.84698
   133  N   5.0   -0.15    3.50    2.08    -1.85510    66.60500   157.38137
   134  C   4.0    0.03    4.39    4.36    -1.93897    68.42902   159.41610
   135  C   4.0    0.15    3.42    3.08    -1.70642    67.13314   161.99343
   136  O   6.0   -0.33    1.28    1.80    -0.34404    68.01429   163.66103
   137  C   4.0   -0.05    4.29    4.17    -4.37549    69.96159   159.08886
   138  C   4.0   -0.04    4.21    4.01    -4.42982    72.43251   160.58530
   139  C   4.0    0.14    3.22    3.04    -6.58287    74.08461   159.62881
   140  O   6.0   -0.32    1.20    1.80    -8.78929    73.40838   159.70103
   141  N   5.0   -0.20    3.18    1.95    -5.88394    76.32428   158.67155
   142  H   1.0    0.07    1.08    1.44    -3.35087    66.59253   156.20146
   143  H   1.0    0.05    1.05    1.44    -0.29442    69.68535   159.26094
   144  H   1.0    0.04    1.04    1.43    -4.53229    70.43249   157.08108
   145  H   1.0    0.05    1.02    1.43    -6.00132    68.79665   159.59521
   146  H   1.0    0.04    1.03    1.43    -4.77031    72.04093   162.58027
   147  H   1.0    0.03    1.03    1.43    -2.63193    73.41458   160.38583
   148  H   1.0    0.07    1.03    1.43    -4.06935    76.88591   158.62214
   149  H   1.0    0.08    1.03    1.43    -7.22677    77.50384   158.01444
   150  N   5.0   -0.14    3.55    2.12    -3.03143    65.02909   162.30393
   151  C   4.0    0.04    4.43    4.43    -3.17383    63.77936   164.72319
   152  C   4.0    0.15    3.39    3.08    -1.91425    61.16723   164.63461
   153  O   6.0   -0.30    1.24    1.80    -2.93549    59.22321   165.33013
   154  C   4.0   -0.04    4.24    4.09    -5.89917    63.61110   165.72470
   155  C   4.0   -0.04    4.20    3.99    -7.94002    63.79398   163.68684
   156  C   4.0    0.25    3.14    3.03    -7.65117    61.72284   161.62507
   157  O   6.0   -0.32    1.31    1.80    -6.17968    62.21019   159.81725
   158  O   6.0   -0.30    1.16    1.80    -8.91576    59.76843   161.85780
   159  H   1.0    0.12    1.18    1.46    -4.19786    64.20439   160.93647
   160  H   1.0    0.05    1.07    1.44    -2.02606    64.89634   166.05145
   161  H   1.0    0.06    1.04    1.43    -6.09513    61.79542   166.68619
   162  H   1.0    0.03    1.02    1.43    -6.21283    65.12057   167.09662
   163  H   1.0    0.04    1.03    1.43    -9.77851    63.53326   164.58243
   164  H   1.0    0.04    1.02    1.43    -7.89658    65.65472   162.79027
   165  N   5.0   -0.13    3.49    2.07     0.50357    61.25308   163.86830
   166  C   4.0    0.03    4.41    4.40     2.21137    59.12455   164.12515
   167  C   4.0    0.15    3.43    3.09     4.00136    59.64414   166.33854
   168  O   6.0   -0.32    1.31    1.80     4.84255    61.79307   166.68489
   169  C   4.0   -0.04    4.36    4.30     3.75324    58.78142   161.69598
   170  C   4.0   -0.02    4.18    3.96     4.65137    56.06533   161.29726
   171  C   4.0   -0.07    4.11    3.82     2.41794    54.30169   160.80779
   172  C   4.0   -0.08    4.11    3.81     6.50315    55.96917   159.08805
   173  H   1.0    0.10    1.07    1.44     1.28160    62.92118   163.36826
   174  H   1.0    0.06    1.07    1.44     1.03747    57.47993   164.53484
   175  H   1.0    0.05    1.03    1.43     2.57587    59.37417   160.10823
   176  H   1.0    0.05    1.03    1.43     5.37579    60.05578   161.76417
   177  H   1.0    0.05    1.05    1.44     5.64084    55.46380   163.00938
   178  H   1.0    0.04    1.00    1.43     3.09179    52.47597   160.15344
   179  H   1.0    0.06    1.00    1.43     1.32639    54.02002   162.52080
   180  H   1.0    0.04    1.00    1.43     1.17441    55.09957   159.37948
   181  H   1.0    0.04    1.00    1.43     7.25999    54.07236   158.88223
   182  H   1.0    0.03    1.00    1.43     5.54572    56.47617   157.34471
   183  H   1.0    0.04    1.00    1.43     8.06233    57.26951   159.39568
   184  N   5.0   -0.14    3.46    2.05     4.57901    57.69884   167.83111
   185  C   4.0    0.05    4.48    4.51     6.33077    58.03671   169.90622
   186  C   4.0    0.17    3.48    3.11     9.05390    57.71436   168.99908
   187  O   6.0   -0.31    1.30    1.80     9.62560    56.36061   167.21285
   188  C   4.0    0.06    4.23    4.06     5.92832    56.23633   172.16582
   189  O   6.0   -0.26    2.17    1.85     7.23700    53.94006   171.73494
   190  C   4.0   -0.07    4.08    3.77     3.14495    55.75914   172.71250
   191  H   1.0    0.11    1.11    1.45     3.96500    55.91632   167.38719
   192  H   1.0    0.07    1.08    1.44     6.11167    59.97538   170.59013
   193  H   1.0    0.05    1.04    1.43     6.80325    57.19008   173.79915
   194  H   1.0    0.11    1.03    1.43     6.56881    52.71021   172.91512
   195  H   1.0    0.04    1.00    1.43     2.94678    54.60688   174.40267
   196  H   1.0    0.05    1.00    1.43     2.19350    57.54819   173.04471
   197  H   1.0    0.06    1.00    1.43     2.24250    54.82035   171.12563
   198  N   5.0   -0.15    3.49    2.07    10.76014    58.93442   170.39662
   199  C   4.0    0.04    4.46    4.48    13.44231    58.69325   169.90176
   200  C   4.0    0.16    3.49    3.11    14.30124    55.94382   170.07071
   201  O   6.0   -0.32    1.31    1.80    15.98195    55.14946   168.69646
   202  C   4.0   -0.04    4.38    4.34    14.95453    60.22614   171.81156
   203  C   4.0   -0.04    4.06    3.73    15.33509    62.93347   170.95681
   204  S   6.0   -0.06    2.54    3.10    17.48336    63.17394   168.30792
   205  C   4.0   -0.07    3.89    3.46    20.24213    61.56187   169.55206
   206  H   1.0    0.10    1.08    1.44    10.17024    60.25001   171.65374
   207  H   1.0    0.05    1.07    1.44    13.89191    59.35552   167.98364
   208  H   1.0    0.06    1.03    1.43    13.93757    60.24235   173.61001
   209  H   1.0    0.05    1.05    1.44    16.78708    59.33990   172.13770
   210  H   1.0    0.05    1.07    1.44    13.56862    63.78283   170.32215
   211  H   1.0    0.04    1.07    1.44    16.08979    64.06047   172.50910
   212  H   1.0    0.04    1.05    1.44    21.81987    62.16231   168.38982
   213  H   1.0    0.04    1.04    1.43    20.54705    62.13865   171.49450
   214  H   1.0    0.04    1.03    1.43    19.99540    59.52932   169.41235
   215  N   5.0   -0.14    3.50    2.08    13.20099    54.49781   171.82307
   216  C   4.0    0.04    4.49    4.52    13.99736    51.87606   172.03492
   217  C   4.0    0.16    3.53    3.13    13.30673    50.51245   169.58722
   218  O   6.0   -0.32    1.29    1.80    14.79354    49.13764   168.47498
   219  C   4.0    0.05    4.22    4.04    12.80289    50.53400   174.34866
   220  O   6.0   -0.27    2.12    1.84    13.78476    51.49352   176.62242
   221  C   4.0   -0.07    4.10    3.81    13.35862    47.70295   174.27445
   222  H   1.0    0.10    1.06    1.44    11.98218    55.22233   173.10161
   223  H   1.0    0.06    1.05    1.44    16.06176    51.81761   172.22501
   224  H   1.0    0.04    1.04    1.43    10.75050    50.84613   174.26117
   225  H   1.0    0.15    1.07    1.44    13.07620    53.16008   176.94633
   226  H   1.0    0.04    1.00    1.43    12.60925    46.83234   175.97429
   227  H   1.0    0.04    1.00    1.43    12.50893    46.83925   172.62151
   228  H   1.0    0.04    1.00    1.43    15.38792    47.40211   174.22219
   229  N   5.0   -0.14    3.53    2.10    10.91521    50.85351   168.84126
   230  C   4.0    0.03    4.42    4.42    10.01795    49.72203   166.51115
   231  C   4.0    0.16    3.50    3.11    11.85347    50.38404   164.37162
   232  O   6.0   -0.32    1.30    1.80    12.63693    48.79406   162.87997
   233  C   4.0   -0.04    4.28    4.15     7.35737    50.66764   165.89092
   234  C   4.0   -0.04    4.21    4.02     5.32194    49.40243   167.50824
   235  C   4.0    0.15    3.21    3.04     2.77851    50.74373   167.34130
   236  O   6.0   -0.33    1.29    1.80     2.51961    52.98123   166.78629
   237  N   5.0   -0.20    3.19    1.95     0.78240    49.30270   167.91540
   238  H   1.0    0.10    1.10    1.44     9.80902    52.18395   169.66625
   239  H   1.0    0.05    1.05    1.44    10.04333    47.65788   166.70705
   240  H   1.0    0.07    1.03    1.43     7.31116    52.70917   166.17983
   241  H   1.0    0.04    1.03    1.43     6.96265    50.31088   163.89873
   242  H   1.0    0.03    1.03    1.43     5.09601    47.43615   166.94101
   243  H   1.0    0.04    1.03    1.43     5.90033    49.45007   169.48797
   244  H   1.0    0.07    1.03    1.43     0.95763    47.46457   168.36917
   245  H   1.0    0.09    1.03    1.43    -0.95225    50.09116   167.89073
   246  N   5.0   -0.14    3.52    2.09    12.49883    52.81825   164.24967
   247  C   4.0    0.04    4.47    4.49    14.07267    53.71252   162.20364
   248  C   4.0    0.16    3.49    3.11    16.66205    52.43025   162.22838
   249  O   6.0   -0.32    1.29    1.80    17.57590    51.54670   160.28975
   250  C   4.0   -0.04    4.35    4.29    14.36092    56.57341   162.35534
   251  C   4.0   -0.02    3.56    3.15    15.59276    57.66381   160.03364
   252  C   4.0   -0.04    3.48    3.10    14.77944    57.01479   157.61541
   253  C   4.0   -0.05    3.47    3.10    17.53107    59.41268   160.28192
   254  C   4.0   -0.05    3.38    3.07    15.90613    58.06503   155.50767
   255  C   4.0   -0.05    3.39    3.07    18.60853    60.52124   158.16539
   256  C   4.0   -0.05    3.37    3.07    17.81464    59.83772   155.76877
   257  H   1.0    0.11    1.10    1.44    11.70366    54.10926   165.42091
   258  H   1.0    0.05    1.06    1.44    13.18359    53.16274   160.41196
   259  H   1.0    0.04    1.03    1.43    12.46525    57.36570   162.57379
   260  H   1.0    0.05    1.03    1.43    15.46094    57.05947   164.02916
   261  H   1.0    0.04    1.03    1.43    13.24003    55.69993   157.37081
   262  H   1.0    0.04    1.03    1.43    18.19578    59.93608   162.13761
   263  H   1.0    0.04    1.03    1.43    15.28484    57.52107   153.64272
   264  H   1.0    0.04    1.04    1.43    20.09791    61.89271   158.41217
   265  H   1.0    0.04    1.03    1.43    18.66353    60.68788   154.12001
   266  N   5.0   -0.14    3.53    2.10    17.79747    52.39320   164.47675
   267  C   4.0    0.03    4.42    4.41    20.21236    51.14324   164.84215
   268  C   4.0    0.16    3.51    3.12    19.99895    48.46378   163.76980
   269  O   6.0   -0.31    1.26    1.80    21.57821    47.61624   162.30296
   270  C   4.0   -0.05    4.34    4.27    20.95002    51.18421   167.62759
   271  C   4.0   -0.03    4.17    3.94    23.81338    51.06981   168.09210
   272  C   4.0   -0.09    4.10    3.80    24.34135    51.34046   170.92625
   273  C   4.0   -0.08    4.11    3.81    25.02181    48.63470   167.11863
   274  H   1.0    0.12    1.11    1.45    16.99642    53.22532   166.00784
   275  H   1.0    0.04    1.05    1.44    21.65192    52.12861   163.71312
   276  H   1.0    0.05    1.04    1.43    20.23736    52.94641   168.42996
   277  H   1.0    0.05    1.03    1.43    20.01099    49.63165   168.60901
   278  H   1.0    0.03    1.05    1.44    24.67724    52.67442   167.11351
   279  H   1.0    0.03    1.00    1.43    26.36486    51.32948   171.28130
   280  H   1.0    0.04    1.00    1.43    23.55762    53.10357   171.63397
   281  H   1.0    0.03    1.00    1.43    23.48149    49.79090   171.96489
   282  H   1.0    0.03    1.00    1.43    27.03999    48.68964   167.50644
   283  H   1.0    0.04    1.00    1.43    24.17819    47.01236   168.05709
   284  H   1.0    0.05    1.01    1.43    24.75912    48.43948   165.09631
   285  N   5.0   -0.14    3.50    2.08    17.99407    47.13506   164.52221
   286  C   4.0    0.05    4.42    4.41    17.58403    44.58972   163.61509
   287  C   4.0    0.18    3.52    3.12    17.69387    44.46119   160.72729
   288  O   6.0   -0.28    1.24    1.80    18.96711    42.85838   159.64145
   289  C   4.0    0.03    4.17    3.93    15.01542    43.58246   164.48466
   290  O   6.0   -0.26    2.07    1.84    14.67226    41.19579   163.35115
   291  H   1.0    0.11    1.10    1.44    16.74971    47.86296   165.78596
   292  H   1.0    0.05    1.05    1.44    19.07612    43.32543   164.31130
   293  H   1.0    0.04    1.01    1.43    15.01095    43.43695   166.55410
   294  H   1.0    0.06    1.02    1.43    13.53919    44.90589   163.88592
   295  H   1.0    0.11    1.02    1.43    13.11352    40.46719   163.95308
   296  N   5.0   -0.14    3.53    2.10    16.28071    46.15557   159.52067
   297  C   4.0    0.04    4.51    4.55    16.09216    46.10099   156.79031
   298  C   4.0    0.16    3.48    3.11    18.70755    46.54169   155.61081
   299  O   6.0   -0.30    1.24    1.80    19.39025    45.43820   153.68739
   300  C   4.0   -0.02    4.33    4.25    14.16518    48.01214   155.75244
   301  C   4.0   -0.05    4.20    4.00    11.59192    47.72849   157.04662
   302  C   4.0   -0.08    4.15    3.90    13.89417    47.59269   152.90990
   303  C   4.0   -0.08    4.02    3.66     9.69392    49.69671   156.13794
   304  H   1.0    0.11    1.09    1.44    15.26877    47.44832   160.49942
   305  H   1.0    0.05    1.06    1.44    15.50470    44.18910   156.22570
   306  H   1.0    0.05    1.05    1.44    14.90020    49.91217   156.12043
   307  H   1.0    0.04    1.03    1.43    10.84630    45.84100   156.67330
   308  H   1.0    0.06    1.05    1.44    11.79926    47.91922   159.08204
   309  H   1.0    0.03    1.00    1.43    12.93818    49.18514   152.04127
   310  H   1.0    0.05    1.01    1.43    15.73416    47.37800   152.03021
   311  H   1.0    0.04    1.00    1.43    12.80534    45.88793   152.54852
   312  H   1.0    0.04    1.00    1.43     7.97671    49.58342   157.26124
   313  H   1.0    0.03    1.00    1.43    10.46836    51.59282   156.31413
   314  H   1.0    0.03    1.00    1.43     9.18618    49.38754   154.17403
   315  N   5.0   -0.13    3.51    2.08    20.17426    48.21999   156.77239
   316  C   4.0    0.04    4.43    4.44    22.70115    48.72674   155.85624
   317  C   4.0    0.09    3.25    3.04    24.39886    46.40949   156.19640
   318  O   6.0   -0.30    1.11    1.80    25.68546    45.59487   154.44868
   319  C   4.0   -0.02    4.35    4.30    23.68801    51.11265   157.16358
   320  C   4.0   -0.05    4.21    4.02    22.47141    53.40959   155.89363
   321  C   4.0   -0.08    4.14    3.87    26.55691    51.27287   157.08103
   322  C   4.0   -0.08    4.03    3.67    22.51472    55.70801   157.60815
   323  H   1.0    0.12    1.10    1.44    19.52547    49.21762   158.27396
   324  H   1.0    0.06    1.06    1.44    22.62197    49.03588   153.80480
   325  H   1.0    0.06    1.06    1.44    23.07727    51.03719   159.13757
   326  H   1.0    0.03    1.03    1.43    23.46439    53.82638   154.13487
   327  H   1.0    0.05    1.03    1.43    20.50793    52.97755   155.43917
   328  H   1.0    0.03    1.00    1.43    27.19306    53.11195   157.72992
   329  H   1.0    0.04    1.00    1.43    27.40277    49.84393   158.28025
   330  H   1.0    0.04    1.00    1.43    27.22578    50.98736   155.16010
   331  H   1.0    0.04    1.01    1.43    21.74262    57.33125   156.62797
   332  H   1.0    0.05    1.00    1.43    21.36203    55.37586   159.27645
   333  H   1.0    0.03    1.00    1.43    24.42656    56.16203   158.20437
   334  N   5.0   -0.21    3.25    1.97    30.46220    57.90620   170.07033
   335  C   4.0    0.03    4.33    4.25    29.53314    59.65919   168.16498
   336  C   4.0    0.15    3.40    3.08    29.27551    62.20677   169.52712
   337  O   6.0   -0.31    1.23    1.80    27.87013    62.43529   171.34345
   338  C   4.0   -0.05    4.35    4.29    27.01872    58.63749   167.17639
   339  C   4.0   -0.03    4.17    3.94    25.93601    60.05215   164.89742
   340  C   4.0   -0.08    4.11    3.82    27.79241    60.19242   162.68851
   341  C   4.0   -0.08    4.12    3.84    23.54142    58.70642   164.00453
   342  H   1.0    0.08    1.03    1.43    29.34695    57.73668   171.61149
   343  H   1.0    0.05    1.06    1.44    30.95465    59.78017   166.67941
   344  H   1.0    0.03    1.03    1.43    27.32523    56.66397   166.65592
   345  H   1.0    0.04    1.03    1.43    25.65712    58.70712   168.72514
   346  H   1.0    0.04    1.05    1.44    25.47314    61.98646   165.47144
   347  H   1.0    0.04    1.00    1.43    26.85237    61.00017   161.04861
   348  H   1.0    0.06    1.00    1.43    29.42356    61.35944   163.12661
   349  H   1.0    0.03    1.00    1.43    28.43950    58.30597   162.18755
   350  H   1.0    0.04    1.00    1.43    22.64788    59.78669   162.50704
   351  H   1.0    0.03    1.00    1.43    24.02325    56.85154   163.26733
   352  H   1.0    0.04    1.00    1.43    22.20283    58.47319   165.53958
   353  N   5.0   -0.14    3.46    2.05    30.80322    64.04069   168.68726
   354  C   4.0    0.03    4.38    4.34    31.15555    66.46750   169.91239
   355  C   4.0    0.15    3.47    3.10    30.19042    68.62918   168.24673
   356  O   6.0   -0.31    1.32    1.80    31.05122    68.97996   166.10840
   357  C   4.0   -0.04    4.40    4.38    33.99593    66.97674   170.23842
   358  C   4.0   -0.02    4.18    3.96    35.29362    65.26719   172.16213
   359  C   4.0   -0.09    4.11    3.81    38.05294    64.86556   171.44345
   360  C   4.0   -0.08    4.12    3.84    35.10615    66.44315   174.78010
   361  H   1.0    0.11    1.11    1.45    31.84727    63.76197   167.10496
   362  H   1.0    0.06    1.05    1.44    30.15428    66.43142   171.71854
   363  H   1.0    0.05    1.03    1.43    34.86630    66.71503   168.38138
   364  H   1.0    0.05    1.03    1.43    34.28109    68.95184   170.77667
   365  H   1.0    0.04    1.05    1.44    34.34748    63.42416   172.16699
   366  H   1.0    0.03    1.00    1.43    39.01052    63.68962   172.83087
   367  H   1.0    0.03    1.00    1.43    38.23065    63.95347   169.60882
   368  H   1.0    0.03    1.00    1.43    39.08474    66.64050   171.33476
   369  H   1.0    0.03    1.00    1.43    35.87490    65.16837   176.18884
   370  H   1.0    0.04    1.00    1.43    36.19336    68.19016   174.84634
   371  H   1.0    0.04    1.00    1.43    33.15250    66.86993   175.24632
   372  N   5.0   -0.14    3.48    2.07    28.40985    70.13548   169.21400
   373  C   4.0    0.04    4.55    4.61    27.56050    72.25290   167.69765
   374  C   4.0    0.16    3.47    3.10    29.75170    74.12254   167.51275
   375  O   6.0   -0.31    1.27    1.80    31.11369    74.61277   169.33141
   376  C   4.0   -0.02    4.25    4.11    25.07799    73.33087   168.70716
   377  C   4.0   -0.07    4.13    3.87    24.35309    75.71687   167.27821
   378  C   4.0   -0.08    4.12    3.85    22.98264    71.36001   168.44880
   379  H   1.0    0.10    1.08    1.44    28.00748    70.13050   171.08998
   380  H   1.0    0.05    1.07    1.44    27.22359    71.52724   165.78513
   381  H   1.0    0.05    1.06    1.44    25.31243    73.78055   170.71065
   382  H   1.0    0.04    1.01    1.43    22.50086    76.33699   167.89921
   383  H   1.0    0.07    1.01    1.43    25.67444    77.24972   167.61660
   384  H   1.0    0.05    1.00    1.43    24.28083    75.36399   165.25343
   385  H   1.0    0.03    1.00    1.43    21.25757    72.09485   169.27925
   386  H   1.0    0.04    1.00    1.43    22.62906    70.97343   166.46286
   387  H   1.0    0.04    1.00    1.43    23.49540    69.60944   169.38849
   388  N   5.0   -0.14    3.44    2.04    30.22986    74.95159   165.18142
   389  C   4.0    0.04    4.31    4.22    32.22446    76.72533   164.59101
   390  C   4.0    0.09    3.22    3.04    34.86377    75.82194   165.41410
   391  O   6.0   -0.31    1.14    1.80    36.58500    77.33639   165.62794
   392  C   4.0   -0.02    4.33    4.26    31.78207    79.32353   165.82975
   393  C   4.0    0.15    3.21    3.04    29.31165    80.55981   165.02164
   394  O   6.0   -0.30    1.21    1.80    27.56089    80.80613   166.50365
   395  N   5.0   -0.19    3.18    1.95    29.20083    81.30188   162.59068
   396  H   1.0    0.11    1.10    1.44    28.95209    74.62164   163.77795
   397  H   1.0    0.05    1.05    1.44    32.25601    76.93024   162.53262
   398  H   1.0    0.07    1.03    1.43    31.71483    79.06359   167.87254
   399  H   1.0    0.05    1.03    1.43    33.37591    80.54226   165.36356
   400  H   1.0    0.10    1.03    1.43    27.66053    82.26015   162.00800
   401  H   1.0    0.08    1.03    1.43    30.74803    81.36019   161.48995
   402  N   5.0   -0.22    3.23    1.96    32.73436    74.12893   174.56955
   403  C   4.0    0.03    4.28    4.16    30.43983    74.34811   176.05320
   404  C   4.0    0.15    3.39    3.07    29.28625    71.70379   176.40217
   405  O   6.0   -0.32    1.27    1.80    28.08006    70.65477   174.72469
   406  C   4.0    0.04    4.15    3.89    28.64015    76.20162   174.72352
   407  O   6.0   -0.26    2.04    1.83    27.10502    77.42179   176.51152
   408  H   1.0    0.11    1.05    1.44    32.47547    73.46370   172.79366
   409  H   1.0    0.04    1.05    1.44    30.96063    75.13532   177.89233
   410  H   1.0    0.05    1.01    1.43    29.78180    77.59310   173.68741
   411  H   1.0    0.05    1.01    1.43    27.49340    75.16001   173.35177
   412  H   1.0    0.12    1.03    1.43    25.86194    78.41738   175.61969
   413  N   5.0   -0.14    3.45    2.05    29.79806    70.57833   178.60365
   414  C   4.0    0.03    4.41    4.39    28.67175    68.16178   179.30416
   415  C   4.0    0.15    3.46    3.10    25.95061    68.67460   180.13837
   416  O   6.0   -0.31    1.25    1.80    25.48821    70.34002   181.68089
   417  C   4.0   -0.05    4.38    4.34    30.02830    66.96454   181.55172
   418  C   4.0   -0.03    4.17    3.95    32.48216    65.58587   180.90103
   419  C   4.0   -0.09    4.11    3.83    33.89295    65.02426   183.35460
   420  C   4.0   -0.08    4.11    3.82    31.94615    63.12345   179.49977
   421  H   1.0    0.07    1.06    1.44    30.61105    71.55289   180.04424
   422  H   1.0    0.05    1.05    1.44    28.69904    66.93227   177.64324
   423  H   1.0    0.04    1.03    1.43    30.43432    68.46353   182.91167
   424  H   1.0    0.05    1.03    1.43    28.74346    65.62728   182.46227
   425  H   1.0    0.03    1.05    1.44    33.65792    66.83728   179.74818
   426  H   1.0    0.03    1.00    1.43    35.74378    64.23820   182.94794
   427  H   1.0    0.03    1.00    1.43    34.16585    66.74366   184.45148
   428  H   1.0    0.04    1.00    1.43    32.83231    63.68659   184.50146
   429  H   1.0    0.03    1.00    1.43    33.68871    62.10008   179.13758
   430  H   1.0    0.04    1.01    1.43    30.73285    61.93662   180.65178
   431  H   1.0    0.04    1.00    1.43    31.02718    63.45847   177.69402
   432  N   5.0   -0.14    3.48    2.07    24.14563    67.21792   179.12426
   433  C   4.0    0.03    4.52    4.56    21.53326    67.98282   179.26879
   434  C   4.0    0.15    3.47    3.10    19.95804    66.00021   180.59731
   435  O   6.0   -0.31    1.34    1.80    20.68126    63.85366   181.04597
   436  C   4.0   -0.02    4.26    4.12    20.48913    68.58667   176.60515
   437  C   4.0   -0.07    4.11    3.82    21.92370    70.80661   175.44156
   438  C   4.0   -0.07    4.12    3.84    20.59984    66.28214   174.87551
   439  H   1.0    0.08    1.07    1.44    24.57966    65.88551   177.83176
   440  H   1.0    0.06    1.07    1.44    21.48464    69.71023   180.41462
   441  H   1.0    0.04    1.05    1.44    18.50939    69.15183   176.82230
   442  H   1.0    0.04    1.00    1.43    21.06642    71.32613   173.65079
   443  H   1.0    0.05    1.00    1.43    21.83605    72.44876   176.67715
   444  H   1.0    0.07    1.01    1.43    23.89594    70.34532   175.10436
   445  H   1.0    0.04    1.00    1.43    19.64256    66.73049   173.11332
   446  H   1.0    0.05    1.00    1.43    22.53807    65.77742   174.41163
   447  H   1.0    0.06    1.00    1.43    19.67079    64.66623   175.74772
   448  N   5.0   -0.14    3.47    2.06    17.65596    66.77980   181.31500
   449  C   4.0    0.05    4.44    4.44    15.94435    64.89318   182.30645
   450  C   4.0    0.16    3.53    3.13    15.47097    62.91030   180.23986
   451  O   6.0   -0.32    1.26    1.80    14.54830    63.50410   178.20037
   452  C   4.0    0.03    4.16    3.93    13.40383    66.05665   183.02837
   453  O   6.0   -0.26    2.10    1.84    11.73683    64.04758   183.57940
   454  H   1.0    0.08    1.06    1.44    16.99952    68.50496   180.84748
   455  H   1.0    0.06    1.05    1.44    16.83105    64.00491   183.95461
   456  H   1.0    0.04    1.01    1.43    13.65909    67.29770   184.66097
   457  H   1.0    0.05    1.01    1.43    12.68304    67.16992   181.43183
   458  H   1.0    0.11    1.02    1.43    10.31919    64.72297   184.50668
   459  N   5.0   -0.14    3.49    2.07    16.02174    60.52351   180.84993
   460  C   4.0    0.04    4.46    4.48    15.50042    58.48310   179.10643
   461  C   4.0    0.15    3.38    3.07    12.66506    57.85981   178.98833
   462  O   6.0   -0.33    1.29    1.80    11.86400    56.30990   177.46386
   463  C   4.0   -0.04    4.30    4.20    17.20354    56.19325   179.60530
   464  C   4.0   -0.04    4.04    3.70    19.97840    56.78932   179.08955
   465  S   6.0   -0.04    2.53    3.10    20.49636    57.67594   175.75757
   466  C   4.0   -0.07    3.88    3.43    23.92215    57.86321   175.63729
   467  H   1.0    0.08    1.06    1.44    16.87381    60.11539   182.50752
   468  H   1.0    0.06    1.10    1.44    15.94927    59.17997   177.19781
   469  H   1.0    0.04    1.03    1.43    17.00302    55.60608   181.57160
   470  H   1.0    0.05    1.04    1.43    16.60014    54.64406   178.38898
   471  H   1.0    0.06    1.06    1.44    20.64527    58.37025   180.22724
   472  H   1.0    0.04    1.06    1.44    21.13776    55.12890   179.45048
   473  H   1.0    0.05    1.05    1.44    24.39585    58.84183   173.89714
   474  H   1.0    0.06    1.06    1.44    24.57413    58.94457   177.24687
   475  H   1.0    0.03    1.04    1.43    24.70581    55.96590   175.63530
   476  N   5.0   -0.14    3.50    2.07    11.12589    59.15232   180.52996
   477  C   4.0    0.03    4.36    4.32     8.40610    59.02408   180.36425
   478  C   4.0    0.15    3.43    3.09     7.17722    61.21704   178.91347
   479  O   6.0   -0.31    1.28    1.80     4.87496    61.25371   178.63186
   480  C   4.0    0.03    4.17    3.93     7.25329    59.04971   183.05692
   481  O   6.0   -0.26    2.05    1.83     4.65144    58.59723   183.08588
   482  H   1.0    0.09    1.10    1.44    11.80582    60.48509   181.72865
   483  H   1.0    0.06    1.06    1.44     7.88390    57.26016   179.41389
   484  H   1.0    0.04    1.01    1.43     8.12037    57.54564   184.17551
   485  H   1.0    0.05    1.01    1.43     7.70032    60.88489   183.92424
   486  H   1.0    0.14    1.06    1.44     3.87130    59.57437   181.73870
   487  N   5.0   -0.13    3.47    2.06     8.67077    63.11204   178.16730
   488  C   4.0    0.04    4.37    4.33     7.61477    65.29321   176.88956
   489  C   4.0    0.16    3.44    3.09     6.66576    64.58060   174.25979
   490  O   6.0   -0.31    1.27    1.80     7.56748    62.80172   173.08081
   491  C   4.0   -0.07    4.13    3.85     9.61938    67.33687   176.54759
   492  H   1.0    0.10    1.08    1.44    10.58222    62.98370   178.22016
   493  H   1.0    0.06    1.05    1.44     6.00130    65.99780   177.98161
   494  H   1.0    0.05    1.00    1.43     9.03526    68.67897   175.10702
   495  H   1.0    0.05    1.00    1.43     9.90008    68.37775   178.29628
   496  H   1.0    0.06    1.00    1.43    11.39509    66.47202   175.97992
   497  N   5.0   -0.14    3.49    2.07     4.85703    66.10658   173.40446
   498  C   4.0    0.04    4.47    4.49     3.95816    66.06718   170.83409
   499  C   4.0    0.16    3.48    3.11     5.61598    67.70541   169.13373
   500  O   6.0   -0.32    1.31    1.80     6.82768    69.51523   169.93617
   501  C   4.0    0.06    4.26    4.11     1.25178    67.17048   170.63032
   502  O   6.0   -0.26    2.15    1.85     1.26332    69.77252   171.19802
   503  C   4.0   -0.07    4.07    3.75    -0.60220    65.71394   172.28890
   504  H   1.0    0.11    1.11    1.44     4.23759    67.55631   174.51236
   505  H   1.0    0.06    1.06    1.44     3.99595    64.12285   170.13481
   506  H   1.0    0.05    1.04    1.43     0.68427    67.05266   168.63755
   507  H   1.0    0.14    1.08    1.44     1.58403    69.93695   173.03221
   508  H   1.0    0.04    1.00    1.43    -2.49777    66.44825   172.00610
   509  H   1.0    0.04    1.00    1.43    -0.57045    63.71802   171.81493
   510  H   1.0    0.06    1.00    1.43    -0.09278    65.95768   174.26594
   511  N   5.0   -0.15    3.53    2.10     5.49943    67.06811   166.70513
   512  C   4.0    0.04    4.51    4.55     6.83548    68.47274   164.78633
   513  C   4.0    0.15    3.47    3.10     5.87218    71.17372   164.62472
   514  O   6.0   -0.33    1.32    1.80     7.31440    72.90744   164.08605
   515  C   4.0   -0.04    4.37    4.33     6.61123    67.13102   162.25125
   516  C   4.0   -0.04    4.10    3.80     8.21159    64.75796   162.27812
   517  S   6.0   -0.06    2.57    3.10    11.55719    65.60553   162.31617
   518  C   4.0   -0.07    3.91    3.48    12.78443    62.43346   162.63095
   519  H   1.0    0.10    1.10    1.44     4.77910    65.35340   166.23877
   520  H   1.0    0.05    1.09    1.44     8.85012    68.61478   165.28171
   521  H   1.0    0.06    1.03    1.43     4.63911    66.66094   161.86295
   522  H   1.0    0.04    1.04    1.43     7.27644    68.39273   160.76185
   523  H   1.0    0.06    1.07    1.44     7.82527    63.62653   163.95796
   524  H   1.0    0.04    1.07    1.44     7.85569    63.65345   160.58809
   525  H   1.0    0.04    1.05    1.44    14.76127    62.58721   163.13978
   526  H   1.0    0.05    1.04    1.43    11.74401    61.48533   164.12566
   527  H   1.0    0.04    1.04    1.43    12.58961    61.45025   160.84346
   528  N   5.0   -0.14    3.54    2.10     3.42404    71.49527   165.06925
   529  C   4.0    0.03    4.35    4.30     2.30876    73.99214   165.23748
   530  C   4.0    0.16    3.50    3.12     3.80574    75.53804   167.16160
   531  O   6.0   -0.30    1.24    1.80     4.64441    77.63273   166.66694
   532  C   4.0   -0.07    4.12    3.85    -0.44083    73.76696   166.05618
   533  H   1.0    0.11    1.11    1.44     2.21444    70.00764   165.10461
   534  H   1.0    0.05    1.05    1.44     2.47481    74.95217   163.40778
   535  H   1.0    0.04    1.00    1.43    -1.37409    75.59013   165.95489
   536  H   1.0    0.05    1.01    1.43    -1.39349    72.42888   164.82940
   537  H   1.0    0.05    1.00    1.43    -0.55866    73.04758   167.97691
   538  N   5.0   -0.14    3.53    2.10     4.03672    74.45288   169.42435
   539  C   4.0    0.04    4.43    4.43     5.47084    75.68086   171.39249
   540  C   4.0    0.17    3.50    3.11     8.17159    76.17582   170.47537
   541  O   6.0   -0.29    1.30    1.80     9.09823    78.30122   170.58879
   542  C   4.0   -0.04    4.24    4.08     5.35799    74.11167   173.82260
   543  C   4.0   -0.03    4.18    3.96     2.73566    74.28956   175.03102
   544  C   4.0    0.24    3.09    3.02     2.14817    72.19609   177.01538
   545  O   6.0   -0.33    1.28    1.80     2.36806    69.93981   176.29321
   546  O   6.0   -0.30    1.16    1.80     1.40969    72.88981   179.12373
   547  H   1.0    0.10    1.09    1.44     3.35526    72.69431   169.77109
   548  H   1.0    0.06    1.06    1.44     4.65856    77.56030   171.75014
   549  H   1.0    0.07    1.03    1.43     5.80777    72.14917   173.36992
   550  H   1.0    0.05    1.02    1.43     6.78943    74.79239   175.14759
   551  H   1.0    0.05    1.03    1.43     2.51816    76.10196   175.97121
   552  H   1.0    0.05    1.03    1.43     1.29030    74.10556   173.56867
   553  N   5.0   -0.14    3.52    2.09     9.41622    74.21595   169.48788
   554  C   4.0    0.04    4.54    4.59    12.03254    74.58109   168.76894
   555  C   4.0    0.16    3.51    3.12    12.24628    76.80099   166.91803
   556  O   6.0   -0.32    1.28    1.80    14.05534    78.25022   166.93704
   557  C   4.0   -0.02    4.33    4.26    13.21055    72.20658   167.59942
   558  C   4.0   -0.05    4.19    3.98    12.88937    69.84221   169.24605
   559  C   4.0   -0.08    4.14    3.89    16.01217    72.67716   167.09464
   560  C   4.0   -0.08    4.02    3.66    13.86437    70.13593   171.93941
   561  H   1.0    0.11    1.10    1.44     8.63051    72.47102   169.47202
   562  H   1.0    0.05    1.05    1.44    13.10542    75.14643   170.45790
   563  H   1.0    0.05    1.05    1.44    12.24804    71.86292   165.79617
   564  H   1.0    0.06    1.04    1.43    10.90550    69.30157   169.31932
   565  H   1.0    0.04    1.03    1.43    13.91684    68.31287   168.31472
   566  H   1.0    0.03    1.00    1.43    16.85339    70.99440   166.27483
   567  H   1.0    0.05    1.00    1.43    16.27138    74.25155   165.80351
   568  H   1.0    0.04    1.00    1.43    16.99010    73.13965   168.83828
   569  H   1.0    0.04    1.00    1.43    13.73792    68.33371   172.91268
   570  H   1.0    0.03    1.00    1.43    15.82382    70.74451   171.95915
   571  H   1.0    0.04    1.00    1.43    12.74582    71.50827   172.98707
   572  N   5.0   -0.13    3.52    2.09    10.44612    76.91464   165.16812
   573  C   4.0    0.04    4.33    4.25    10.52025    78.73401   163.11536
   574  C   4.0    0.10    3.25    3.04    10.10388    81.38694   164.16785
   575  O   6.0   -0.29    1.12    1.80    11.50151    83.16970   163.67589
   576  C   4.0   -0.03    4.33    4.25     8.48324    78.04684   161.16976
   577  C   4.0   -0.02    3.55    3.14     8.76231    79.49909   158.74555
   578  C   4.0   -0.05    3.48    3.11    10.82555    79.03487   157.18433
   579  C   4.0   -0.05    3.45    3.10     6.99386    81.28676   158.00118
   580  C   4.0   -0.05    3.43    3.09    11.10056    80.27548   154.90584
   581  C   4.0   -0.04    3.43    3.09     7.25805    82.55880   155.73321
   582  C   4.0    0.06    3.44    3.09     9.30693    82.05237   154.15269
   583  O   6.0   -0.26    2.11    1.84     9.45591    83.28547   151.91767
   584  H   1.0    0.12    1.13    1.45     9.08687    75.56628   165.09629
   585  H   1.0    0.05    1.05    1.44    12.41251    78.70038   162.26280
   586  H   1.0    0.05    1.03    1.43     8.67664    76.02801   160.79236
   587  H   1.0    0.06    1.03    1.43     6.63304    78.36489   162.01796
   588  H   1.0    0.04    1.03    1.43    12.22528    77.67034   157.76654
   589  H   1.0    0.05    1.03    1.43     5.41497    81.69235   159.22358
   590  H   1.0    0.04    1.03    1.43    12.70746    79.87730   153.71441
   591  H   1.0    0.05    1.03    1.43     5.94745    84.02498   155.19604
   592  H   1.0    0.11    1.03    1.43    11.06955    82.88064   151.10639
   593  N   5.0   -0.18    3.27    1.97    11.22384    83.48105   169.37546
   594  C   4.0    0.04    4.33    4.26    13.16326    84.32007   171.09899
   595  C   4.0    0.15    3.42    3.08    15.79998    84.58367   169.95303
   596  O   6.0   -0.31    1.23    1.80    17.35624    85.98093   170.94343
   597  C   4.0   -0.02    4.28    4.16    13.32060    82.50759   173.33605
   598  C   4.0    0.25    3.10    3.02    10.87377    82.45000   174.97903
   599  O   6.0   -0.29    1.20    1.80     9.12408    83.90928   174.35045
   600  O   6.0   -0.28    1.16    1.80    10.83953    80.96408   176.79286
   601  H   1.0    0.12    1.05    1.44    10.59498    81.69453   169.65200
   602  H   1.0    0.05    1.05    1.44    12.64267    86.20988   171.78815
   603  H   1.0    0.06    1.03    1.43    13.65686    80.58086   172.67461
   604  H   1.0    0.06    1.02    1.43    14.89620    83.02197   174.56642
   605  N   5.0   -0.13    3.45    2.05    16.24023    83.29007   167.81088
   606  C   4.0    0.04    4.34    4.27    18.77974    83.14549   166.82481
   607  C   4.0    0.08    3.20    3.04    18.94995    83.50711   163.96292
   608  O   6.0   -0.30    1.13    1.80    20.94470    83.09418   162.84654
   609  C   4.0   -0.02    4.35    4.29    20.07014    80.60861   167.44985
   610  C   4.0   -0.01    3.56    3.15    19.93341    79.92493   170.19463
   611  C   4.0   -0.04    3.49    3.11    18.10795    78.22613   171.01671
   612  C   4.0   -0.04    3.46    3.10    21.59169    80.92063   171.96146
   613  C   4.0   -0.04    3.44    3.09    17.89727    77.56036   173.52506
   614  C   4.0   -0.05    3.43    3.09    21.39373    80.27672   174.49172
   615  C   4.0    0.07    3.44    3.09    19.51350    78.62706   175.30033
   616  O   6.0   -0.24    2.11    1.84    19.17156    77.99746   177.77589
   617  H   1.0    0.12    1.09    1.44    15.04874    81.84675   167.38893
   618  H   1.0    0.06    1.07    1.44    19.83997    84.68508   167.72500
   619  H   1.0    0.05    1.04    1.43    19.11925    79.15358   166.33876
   620  H   1.0    0.06    1.03    1.43    22.03063    80.75383   166.82728
   621  H   1.0    0.07    1.05    1.44    16.80678    77.46590   169.65270
   622  H   1.0    0.06    1.03    1.43    23.04343    82.22149   171.35550
   623  H   1.0    0.06    1.03    1.43    16.45393    76.27531   174.18019
   624  H   1.0    0.05    1.03    1.43    22.64024    81.13110   175.87030
   625  H   1.0    0.12    1.03    1.43    20.33135    78.92634   178.83822
   626  N   5.0   -0.21    3.24    1.96    19.16953    77.87967   153.71397
   627  C   4.0    0.03    4.42    4.41    20.18064    77.45556   156.22365
   628  C   4.0    0.15    3.46    3.10    22.31275    75.52829   155.93439
   629  O   6.0   -0.32    1.28    1.80    21.96564    73.45321   154.96684
   630  C   4.0   -0.02    4.25    4.11    18.17988    76.60825   158.14009
   631  C   4.0   -0.08    4.12    3.85    16.70246    74.31568   157.23392
   632  C   4.0   -0.07    4.14    3.88    19.51631    76.07986   160.63623
   633  H   1.0    0.08    1.02    1.43    18.46775    76.37151   152.76433
   634  H   1.0    0.04    1.06    1.44    20.96287    79.26647   156.85736
   635  H   1.0    0.04    1.05    1.44    16.88626    78.20683   158.39965
   636  H   1.0    0.03    1.00    1.43    15.35295    73.74112   158.67351
   637  H   1.0    0.04    1.00    1.43    15.67805    74.72937   155.50067
   638  H   1.0    0.05    1.01    1.43    17.99947    72.76143   156.89565
   639  H   1.0    0.04    1.00    1.43    18.15628    75.54863   162.08220
   640  H   1.0    0.05    1.00    1.43    20.87068    74.54555   160.43249
   641  H   1.0    0.05    1.00    1.43    20.51653    77.75201   161.30182
   642  N   5.0   -0.14    3.46    2.05    24.60109    76.32854   156.63736
   643  C   4.0    0.04    4.41    4.40    26.85599    74.82019   156.28461
   644  C   4.0    0.15    3.40    3.08    27.41612    73.28849   158.69340
   645  O   6.0   -0.32    1.28    1.80    27.24971    74.24242   160.80332
   646  C   4.0   -0.03    4.32    4.23    29.15220    76.50640   155.72967
   647  C   4.0   -0.02    3.52    3.12    29.23398    77.62295   153.10776
   648  C   4.0   -0.05    3.46    3.10    27.57111    79.51380   152.33339
   649  C   4.0   -0.04    3.47    3.10    31.13049    76.89579   151.44360
   650  C   4.0   -0.05    3.43    3.09    27.85209    80.71341   150.03241
   651  C   4.0   -0.05    3.43    3.09    31.41096    78.06228   149.12370
   652  C   4.0    0.06    3.44    3.09    29.80460    80.01537   148.40678
   653  O   6.0   -0.27    2.11    1.84    30.12012    81.30088   146.20362
   654  H   1.0    0.08    1.07    1.44    24.80285    77.96272   157.59584
   655  H   1.0    0.06    1.06    1.44    26.49909    73.51104   154.72484
   656  H   1.0    0.05    1.03    1.43    29.16278    78.02734   157.12862
   657  H   1.0    0.05    1.04    1.43    30.84861    75.36591   156.00782
   658  H   1.0    0.05    1.03    1.43    26.06091    80.13983   153.55671
   659  H   1.0    0.06    1.03    1.43    32.46625    75.43874   151.95166
   660  H   1.0    0.05    1.03    1.43    26.61653    82.25231   149.51316
   661  H   1.0    0.05    1.03    1.43    32.93656    77.46643   147.89989
   662  H   1.0    0.11    1.03    1.43    31.49801    80.57237   145.24105
   663  N   5.0   -0.14    3.50    2.08    28.13454    70.92041   158.26784
   664  C   4.0    0.04    4.43    4.43    28.71350    69.08205   160.19075
   665  C   4.0    0.15    3.47    3.10    31.12506    67.70713   159.46539
   666  O   6.0   -0.31    1.31    1.80    31.51719    67.09227   157.26341
   667  C   4.0   -0.04    4.40    4.39    26.66648    67.03669   160.31620
   668  C   4.0   -0.04    4.07    3.75    24.11202    68.15481   160.96606
   669  S   6.0   -0.06    2.52    3.10    21.99307    65.56230   161.78088
   670  C   4.0   -0.07    3.88    3.43    19.08044    67.30619   162.29128
   671  H   1.0    0.12    1.11    1.45    28.05165    70.20927   156.48477
   672  H   1.0    0.06    1.06    1.44    28.92346    70.04477   162.00627
   673  H   1.0    0.05    1.03    1.43    26.55366    66.09044   158.48740
   674  H   1.0    0.04    1.05    1.44    27.19461    65.65024   161.74963
   675  H   1.0    0.04    1.06    1.44    24.23821    69.40905   162.60111
   676  H   1.0    0.05    1.06    1.44    23.31524    69.19091   159.37289
   677  H   1.0    0.04    1.05    1.44    17.76471    66.04381   163.22321
   678  H   1.0    0.03    1.04    1.43    19.48091    68.91463   163.50083
   679  H   1.0    0.04    1.03    1.43    18.31437    67.93002   160.49308
   680  N   5.0   -0.13    3.54    2.11    32.65725    67.12421   161.35958
   681  C   4.0    0.04    4.42    4.42    34.93001    65.70316   160.90215
   682  C   4.0    0.07    3.24    3.04    34.68269    63.20254   162.24265
   683  O   6.0   -0.32    1.22    1.80    33.28688    63.02239   164.09124
   684  C   4.0    0.05    4.25    4.10    37.21858    67.22676   161.85445
   685  O   6.0   -0.25    2.13    1.84    37.08642    69.69956   160.88083
   686  C   4.0   -0.08    4.08    3.76    39.68906    65.94568   161.17302
   687  H   1.0    0.12    1.11    1.44    32.23030    67.59217   163.16928
   688  H   1.0    0.08    1.09    1.44    35.10942    65.41327   158.86332
   689  H   1.0    0.05    1.04    1.43    37.10780    67.45510   163.90985
   690  H   1.0    0.12    1.03    1.43    37.24345    69.63777   159.06280
   691  H   1.0    0.03    1.00    1.43    41.22068    67.08776   161.92401
   692  H   1.0    0.03    1.00    1.43    39.79933    64.08997   162.03581
   693  H   1.0    0.05    1.00    1.43    39.83924    65.76222   159.13098
   694  N   5.0   -0.20    3.28    1.98     6.44660    54.58040   143.88164
   695  C   4.0    0.02    4.32    4.24     6.82334    53.46189   146.35417
   696  C   4.0    0.07    3.23    3.04     5.04960    51.22516   146.78852
   697  O   6.0   -0.31    1.13    1.80     3.70371    50.37205   145.12723
   698  C   4.0   -0.03    4.37    4.33     6.32159    55.65451   148.18366
   699  C   4.0   -0.06    4.14    3.88     7.64734    55.49587   150.75140
   700  C   4.0   -0.08    4.15    3.91     3.45157    56.07795   148.33834
   701  C   4.0   -0.09    4.02    3.66    10.46753    54.95740   150.47923
   702  H   1.0    0.07    1.04    1.43     5.14099    55.96940   143.80902
   703  H   1.0    0.03    1.05    1.44     8.76995    52.77510   146.42968
   704  H   1.0    0.03    1.08    1.44     7.16056    57.30387   147.26722
   705  H   1.0    0.03    1.03    1.43     7.43939    57.34195   151.64939
   706  H   1.0    0.03    1.02    1.43     6.76649    54.14592   152.03712
   707  H   1.0    0.03    1.00    1.43     2.69460    55.30910   150.08355
   708  H   1.0    0.03    1.00    1.43     3.06558    58.09001   148.22885
   709  H   1.0    0.05    1.01    1.43     2.47505    55.16036   146.77842
   710  H   1.0    0.03    1.00    1.43    11.40520    55.25143   152.28459
   711  H   1.0    0.03    1.00    1.43    10.82664    53.02271   149.89389
   712  H   1.0    0.03    1.00    1.43    11.29587    56.23823   149.10304
   713  N   5.0   -0.21    3.26    1.97    -0.70710    49.26287   152.67047
   714  C   4.0    0.03    4.30    4.20    -2.06540    50.19402   154.85414
   715  C   4.0    0.14    3.51    3.12    -2.91726    47.81174   156.27612
   716  O   6.0   -0.30    1.34    1.80    -3.25880    45.83852   155.08645
   717  C   4.0    0.02    4.11    3.83    -4.21570    52.01083   154.07280
   718  O   6.0   -0.27    2.07    1.83    -4.41721    53.93001   155.90876
   719  H   1.0    0.10    1.05    1.44    -1.25801    47.54889   152.02103
   720  H   1.0    0.04    1.05    1.44    -0.73028    51.29526   155.99278
   721  H   1.0    0.03    1.01    1.43    -3.72419    52.79886   152.22117
   722  H   1.0    0.04    1.01    1.43    -6.01047    50.98761   153.87820
   723  H   1.0    0.11    1.02    1.43    -5.41007    55.30685   155.25299
   724  N   5.0   -0.10    3.66    2.22    -3.15657    47.95329   158.75975
   725  C   4.0    0.03    4.49    4.52    -3.51872    45.76496   160.39909
   726  C   4.0    0.09    3.25    3.04    -3.97592    43.28245   158.99285
   727  O   6.0   -0.30    1.12    1.80    -2.22943    41.80558   158.70742
   728  C   4.0   -0.06    4.28    4.15    -5.53937    46.61653   162.33043
   729  C   4.0   -0.05    4.25    4.11    -5.94142    49.43766   161.76323
   730  C   4.0   -0.01    4.39    4.37    -3.55825    50.18112   160.30189
   731  H   1.0    0.05    1.06    1.44    -1.70970    45.47597   161.37498
   732  H   1.0    0.03    1.02    1.43    -7.28600    45.54314   162.20276
   733  H   1.0    0.03    1.02    1.43    -4.80612    46.35122   164.23284
   734  H   1.0    0.04    1.02    1.43    -7.58821    49.72028   160.56272
   735  H   1.0    0.04    1.02    1.43    -6.17552    50.56250   163.46250
   736  H   1.0    0.06    1.04    1.43    -3.79761    51.86907   159.16411
   737  H   1.0    0.04    1.02    1.43    -1.95413    50.43507   161.57880
   738  N   5.0   -0.21    3.22    1.96    16.76504    51.17564   189.05452
   739  C   4.0    0.02    4.14    3.87    19.47508    51.22549   189.33224
   740  C   4.0    0.07    3.20    3.04    20.40859    53.73284   190.43074
   741  O   6.0   -0.29    1.12    1.80    19.19089    55.69271   190.41998
   742  C   4.0   -0.09    4.10    3.80    20.76443    50.78077   186.78421
   743  H   1.0    0.08    1.03    1.43    15.99107    52.19817   187.64737
   744  H   1.0    0.02    1.05    1.44    19.90682    49.73269   190.69975
   745  H   1.0    0.03    1.00    1.43    22.80380    50.68804   186.99370
   746  H   1.0    0.03    1.00    1.43    20.06769    49.04384   185.94092
   747  H   1.0    0.04    1.00    1.43    20.33270    52.33592   185.51005
   748  N   5.0   -0.20    3.27    1.97    28.54799    56.84675   190.62741
   749  C   4.0    0.02    4.23    4.05    31.17524    56.53645   189.98909
   750  C   4.0    0.06    3.22    3.04    32.84169    56.76512   192.34974
   751  O   6.0   -0.31    1.13    1.80    32.30349    58.19653   194.09043
   752  C   4.0   -0.04    4.34    4.27    32.01686    58.66553   188.19740
   753  C   4.0   -0.02    3.58    3.16    30.05818    59.19919   186.20494
   754  C   4.0   -0.06    3.46    3.10    30.00275    57.85536   183.94606
   755  C   4.0   -0.05    3.47    3.10    28.22888    61.03945   186.61974
   756  C   4.0   -0.05    3.45    3.09    28.20041    58.36356   182.13135
   757  C   4.0   -0.04    3.43    3.09    26.42279    61.57157   184.80514
   758  C   4.0    0.07    3.44    3.09    26.39835    60.24442   182.54089
   759  O   6.0   -0.26    2.15    1.85    24.69690    60.70960   180.70326
   760  H   1.0    0.09    1.03    1.43    27.98357    58.61278   191.10091
   761  H   1.0    0.02    1.05    1.44    31.36851    54.67740   189.10860
   762  H   1.0    0.04    1.03    1.43    32.31596    60.37702   189.31733
   763  H   1.0    0.02    1.03    1.43    33.81569    58.13902   187.33706
   764  H   1.0    0.04    1.03    1.43    31.39552    56.40735   183.60542
   765  H   1.0    0.05    1.03    1.43    28.20307    62.09400   188.36905
   766  H   1.0    0.05    1.03    1.43    28.15711    57.33030   180.37645
   767  H   1.0    0.07    1.03    1.43    24.98000    62.97598   185.16108
   768  H   1.0    0.15    1.07    1.44    23.45239    62.00083   181.16206
   769  N   5.0   -0.22    3.23    1.96    23.90572    64.43509   194.26149
   770  C   4.0    0.03    4.28    4.16    21.99805    63.63838   192.47095
   771  C   4.0    0.15    3.41    3.08    22.25470    64.88659   189.85561
   772  O   6.0   -0.30    1.22    1.80    21.13147    64.02613   188.03943
   773  C   4.0    0.03    4.16    3.92    19.31678    64.21498   193.43664
   774  O   6.0   -0.26    2.05    1.83    18.78535    66.81010   193.42736
   775  H   1.0    0.07    1.02    1.43    23.42589    65.85425   195.48339
   776  H   1.0    0.05    1.05    1.44    22.17687    61.59666   192.17385
   777  H   1.0    0.05    1.02    1.43    17.97925    63.31389   192.14593
   778  H   1.0    0.03    1.01    1.43    19.07325    63.42235   195.33504
   779  H   1.0    0.10    1.01    1.43    19.68413    67.56624   194.87661
   780  N   5.0   -0.14    3.56    2.12    23.74703    66.91572   189.77735
   781  C   4.0    0.04    4.32    4.23    24.22173    68.47230   187.59312
   782  C   4.0    0.07    3.24    3.04    26.12461    70.48394   188.42782
   783  O   6.0   -0.31    1.17    1.80    26.39335    70.92883   190.68556
   784  C   4.0   -0.03    4.29    4.18    21.76894    69.67263   186.62343
   785  C   4.0   -0.03    4.27    4.13    20.36529    71.04136   188.73186
   786  C   4.0    0.15    3.23    3.04    17.78191    71.82489   187.78290
   787  O   6.0   -0.29    1.20    1.80    17.46802    73.51615   186.24521
   788  N   5.0   -0.19    3.19    1.95    15.86487    70.44274   188.71402
   789  H   1.0    0.10    1.11    1.45    24.44985    67.65753   191.40051
   790  H   1.0    0.05    1.05    1.44    25.04387    67.33080   186.07195
   791  H   1.0    0.06    1.03    1.43    22.22563    70.96351   185.08561
   792  H   1.0    0.07    1.03    1.43    20.59258    68.14582   185.88453
   793  H   1.0    0.06    1.04    1.43    20.14639    69.80862   190.36692
   794  H   1.0    0.05    1.03    1.43    21.42324    72.71825   189.29632
   795  H   1.0    0.09    1.03    1.43    16.16027    69.15767   190.08662
   796  H   1.0    0.09    1.03    1.43    14.07652    70.91940   188.26064
   797  H   1.0    0.08    1.07    1.44    24.34826    63.11851   195.24299
   798  H   1.0    0.05    1.04    1.43    27.13548    71.42219   187.13596
   799  H   1.0    0.08    1.07    1.44     2.74360    72.12741   150.93066
   800  H   1.0    0.04    1.04    1.44     9.86986    72.81844   149.41372
   801  H   1.0    0.09    1.08    1.44    14.54812    70.76185   150.70730
   802  H   1.0    0.04    1.05    1.44    38.54016    61.63172   153.32668
   803  H   1.0    0.09    1.09    1.44    19.17097    63.33822   144.17302
   804  H   1.0    0.04    1.04    1.43    11.61445    63.92217   145.00450
   805  H   1.0    0.09    1.08    1.44     8.16663    63.79103   148.89130
   806  H   1.0    0.06    1.04    1.44    24.47362    45.53005   157.86735
   807  H   1.0    0.08    1.08    1.44    30.60189    56.35263   169.39249
   808  H   1.0    0.07    1.04    1.44    35.16640    73.99156   165.77356
   809  H   1.0    0.09    1.08    1.44    33.46247    75.65872   174.42069
   810  H   1.0    0.07    1.05    1.44     8.63983    81.73041   165.31226
   811  H   1.0    0.11    1.07    1.44     9.86516    84.49483   169.51260
   812  H   1.0    0.06    1.04    1.44    17.43442    84.08186   162.99137
   813  H   1.0    0.08    1.07    1.44    17.88170    78.98717   153.80043
   814  H   1.0    0.05    1.04    1.44    35.65108    61.70089   161.62755
   815  H   1.0    0.08    1.07    1.44     7.90737    55.26079   143.33776
   816  H   1.0    0.04    1.05    1.44     4.96295    50.40419   148.48839
   817  H   1.0    0.08    1.08    1.44    -0.90136    50.34840   151.37569
   818  H   1.0    0.05    1.04    1.43    -5.69461    42.88209   158.31692
   819  H   1.0    0.07    1.08    1.44    16.25253    49.57867   188.77242
   820  H   1.0    0.04    1.05    1.44    22.12069    53.83792   191.22366
   821  H   1.0    0.09    1.08    1.44    27.58421    56.39331   189.30149
   822  H   1.0    0.03    1.04    1.44    34.41568    55.73008   192.49907

  Z AO/shell   Hii/eV     exponent
  1     Wed Apr 25 08:07:45 CEST 2018   EN: 2.200 GM2: 0.406  GM3: 0.0800  RAES: 1.40
     1s    -10.707211    1.230000
  6     Wed Apr 25 08:07:45 CEST 2018   EN: 2.550 GM2: 0.538  GM3: 0.1500  RAES: 3.00
     2s    -13.970922    2.096432
     2p    -10.063292    1.800000
  7     Wed Apr 25 08:07:45 CEST 2018   EN: 3.040 GM2: 0.461  GM3:-0.0640  RAES: 1.90
     2s    -16.686243    2.339881
     2p    -12.523956    2.014332
  8     Wed Apr 25 08:07:45 CEST 2018   EN: 3.440 GM2: 0.452  GM3:-0.0517  RAES: 1.80
     2s    -20.229985    2.439742
     2p    -15.503117    2.137023
 16     Tue Apr 24 11:44:34 CEST 2018   EN: 2.580 GM2: 0.340  GM3:-0.0502  RAES: 3.10
     3s    -20.029654    1.981333
     3p    -11.377694    2.025643
     3d     -0.420282    1.702555
 no old-style atom pair restraining (fixing) potential

molecular fragmentation (1/2 indicates fragments):
111111111111111111122222222222222222222222222222222222222222222222222222
222222222222222222222222222222222222222222222222222222222222222222222222
222222222222222222222222222222222222222222222222222222222222222222222222
222222222222222222222222222222222222222222222222222222222222222222222222
222222222222222222222222222222222222222222222222222222222222222222222222
222222222222222222222222222222222222222222222222222222222222222222222222
222222222222222222222222222222222222222222222222222222222222222222222222
222222222222222222222222222222222222222222222222222222222222222222222222
222222222222222222222222222222222222222222222222222222222222222222222222
222222222222222222222222222222222222222222222222222222222222222222222222
222222222222222222222222222222222222222222222222222222222222222222222222
222222112222222222222222222222
# atoms in fragment 1/2:    21   801
 fragment masses (1/2) :      115.17     5539.62
CMA distance (Bohr)    :  17.543
constraining FC (au)   :  0.0500
           ------------------------------------------------- 
          |        Self-Consistent Charge Iterations        |
           ------------------------------------------------- 

 Ncao       : 2028
 Nao        : 2024
 Nshell     : 1220
 Nel        : 2222
 T(el)      :   500.0
 intcut     :    35.0
 scfconv/Eh :  0.100E-06
   qconv/e  :  0.100E-04
 intneglect :  0.100E-08
 broydamp   :      0.400
 iter      E             dE          RMSdq      gap      omega  full diag
   1  -1269.1147939 -0.126911E+04  0.461E+00    2.97       0.0  T
